energy_per_atom,energy,density,formation_energy_per_atom,total_magnetization_uB,total_magnetization_T,band_gap,sgr,num_sites,cell_volume,weight,mp_id,formula,URL,tsne_cry_lin1_0,tsne_cry_lin1_1,tsne_cry_lin2_0,tsne_cry_lin2_1
-6.4944955425,-51.95596434,7.324222259749278,-0.91958169875,0.095269,0.007626767013406469,0.0,38,8,145.57558856397932,642.0975,mp-1220386,Nd2CuSi3Rh2,https://materialsproject.org/materials/mp-1220386,9.969751584419758,66.40368093099934,-8.604250342815693,-0.5045126942092143
-7.278958859166668,-349.39002524,10.6843546623295,-0.6422943241666653,1.9041666666666668e-05,2.7887054090895535e-07,0.0,55,48,795.7556792751137,5120.106,mp-683893,HfGe2Rh,https://materialsproject.org/materials/mp-683893,32.419143349526124,53.13388240074593,-8.604250342815693,-0.5045126942092143
-7.334533835749999,-586.76270686,5.99211448062927,-2.659524637375,24.99999555,0.2849818532882153,0.0,230,80,1022.3512974306713,3689.1912,mp-14139,Sm3Fe5O12,https://materialsproject.org/materials/mp-14139,-23.4696712684802,-33.62067799236171,-5.290124568408685,-3.3996776503286315
-7.401131026666667,-66.61017924,8.936208487899874,-0.7665119183333329,1.0333333333333331e-06,6.9052472080041e-08,0.0,189,9,174.3968497514873,938.5185,mp-1080815,ZrSnRh,https://materialsproject.org/materials/mp-1080815,32.095875672223656,53.999226879436435,-8.604250342815693,-0.5045126942092143
-4.1766443525,-16.70657741,5.9674017356338585,-1.0842208080000004,0.0,0.0,0.006699999999999484,225,4,117.76031920589122,423.18976928,mp-862945,NaPmTe2,https://materialsproject.org/materials/mp-862945,-9.754301850808725,23.263493848165645,-8.139285398015252,2.2241420284765088
-4.423669884444443,-79.62605792,4.3498364391075945,-2.3398946103718767,1.9954628,0.08246075910829913,0.0733,74,18,282.01599128976295,738.7501322,mp-1225979,CsCoCuF6,https://materialsproject.org/materials/mp-1225979,-62.6343056243674,-14.399707392349727,-8.604250342815693,-0.5045126942092143
-4.9032221620000005,-24.51611081,5.603329691721336,-0.4601181675064659,2.2988164,0.2502452872288184,0.0,139,5,107.05718186543045,361.25419,mp-570091,Rb(CoSe)2,https://materialsproject.org/materials/mp-570091,21.787006826477672,21.10214328551581,-8.604250342815693,-0.5045126942092143
-5.687130093333334,-34.12278056,10.273220934478994,-0.4124147291666673,3.71e-05,5.0617941482994625e-06,0.0,216,6,85.41750027650183,528.4506,mp-568552,LuNi4Sn,https://materialsproject.org/materials/mp-568552,31.14416254123268,74.22687855654378,-8.604250342815693,-0.5045126942092143
-3.43460678625,-27.47685429,4.354040783316954,-0.1745227555468749,8.75e-07,4.4958061394436735e-08,0.0,194,8,226.8182025582531,594.732,mp-568128,GaSe,https://materialsproject.org/materials/mp-568128,39.15005185178928,11.367874975407055,-6.3617250531415515,1.0572802481287351
-7.215491513333332,-86.58589816,5.8351869703232175,-2.825915942555834,7.0000016,0.5295414870749039,0.0,139,12,154.0549211829406,541.3538900000001,mp-1218717,Sr2NdMn2O7,https://materialsproject.org/materials/mp-1218717,-32.801084885688994,5.732811286681622,-8.604250342815693,-0.5045126942092143
-7.018340514318182,-308.80698263,4.108857638382236,-2.0318581780681817,6.000000725,0.13038754495978472,1.8148,14,44,536.281261420497,1326.98076,mp-27156,V2Co2O7,https://materialsproject.org/materials/mp-27156,-12.401088579211704,-41.190557923313776,6.224443270702566,-1.78093106574892
-7.1645778914285705,-50.15204524,6.95707969987659,-2.8717052642857146,1.9999996,0.2374972161624671,0.7100999999999997,71,7,98.14062354124123,411.175,mp-765406,Nd2NiO4,https://materialsproject.org/materials/mp-765406,33.74068378814191,-10.561942783164767,-0.7412103173685115,-1.8456890123640128
-6.512088246666668,-78.14505896,9.847361018977304,-0.9870455716666662,5e-08,2.5555421656674414e-09,0.0,62,12,228.01550545960083,1352.182,mp-9529,DyGeRh,https://materialsproject.org/materials/mp-9529,15.86118663904644,63.24371965446011,-8.604250342815693,-0.5045126942092143
-5.019885993333333,-15.05965798,9.928619007525423,-0.4719533000000003,2.2e-06,3.176136033569497e-07,0.0,216,3,80.72369139308253,482.6594,mp-1206955,ErBiPd,https://materialsproject.org/materials/mp-1206955,49.53176479220261,20.485235207050433,3.295766321319185,-5.225010361593616
-5.242762232222223,-47.18486009,6.567613204047745,-0.3338096322222223,0.0,0.0,0.0,5,9,129.98048254887362,514.087,mp-1222183,Mg4B3Ir2,https://materialsproject.org/materials/mp-1222183,-17.733184171705258,40.857641063273284,-8.604250342815693,-0.5045126942092143
-10.02189626,-120.26275512,9.520234129689484,-0.6978383016666664,7.1995781,0.3633686991296326,0.0,62,12,230.9069265280034,1323.84,mp-19714,GdGeRu,https://materialsproject.org/materials/mp-19714,14.726690365768276,63.779741503774346,-8.604250342815693,-0.5045126942092143
-5.233248833999999,-26.16624417,2.769912403636685,-0.8508830819519992,0.0,0.0,1.4818999999999996,164,5,88.87306145685062,148.2474,mp-13146,Ca3N2,https://materialsproject.org/materials/mp-13146,25.13448551753944,-10.85665180632116,6.247876753493798,-4.006681771291211
-7.015449435,-154.33988757,5.9791180443144505,-0.568573568809091,0.36613720000000005,0.011826795087419038,0.0,2,22,360.7897670420217,1299.099,mp-1247465,Ba3Fe3N5,https://materialsproject.org/materials/mp-1247465,1.475123341922023,10.268600129120873,-8.604250342815693,-0.5045126942092143
-9.78989412,-39.15957648,7.9572587131042765,-0.4344622024999989,14.0165179,1.844638747591764,0.0,225,4,88.5536030865666,424.3465,mp-1185609,LiGd2Rh,https://materialsproject.org/materials/mp-1185609,9.5950336020929,43.472762237988604,-8.604250342815693,-0.5045126942092143
-6.682151026666666,-20.04645308,3.19015356533669,0.02951581416666708,0.0,0.0,1.6742,139,3,58.1115922426419,111.6414,mp-2630,SrC2,https://materialsproject.org/materials/mp-2630,30.248148215288907,-13.191127341992965,7.083225926338327,-1.6851267686347118
-8.6591456985,-173.18291397,5.621763415260713,-0.8306487074279986,0.0023178,8.19650182482981e-05,0.0,15,20,329.55267877829965,1115.70228,mp-989619,LaTcN3,https://materialsproject.org/materials/mp-989619,33.68924422479711,-9.111814238452512,-6.200926655635457,-2.174866155835627
-8.002380637222222,-144.04285147,5.8170446576146055,-0.6907199838355543,0.01171935,0.0007412315208246205,0.0,15,18,184.25830547566872,645.476418,mp-1246196,Sc2Co3N4,https://materialsproject.org/materials/mp-1246196,4.532174542718013,15.050735854030235,-8.604250342815693,-0.5045126942092143
-6.174298293611113,-222.27473857,5.161533570972192,0.16714082991444454,3.6275e-05,6.051355689363328e-07,0.3845000000000001,62,36,698.6057692290125,2171.51,mp-1246078,Sn4CN4,https://materialsproject.org/materials/mp-1246078,32.15878086109312,-5.877310564120742,4.384345736089333,-5.816794833019703
-3.66303610125,-175.82573286,4.130870028859303,-1.168634315727969,0.00268745,2.603285319714265e-05,1.1177,76,48,1203.0842772337064,2992.8744,mp-1219689,Rb6CuAgO4,https://materialsproject.org/materials/mp-1219689,16.874019324798823,-17.781430814080764,6.466487722094965,-3.1016878368023786
-4.105679458,-20.52839729,8.089250087927741,-0.6875545299999999,0.21830650000000001,0.019117524963243288,0.0,160,5,133.07988854008988,648.2934,mp-1215858,Yb2NiSb2,https://materialsproject.org/materials/mp-1215858,21.338133220499174,25.00870844970336,-8.604250342815693,-0.5045126942092143
-6.979512665714287,-97.71317732,6.006107956362776,-0.8951092853057138,0.00035215,1.1636079189205369e-05,0.0,176,14,352.69430904733787,1275.6822,mp-1246178,Ba3WN3,https://materialsproject.org/materials/mp-1246178,-11.785771221218042,34.444616920207466,-8.604250342815693,-0.5045126942092143
-4.88606672,-19.54426688,6.3271613363905574,-0.327717429999999,7.0635143,1.004117615094429,0.0,225,4,81.98108661440045,312.3730000000001,mp-865883,GdMgZn2,https://materialsproject.org/materials/mp-865883,-0.7051909588513257,96.902423299286,-8.604250342815693,-0.5045126942092143
-4.012006905,-8.02401381,6.201944863726138,-0.09761051499999952,0.0,0.0,0.0,221,2,19.4270823958982,72.55818199999999,mp-2323,BeCu,https://materialsproject.org/materials/mp-2323,3.7768672166721733,45.3035622549473,-8.604250342815693,-0.5045126942092143
-6.636642140769231,-172.55269566,5.156296541122802,-2.1042681785576933,12.999999800000001,0.4098235056121229,0.20330000000000004,186,26,369.67825817158655,1147.92286,mp-19151,BaYCo4O7,https://materialsproject.org/materials/mp-19151,-25.598407177916933,-28.892708284569665,-8.604250342815693,-0.5045126942092143
-4.8658748475,-38.92699878,7.419810492078412,-0.22381039999999966,1.1e-06,6.932284822233057e-08,0.0,6,8,184.92418558310482,826.2994,mp-1220196,Nd4Cu3Ni,https://materialsproject.org/materials/mp-1220196,-13.093079260524357,58.70299677408746,-8.604250342815693,-0.5045126942092143
-8.070736042,-40.35368021,14.319129843385316,-0.41742755899999934,2.3807102,0.3116274331315061,0.0,139,5,89.03244042633831,767.7429099999998,mp-21046,U(GeIr)2,https://materialsproject.org/materials/mp-21046,8.927990559719648,64.8314809821306,-8.604250342815693,-0.5045126942092143
-6.311167650694443,-908.8081417000001,4.6214010220195405,-2.3443133215277783,31.501156725,0.19098351859595744,0.0,1,144,1922.241895963661,5349.73912,mp-1076428,Sr5Ca3Fe4(CoO5)4,https://materialsproject.org/materials/mp-1076428,-32.24932314699069,-16.509058111911838,-8.604250342815693,-0.5045126942092143
-6.158980155416668,-147.81552373,9.890138675390633,-0.5333899777777779,3e-07,1.1144422517621178e-08,0.0,194,24,313.7192103260447,1868.5056,mp-17168,Er3Ni7B2,https://materialsproject.org/materials/mp-17168,29.966675038297893,84.82766085055775,-8.604250342815693,-0.5045126942092143
-6.218705944827587,-180.34247240000002,7.249730753529844,-0.6046869984482764,5.400000000000001e-06,1.5999090980124394e-07,0.0,225,29,393.34703359086114,1717.3098719999996,mp-570547,Sc6Ni16Ge7,https://materialsproject.org/materials/mp-570547,36.640051759159924,71.61974887439347,-8.604250342815693,-0.5045126942092143
-3.659686156,-36.59686156,4.4290444469153485,-1.9914925306140003,1.7477771,0.11633922833538365,0.0,225,10,175.08030457858524,466.9799577600001,mp-1114052,Na2HgPdF6,https://materialsproject.org/materials/mp-1114052,-28.448302496417607,21.506921150603567,-8.604250342815693,-0.5045126942092143
-2.5392520225,-10.15700809,6.5651710246434405,-0.3448886974999996,3.34e-05,4.90031876729374e-06,0.0,225,4,79.43274343731305,314.04835,mp-1187349,TbMgZn2,https://materialsproject.org/materials/mp-1187349,-0.6172818011641981,96.87503705107069,-8.604250342815693,-0.5045126942092143
-5.86947464,-93.91159424,5.107691093151011,-0.4698758449399998,1.9725e-05,7.54322834609652e-07,1.0503999999999998,14,16,304.7454181308148,937.3736,mp-1247246,SrSnN2,https://materialsproject.org/materials/mp-1247246,27.678269339425768,-8.862933705477953,6.286965267809906,-5.4261893159857095
-3.1531760492857144,-44.14446469,7.4139587395838245,-0.287158184642857,0.001092,4.2995292994563335e-05,0.0,21,14,295.99144104552084,1321.5397400000004,mp-1223267,La2(MgAg3)3,https://materialsproject.org/materials/mp-1223267,5.581319866338436,48.80291830322923,-8.604250342815693,-0.5045126942092143
-5.457571042173912,-125.52413397,6.511940627652166,-1.7594384249999997,11.3775094,0.4391489305485415,0.0,139,23,301.93454264452635,1184.0611800000001,mvc-29,Ba2Mg3Tl2(CoO3)4,https://materialsproject.org/materials/mvc-29,-26.966510459928518,-12.728356552640484,-8.604250342815693,-0.5045126942092143
-3.82787173,-22.96723038,1.664422393889521,-1.021502769273333,0.0,0.0,1.7866000000000002,166,6,77.04352520971891,77.22370000000002,mp-29149,Li4NCl,https://materialsproject.org/materials/mp-29149,25.04019612272381,-14.774330151706323,6.777116944838553,-0.9410037201568228
-3.493407463888889,-62.88133435,13.58547727348965,-0.3969723450000002,0.0037849000000000003,0.00011691135698704326,0.0,156,18,377.289862117926,3086.746366,mp-1227757,Ca3BiAu14,https://materialsproject.org/materials/mp-1227757,-9.721927082582754,48.90500418339323,-8.604250342815693,-0.5045126942092143
-5.140525965,-30.84315579,10.436933800206473,-0.3653157608333337,2e-06,2.782360629870768e-07,0.0,216,6,83.77105862873705,526.5236,mp-1207519,YbNi4Sn,https://materialsproject.org/materials/mp-1207519,29.37410958052805,73.68491786153754,-8.604250342815693,-0.5045126942092143
-8.36477824525,-334.59112981,7.933963382921153,-3.32160608275,0.004217800000000001,8.521131888254423e-05,0.0,156,40,576.8542846456482,2756.17776,mp-772523,Ba8LiTa7O24,https://materialsproject.org/materials/mp-772523,-41.308015932213564,28.58029379787988,-8.604250342815693,-0.5045126942092143
-7.102548027619048,-149.15350858,8.17164531646107,-0.7957184135714283,4.9951934,0.23068302332485624,0.0,174,21,252.3562705049308,1241.865374,mp-980937,Tb2Co12P7,https://materialsproject.org/materials/mp-980937,11.780458568900466,26.45654789354473,-8.604250342815693,-0.5045126942092143
-4.7070171178125,-150.62454777,12.09050256654665,-0.2672101778125002,0.00112263125,1.898392829045299e-05,0.0,2,32,689.1733419462607,5017.92,mp-1210215,PdPb,https://materialsproject.org/materials/mp-1210215,28.340966696022,39.14138083726432,-8.604250342815693,-0.5045126942092143
-5.67942475,-73.83252175,5.95977853859823,-1.873265238557693,0.00017590000000000002,1.2175694432600134e-05,0.0,47,13,168.36411301556296,604.2693386000002,mp-1255774,Ba2AlCu3O7,https://materialsproject.org/materials/mp-1255774,-45.40779572735861,-9.431195376384599,-8.604250342815693,-0.5045126942092143
-8.369825829090908,-92.06808412,2.9862592124910647,0.3226770990427277,1.4e-06,9.592363094357996e-08,0.0,155,11,170.0904200673979,305.8850599999999,mp-1245761,Nb2(CN2)3,https://materialsproject.org/materials/mp-1245761,-0.2471197282964671,-47.04410292643035,5.236222255961627,-3.06885062449413
-4.538232330487804,-186.06752555,6.134424370231176,-0.3041651231707317,1.6e-06,1.2305040474954491e-08,0.0,2,41,1515.3549209405967,5598.07986,mp-28470,Ta7(Te12I5)2,https://materialsproject.org/materials/mp-28470,56.35376297892978,27.71374812713318,-5.1691293929968385,-1.990244491948868
-7.100993443571428,-99.41390821,3.5152192263949003,-2.8211445957142858,0.99999995,0.08286439032942809,1.7166,74,14,140.6401971163442,297.7232772,mp-753631,LiAlVO4,https://materialsproject.org/materials/mp-753631,-32.890976377422625,-57.64278283682198,7.483584834103049,-3.363018033608677
-2.2622617798561153,-314.4543874,4.8666590931702025,-0.12473759234052745,0.0031198,8.595429569892242e-06,0.0,166,139,4229.963259170482,12397.052200000002,mp-641101,K34(Zn4In17)5,https://materialsproject.org/materials/mp-641101,-39.30700317520238,48.33757077052206,-8.604250342815693,-0.5045126942092143
-5.3690596025,-21.47623841,11.787627927978086,-0.7032596700000004,7e-07,9.940930662613836e-08,0.0,225,4,82.0631952647257,582.54,mp-1206592,DyPd2Pb,https://materialsproject.org/materials/mp-1206592,27.82879840760603,40.48602799589646,-8.604250342815693,-0.5045126942092143
-5.34093930826087,-245.68320818,6.505399450876127,-0.4696955269565224,6e-07,9.167169015694604e-09,0.0,14,46,762.7697112995786,2988.2595599999995,mp-1202639,Yb5(Co2Si7)2,https://materialsproject.org/materials/mp-1202639,20.87364991396539,68.20748637447471,-8.604250342815693,-0.5045126942092143
-6.0078814765,-240.31525906,7.703353459435817,-0.4351282833749998,3e-07,4.55256352644265e-09,0.0,223,40,767.9671928707463,3562.652,mp-1196347,Nd3Ge13Ru4,https://materialsproject.org/materials/mp-1196347,12.38668731200825,59.970285439436175,-8.604250342815693,-0.5045126942092143
-3.4630798866666668,-31.16771898,7.572739498019551,-0.3376687833333329,0.00021309999999999998,1.4323581667544635e-05,0.0,189,9,173.38409209895562,790.7026158,mp-1078543,YbAlCu,https://materialsproject.org/materials/mp-1078543,-8.008917976768814,67.68394739343839,-8.604250342815693,-0.5045126942092143
-4.743939019,-94.87878038,15.673083286181793,-0.4155373229999995,0.000305275,9.549498193122836e-06,0.0,62,20,372.5530443060629,3516.361104,mp-17813,ZrAu4,https://materialsproject.org/materials/mp-17813,25.047793841192604,40.92507626044711,-8.604250342815693,-0.5045126942092143
-6.93538515,-90.16000695,4.0549034272601086,-2.8908167026373617,1.0000001,0.05388372298577824,0.2608999999999999,12,13,216.28175063259968,528.142724,mp-9372,Ba2Cu(PO4)2,https://materialsproject.org/materials/mp-9372,-54.62795768629947,-18.09233066771316,0.7232249085025501,-2.282320884051109
-5.897272661666666,-212.30181582,4.353636712762695,-1.963122638177084,1.0,0.02142428936794883,0.5629999999999997,167,36,543.9650563156791,1426.1792,mp-759534,LiBi2(SO4)3,https://materialsproject.org/materials/mp-759534,25.83429255915111,-18.85668080924138,6.1396897311698915,-0.5127546049168368
-6.052848184545455,-532.65064024,3.386772855363584,-1.177770518627147,4.99999405,0.04031142159263932,0.27370000000000005,201,88,1445.5023469515384,2948.1921190000003,mp-704975,Cs5CeNi2(NO2)12,https://materialsproject.org/materials/mp-704975,-70.94205136702584,0.5755201823011435,-0.97080694148974,-1.9514748452263129
-4.3257323025,-69.21171684,6.633546737630781,-0.8029872181249993,0.0,0.0,0.0,140,16,393.330827101287,1571.284,mp-1105651,Ca5Pt3,https://materialsproject.org/materials/mp-1105651,-12.062789337794031,51.01726711432248,-8.604250342815693,-0.5045126942092143
-5.4537785775,-21.81511431,5.813517301184878,-0.2909755308333324,7.119036500000001,1.015777117096925,0.0,225,4,81.67708357747942,285.95,mp-865483,Li2GdIn,https://materialsproject.org/materials/mp-865483,-34.100159872919185,60.37983398431602,-8.604250342815693,-0.5045126942092143
-5.3126622920000015,-26.56331146,7.3981940319154,-0.5872061610000003,1e-07,1.4911921862519204e-08,0.0,139,5,78.15266791232278,348.19332,mp-4105,Ho(CuSi)2,https://materialsproject.org/materials/mp-4105,-3.6726702637108253,57.47063788215929,-8.604250342815693,-0.5045126942092143
-6.217468662678571,-348.17824511,3.4329846962357493,-2.171365800841836,0.96933295,0.017643895323977418,0.3173999999999997,61,56,640.2593519201282,1323.6668960000002,mp-762220,LiCuPO4,https://materialsproject.org/materials/mp-762220,-56.897496893199865,-15.545554492775118,3.6001764251187467,-0.13166755634232954
-6.2901194913461556,-327.08621355,3.5200362341879825,-2.2554986829807713,2.00000035,0.03995666430167702,0.11929999999999995,14,52,583.3353216890979,1236.5632,mp-759054,Li2Cu2Si2O7,https://materialsproject.org/materials/mp-759054,-57.44965997812719,-14.511383110894522,2.2801120041840104,-0.7780179543362732
-4.19918905875,-33.59351247,7.936693452011977,-0.34991993999999993,6e-07,4.2742199997202426e-08,0.0,194,8,163.59567041456654,781.9200000000002,mp-972063,YbGe3,https://materialsproject.org/materials/mp-972063,6.323155096841407,46.81600939616766,-8.604250342815693,-0.5045126942092143
-5.2395381725,-20.95815269,4.379000011071384,-1.4827316104999992,4.0000001,1.0790873051670282,0.9700000000000002,160,4,43.19971148991479,113.92176428,mp-1221066,NaCoO2,https://materialsproject.org/materials/mp-1221066,-35.423984368326074,-35.35812276756188,7.795546168161076,1.1879357739883252
-3.09644716,-12.38578864,0.6614652223957889,1.1873167724999996,0.0002838,4.2562251882311836e-06,0.0,71,4,777.0790867921512,309.54453860000007,mp-1095917,AlGaPd2,https://materialsproject.org/materials/mp-1095917,15.633382727919484,-12.222881283557308,6.131073524925295,-6.094553664543059
-4.2713244139999995,-42.71324414,3.5788773808483216,-2.5653798062806668,0.0,0.0,1.5779,225,10,156.62271187262985,337.56115776,mp-1111535,Na2GaAgF6,https://materialsproject.org/materials/mp-1111535,9.240860102177004,-16.064739373254238,8.374776488555838,-2.163169465657914
-8.286332799047619,-174.01298878,7.776254477157076,-0.20184985379809528,34.2929406,1.4699705646646342,0.0,8,21,271.8776556489215,1273.1949000000004,mp-1219270,Sm2V(Fe8N)2,https://materialsproject.org/materials/mp-1219270,61.25499824762885,75.28467856117311,-8.604250342815693,-0.5045126942092143
-4.788824724153846,-311.27360707,15.99834759916786,-0.624311534769231,0.0015344000000000002,1.2959612157589892e-05,0.0,174,65,1379.8250109315866,13293.827859,mp-1217580,Th14Au51,https://materialsproject.org/materials/mp-1217580,-9.541339706369817,59.21856911045696,-8.604250342815693,-0.5045126942092143