energy_per_atom,energy,density,formation_energy_per_atom,total_magnetization_uB,total_magnetization_T,band_gap,sgr,num_sites,cell_volume,weight,mp_id,formula,URL,tsne_cry_lin1_0,tsne_cry_lin1_1,tsne_cry_lin2_0,tsne_cry_lin2_1
-9.845179748571429,-275.66503296,9.41209344821624,-0.40854254872449147,0.73237625,0.015148285067027482,0.0,194,28,563.4406942844263,3193.6355240000007,mp-1194469,Zr9Re4P,https://materialsproject.org/materials/mp-1194469,27.09463884372173,60.423292943185,-8.604250342815693,-0.5045126942092143
-7.21464676,-43.28788056,6.792241682898108,-0.6081563383333327,0.31697115,0.03372042531126647,0.0,129,6,109.54791581168213,448.093,mp-20245,CeFeSi,https://materialsproject.org/materials/mp-20245,16.008140480171072,73.31943949493593,-8.604250342815693,-0.5045126942092143
-6.373902446875,-101.98243915,7.676465377604952,-1.6079646225000008,0.000467925,2.4626749542384e-05,0.0,2,16,221.43516136040142,1023.6672,mvc-5230,CaWO2,https://materialsproject.org/materials/mvc-5230,28.46067954903781,50.90518202026357,-8.604250342815693,-0.5045126942092143
-5.7916125675,-185.33160216,4.310444492474878,-1.856263604122499,14.0000001,0.5857863605894362,0.0,2,32,278.526300641532,723.001465,mp-1175694,Li9Mn2Co5O16,https://materialsproject.org/materials/mp-1175694,-84.40941492156334,-33.051660649037856,0.2952709819237544,-2.368869639917349
-6.257996094,-31.28998047,7.115971741293929,-0.9954132944759998,0.0001001,9.000357302061942e-06,0.0,221,5,129.6139524889716,555.43965,mp-1206822,Pr3SnN,https://materialsproject.org/materials/mp-1206822,-49.797687219765756,65.49383703103136,-8.604250342815693,-0.5045126942092143
-7.794700755499999,-155.89401511,7.882441515060557,-0.8857653603333333,1.0199999999999999e-05,4.2046087957834013e-07,0.0,127,20,282.71705277151887,1342.034472,mp-542020,Sc3B2Rh5,https://materialsproject.org/materials/mp-542020,29.73964047853952,50.590208865189005,-8.604250342815693,-0.5045126942092143
-10.345334325,-41.3813373,17.125314979458143,1.0914586240104158,0.0015073,0.00021393238033599388,0.0,221,4,82.11086046951131,846.818,mp-614895,Pu3In,https://materialsproject.org/materials/mp-614895,32.633721961734445,62.04955851445175,-8.604250342815693,-0.5045126942092143
-7.712985263888887,-138.83373475,8.217799600345689,-0.6858014438888884,9.5e-06,3.7119595085693494e-07,0.0,14,18,298.26191552932096,1476.06084,mp-1188982,Tm2Si4Mo3,https://materialsproject.org/materials/mp-1188982,51.82883158104546,58.841848539023026,-8.604250342815693,-0.5045126942092143
-7.766513512857142,-108.73118918,6.782128662668267,-0.002706535305713536,1.0620433999999999,0.09232944801450027,0.0,11,14,134.05389982322546,547.51546,mp-1245959,Mn(CoN)3,https://materialsproject.org/materials/mp-1245959,2.935173709074749,16.174276033846624,-8.604250342815693,-0.5045126942092143
-8.670384976,-86.70384976,9.25135396193599,-0.7828179050000003,14.31523125,0.7264254208051778,0.0,127,10,229.659683490638,1279.502,mp-603326,Gd2CdPd2,https://materialsproject.org/materials/mp-603326,10.188488293966136,35.52011690992496,-8.604250342815693,-0.5045126942092143
-7.6178083975,-30.47123359,7.396410845853068,-0.4549191775000008,1.15e-06,1.9909720660946983e-07,0.0,63,4,67.31472890391716,299.8348,mp-556,ZrNi,https://materialsproject.org/materials/mp-556,25.420036928236733,57.993094593831714,-8.604250342815693,-0.5045126942092143
-6.7169538625,-26.86781545,9.155971341026312,-0.7386742808333331,2e-07,3.1381369513341065e-08,0.0,225,4,74.27378061116953,409.53485,mp-866163,YInRh2,https://materialsproject.org/materials/mp-866163,31.943950759624734,55.998306251315654,-8.604250342815693,-0.5045126942092143
-6.9699158975,-27.87966359,12.824614927533908,-0.5821767862499998,7.8e-06,1.1205695645827312e-06,0.0,225,4,81.12098355965509,626.5106400000001,mp-863729,Ho2OsPd,https://materialsproject.org/materials/mp-863729,12.137047998629185,45.26272493450138,-8.604250342815693,-0.5045126942092143
-8.3343268675,-33.33730747,7.112627885314981,-0.4782808062499999,0.8223815000000001,0.21524959875119826,0.0,225,4,44.52545939392348,190.717,mp-4595,VFe2Si,https://materialsproject.org/materials/mp-4595,49.91121362114638,65.96545056127263,-8.604250342815693,-0.5045126942092143
-8.702839512999999,-174.05679026,13.39594782898393,-0.8790006029999999,1.395e-05,5.852475847832424e-07,0.0,127,20,277.787055947305,2240.971648,mp-1208997,Sc2TiB2Ir5,https://materialsproject.org/materials/mp-1208997,29.649788177155088,49.80824300664278,-8.604250342815693,-0.5045126942092143
-8.1371232525,-32.54849301,7.28205693754074,-0.8176154649999994,9.3e-06,1.6172773395655711e-06,0.0,225,4,67.01559450150874,293.88732400000004,mp-862372,Sc2RuRh,https://materialsproject.org/materials/mp-862372,20.63035418426675,52.81766060750904,-8.604250342815693,-0.5045126942092143
-4.116558396,-20.58279198,16.51372840966511,-0.6020254379999997,1.4499999999999998e-05,1.756386497727253e-06,0.0,87,5,96.21113543105636,956.800486,mp-1068348,TmAu4,https://materialsproject.org/materials/mp-1068348,-12.46188065179223,61.204169791794136,-8.604250342815693,-0.5045126942092143
-2.6801837425,-10.72073497,0.8901812787960044,1.6816895750000005,1.99e-05,2.935767451688201e-07,0.1181000000000001,71,4,789.9668239750242,423.485182,mp-1096574,MgBePt2,https://materialsproject.org/materials/mp-1096574,-48.85621760191021,50.0101946587479,-8.604250342815693,-0.5045126942092143
-4.619985174375,-73.91976279,9.317395672102087,-0.4072590518749992,0.39861820000000003,0.009812705648837485,0.0,140,16,473.4191046351737,2656.386276,mp-581281,Dy5SbAu2,https://materialsproject.org/materials/mp-581281,-7.186660004481026,31.985863801591684,-8.604250342815693,-0.5045126942092143
-5.591883936875,-89.47014299,4.677641771037677,-1.69268459375,2.500000075,0.20963917800172108,0.3685000000000001,12,16,138.9776619197338,391.49197999999996,mp-1097885,LiCoO2,https://materialsproject.org/materials/mp-1097885,-75.22749145906853,-32.08814413635983,2.2526089010161994,2.7800884304987887
-9.249145498333332,-110.98974598,15.766339096610498,-0.19923517916666592,0.00114635,5.974054308461783e-05,0.0,194,12,223.62764819698606,2123.28,mp-570007,SmOs2,https://materialsproject.org/materials/mp-570007,29.639784113024074,63.67148722639736,-8.604250342815693,-0.5045126942092143
-9.043812061666666,-54.26287237,7.0902433062994135,-3.0174248541666664,2.0000001,0.3363517082891237,0.7134,65,6,69.29690004871472,295.88698,mp-1173107,TaVO4,https://materialsproject.org/materials/mp-1173107,-23.492734704029697,-9.43106167638693,-8.604250342815693,-0.5045126942092143
-8.810039790967739,-273.11123352,8.154677654719075,-0.032694569588386464,0.9644703000000001,0.034602193464158736,0.0,8,31,324.83487958798247,1595.219185,mp-1222194,Mn29H2,https://materialsproject.org/materials/mp-1222194,58.16863646804457,68.69755416152695,-8.604250342815693,-0.5045126942092143
-7.782976818947367,-147.87655956,7.188206112791035,0.005311602155790011,2.2019455000000003,0.14844321635495192,0.0,12,19,172.87159435622328,748.3332949999998,mp-1246172,Mn3(CoN)8,https://materialsproject.org/materials/mp-1246172,2.7208868919561566,16.550469047136815,-8.604250342815693,-0.5045126942092143
-6.3268141,-25.3072564,1.3289553755058556,4.0323769674999985,0.330391,0.005939610536409537,0.0,71,4,648.2576745845553,518.8107600000002,mp-1093691,Ta2FeRu,https://materialsproject.org/materials/mp-1093691,-57.99363538661264,39.58574849445472,-8.604250342815693,-0.5045126942092143
-5.64710521631579,-107.29499911,7.612055932219277,-0.21207612289473696,0.0004067,9.543599024649143e-06,0.03639999999999999,204,19,496.63739337312273,2276.6291699999997,mp-1209134,Sm12Co6Sn,https://materialsproject.org/materials/mp-1209134,-31.346774771587967,69.51781197603589,-8.604250342815693,-0.5045126942092143
-4.7189182,-18.8756728,7.189183339970404,0.006264454374999673,0.0283161,0.002400266370169815,0.0,221,4,137.48376747157891,595.226,mp-1186262,Nd3Dy,https://materialsproject.org/materials/mp-1186262,-52.9043074058304,68.02133050798464,-8.604250342815693,-0.5045126942092143
-6.127456325,-36.76473795,10.374388053250287,-0.296224751666666,0.05631265,0.007318337818429765,0.0,74,6,89.6749080046286,560.25319,mp-1225312,DyCoNi,https://materialsproject.org/materials/mp-1225312,42.490453924104926,74.02324722679994,-8.604250342815693,-0.5045126942092143
-7.165722198181817,-78.82294418,10.680587513765484,-0.6687500009090893,1.8000000000000001e-06,1.2719235254397427e-07,0.0,71,11,164.9259265281295,1060.8036,mp-10076,Hf3(NiGe)4,https://materialsproject.org/materials/mp-10076,36.37864208842417,67.66541800013475,-8.604250342815693,-0.5045126942092143
-6.2591372566666665,-300.43858832,6.689343008544504,-0.5871313054166668,0.0,0.0,0.0,55,48,742.2343794425287,2990.029284,mp-21739,ScCoGe2,https://materialsproject.org/materials/mp-21739,21.87437679609572,68.78269439219169,-8.604250342815693,-0.5045126942092143
-9.044334605333335,-271.33003816,17.325674699279705,-0.04948930200000064,0.00062495,1.3597495667653405e-05,0.0,136,30,535.628615564625,5588.62329,mp-1194495,Ta2Au,https://materialsproject.org/materials/mp-1194495,8.731173852050096,73.5634741103731,-8.604250342815693,-0.5045126942092143
-6.591142739583333,-158.18742575,5.805501112617619,0.2602029092266681,4.875e-06,2.1626828903898803e-07,0.0,15,24,262.69947396673757,918.43796,mp-1245644,GaCo2N3,https://materialsproject.org/materials/mp-1245644,4.064946278333204,14.868339736253427,-8.604250342815693,-0.5045126942092143
-7.662450597931034,-222.21106734,7.47239212938075,-0.6616829649999996,0.050699,0.0015761764634500794,0.0,225,29,374.8624875483158,1686.8736199999998,mp-672680,Zr6Co16Si7,https://materialsproject.org/materials/mp-672680,48.48764891028268,50.4947688060769,-8.604250342815693,-0.5045126942092143
-7.281630579610388,-560.68555463,6.678628021780764,-2.239236386937975,3.7382795,0.038088095343660124,0.0,191,77,1143.825939255946,4600.4266,mp-761961,Rb5(WO3)18,https://materialsproject.org/materials/mp-761961,-17.191672455953046,0.7715509622367276,-8.604250342815693,-0.5045126942092143
-9.1654506775,-36.66180271,10.663326526666523,-0.8197686050000002,6.9020809000000005,0.9828289947687072,0.0,225,4,81.8426178940485,525.561,mp-1184497,GdDyRh2,https://materialsproject.org/materials/mp-1184497,16.664321959130152,51.18414092289184,-8.604250342815693,-0.5045126942092143
-7.455952872,-37.27976436,9.323962385180202,-0.3863522757500008,0.020730900000000003,0.0033042484813928324,0.0,139,5,73.11776119561594,410.5578,mp-571509,Np(SiNi)2,https://materialsproject.org/materials/mp-571509,13.944164497552345,74.48222292715808,-8.604250342815693,-0.5045126942092143
-7.875196774375,-126.00314839,6.96201138968613,-0.7994657225000008,5e-08,1.812247065658835e-09,0.0,193,16,321.53631238803814,1348.08,mp-17706,Zr5Ge3,https://materialsproject.org/materials/mp-17706,3.6939764524050474,78.91129698924547,-8.604250342815693,-0.5045126942092143
-5.538804635000001,-33.23282781,11.485500055849647,-0.36978592833333396,0.0289724,0.003953858281914306,0.0,216,6,85.39664351678104,590.6655189999999,mp-1077552,TbNi4Au,https://materialsproject.org/materials/mp-1077552,30.36475897121843,72.42582834102902,-8.604250342815693,-0.5045126942092143
-5.44434809,-54.4434809,8.936114272071755,-0.35656668399999986,1.505e-05,7.942881090867258e-07,0.0,12,10,220.8187090055917,1188.3257,mp-1079480,Tb3Ni2,https://materialsproject.org/materials/mp-1079480,2.0596753867405324,58.94268010497207,-8.604250342815693,-0.5045126942092143
-10.3611499375,-497.335197,15.81922333330009,-0.815822472499999,5.816666666666667e-05,7.326301145827095e-07,0.0,178,48,925.2664986660112,8814.606000000002,mp-1212499,Hf5Ir3,https://materialsproject.org/materials/mp-1212499,39.44938524852086,61.068639592899,-8.604250342815693,-0.5045126942092143
-7.2610929475,-29.04437179,8.224318133494537,-0.5329845262499989,8.290000000000001e-05,1.3676736790567865e-05,0.0,225,4,70.63980132391542,349.864824,mp-862300,Sc2GaOs,https://materialsproject.org/materials/mp-862300,17.162906990089684,57.24428799314139,-8.604250342815693,-0.5045126942092143
-5.855467099583334,-140.53121039,4.144714366653234,-1.9080682627883343,12.0000001,0.6620382698655068,0.4965000000000002,2,24,211.23971951732202,527.2554749999998,mp-1174838,Li7Mn2(CoO4)3,https://materialsproject.org/materials/mp-1174838,-76.11606825286395,-52.85611751625762,3.773974126985036,4.170572144335189
-6.2277078275,-24.91083131,13.406833917334248,-1.156030705,0.0001129,1.6307050642340444e-05,0.0,225,4,80.68558451678109,651.4380000000001,mp-865326,Lu2PdPt,https://materialsproject.org/materials/mp-865326,17.39974559202655,54.50589277525506,-8.604250342815693,-0.5045126942092143
-8.5762022525,-34.30480901,11.864398585379377,-0.2649564224999992,8.8e-05,1.4750647964416514e-05,0.0,225,4,69.52628131721674,496.75888,mp-861980,PaGaTc2,https://materialsproject.org/materials/mp-861980,56.66681413192377,45.29609684913477,-8.604250342815693,-0.5045126942092143
-7.476820585,-89.72184702,9.41616697671848,0.054873949999999866,0.004857075,0.00035270426981480696,0.0,38,12,160.487613844033,910.0527800000001,mp-1226367,CoGeMo,https://materialsproject.org/materials/mp-1226367,53.687508517784856,56.805221633999395,-8.604250342815693,-0.5045126942092143
-8.981403757999999,-179.62807516,8.797933630043554,-0.545837445583335,0.0021898000000000004,9.213533570143918e-05,0.0,38,20,276.9846209889327,1467.5308759999998,mp-1219392,Sc3Nb3(B2Ru5)2,https://materialsproject.org/materials/mp-1219392,41.02098668029878,58.14590409495042,-8.604250342815693,-0.5045126942092143
-5.738451982857143,-40.16916388,6.413992259353918,-0.27474673999999866,2.07e-05,1.9706398130391254e-06,0.0,139,7,122.41665838464212,472.84615439999993,mp-4410,Yb(Al2Mo)2,https://materialsproject.org/materials/mp-4410,10.856080002539816,90.60569582800557,-8.604250342815693,-0.5045126942092143
-10.334546036666667,-62.00727622,14.412192557205346,0.15641860708333274,0.00040149999999999995,4.6239267908071225e-05,0.0,227,6,101.1933626519628,878.28,mp-1036,NpRu2,https://materialsproject.org/materials/mp-1036,29.07932708167143,63.42433035638774,-8.604250342815693,-0.5045126942092143
-5.848638085,-23.39455234,11.057231144292489,-0.26696290125000033,7.6e-06,1.4251631472226333e-06,0.0,225,4,62.147896852413815,413.83168,mp-1186422,PaZnNi2,https://materialsproject.org/materials/mp-1186422,28.629934057840558,70.90599688342337,-8.604250342815693,-0.5045126942092143
-6.332761799999999,-25.331047199999997,13.116799354488325,-0.6024576525,0.3325224,0.0520614238963176,0.0,225,4,74.4358739715743,587.9780000000002,mp-865443,LuRh2Pb,https://materialsproject.org/materials/mp-865443,31.195002844049874,56.377374797722645,-8.604250342815693,-0.5045126942092143
-7.01094592,-84.13135104,8.409269296809805,-0.1783803770833335,0.8000441999999999,0.06081938047222436,0.0,156,12,153.30256334933858,776.35184,mp-1220646,Nb3SiNi8,https://materialsproject.org/materials/mp-1220646,28.88780552928275,72.95856830921682,-8.604250342815693,-0.5045126942092143
-5.0575883875,-20.23035355,7.9561433481152735,-0.2149700037500004,2.0600000000000003e-05,2.790285610098077e-06,0.0,225,4,86.03912568874668,412.2394,mp-1186454,Pm2CuNi,https://materialsproject.org/materials/mp-1186454,10.69576002566609,50.677563344788034,-8.604250342815693,-0.5045126942092143
-5.069612434,-50.69612434,9.382288044730561,-0.3441557739999993,5.15e-06,2.842283793385982e-07,0.0,129,10,211.16270556214627,1193.1001199999998,mp-980084,Th(CuSn)2,https://materialsproject.org/materials/mp-980084,-0.4295793093931953,45.73333284976749,-8.604250342815693,-0.5045126942092143
-6.6581331575,-26.63253263,13.364887446865055,-0.8048736333333331,5.3700000000000004e-05,8.448287260102855e-06,0.0,225,4,74.07694116201681,596.21,mp-571310,ZrInPt2,https://materialsproject.org/materials/mp-571310,32.1484237296162,41.83469820009081,-8.604250342815693,-0.5045126942092143
-6.38596162,-25.54384648,1.6859821070586456,3.847821285,1e-07,1.8199174949276425e-09,0.12019999999999965,71,4,640.3622584562846,650.174,mp-1096645,HfZrOs2,https://materialsproject.org/materials/mp-1096645,-61.01555932279917,35.19406550270555,-8.604250342815693,-0.5045126942092143
-7.975802893888888,-143.56445209,13.827246459557015,-0.5539274912962971,2e-07,9.993741367634721e-09,0.0,86,18,233.2272638213757,1942.0747,mp-978921,Tb(BIr)4,https://materialsproject.org/materials/mp-978921,13.1026576896085,39.32664712951494,-8.604250342815693,-0.5045126942092143
-5.289573675,-21.1582947,10.375703722763252,-0.4157730537499997,3.4e-06,4.90902238601781e-07,0.0,225,4,80.71631602162181,504.34742,mp-865351,Tm2ZnRu,https://materialsproject.org/materials/mp-865351,17.77579779343086,56.41402415441698,-8.604250342815693,-0.5045126942092143
-4.222268529583333,-101.33444471,5.716999406473567,-0.6552513462500004,0.000310775,5.847359455099542e-06,0.0,186,24,619.3893170931433,2132.4692,mp-1191159,LiPrSn,https://materialsproject.org/materials/mp-1191159,-0.2252097262174425,45.39483865499864,-8.604250342815693,-0.5045126942092143
-7.369499186774193,-228.45447479,5.738856208372248,-2.3190858337027653,2.9995042,0.07763781288245286,0.0,6,31,450.24988384578046,1556.0726240000001,mp-1223403,KP2(W3O11)2,https://materialsproject.org/materials/mp-1223403,-18.921922295201238,0.17936402696160944,2.089031183772037,-0.2872598927205715
-5.546127293333334,-33.27676376,11.734777383810865,-0.3853424041666672,0.0018859999999999999,0.00026032167032334007,0.0,216,6,84.43233378822141,596.670489,mp-1077340,HoNi4Au,https://materialsproject.org/materials/mp-1077340,30.335323219074358,72.39401301887463,-8.604250342815693,-0.5045126942092143
-6.875995229444443,-123.76791413,8.259410588671122,-0.24960142509259164,6.8484619,0.35628273144839206,0.0,191,18,224.01427723018384,1114.2320949999996,mp-5457,Pr3Co11B4,https://materialsproject.org/materials/mp-5457,42.13236361521918,83.64234603485009,-8.604250342815693,-0.5045126942092143
-5.6177657375,-22.47106295,12.453691385649812,-0.5846525649999998,0.0,0.0,0.0,194,4,83.68076121079686,627.5880000000001,mp-19856,SnPt,https://materialsproject.org/materials/mp-19856,43.001244719222136,41.28531516979275,-8.604250342815693,-0.5045126942092143
-6.460966268928572,-361.81411106,4.115019079768737,-1.9430984346700009,32.9999967,0.6760218401867214,0.16310000000000002,5,56,568.8930093291536,1409.78654,mp-769460,Li9Mn12Ni3O32,https://materialsproject.org/materials/mp-769460,-65.56161462420674,-38.760461183867676,3.0462254753827263,-0.2554331046312256
-8.463986628333332,-101.56783954,9.166044248973103,-0.5909615190476174,1.125e-06,7.872567480427455e-08,0.0,62,12,166.53808178495004,919.277048,mp-1103150,MoPRh,https://materialsproject.org/materials/mp-1103150,56.349268244570474,47.88195143669861,-8.604250342815693,-0.5045126942092143
-5.7870151278125,-185.18448409,4.210259444601607,-1.851666164435,21.999999600000002,0.8991262796816056,0.5082999999999998,2,32,285.15396127169004,723.001465,mp-1175612,Li9Mn2Co5O16,https://materialsproject.org/materials/mp-1175612,-73.22199917196906,-52.08740088780628,3.8451099363288512,2.730665596106632
-6.666265370571429,-466.63857594,6.468035114088727,-0.4079118485320196,5e-08,2.832171834944103e-10,0.0,176,70,2057.443095219133,8014.032711399998,mp-581635,Cs3Te17Mo15,https://materialsproject.org/materials/mp-581635,58.93426714311572,32.83234466174194,-8.604250342815693,-0.5045126942092143
-7.266075753333332,-43.59645452,10.988115996834424,-0.2813840050000008,0.6123177,0.07266142014809937,0.0,74,6,98.20878979023685,649.86703,mp-1223854,HoCoRu,https://materialsproject.org/materials/mp-1223854,31.080519079305674,62.88726704346625,-8.604250342815693,-0.5045126942092143
-5.805892785,-185.78856912,4.3049649001247765,-1.8705438216224997,13.9999999,0.5850416795034251,0.5176000000000003,1,32,278.88082399345365,723.001465,mp-1175784,Li9Mn2Co5O16,https://materialsproject.org/materials/mp-1175784,-76.52742891243992,-53.39398408617065,3.8023615897802383,3.894974963985976