energy_per_atom,energy,density,formation_energy_per_atom,total_magnetization_uB,total_magnetization_T,band_gap,sgr,num_sites,cell_volume,weight,mp_id,formula,URL,tsne_cry_lin1_0,tsne_cry_lin1_1,tsne_cry_lin2_0,tsne_cry_lin2_1
-8.051153363125,-128.81845381,6.207291266800415,-0.2697043481249981,9.4650573,0.5518446842300572,0.0,160,16,199.88666014621532,747.1999694,mp-1221730,Mn7Al4V5,https://materialsproject.org/materials/mp-1221730,52.796191639771536,45.53847724000307,-8.604250342815693,-0.5045126942092143
-7.09535598,-28.38142392,10.340547314815902,-0.6464630424999998,0.0006172,9.7130091325661e-05,0.0,225,4,74.05417496733618,461.15188,mp-977441,MgPaRh2,https://materialsproject.org/materials/mp-977441,38.388150136800654,56.31057421967826,-8.604250342815693,-0.5045126942092143
-3.82782009125,-30.62256073,3.8444988632570993,-0.3962567993449997,7e-07,2.216864040384271e-08,0.0,193,8,367.9903319365361,851.9754,mp-10736,Ba3N,https://materialsproject.org/materials/mp-10736,-38.75080773134069,48.09935447734375,-8.604250342815693,-0.5045126942092143
-7.200612166666668,-21.601836499999997,6.968515843312082,-0.13583343666666772,0.0,0.0,0.0,139,3,58.61831267812849,245.99400000000003,mp-193,Zr2Cu,https://materialsproject.org/materials/mp-193,-10.02599528580852,53.55652713980167,-8.604250342815693,-0.5045126942092143
-5.738946971052632,-109.03999245,6.324992808474788,-1.9896627551315789,11.608544300000002,0.4863408454650551,0.0,1,19,278.1726611055319,1059.5596,mvc-3096,Ba2Mg2Tl2Fe3O10,https://materialsproject.org/materials/mvc-3096,-26.935154670659823,-12.733414745289421,-8.604250342815693,-0.5045126942092143
-5.449753394375,-87.19605431,6.639384518006933,-1.1965998136718747,1.00000005,0.03221731817812805,0.0,14,16,361.73294409013636,1446.328,mp-11791,CeCuSe2,https://materialsproject.org/materials/mp-11791,47.47018064307278,-3.3525231493971717,-5.976229971993643,-1.1710509339469912
-7.682531996428572,-107.55544795,6.707402086155903,-3.1118408292857147,3.0000001,0.17620140945491736,0.8846000000000007,64,14,198.42176967393058,801.48347,mp-27494,La2CoO4,https://materialsproject.org/materials/mp-27494,-32.60865073274017,-18.789811985824407,2.4678605080239846,-4.795996161216209
-7.651262571428572,-107.117676,6.79939015542719,-0.4712130578571429,0.09636195,0.005365273207082337,0.00020000000000042206,12,14,209.3105725590545,857.0616,mp-2623,V4As3,https://materialsproject.org/materials/mp-2623,53.56057992231761,50.70297765463962,-8.604250342815693,-0.5045126942092143
-5.928995027916668,-142.29588067,4.344547747653436,-3.4286877402925,10.00000045,0.2757019660797704,3.3969,11,24,422.70519368079783,1105.9438248,mp-1214624,Ba2Mn2ClF7,https://materialsproject.org/materials/mp-1214624,-12.03818212028964,-29.86344599586357,7.990020662802924,-0.7006505628560514
-8.2891416755,-165.78283351,6.254981497713348,-3.2885331862500014,2.000000025,0.09228477117469197,0.9979999999999992,62,20,252.56745549435772,951.3806800000001,mp-19350,LaVO3,https://materialsproject.org/materials/mp-19350,-24.903626299168412,9.25810635787353,-8.604250342815693,-0.5045126942092143
-4.070597485833333,-97.69433966,8.603089427315465,-0.14039392951388882,1.5e-06,4.787936716096458e-08,0.0,127,24,365.10710553191376,1891.584,mp-1210539,NdIn2Cu9,https://materialsproject.org/materials/mp-1210539,3.1160720670636683,42.04857706640996,-8.604250342815693,-0.5045126942092143
-4.461950451818182,-196.32581988,3.091143847947346,-0.4972101942667086,0.175108475,0.001818590089610471,0.0,130,44,1122.1470531114896,2088.9108152,mp-1247417,Cs2Ca5N4,https://materialsproject.org/materials/mp-1247417,24.13523353920747,-9.129846336373511,2.4998228755961804,-4.7410210530755
-6.161270591319445,-887.22296515,4.37974751631953,-2.2224335347916675,13.7499831125,0.08752944764861187,0.0004999999999997229,1,144,1830.7346626700462,4828.64624,mp-1076675,SrCa3(Co2O5)2,https://materialsproject.org/materials/mp-1076675,-32.93280453714128,-16.10210894994156,-8.604250342815693,-0.5045126942092143
-6.851853135,-13.70370627,10.621011586975998,-0.8646518299999997,8e-07,2.277526249165688e-07,0.0,221,2,40.93586987839584,261.83085,mp-11561,TbRh,https://materialsproject.org/materials/mp-11561,17.200696920707017,50.93427059673065,-8.604250342815693,-0.5045126942092143
-6.868070775833334,-164.83369862,8.277694801771156,-0.23426419562499964,0.0195591,0.0007774117388068577,0.0,141,24,293.20758475143515,1461.62351,mp-1191853,NdCo9Si2,https://materialsproject.org/materials/mp-1191853,48.90508633990942,50.467917248918646,-8.604250342815693,-0.5045126942092143
-6.5698569608333335,-78.83828353,5.663921297628147,0.17335388131000093,8.8e-06,6.865091922055689e-07,0.0,36,12,149.3873223591388,509.5442000000001,mp-1245613,LiRh2N3,https://materialsproject.org/materials/mp-1245613,-0.3415809111142336,6.202418228676441,-8.604250342815693,-0.5045126942092143
-5.7577555433333325,-69.09306652,6.109245232770952,-0.09137237222448154,0.0,0.0,0.4313999999999996,36,12,174.06857950389667,640.4111038,mp-1246456,CsGe2N3,https://materialsproject.org/materials/mp-1246456,-2.030535967772077,3.609247032424842,-8.604250342815693,-0.5045126942092143
-3.66153104,-21.96918624,2.0807617961955303,-1.360458292583333,1e-07,1.1780848537743352e-08,1.0916,166,6,98.92381465751407,123.95787712,mp-755413,Na2O,https://materialsproject.org/materials/mp-755413,17.16046574357528,-20.152830664693095,6.193294461883826,-0.3733791495419045
-4.1050006025,-16.42000241,12.093783870331421,-0.5697475010416664,6.8e-06,8.933832391019064e-07,0.0,225,4,88.70508980342119,646.043338,mp-864892,NdAgAu2,https://materialsproject.org/materials/mp-864892,-5.7209421131096105,50.002149865496314,-8.604250342815693,-0.5045126942092143
-5.793054026086956,-266.4804852,2.6128070671404893,-0.7659516957086948,4e-07,8.50044858775793e-09,0.5945,136,46,548.3976358303489,862.8868,mp-1246307,Mg11(CN5)2,https://materialsproject.org/materials/mp-1246307,29.405024762538943,-17.952169351611158,7.4900051833643255,-2.883335987561635
-4.5597816752272715,-200.63039371,2.102245126555271,-0.5559606416381816,0.0033911,3.73808324038899e-05,0.0,130,44,1057.2289729458957,1338.4536,mp-1247306,K2Ca5N4,https://materialsproject.org/materials/mp-1247306,23.907571683600807,-9.207536873674877,-1.0773027389758063,-2.645139153235836
-6.1324210741666665,-883.06863468,4.174182145485304,-2.1869583777777777,24.49999985,0.1636720805201836,0.005399999999999849,1,144,1744.49169505359,4385.21824,mp-1076526,Ca7Mg(Co2O5)4,https://materialsproject.org/materials/mp-1076526,-32.89096288989559,-16.134143913673448,-8.604250342815693,-0.5045126942092143
-6.85283979,-41.11703874,7.67538565937039,-0.6194794997222223,2e-07,2.9084942879513842e-08,0.0,191,6,80.13813072170964,370.4165,mp-28705,CaB2Rh3,https://materialsproject.org/materials/mp-28705,15.269474125476297,40.40839079530027,-8.604250342815693,-0.5045126942092143
-6.75117210763158,-513.08908018,3.7615759456445312,-1.9966630444386213,9.999999875,0.09120082136687,2.0277000000000003,198,76,1277.8464549133314,2894.6723752,mp-1214390,Cs2Mn2Cr3O12,https://materialsproject.org/materials/mp-1214390,-14.038956483198454,-39.560678285374046,-8.604250342815693,-0.5045126942092143
-5.219911495833333,-62.63893795,2.3184629400567207,-3.138832589444167,2.0000003,0.1537267145664187,0.0,216,12,151.6205762094029,211.6943224,mp-753113,Li4VF7,https://materialsproject.org/materials/mp-753113,-42.843959375602175,-17.982269586583673,-4.473055416735004,-2.883443032797457
-6.146838519166668,-73.76206223,12.228555052903456,-0.8741778808333329,5e-07,2.7273609584925812e-08,0.0,62,12,213.6509422464,1573.37,mp-10569,YbSiIr,https://materialsproject.org/materials/mp-10569,6.786395649381642,48.6710132833685,-8.604250342815693,-0.5045126942092143
-6.855215939,-137.10431878,6.890893104851854,-2.4369495433750004,10.9999996,0.5418601450779169,0.0,229,20,236.5826477570092,981.76899,mp-1227929,BaLa3(CoO3)4,https://materialsproject.org/materials/mp-1227929,-39.35394181371999,-4.303115864411399,-8.604250342815693,-0.5045126942092143
-5.2112463775,-20.84498551,5.521661645015995,-1.8902966897916669,2.1000000000000002e-06,4.522490242970973e-07,0.0,123,4,54.11517705408664,179.945,mp-997030,CaAgO2,https://materialsproject.org/materials/mp-997030,-0.0001722855110204934,-12.246225401155437,-8.604250342815693,-0.5045126942092143
-2.7941607225,-11.17664289,5.852856778977453,-0.27308276249999963,0.5333302,0.07420252514351428,0.0,225,4,83.76351996028373,295.2390000000001,mp-13254,CeMgZn2,https://materialsproject.org/materials/mp-13254,-0.743401347462325,96.93168411934616,-8.604250342815693,-0.5045126942092143
-7.957549260280373,-851.45777085,3.0842313653533293,-2.9684304208726293,29.0887843,0.24609459236152825,0.0,2,107,1377.5295634663996,2558.5787410000007,mp-1217628,Ti12Mn5(PO4)18,https://materialsproject.org/materials/mp-1217628,-43.018328603669865,24.534887549150444,-8.604250342815693,-0.5045126942092143
-5.549898954,-55.49898954,9.356726830131377,-0.5857309969999995,2.2e-06,1.3039963203781633e-07,0.0,127,10,196.6182120222237,1107.895,mp-1078771,Tb2Ni2Sn,https://materialsproject.org/materials/mp-1078771,3.3136900820105097,57.34115586638424,-8.604250342815693,-0.5045126942092143
-7.06354005,-77.69894055,8.183586282101187,-0.4750432427272722,0.19414510000000001,0.013587511448224421,0.0,65,11,166.5190553322953,820.65102,mp-1207979,U2(Si2Ni)3,https://materialsproject.org/materials/mp-1207979,22.648885508026474,65.48436869599523,-8.604250342815693,-0.5045126942092143
-5.477734664,-54.77734664,6.428429117174544,-0.5817994137500001,0.31977990000000006,0.022348901197629948,0.0,123,10,166.75252329442816,645.54747,mp-1225580,LaCe(CuSi)4,https://materialsproject.org/materials/mp-1225580,-3.1779926722727523,58.40004865306272,-8.604250342815693,-0.5045126942092143
-7.508497062000001,-37.54248531,6.3447659119501285,-0.7257929270000005,6.677279400000001,0.8767633798882212,0.0,107,5,88.75535682386676,339.1260000000001,mp-1068807,EuSi3Rh,https://materialsproject.org/materials/mp-1068807,18.203831952782878,64.63821471091512,-8.604250342815693,-0.5045126942092143
-6.077663343333334,-218.79588036,4.554632136357638,-1.5332468848611112,6.000000099999999,0.1378986414398443,1.9352,2,36,507.0709114365557,1390.82636,mp-705094,Co2As2O5,https://materialsproject.org/materials/mp-705094,-10.816366659681965,-36.6063357091587,-8.604250342815693,-0.5045126942092143
-6.165266258055556,-221.94958529,4.024837063848421,-0.8573133945299998,0.0,0.0,1.2191999999999998,62,36,690.6760563456912,1674.07,mp-567601,Sr4CN4,https://materialsproject.org/materials/mp-567601,25.21976381132093,-10.201981112505036,6.560285284471947,-4.122540593051232
-5.973877465,-71.68652958,8.51051206697846,-0.14312694250000035,13.389181299999999,0.8738917336916657,0.0,47,12,178.55574106711924,915.125,mp-1225966,Eu2(CuNi)5,https://materialsproject.org/materials/mp-1225966,30.067915406239294,77.23412898249562,-8.604250342815693,-0.5045126942092143
-7.491874430833334,-89.90249317,8.59893562777358,-1.0209125441666664,0.85909945,0.051332461736731366,0.0,74,12,195.04228508889602,1010.007,mp-1213768,CeSi2Rh3,https://materialsproject.org/materials/mp-1213768,12.784165239853222,66.26810318523042,-8.604250342815693,-0.5045126942092143
-4.8019660084210525,-91.23735416,4.380863265559364,-1.224738381447369,4.0000002,0.2555641119560018,0.3776999999999999,1,19,182.40535051759232,481.225,mp-762932,Li4(NiO2)5,https://materialsproject.org/materials/mp-762932,-64.40053962615502,-24.53542202163383,2.4762614464746213,-1.6787362783849311
-5.873445163333333,-17.62033549,3.830954868349163,-0.2166321041266658,0.16912249999999998,0.05692379427314655,0.0,187,3,34.62461690518436,79.880895,mp-1246462,LiCoN,https://materialsproject.org/materials/mp-1246462,3.648675177136795,12.685529529089214,-8.604250342815693,-0.5045126942092143
-2.758431537,-27.58431537,3.792703563594279,-0.19860451186337896,0.0,0.0,1.0971000000000002,225,10,159.61830079324469,364.57131308,mp-989594,Cs2NaGaH6,https://materialsproject.org/materials/mp-989594,24.78950640836991,-17.301006951057232,4.528114018401356,-5.051332328763642
-3.6055129475,-14.42205179,8.521945581981784,-0.39710374874999976,8.68e-05,1.0191573633383654e-05,0.0,221,4,99.25580274911226,509.38432,mp-21431,HoIn3,https://materialsproject.org/materials/mp-21431,-11.120898577013572,41.967656109048335,-8.604250342815693,-0.5045126942092143
-6.198207849305557,-446.27096515,4.170781302341601,-2.241690713055556,6.0000077125,0.07896460922065683,0.0,57,72,885.5166790218314,2224.15512,mp-1195269,Ca2Co2O5,https://materialsproject.org/materials/mp-1195269,-32.902167834578925,-16.113908268809922,-8.604250342815693,-0.5045126942092143
-6.6013038375,-343.26779955,4.014675592960448,-2.3894508816758244,0.9613395,0.014903691487248587,0.3490999999999997,2,52,751.7273697597493,1817.4468960000002,mp-654359,BaCu2(PO4)2,https://materialsproject.org/materials/mp-654359,-59.42201092637927,-13.626684545881295,3.1708526612348837,-0.8570534157757966
-4.970454346,-24.85227173,7.295675592558443,-0.713288412,1.5e-06,1.7230723043405517e-07,0.0,139,5,101.45306795775959,445.74,mp-978986,Sr(GePd)2,https://materialsproject.org/materials/mp-978986,11.368992433751194,57.3645163266716,-8.604250342815693,-0.5045126942092143
-8.8258909,-70.6071272,6.6395297698572495,-0.4363663481249985,3.1e-06,3.871283016837706e-07,0.0,71,8,93.3220346789479,373.140536,mp-1095043,Sc3OsC4,https://materialsproject.org/materials/mp-1095043,-10.963936761485698,29.33560408661027,-8.604250342815693,-0.5045126942092143
-2.361059585,-56.66543004,5.168261241898704,-0.2289691050277775,0.000148425,2.7158964574823762e-06,0.0,227,24,636.9000405378662,1982.28750736,mp-542680,Na3In2Au,https://materialsproject.org/materials/mp-542680,-14.951239349919026,48.41881821680624,-8.604250342815693,-0.5045126942092143
-5.1998650175,-20.79946007,6.607460482862071,-1.6186345574479168,0.0043424,0.0005935586850762412,2.1519000000000004,166,4,85.25965863318622,339.2572,mp-1225516,ErAgS2,https://materialsproject.org/materials/mp-1225516,52.699571376952704,12.33093595873504,3.7255895592182213,-5.424195612160808
-9.161589074,-91.61589074,13.727654258186998,-0.5215212926666666,1.365e-05,1.036945266123615e-06,0.0,70,10,153.4102033563611,1268.24012,mp-1079803,Th(BOs)2,https://materialsproject.org/materials/mp-1079803,11.814642476270569,41.23923631857575,-8.604250342815693,-0.5045126942092143
-6.0188004275,-48.15040342,8.771863322876756,-0.4826881130357146,0.0,0.0,0.0,63,8,96.46139121451618,509.561124,mp-1209823,Ni2PPd,https://materialsproject.org/materials/mp-1209823,14.65850058188078,25.2337755390207,-8.604250342815693,-0.5045126942092143
-4.720370594444444,-42.48333535,2.6351994889479387,-0.5665532176289676,2.1000000000000002e-06,1.2407202949257115e-07,0.3224,5,9,197.25264527764256,313.030924,mp-769218,Ni(PS3)2,https://materialsproject.org/materials/mp-769218,23.738596894160064,-1.2924703896776422,-0.8299163289714485,-2.013132800098413
-9.555696801,-95.55696801,6.738462079525809,-0.21078519186300046,3.5000000000000004e-06,4.572251641116904e-07,0.0,12,10,89.21037140028227,362.0154,mp-1226051,Cr6C3N,https://materialsproject.org/materials/mp-1226051,-0.4873127397211102,17.019758383751448,-8.604250342815693,-0.5045126942092143
-7.384962698333332,-265.85865714,6.584904406224724,-1.8171031950601384,4.000005675,0.055993340577262025,0.0,62,36,832.5333824784598,3301.4296000000004,mp-1202693,Ce4Se3N2,https://materialsproject.org/materials/mp-1202693,-8.64518948289235,21.114458381376213,-8.604250342815693,-0.5045126942092143
-11.223086310952379,-235.68481253,8.856347007074026,-0.12828385095238154,0.08223303333333333,0.002114369950413659,0.0,147,21,453.2551631861936,2417.398755,mp-1225806,Gd4Co3,https://materialsproject.org/materials/mp-1225806,14.501174542749775,54.059769999602565,-8.604250342815693,-0.5045126942092143
-4.980454954,-24.90227477,7.638709278770051,-0.5349032729999991,0.0,0.0,0.0,139,5,89.84070059713481,413.27965,mp-4924,Pr(CuGe)2,https://materialsproject.org/materials/mp-4924,-2.8837037096616123,58.342879876860216,-8.604250342815693,-0.5045126942092143
-7.675048828857143,-268.62670901,2.7634563395343985,-2.9067833795102054,0.0,0.0,1.2412999999999998,146,35,463.47507830699783,771.3116719999999,mp-757374,LiTi3V(PO4)6,https://materialsproject.org/materials/mp-757374,-14.206123094260066,-58.24800138364718,6.414556754304348,1.3223428081304975
-3.4576779925,-13.83071197,9.782350166125331,-0.2556835495833329,6.900000000000001e-06,8.44377396252032e-07,0.0,225,4,95.23353809279374,561.02735,mp-975801,PrTlAg2,https://materialsproject.org/materials/mp-975801,-6.331551181635853,50.459556017283795,-8.604250342815693,-0.5045126942092143
-5.36643546,-21.46574184,12.05741717067744,-0.71014370375,5.7000000000000005e-06,8.212931838884638e-07,0.0,225,4,80.88240655922888,587.299,mp-1206593,ErPd2Pb,https://materialsproject.org/materials/mp-1206593,27.913984516429966,40.59550426969133,-8.604250342815693,-0.5045126942092143
-3.990877958333333,-47.8905355,10.256050167002009,-0.608010423333333,1.0925e-05,5.759228310710999e-07,0.0,62,12,221.07242632389477,1365.418,mp-1207475,YbZnRh,https://materialsproject.org/materials/mp-1207475,17.028950064190337,59.0992762807829,-8.604250342815693,-0.5045126942092143
-3.694385933611111,-265.99578722,2.52806768512918,-1.033780794743056,6.925e-06,4.871886187265127e-08,2.0857,88,72,1656.5329206772778,2521.96861696,mp-28789,Na4Cu2S3,https://materialsproject.org/materials/mp-28789,47.07733332803737,-9.933745321452848,9.22656003481422,-4.404105198659376
-5.410136425999999,-27.05068213,6.65330421238309,-0.33212147599999964,1.8e-05,2.098768606691025e-06,0.0,139,5,99.95059256999676,400.47339,mp-1070253,Ba(CoGe)2,https://materialsproject.org/materials/mp-1070253,21.980529172745552,22.676860939820177,-8.604250342815693,-0.5045126942092143
-4.660515388333333,-27.96309233,7.946504892318938,-0.6470696349999999,5e-08,4.640425855225229e-09,0.0,227,6,125.57106972668188,600.9200000000002,mp-1558,SrPd2,https://materialsproject.org/materials/mp-1558,14.9657186226543,45.914746701248255,-8.604250342815693,-0.5045126942092143
-5.3676881175,-21.47075247,9.221373580338792,-0.3351010400000005,5.870000000000001e-05,8.520098732140971e-06,0.0,225,4,80.29174586540873,445.87942000000004,mp-862614,LiTm2Ru,https://materialsproject.org/materials/mp-862614,8.85767456889141,42.71017284989264,-8.604250342815693,-0.5045126942092143
-3.3210901840277787,-239.11849325,7.0735838899702985,-0.404599098472222,9.125e-06,6.071395783172354e-08,0.0,14,72,1751.546841079794,7461.26,mp-685798,Yb7Mg3Ge8,https://materialsproject.org/materials/mp-685798,-2.7866616833141897,52.151880223990915,-8.604250342815693,-0.5045126942092143
-4.8017721825,-19.20708873,1.2685083433653874,2.7969843900000004,2.1276384,0.03742291248124367,0.0,71,4,662.5789945828727,506.1531,mp-1097300,CrGaIr2,https://materialsproject.org/materials/mp-1097300,7.330078286496612,25.128254929496297,-8.604250342815693,-0.5045126942092143
-6.489604292142857,-90.85446009,4.1978865141541215,-1.0626354374485711,8.599999999999999e-06,3.560370369704967e-07,0.26339999999999986,176,14,281.5014918021537,711.6432000000002,mp-1246302,Sr3VN3,https://materialsproject.org/materials/mp-1246302,5.034691070955897,9.068306089506725,-4.607700061230037,-1.6289028290075211
-7.294500313333334,-43.76700188,8.539035407156623,-0.31419637291666663,0.25628305,0.03289610799946347,0.0,131,6,90.79308910518739,466.88779000000005,mp-20350,DyCoC,https://materialsproject.org/materials/mp-20350,-13.793160188040526,35.28062899308291,-8.604250342815693,-0.5045126942092143
-3.500647589,-35.00647589,2.6515268601315967,-1.0719123462379998,0.0,0.0,2.0898000000000003,225,10,184.97440956096742,295.3647,mp-27508,Li6Br3N,https://materialsproject.org/materials/mp-27508,14.966333367755102,-13.568171667643766,6.23048789620926,-1.089797205947551