energy_per_atom,energy,density,formation_energy_per_atom,total_magnetization_uB,total_magnetization_T,band_gap,sgr,num_sites,cell_volume,weight,mp_id,formula,URL,tsne_cry_lin1_0,tsne_cry_lin1_1,tsne_cry_lin2_0,tsne_cry_lin2_1
-6.0130682275,-24.05227291,1.220663927422289,3.193838667500001,2.6050691,0.0344402272587836,0.0,71,4,881.5169481975729,648.004,mp-1096581,Hf2MoPt,https://materialsproject.org/materials/mp-1096581,-61.659275817986746,35.770028450577165,-8.604250342815693,-0.5045126942092143
-5.41210644,-21.64842576,5.222889088436986,-1.2941255380468748,4.915e-05,4.022186537983343e-06,0.0,186,4,142.40942784779443,447.92,mp-1232236,PmSe,https://materialsproject.org/materials/mp-1232236,10.16004514217584,29.999745070439328,-8.604250342815693,-0.5045126942092143
-7.1649382899999985,-42.98962974,9.691922886955103,-0.2373447724999996,0.3649456,0.050466244318726636,0.0,216,6,84.27612790045585,491.8871,mp-1223821,HoZrCo4,https://materialsproject.org/materials/mp-1223821,61.346845820005065,64.41876335161153,-8.604250342815693,-0.5045126942092143
-5.708247765,-22.83299106,1.0573309038501617,3.2789873925000004,3.1419837999999998,0.041683802208303984,0.0,71,4,878.4439225709274,559.34,mp-1095819,Hf2MoPd,https://materialsproject.org/materials/mp-1095819,-61.784801501479656,35.77056374541297,-8.604250342815693,-0.5045126942092143
-7.946078503333332,-47.67647102,7.146932466149367,-0.3216450366666675,1e-07,1.0400308977271695e-08,0.0,140,6,112.05498603962528,482.2828,mp-328,Zr2Ni,https://materialsproject.org/materials/mp-328,25.16354216650135,58.2317587934809,-8.604250342815693,-0.5045126942092143
-7.1007448275,-28.40297931,11.346649777860724,-0.658474674999999,1.22e-05,1.8199013467256192e-06,0.0,225,4,78.12488873698507,533.83614,mp-861965,Ho2RuRh,https://materialsproject.org/materials/mp-861965,18.971213264666368,52.90870614631864,-8.604250342815693,-0.5045126942092143
-8.058509671666666,-48.35105803,8.79620264895456,-0.20840325666666595,1.5710076000000002,0.2309904788504891,0.0,216,6,79.26138090061275,419.86315999999994,mp-1215214,ZrNbCo4,https://materialsproject.org/materials/mp-1215214,61.108736263960196,64.63596389612634,-8.604250342815693,-0.5045126942092143
-8.758857093333333,-52.55314256,11.099570024938137,-0.4205334230555546,2e-07,3.647099134231223e-08,0.0,191,6,63.90868108396657,427.18591,mp-10065,UFe3B2,https://materialsproject.org/materials/mp-10065,42.619022546983686,86.3884748796028,-8.604250342815693,-0.5045126942092143
-8.475359883846155,-220.35935698,9.612149438013263,-0.08543135913461587,4.68e-05,1.6796706686696866e-06,0.0,227,26,324.7126008265437,1879.6222,mp-30052,Ni6Mo6C,https://materialsproject.org/materials/mp-30052,55.43073549161878,60.19382143022027,-8.604250342815693,-0.5045126942092143
-9.546749238,-95.46749238,6.407040295744843,-0.18603719349999887,0.0,0.0,0.0,63,10,92.76106165727109,357.9102,mp-4253,V(CrC)2,https://materialsproject.org/materials/mp-4253,-0.3551681721286573,17.227332490274243,-8.604250342815693,-0.5045126942092143
-6.2781391775,-25.11255671,1.0245675374285481,3.4556151575000005,0.0138719,0.00021030077611182524,0.0,71,4,768.7276485965399,474.31188,mp-1096738,ZrTaRu2,https://materialsproject.org/materials/mp-1096738,-62.612678586631155,38.587743773596436,-8.604250342815693,-0.5045126942092143
-5.8600478425,-23.44019137,0.7738960218016779,3.905476845625,6.9983894,0.11051791458612588,0.0,71,4,737.9770390766487,343.935,mp-1093786,V2FeRe,https://materialsproject.org/materials/mp-1093786,-57.20622103988653,35.518637860600535,-8.604250342815693,-0.5045126942092143
-8.584478233125,-137.35165173,7.603859845550332,0.2169203265624997,2.6487403,0.18641183358073746,0.0,25,16,165.59351640366538,758.2777999999997,mp-995434,Fe11MoC4,https://materialsproject.org/materials/mp-995434,42.54888447216143,87.22020190594763,-8.604250342815693,-0.5045126942092143
-8.330653468214285,-466.51659422,4.984492492370211,-0.29274107368999985,3.26714255,0.06574329932672185,0.0,13,56,579.1539409919724,1738.46468,mp-1247150,LiMn6N7,https://materialsproject.org/materials/mp-1247150,4.071240268079594,16.326905521637936,-8.604250342815693,-0.5045126942092143
-9.834196273,-98.34196273,10.932846701544475,-0.4467569836666669,3.5e-07,3.4041431607807935e-08,0.0,127,10,119.82230117079823,788.89976,mp-1079659,Ta(BMo)2,https://materialsproject.org/materials/mp-1079659,21.826819405808973,36.66899935579625,-8.604250342815693,-0.5045126942092143
-5.185217853999999,-51.85217854,4.176628474724398,-2.294179112607,6.000000099999999,0.7724565717299797,0.04369999999999985,139,10,90.52209840633918,227.6833996,mp-760300,Li3Co2O2F3,https://materialsproject.org/materials/mp-760300,-6.2369140541228765,12.359613973586349,-6.123130584272099,-2.678786439823011
-7.1153111875,-28.46124475,11.746476676006205,-0.7229827924999999,2.6e-06,3.955807059349581e-07,0.0,225,4,76.59769031717451,541.84392,mp-866122,Tm2RuRh,https://materialsproject.org/materials/mp-866122,18.61964713043265,53.46571209804277,-8.604250342815693,-0.5045126942092143
-6.230824905833334,-74.76989887,3.454173044909122,-2.7164030464483333,2.0002407,0.2093333842271009,1.8018,164,12,111.3579411357562,231.64140640000002,mp-753128,Li2VO2F,https://materialsproject.org/materials/mp-753128,-41.18302079733354,-57.965558279027846,4.6397902824597015,1.046546631464917
-6.593034215,-26.37213686,11.084597735746145,-0.7432132537500005,0.0007516000000000001,0.00011872102750002888,0.0,225,4,73.77964348441756,492.50132,mp-864660,HoSbRh2,https://materialsproject.org/materials/mp-864660,31.528477737956155,56.25947229397074,-8.604250342815693,-0.5045126942092143
-5.10962563,-20.43850252,1.0757472973805562,2.2168354675,6.69e-05,9.261145653509655e-07,0.0,71,4,841.857975734115,545.3810000000002,mp-1095828,ZrGaIr2,https://materialsproject.org/materials/mp-1095828,-63.04790576258525,38.644432749862425,-8.604250342815693,-0.5045126942092143
-6.2849340225,-25.13973609,1.0151064202285212,4.22446586375,0.1041119,0.0012138280543834408,0.0,71,4,999.5870682117016,611.058955,mp-1097555,Ta2CoOs,https://materialsproject.org/materials/mp-1097555,-58.18155270018729,39.98095509301765,-8.604250342815693,-0.5045126942092143
-10.071806715,-40.28722686,16.658587494033075,0.1621782981249993,0.2777825,0.03693406332321337,0.0,225,4,87.65066598152755,879.3146399999998,mp-1186399,Pa3Re,https://materialsproject.org/materials/mp-1186399,20.249325039733943,55.94931801083993,-8.604250342815693,-0.5045126942092143
-9.713724189166667,-116.56469027,14.326851712566613,0.11599939750000016,2.36e-05,1.4104998335538401e-06,0.0,193,12,194.9918192754685,1682.3566399999997,mp-1101992,Ta2Ni,https://materialsproject.org/materials/mp-1101992,43.70461752832014,62.181038143644344,-8.604250342815693,-0.5045126942092143
-6.1336657625,-24.53466305,1.1867241315546688,3.5876896575000004,2.0000068,0.0259420700037879,0.04499999999999993,71,4,898.4714322857241,642.10338,mp-1096661,Hf2NbIr,https://materialsproject.org/materials/mp-1096661,-61.22112202141675,35.30014456670477,-8.604250342815693,-0.5045126942092143
-6.6129897225,-26.45195889,1.1808265327916223,3.472441074999999,0.0211405,0.0003119749341866076,0.0,71,4,789.7197156773193,561.5778799999999,mp-1093658,HfTaRu2,https://materialsproject.org/materials/mp-1093658,-60.862373800059785,35.27624853471165,-8.604250342815693,-0.5045126942092143
-8.3374287725,-33.34971509,11.464030854493412,-0.8527802887499991,8.5e-06,1.4390788041812031e-06,0.0,225,4,68.83538988896413,475.22582400000005,mp-862364,Sc2OsPt,https://materialsproject.org/materials/mp-862364,21.488797441989803,52.84377156135748,-8.604250342815693,-0.5045126942092143
-5.7165644025,-22.86625761,0.7963328281986305,3.5596876674999995,4.8804434,0.07773373538338763,0.0,71,4,731.6900856737492,350.89138,mp-1096297,NbFeRu2,https://materialsproject.org/materials/mp-1096297,-60.28173909751403,42.66525305423789,-8.604250342815693,-0.5045126942092143
-7.7941402126315795,-296.17732808,4.221231747704821,-0.960653664356284,0.00818335,9.433704795591314e-05,0.0,176,38,1010.9420744339553,2569.9009038000004,mp-1226696,Cs(MoS)9,https://materialsproject.org/materials/mp-1226696,64.70657290164726,31.900336731827387,-8.604250342815693,-0.5045126942092143
-5.8127095010000005,-116.25419002,3.8182919831397695,-2.223152745875,1.00000005,0.07142285579727786,0.6926999999999999,2,20,163.1699716452265,375.1978,mp-754230,Li3SiNiO5,https://materialsproject.org/materials/mp-754230,-50.95251429624108,-35.883868934741265,2.029053343433656,-0.42985405139247296
-7.2993617575,-29.19744703,11.710750965151712,-0.4049548312500004,0.0012999,0.00019845948221116505,0.0,225,4,76.33356002476802,538.33321,mp-1184242,ErTmRu2,https://materialsproject.org/materials/mp-1184242,19.226575110025397,53.448768981274135,-8.604250342815693,-0.5045126942092143
-7.70356164875,-184.88547957,5.7900979240937005,-0.29076827652777953,3.4e-06,1.1174851501400842e-07,0.0,216,24,354.58028432624667,1236.37838,mp-1217247,Ti4CoNi,https://materialsproject.org/materials/mp-1217247,58.800574283937756,54.396577181593884,-8.604250342815693,-0.5045126942092143
-9.12810713,-54.76864278,15.148608680821846,0.4564744263100001,9.926666666666666e-05,1.7224613411371668e-05,0.0,221,6,67.16320044231982,612.7100999999999,mp-1018849,OsN,https://materialsproject.org/materials/mp-1018849,57.176076761918154,46.85790979346508,-8.604250342815693,-0.5045126942092143
-7.28804879,-29.15219516,11.492927152696007,-0.3841336875000012,2.15e-05,3.2501441326596244e-06,0.0,225,4,77.09270185657759,533.57421,mp-1184074,DyTmRu2,https://materialsproject.org/materials/mp-1184074,19.424788446325923,53.4356948946265,-8.604250342815693,-0.5045126942092143
-7.29438714,-29.17754856,11.350550780999624,-0.36816380625000106,0.0002829,4.236908125083372e-05,0.0,225,4,77.8146428202821,531.899,mp-1183783,DyErRu2,https://materialsproject.org/materials/mp-1183783,19.662175714356355,53.24172405814677,-8.604250342815693,-0.5045126942092143
-5.6588898875,-45.2711191,9.731601654194783,-0.4860560500000002,8.5e-07,6.423247201215158e-08,0.0,62,8,154.220361545508,903.8096,mp-567314,ErNi,https://materialsproject.org/materials/mp-567314,2.131602618756175,59.005349296911575,-8.604250342815693,-0.5045126942092143
-6.889440857333332,-103.34161286,6.407711850695969,-0.5764816165833329,0.0,0.0,0.0,1,15,319.17187332914574,1231.625,mp-1222220,Mg(Mo3Se4)2,https://materialsproject.org/materials/mp-1222220,63.1141851900618,32.46057448113673,-8.604250342815693,-0.5045126942092143
-6.3137505625,-25.25500225,1.4074935056832885,3.2885348681250006,5.6899999999999994e-05,7.613269329869085e-07,0.0,71,4,871.0006921166539,738.2710000000001,mp-1096469,Hf2RePt,https://materialsproject.org/materials/mp-1096469,-61.51511291992027,35.565484395795984,-8.604250342815693,-0.5045126942092143
-5.1478089525,-20.59123581,0.7677896728411738,3.049491575416667,1.9997331000000003,0.03126475509450391,0.0,71,4,745.4086560021839,344.65739999999994,mp-1093952,Ti2NiOs,https://materialsproject.org/materials/mp-1093952,-59.84004567713777,35.58988619241511,-8.604250342815693,-0.5045126942092143
-7.2982777825,-29.19311113,11.639025321323473,-0.40120820875,5.67e-05,8.640911335043012e-06,0.0,225,4,76.47173393902733,536.0045299999998,mp-1184831,HoTmRu2,https://materialsproject.org/materials/mp-1184831,19.231486349401266,53.45359131198556,-8.604250342815693,-0.5045126942092143
-5.3035494775,-21.21419791,5.919769004593626,-1.2450674267968749,0.3028494,0.02644612962273469,0.0,186,4,133.45720429717366,475.7707,mp-10645,TbSe,https://materialsproject.org/materials/mp-10645,10.139154751264568,30.042006629318013,-8.604250342815693,-0.5045126942092143
-6.9234650175,-27.69386007,1.6844945352540253,4.3311845756250005,0.0697285,0.0011134966757794767,0.0,71,4,729.7915415190378,740.31976,mp-1096559,Ta2ReIr,https://materialsproject.org/materials/mp-1096559,-58.089519194776656,40.498792655470204,-8.604250342815693,-0.5045126942092143
-9.042094305,-90.42094305,8.193156369925985,-0.3642059716666665,0.0019704,0.0002284856978095068,0.0,38,10,100.50156070160894,495.878135,mp-1221842,Mn3B4Mo3,https://materialsproject.org/materials/mp-1221842,21.567443792313323,36.63561764615106,-8.604250342815693,-0.5045126942092143
-6.891543246666667,-206.7462974,6.425649300763212,-0.5785840059166664,0.00730055,0.00013365722628477398,0.0,2,30,636.5617852493393,2463.25,mp-675833,Mg(Mo3Se4)2,https://materialsproject.org/materials/mp-675833,63.1142371006328,32.452053814980914,-8.604250342815693,-0.5045126942092143
-4.881069465,-117.14566716,8.254640106641206,-0.5424118741666669,0.000681675,1.1162569762494928e-05,0.0,216,24,711.6895815985488,3537.8520000000003,mp-1209989,Nd4CdPt,https://materialsproject.org/materials/mp-1209989,-30.706958815968214,68.02968156455314,-8.604250342815693,-0.5045126942092143
-6.7497220275,-80.99666433,5.89594722323912,-0.3742340416266667,3.75e-07,3.179291627622783e-08,0.0,62,12,137.46062964905244,488.0708,mp-1029251,LiRuN,https://materialsproject.org/materials/mp-1029251,6.232491706569686,15.082078146578386,-8.604250342815693,-0.5045126942092143
-9.3801318275,-37.52052731,16.216367856880648,-0.2779015600000001,2.3199999999999998e-05,3.3832641263466783e-06,0.0,225,4,79.91522169903445,780.4300900000002,mp-862776,TmPaOs2,https://materialsproject.org/materials/mp-862776,20.74234212139168,56.00122050691286,-8.604250342815693,-0.5045126942092143
-5.44609072,-21.78436288,0.5526881114244386,3.2905638120833336,2.9999997000000005,0.040290070634395166,0.0,71,4,867.7619639518041,288.82291200000003,mp-1097368,ScTiTc2,https://materialsproject.org/materials/mp-1097368,-65.4475050737261,42.64831316337947,-8.604250342815693,-0.5045126942092143
-8.277041549166666,-99.32449859,8.371823287367366,-0.4467784616666665,0.14774379999999998,0.011109298681424422,0.0,194,12,154.9887048966565,781.3956900000001,mp-10366,Nb2Co3Si,https://materialsproject.org/materials/mp-10366,46.576747098936536,50.70419007376122,-8.604250342815693,-0.5045126942092143
-5.64632106875,-45.17056855,9.239549972696237,-0.4544708787499996,2.5e-08,1.8322596125788954e-09,0.0,62,8,159.01219309414154,884.7736,mp-2738,DyNi,https://materialsproject.org/materials/mp-2738,2.1609549374076593,58.98896143200004,-8.604250342815693,-0.5045126942092143
-6.108072195909092,-134.37758831,4.613848990862364,-1.8061638429545452,5.997851799999999,0.3197888474628982,0.0,12,22,218.57970948009202,607.329155,mp-753214,Li4NbCo5O12,https://materialsproject.org/materials/mp-753214,-73.53810976628506,-24.923094028217047,-0.7830300212313688,0.6252279768585817
-7.741505681666666,-92.89806818,8.952986188944156,-0.32737689416666643,3.9e-06,3.093752452590476e-07,0.0,194,12,146.91173036461166,792.0914,mp-1219280,SiNi3Mo2,https://materialsproject.org/materials/mp-1219280,53.70967844686195,57.44368136091114,-8.604250342815693,-0.5045126942092143
-9.2430441175,-36.97217647,13.230085959838858,-0.2552760671875003,2.8741974,0.4388852758013943,0.0,225,4,76.32081665888562,608.07421,mp-865949,TmNpRu2,https://materialsproject.org/materials/mp-865949,20.69696301352289,54.897802391826886,-8.604250342815693,-0.5045126942092143
-3.9324311475,-15.72972459,0.5217622005848958,3.0499250004166667,2.8558166000000003,0.04067784195762473,0.0,71,4,818.181841347972,257.083,mp-1093964,Ti2ZnMo,https://materialsproject.org/materials/mp-1093964,-65.15147337817534,40.876260948965246,-8.604250342815693,-0.5045126942092143
-5.192103299375,-83.07365279,7.007069784512487,-0.17371749999999953,0.0,0.0,0.04649999999999999,62,16,465.8272994608972,1965.6776,mp-1188200,Nd3Ni,https://materialsproject.org/materials/mp-1188200,-29.932509178491653,68.41137873541794,-8.604250342815693,-0.5045126942092143
-5.185743145,-20.74297258,0.6734112640219306,3.1222011700000003,0.0786404,0.0010959067924841816,0.0,71,4,836.275786978692,339.1414,mp-1097278,Zr2TcNi,https://materialsproject.org/materials/mp-1097278,-63.154941532679345,37.79950651309589,-8.604250342815693,-0.5045126942092143
-8.328324395,-33.31329758,11.966774341372266,-0.08678114333333298,7.13e-05,1.1051285048897504e-05,0.0,225,4,75.18897708338466,541.85388,mp-1186492,PaInTc2,https://materialsproject.org/materials/mp-1186492,56.80386896711622,45.16811743980275,-8.604250342815693,-0.5045126942092143
-8.736651284166667,-209.67963082,7.2655875987864755,-0.4909457905208339,0.0021620000000000003,8.074841592322504e-05,0.0,156,24,312.03197920601065,1365.2769515999998,mp-1217823,Ta2Al3V4C3,https://materialsproject.org/materials/mp-1217823,19.644167723664502,42.53368145642657,-8.604250342815693,-0.5045126942092143
-6.49340908,-454.5386356000001,10.588322308641905,-0.8141871950000004,0.0012838857142857144,9.63104387974454e-06,0.0,140,70,1553.568591491731,9906.232,mp-1198715,Er3Rh2,https://materialsproject.org/materials/mp-1198715,-31.831906536384288,71.0076560731516,-8.604250342815693,-0.5045126942092143
-6.989797340416667,-167.75513617,9.288882505177883,-0.4096586962499996,3.4746517999999997,0.1461735897228473,0.0,191,24,277.02553666547766,1549.6520099999998,mp-976597,Ho2Co7B3,https://materialsproject.org/materials/mp-976597,42.33934117818981,83.59442700196338,-8.604250342815693,-0.5045126942092143
-6.8889824146666685,-206.66947244,6.407253137224318,-0.576023173916666,0.0244703,0.0004467154999502727,0.0,1,30,638.3894475022981,2463.25,mp-675743,Mg(Mo3Se4)2,https://materialsproject.org/materials/mp-675743,63.093273867763244,32.424567436260716,-8.604250342815693,-0.5045126942092143
-5.9272471125,-23.70898845,1.1262182769910052,3.1438701575000003,0.0007796,1.1919178187079387e-05,0.0,71,4,762.2596754645717,516.983195,mp-1097390,Hf2CoRu,https://materialsproject.org/materials/mp-1097390,-62.790852711018886,35.07550419955524,-8.604250342815693,-0.5045126942092143
-5.360739955,-21.44295982,0.8630098462177216,3.1428140150000012,0.0,0.0,0.19940000000000024,71,4,911.019432504286,473.472,mp-1096108,Zr2MoPt,https://materialsproject.org/materials/mp-1096108,-62.7478614861059,37.94124033161389,-8.604250342815693,-0.5045126942092143
-5.8653198875,-23.46127955,11.620814357379508,-0.3212195837500005,0.0003035,4.524315807077315e-05,0.0,225,4,78.17775790405658,547.105,mp-861963,LiLu2Os,https://materialsproject.org/materials/mp-861963,8.13025743828436,43.62076827498608,-8.604250342815693,-0.5045126942092143
-9.582198526666668,-28.74659558,5.761461249600719,-0.4542371062500005,7e-07,2.4851884150855533e-07,0.0,164,3,32.82586258358584,113.8937,mp-1008632,V2C,https://materialsproject.org/materials/mp-1008632,6.123396982515389,22.429942962420462,-8.604250342815693,-0.5045126942092143
-6.5895613125,-26.35824525,11.369294102622927,-0.7647112299999996,2.48e-05,3.985563278917131e-06,0.0,225,4,72.51692825662694,496.50521,mp-1187603,TmSbRh2,https://materialsproject.org/materials/mp-1187603,31.56780218568304,56.27453859819935,-8.604250342815693,-0.5045126942092143
-7.567608545,-45.40565127,7.777544388036919,-0.31610542833333355,0.0006005,8.005013651184956e-05,0.0,166,6,87.42353481041428,409.4697,mp-1215561,Zr2VNi3,https://materialsproject.org/materials/mp-1215561,36.70208459781481,67.48368486799475,-8.604250342815693,-0.5045126942092143
-5.504402867142856,-77.06164014,7.325776588498137,-0.06933621821428508,1.8000000000000001e-06,5.514714268359745e-08,0.0,15,14,380.38809573441034,1678.1527800000001,mp-1104652,Nd5Co2,https://materialsproject.org/materials/mp-1104652,-30.1370045725728,68.30731539047576,-8.604250342815693,-0.5045126942092143
-9.04804733,-126.67266262,6.634992266910758,0.03919449366928721,23.4183346,1.8192571020505464,0.0,156,14,150.0166128175395,599.41925,mp-1222027,Mn10C3N,https://materialsproject.org/materials/mp-1222027,0.19309654857363745,17.720986831375498,-8.604250342815693,-0.5045126942092143
-7.780253185,-46.68151911,7.981691898892278,-0.299482072777779,7e-07,1.0461505808724127e-07,0.0,216,6,77.97964738487973,374.82378,mp-1215186,ZrTiCo4,https://materialsproject.org/materials/mp-1215186,60.934503024863304,64.17442780853739,-8.604250342815693,-0.5045126942092143