energy_per_atom,energy,density,formation_energy_per_atom,total_magnetization_uB,total_magnetization_T,band_gap,sgr,num_sites,cell_volume,weight,mp_id,formula,URL,tsne_cry_lin1_0,tsne_cry_lin1_1,tsne_cry_lin2_0,tsne_cry_lin2_1
-9.062966750789473,-344.39273653,8.05598812002439,-0.011180335526316148,25.53958995,0.5712554961037188,0.0,194,38,521.0278720677272,2527.73,mp-1196805,Gd2Fe17,https://materialsproject.org/materials/mp-1196805,50.83626091212604,72.79752080397448,-8.604250342815693,-0.5045126942092143
-9.062498141578947,-172.18746469,8.068681513963847,-0.010711726315791065,25.7351263,1.1530722679262373,0.0,166,19,260.1041037693142,1263.865,mp-581734,Gd2Fe17,https://materialsproject.org/materials/mp-581734,50.828273285196026,72.8068849325313,-8.604250342815693,-0.5045126942092143
-6.5855590975,-79.02670917,8.156102663144425,-0.1303148908333339,9.1019016,0.624007913469915,0.0,160,12,169.98847051477145,834.935755,mp-1227012,Ce2MgCo9,https://materialsproject.org/materials/mp-1227012,42.07476774668442,76.91121269074708,-8.604250342815693,-0.5045126942092143
-6.8175243466666675,-40.90514608,8.74041847901478,-0.055466240833334034,2.9368325,0.339732777800183,0.0,74,6,100.74399180078166,530.27639,mp-1219068,SmFeCo,https://materialsproject.org/materials/mp-1219068,43.613660214681495,76.08990519894428,-8.604250342815693,-0.5045126942092143
-7.7213102262068976,-223.91799656,8.778598663409529,-0.06460399448275995,49.28022429999999,1.335157549292135,0.0,225,29,430.14768279815115,2274.01692,mp-2759,Ho6Fe23,https://materialsproject.org/materials/mp-2759,51.74081308113486,73.34805792569524,-8.604250342815693,-0.5045126942092143
-7.852343994827587,-227.71797585,8.186502436776957,-0.06680871586206942,51.3345573,1.3838706347496608,0.0,44,29,432.306489365677,2131.2827,mp-1216220,Y2Er4Fe23,https://materialsproject.org/materials/mp-1216220,51.770048816822936,73.21673670728696,-8.604250342815693,-0.5045126942092143
-8.224148659999999,-106.91393258,8.030744500334832,0.0590746317307684,19.0052708,1.3182520178074997,0.0,71,13,168.01692994304273,812.56809,mp-1220585,Nd(MnFe5)2,https://materialsproject.org/materials/mp-1220585,51.503250941525295,71.00038062128493,-8.604250342815693,-0.5045126942092143
-7.5961678410000015,-75.96167841,7.065480925505179,-0.3044940816666681,0.6951871000000001,0.06327218746731998,0.0,123,10,128.0460786444673,544.827375,mp-1217224,Ti4Co5Ni,https://materialsproject.org/materials/mp-1217224,45.96300006792323,75.81373679742454,-8.604250342815693,-0.5045126942092143
-5.63964380125,-45.11715041,8.664545286188227,-0.2175947702083336,2.08204495,0.16526660764392986,0.0,51,8,146.819052273153,766.0887799999999,mp-1079575,SmInCo2,https://materialsproject.org/materials/mp-1079575,41.29889402461943,78.87831710188021,-8.604250342815693,-0.5045126942092143
-8.879095946206899,-257.49378244,7.69326457762043,-0.0436308389655198,29.0800933,0.7761753375132263,0.0,160,29,436.629810985851,2022.90255,mp-1225167,Gd3Y3Fe23,https://materialsproject.org/materials/mp-1225167,51.6951536524766,73.11261271469027,-8.604250342815693,-0.5045126942092143
-8.060165994210527,-306.28630778,7.922944026709255,-0.009193823333333741,73.47179890000001,1.6392836245264684,0.0,8,38,522.3288334771348,2492.192,mp-1219364,Sm4TiFe33,https://materialsproject.org/materials/mp-1219364,50.89461645399538,72.58026269663144,-8.604250342815693,-0.5045126942092143
-7.731564806896551,-224.21537940000002,8.895246587604216,-0.07706214551724158,49.0102222,1.3372698962341305,0.003600000000000492,225,29,427.1152036285295,2287.989,mp-2162,Er6Fe23,https://materialsproject.org/materials/mp-2162,51.75928362893516,73.33259071307567,-8.604250342815693,-0.5045126942092143
-7.921559731578947,-301.0192698,7.5088605907785535,0.027315208157894608,76.2705612,1.651689775498484,0.0,8,38,538.1531530011545,2433.4971386,mp-1219956,Pr4AlFe33,https://materialsproject.org/materials/mp-1219956,50.57865071588561,72.98527510357674,-8.604250342815693,-0.5045126942092143
-8.077450034210527,-306.9431013,8.672193801807081,-0.03172043263158068,36.24311535,0.8488749797929863,0.0,194,38,497.57576074542504,2598.598,mp-1195842,Lu2Fe17,https://materialsproject.org/materials/mp-1195842,51.10528072011618,71.1662220877569,-8.604250342815693,-0.5045126942092143
-8.019746488823529,-545.34276124,8.514447136696878,-0.12751728803921564,30.710559025,0.4015390654242244,0.0,136,68,891.3275815411502,4570.3,mp-4214,Lu2Fe14B,https://materialsproject.org/materials/mp-4214,56.31976460823118,77.21047826518989,-8.604250342815693,-0.5045126942092143
-7.1520523716666675,-42.91231423,10.026904149044439,-0.20799653000000026,5.811947900000001,0.7868170032857297,0.0,191,6,86.08458764679918,519.80826,mp-1217336,ThFe2Ni3,https://materialsproject.org/materials/mp-1217336,30.33265175580509,81.85508455521128,-8.604250342815693,-0.5045126942092143
-7.8239821615789475,-297.31132214,8.23449228724563,-0.10269511315789707,29.9090845,0.7016624933040135,0.0,194,38,496.7664815738375,2463.42884,mp-1200417,Tm2Fe15Si2,https://materialsproject.org/materials/mp-1200417,50.50281165194552,70.54455213976146,-8.604250342815693,-0.5045126942092143
-7.301804744210527,-277.46858028,8.32689374722213,-0.10493495842105384,29.00389135,0.6439943760011689,0.0,194,38,524.8698452120801,2631.998,mp-1203342,Dy2Ga3Fe14,https://materialsproject.org/materials/mp-1203342,48.18846127693408,70.9635788029151,-8.604250342815693,-0.5045126942092143
-8.043115152894737,-305.63837581,7.820210502769897,0.024174346776314786,80.29408559999999,1.7695566959151352,0.0,8,38,528.8061561384013,2490.38135,mp-1217543,TbNd3Fe34,https://materialsproject.org/materials/mp-1217543,50.855082423569705,72.86965084513052,-8.604250342815693,-0.5045126942092143
-8.341249648676468,-567.20497611,7.271850865696527,-0.0707864686029425,29.946666675,0.3932338272983861,0.0,136,68,887.5136596218692,3886.6096,mp-1207957,Y2Fe14C,https://materialsproject.org/materials/mp-1207957,56.442935619524924,76.55531946116919,-8.604250342815693,-0.5045126942092143
-8.04966749631579,-152.94368243,7.9133082845072655,0.016112661842103797,39.633948700000005,1.7608169943098826,0.0,166,19,262.3194839865453,1250.085,mp-1426,Sm2Fe17,https://materialsproject.org/materials/mp-1426,50.793089887550174,72.9027436970769,-8.604250342815693,-0.5045126942092143
-7.50629369,-142.61958011,7.942112298802299,-0.006873084999999659,30.431805400000002,1.3402749381691457,0.0,166,19,264.6130440684057,1265.605,mp-1106126,Nd2Ga2Fe15,https://materialsproject.org/materials/mp-1106126,51.10580952100343,70.77544504744998,-8.604250342815693,-0.5045126942092143
-7.950359883076923,-103.35467848,8.067217322246808,-0.2599897407692315,20.3877611,1.4619115258681603,0.0,71,13,162.52713260863936,789.5880000000002,mp-1222514,Lu(Fe5Si)2,https://materialsproject.org/materials/mp-1222514,49.705293187252025,69.1312502881532,-8.604250342815693,-0.5045126942092143
-8.04329310263158,-152.82256895,7.839105234965387,0.025052658947367645,40.1059653,1.7737603631994496,0.0,160,19,263.50657454604266,1243.9669999999999,mp-1220091,NdSmFe17,https://materialsproject.org/materials/mp-1220091,50.84708839432029,72.81393943915776,-8.604250342815693,-0.5045126942092143
-8.185056343684211,-311.03214106,7.966794774432173,0.008931616842104225,36.84716085,0.8377669174200499,0.0,194,38,512.5759806238782,2459.194,mp-1195962,Ce2Fe17,https://materialsproject.org/materials/mp-1195962,50.73937895987328,72.54580363775403,-8.604250342815693,-0.5045126942092143
-8.20820617,-32.83282468,8.781586883474786,-0.026598537499999964,9.0372481,2.0595190551329026,0.0,225,4,51.13848034598328,270.4405,mp-1184364,Fe3Rh,https://materialsproject.org/materials/mp-1184364,50.355227519811145,74.35727037039038,-8.604250342815693,-0.5045126942092143
-6.388896663333332,-19.16668999,9.779634466890386,0.0771468800000008,3.7158812000000006,1.1371293248337329,0.0,164,3,38.08284532479959,224.28639,mp-1226439,Co2Pd,https://materialsproject.org/materials/mp-1226439,48.014277506778285,78.20122372730289,-8.604250342815693,-0.5045126942092143
-6.375983388333334,-38.25590033,8.282571867075758,-0.24005918333333415,4.1322506,0.5696901860676082,0.0,65,6,84.53281683025787,421.63966860000005,mp-1217565,TbAlCo4,https://materialsproject.org/materials/mp-1217565,41.031185337561325,77.83207046083591,-8.604250342815693,-0.5045126942092143
-7.629285428684209,-289.91284629,6.649713405159253,-0.12314279605263173,28.4335328,0.6376083299252046,0.0,194,38,519.7018567852962,2081.1726316,mp-1196730,Y2Al3Fe14,https://materialsproject.org/materials/mp-1196730,48.13556087722706,70.96654416961286,-8.604250342815693,-0.5045126942092143
-8.063346318421052,-306.4071601,7.888907145044455,0.004741500000000387,74.402764,1.6246590835755856,0.0,8,38,533.7086652081812,2535.549,mp-1219455,Sm4ZrFe33,https://materialsproject.org/materials/mp-1219455,50.8514722517026,72.84229595537099,-8.604250342815693,-0.5045126942092143
-7.920432246,-39.60216123,7.147327243163258,-0.067504117,8.9041806,1.7761823651793085,0.0,69,5,58.422997262724024,251.4655,mp-1225135,Fe4Si,https://materialsproject.org/materials/mp-1225135,49.758168060488345,69.19902739984961,-8.604250342815693,-0.5045126942092143
-8.033486827647058,-546.27710428,7.660381764736303,-0.009271568627450306,51.8826374,0.6484706111850523,0.0,35,68,932.414833304269,4301.406599999998,mp-1221071,Nd4Cr3Fe25B2,https://materialsproject.org/materials/mp-1221071,55.87626387488614,77.78070442593261,-8.604250342815693,-0.5045126942092143
-7.740772076499999,-154.81544153,7.495417977252682,-0.08818001618749917,28.8095922,1.2583510500777046,0.0,12,20,266.8165243308675,1204.3687772,mp-1219359,Sm2Al2Fe15C,https://materialsproject.org/materials/mp-1219359,56.06800902173882,75.18771461436096,-8.604250342815693,-0.5045126942092143
-8.184547146315786,-155.50639578,7.893731904346608,0.009440814210526132,37.074909600000005,1.6704289774258845,0.0,166,19,258.6601428460708,1229.597,mp-654,Ce2Fe17,https://materialsproject.org/materials/mp-654,50.70288135415228,72.68072500927602,-8.604250342815693,-0.5045126942092143
-8.022877665789473,-152.43467565,7.6511869632185165,0.04999010789473489,40.1543287,1.751329501345779,0.0,166,19,267.203371615025,1231.1803,mp-880,Pr2Fe17,https://materialsproject.org/materials/mp-880,50.65278234787349,73.02184977756897,-8.604250342815693,-0.5045126942092143
-8.06355452736842,-306.41507204,7.691359883602169,0.03959329302631581,79.5922301,1.7453805742887434,0.0,8,38,531.4445563574974,2461.56895,mp-1227066,CePr3Fe34,https://materialsproject.org/materials/mp-1227066,50.65887490511239,72.97632319812719,-8.604250342815693,-0.5045126942092143
-9.148338195441175,-622.08699729,8.502761109880687,0.01812785522058809,0.53305995,0.0071751518384990005,0.0,136,68,865.8095779415604,4433.3628,mp-1197388,Gd2Fe14C,https://materialsproject.org/materials/mp-1197388,56.39537064893624,76.35134563945755,-8.604250342815693,-0.5045126942092143
-8.1950181764,-819.50181764,7.965581742240317,0.2648126935999994,1.0366109799999998,0.010377132095425713,0.0,1,100,1164.168615545698,5584.5,mp-1245108,Fe,https://materialsproject.org/materials/mp-1245108,51.35723659784757,72.25918474335991,-8.604250342815693,-0.5045126942092143
-7.414673808000001,-37.07336904,9.528075451445119,0.12652548799999866,6.485252099999999,1.2876111242275563,0.0,166,5,58.69749539879076,336.80278,mp-1226024,Co4Ru,https://materialsproject.org/materials/mp-1226024,47.57339198065589,79.21643842598667,-8.604250342815693,-0.5045126942092143
-7.303766902307693,-94.94896973,8.843208819772363,-0.12419249423077015,11.1880166,0.8009886633898403,0.0,2,13,162.78116793946984,866.8919099999999,mp-1217037,UFe5Si2Ni5,https://materialsproject.org/materials/mp-1217037,49.025828958435866,70.43414693551584,-8.604250342815693,-0.5045126942092143
-8.4366174375,-168.73234875,8.80808917955591,-0.04349713193750091,36.022580299999994,1.5621844677569363,0.0,12,20,268.73233779728747,1425.45182,mp-1217390,Th2Fe17C,https://materialsproject.org/materials/mp-1217390,56.58298537871454,76.28726796340075,-8.604250342815693,-0.5045126942092143
-7.67703727,-30.70814908,8.949965826827365,0.06463445000000068,0.619169,0.1699851915170982,0.0,221,4,42.449789694975856,228.79568500000002,mp-1008280,CrCo3,https://materialsproject.org/materials/mp-1008280,45.86398167761117,79.73180314221595,-7.2508009745933615,1.3289373863069194
-6.3810385216666665,-38.28623113,8.191080124740521,-0.2487844483333331,4.2610931,0.5760798089896689,0.0,65,6,86.20169326260441,425.2143186,mp-1225293,DyAlCo4,https://materialsproject.org/materials/mp-1225293,41.0030007789455,77.86511398788556,-8.604250342815693,-0.5045126942092143
-7.679998038,-153.59996076,8.042860134714596,-0.029207591687500662,27.348550899999996,1.198518019503352,0.0,12,20,265.92990546468315,1288.03779,mp-1219405,Sm2Mn2Ga2Fe13C,https://materialsproject.org/materials/mp-1219405,55.741904561005725,74.97331174042117,-8.604250342815693,-0.5045126942092143
-8.034399166842105,-152.65358417,7.7463489618249035,0.0365121981578945,39.969264100000004,1.7554314569993854,0.0,166,19,265.350373479782,1237.849,mp-1510,Nd2Fe17,https://materialsproject.org/materials/mp-1510,50.90433890317472,72.73369420320591,-8.604250342815693,-0.5045126942092143
-8.2621708075,-165.24341615,7.730567640791932,-0.016608565937501398,35.8517653,1.5666279446132254,0.0,12,20,266.6994396809132,1241.6077,mp-1227149,Ce2Fe17C,https://materialsproject.org/materials/mp-1227149,56.352665332486936,76.88438502563433,-8.604250342815693,-0.5045126942092143
-8.197878605365856,-336.11302282,8.189925257182402,-0.06177335893292826,75.24583179999999,1.6610527212789463,0.0,2,41,527.9301411860894,2603.7981,mp-1225867,Er4Fe34C3,https://materialsproject.org/materials/mp-1225867,56.945669276238405,75.64878659453301,-8.604250342815693,-0.5045126942092143
-7.885158343846153,-102.50705847,8.133082738692668,-0.19478820153846227,19.2370337,1.390660418851411,0.0,69,13,161.21091370162011,789.5880000000002,mp-1222439,Lu(Fe5Si)2,https://materialsproject.org/materials/mp-1222439,49.67834282248745,69.15793821735656,-8.604250342815693,-0.5045126942092143
-7.4530032775,-149.06006555,8.100283955276332,-0.07463014968749918,29.3163531,1.2828931829516994,0.0,12,20,266.3157638241924,1299.116285,mp-1219365,Sm2Ga2Fe12Co3C,https://materialsproject.org/materials/mp-1219365,55.78839596497268,75.41401840354888,-8.604250342815693,-0.5045126942092143
-6.240386968928571,-174.73083513,8.443322883322415,-0.17069905428571375,11.454008300000002,0.3612556937346952,0.0,42,28,369.5049156281749,1878.8172,mp-1220102,PrGa3Co10,https://materialsproject.org/materials/mp-1220102,40.42341491958268,77.63255359488677,-8.604250342815693,-0.5045126942092143
-7.9941361375,-31.97654455,9.252551867499028,-0.13335558999999986,1.5863489,0.3819425342888927,0.0,221,4,48.40365021638401,269.705965,mp-1018021,NbCo3,https://materialsproject.org/materials/mp-1018021,47.43845369860055,78.9608748176473,-8.604250342815693,-0.5045126942092143
-7.850696396052631,-298.32646305,8.158860130661223,-0.2797276557894726,26.073576199999998,0.6217681402214233,0.0,194,38,488.70813126394586,2401.209,mp-1204517,Er2Fe14Si3,https://materialsproject.org/materials/mp-1204517,49.65359971513972,69.03900962396753,-8.604250342815693,-0.5045126942092143
-8.395368302962963,-226.67494418,7.214440551563955,-0.14359888317456868,44.7990148,1.496096014983539,0.0,8,27,348.96865909492095,1516.1423999999995,mp-1216299,Y2Ti2Fe22N,https://materialsproject.org/materials/mp-1216299,56.948632436774,76.61543634471067,-8.604250342815693,-0.5045126942092143
-8.7426838525,-34.97073541,7.739818493193454,-0.12800936500000049,4.998118700000001,1.2426846943747176,0.0,225,4,46.87303169856028,218.4765,mp-866134,VFe3,https://materialsproject.org/materials/mp-866134,52.98163723640965,72.11845128916589,-8.604250342815693,-0.5045126942092143
-8.079766000526314,-153.51555401,7.906539960549869,-0.009370521842105229,34.806186700000005,1.5024891142371566,0.0,160,19,269.97437149057413,1285.464,mp-1219342,Sm2ZrFe16,https://materialsproject.org/materials/mp-1219342,50.99116609890557,72.75161692044526,-8.604250342815693,-0.5045126942092143
-6.46964871375,-258.78594855,7.8478720287847015,-0.17526268625000013,15.5381785,0.2366034646125964,0.0,140,40,765.3435632613887,3617.0895100000002,mp-1200065,La6Co13Bi,https://materialsproject.org/materials/mp-1200065,42.835681552556494,80.85484548233875,-8.604250342815693,-0.5045126942092143
-8.085428334117648,-549.80912672,7.757350865759518,-0.015234398455882403,30.842982525,0.3878649885676022,0.0,136,68,926.7299878050937,4329.2988,mp-1199650,Nd2Fe14C,https://materialsproject.org/materials/mp-1199650,56.28934028166749,77.47735931169159,-8.604250342815693,-0.5045126942092143
-8.368563284615384,-108.7913227,8.809439137683716,-0.15761411115384652,16.6959102,1.2106425843070148,0.0,69,13,160.72061352361652,852.6499100000002,mp-1216849,U(Fe5Si)2,https://materialsproject.org/materials/mp-1216849,49.87953405213829,69.03643964227734,-8.604250342815693,-0.5045126942092143
-7.357413302499999,-88.28895963,9.895512021116453,-0.1898929283333336,13.359879500000002,0.8949268008760596,0.0,47,12,173.97724695939152,1036.7681200000004,mp-1217364,Th2(FeNi)5,https://materialsproject.org/materials/mp-1217364,30.37171622093072,81.87999771998815,-8.604250342815693,-0.5045126942092143
-5.88304576,-82.36264064,8.535796518010715,-0.04888702535714223,12.0899683,0.6160955052283212,0.0,65,14,228.69388344941385,1175.5727550000001,mp-1103832,Sm2(InCo3)3,https://materialsproject.org/materials/mp-1103832,41.23647862898208,78.43867426161566,-8.604250342815693,-0.5045126942092143
-7.559925387500001,-90.71910465,8.83951279896767,-0.05818606250000021,5.849310866666666,0.37051830815297376,0.0034000000000000696,166,12,183.98078101670043,979.38105,mp-2584,TbFe3,https://materialsproject.org/materials/mp-2584,43.291081006578295,70.05144391720998,-8.604250342815693,-0.5045126942092143
-7.182915208421052,-136.47538896,7.042835443112887,-0.1090777218421064,24.6644853,1.0744673698127964,0.0,160,19,267.51999859998267,1134.6311544000002,mp-1219212,Sm2Al4Fe13,https://materialsproject.org/materials/mp-1219212,48.08980699752285,71.23909212364731,-8.604250342815693,-0.5045126942092143
-8.102477635147059,-550.96847919,8.06563967145741,-0.03801857772058818,30.05502455,0.38858353799555895,0.0,136,68,901.3845636728306,4378.2428,mp-1196278,Sm2Fe14C,https://materialsproject.org/materials/mp-1196278,56.33419511382282,77.35586116909145,-8.604250342815693,-0.5045126942092143
-7.988667903676472,-543.22941745,8.035202167304734,-0.07929636656862726,31.054683125,0.3973600830122622,0.0,136,68,910.7942747709213,4407.25328,mp-1220477,NdHoFe14B,https://materialsproject.org/materials/mp-1220477,56.2814104749381,77.8028236770874,-8.604250342815693,-0.5045126942092143
-7.666547140689657,-222.32986708,8.154009848257308,0.018770261206895088,52.1491525,1.3648297261065336,0.0,225,29,445.2933501110266,2186.5950000000007,mp-1193555,Sm6Fe23,https://materialsproject.org/materials/mp-1193555,51.30915903233265,73.25561019026465,-8.604250342815693,-0.5045126942092143
-5.64638811375,-45.17110491,8.939392532161923,-0.24656018708333335,2.1874428,0.1752223778274487,0.0,51,8,145.48712552327837,783.21948,mp-20346,TbInCo2,https://materialsproject.org/materials/mp-20346,41.275725236515775,78.81564073449582,-8.604250342815693,-0.5045126942092143
-7.665812784736842,-145.65044291,7.9513904191410045,-0.043315584210528425,29.6719563,1.3169229723865403,0.0,166,19,262.5809617567082,1257.353,mp-1182265,Ce2Ga2Fe15,https://materialsproject.org/materials/mp-1182265,50.29601535274206,71.24983864127252,-8.604250342815693,-0.5045126942092143
-7.898499698499999,-157.96999397,7.570265501187854,-0.07818623968750131,31.0459417,1.3670655880625124,0.0,12,20,264.6628067126559,1206.5767,mp-1219255,Sm2Fe15Si2C,https://materialsproject.org/materials/mp-1219255,55.7554868125024,75.08788622617227,-8.604250342815693,-0.5045126942092143