energy_per_atom,energy,density,formation_energy_per_atom,total_magnetization_uB,total_magnetization_T,band_gap,sgr,num_sites,cell_volume,weight,mp_id,formula,URL,tsne_cry_lin1_0,tsne_cry_lin1_1,tsne_cry_lin2_0,tsne_cry_lin2_1
-4.524054996666666,-13.57216499,4.030357558329503,0.0279781425400009,6e-07,1.6662083206541055e-07,0.0,38,3,41.966174198378646,101.8577,mp-1247391,MgCuN,https://materialsproject.org/materials/mp-1247391,-2.426649093817837,44.62283119114683,0.7025241638646292,-2.397601590693598
-4.3979770251724135,-127.54133373,9.049469148339618,-0.19396372827586206,5.550000000000001e-05,1.4466639862042324e-06,0.0,225,29,447.0980138063317,2436.558,mp-1194041,Dy6Cu23,https://materialsproject.org/materials/mp-1194041,3.6485674888324735,44.30154029004639,-8.604250342815693,-0.5045126942092143
-7.458790101666667,-44.75274061,8.853794289641035,-0.7789599769444434,0.5688982,0.07247925902920853,0.0,187,6,91.47412046694343,487.729,mp-1226584,CeSiBRh3,https://materialsproject.org/materials/mp-1226584,15.778324821515081,39.802444458647955,-8.604250342815693,-0.5045126942092143
-4.093352785,-16.37341114,6.3329566981673935,-0.5419849800000005,0.00014795,1.3489024709617255e-05,0.0,63,4,127.82383606065245,487.494,mp-1008505,BaPd,https://materialsproject.org/materials/mp-1008505,-13.229167146731372,48.221181787281935,-8.604250342815693,-0.5045126942092143
-5.0155574575,-20.06222983,6.8108008828441156,1.0029950549999995,1.0969186000000002,0.1623654465920092,0.0,216,4,78.7332568779116,322.92919500000005,mp-631696,Ca2CoW,https://materialsproject.org/materials/mp-631696,13.483545507346886,45.88292504833781,-8.604250342815693,-0.5045126942092143
-5.637771074583332,-135.30650579,9.031574284966213,-0.43491048958333306,3.818333333333334e-05,9.268043783032385e-07,0.0,62,24,480.1348054846035,2611.425,mp-672240,TbNi,https://materialsproject.org/materials/mp-672240,2.087733238288373,58.939483232204076,-8.604250342815693,-0.5045126942092143
-5.866723776000001,-29.33361888,3.106815849857035,-0.2230335187519991,1.3222208999999998,0.2288311298969361,0.0,164,5,67.33894998976925,125.98903856,mp-1245886,Na2CrN2,https://materialsproject.org/materials/mp-1245886,3.633456938698666,4.158809027584398,-8.604250342815693,-0.5045126942092143
-3.5157685875,-14.06307435,9.470209918616769,-0.2780466252083338,0.00013659999999999999,1.624079482456285e-05,0.0,225,4,98.02138781557473,559.02517,mp-867817,LaTlAg2,https://materialsproject.org/materials/mp-867817,-6.6506219603211205,50.55933533056253,-8.604250342815693,-0.5045126942092143
-7.136759522222222,-64.23083570000001,7.190856228396259,-0.593470222777778,0.2551797,0.023922913943267142,0.0,189,9,124.31097480410904,538.3205849999998,mp-22769,TiCoGe,https://materialsproject.org/materials/mp-22769,46.79760957595725,51.350133973396225,-8.604250342815693,-0.5045126942092143
-5.7748431925,-23.09937277,11.113805568443391,-0.6503512349999996,4.6e-05,6.948241815994971e-06,0.0,225,4,77.15433540376567,516.3855,mp-973951,Lu2CuRh,https://materialsproject.org/materials/mp-973951,-9.842161294351307,55.5497876736035,-8.604250342815693,-0.5045126942092143
-6.850700297222222,-369.93781605,5.655684260141503,-2.533581757770369,15.000001199999998,0.2197607124366518,1.2986000000000004,64,54,795.4605881779898,2709.28525,mp-30895,Ba6Mn5O16,https://materialsproject.org/materials/mp-30895,-32.943092113394535,-23.570736713472897,3.631643545191685,-5.39434367708171
-5.149329338636363,-113.28524545,9.359168650547478,-0.5941759940909095,4.6e-06,1.628929487664126e-07,0.0,229,22,329.10385845276267,1854.9028,mp-1191851,Yb3(SiNi3)2,https://materialsproject.org/materials/mp-1191851,29.629722483733183,75.0240813764502,-8.604250342815693,-0.5045126942092143
-5.711092857878787,-188.46606431,4.924148830110455,-2.277758776190605,14.0000001,0.33683994532657857,0.0,12,33,484.375176533934,1436.36217,mp-1218637,Sr8Co6Cl4O15,https://materialsproject.org/materials/mp-1218637,-34.368846360941724,-16.727897217090327,-8.604250342815693,-0.5045126942092143
-7.970500451111111,-71.73450406,5.425512689104068,-3.1222552104166663,1.530435,0.10799229056912166,0.0,123,9,165.1579805021026,539.6239999999998,mp-1186702,Pr2Y2O5,https://materialsproject.org/materials/mp-1186702,-12.379252939249687,35.35410298296243,-8.604250342815693,-0.5045126942092143
-6.33852974875,-50.70823799,6.758639404836528,-0.6328120237499997,1e-06,8.091212000092875e-08,0.0,63,8,144.0336104458259,586.23809,mp-1078645,YCoGe2,https://materialsproject.org/materials/mp-1078645,19.880697397424342,67.30008864273539,-8.604250342815693,-0.5045126942092143
-6.142037538333334,-36.85222523,7.538722925912628,-0.3351734783333337,7.0843858,0.6570502082740334,0.0,12,6,125.6553760235144,570.466,mp-1225215,EuGaCu,https://materialsproject.org/materials/mp-1225215,-8.071385454824574,67.65728420675174,-8.604250342815693,-0.5045126942092143
-3.6836685925,-29.46934874,6.236707235166104,-0.3626016054166668,1e-07,6.664088633799535e-09,0.0,63,8,174.8785980044074,656.8148,mp-1080611,CaIn2Ni,https://materialsproject.org/materials/mp-1080611,-14.242496795750329,51.732951984066105,-8.604250342815693,-0.5045126942092143
-6.499942204166668,-77.99930645,9.615339892986649,-0.9675592658333336,0.0,0.0,0.0,62,12,231.04826676884903,1337.8834000000004,mp-22816,TbGeRh,https://materialsproject.org/materials/mp-22816,15.886799025990527,63.212161257644084,-8.604250342815693,-0.5045126942092143
-4.107032843333333,-197.13757648,3.048396668340307,-1.3458116384999999,0.0,0.0,1.605,92,48,716.9200820517191,1316.1128627199996,mp-779502,Na3CuO2,https://materialsproject.org/materials/mp-779502,15.479958310769597,-18.195222185600517,8.329865185722332,-3.674332519486817
-6.2491684745454545,-68.74085322,6.507738235235452,-0.7399301195454548,0.0,0.0,0.0,71,11,168.4594636508905,660.2013360000001,mp-22490,Sc3(NiGe)4,https://materialsproject.org/materials/mp-22490,16.590790411070802,75.7129325077572,-8.604250342815693,-0.5045126942092143
-5.4126225,-108.25245,3.1100235167328987,-0.5834830579519995,4.01995175,0.18796974725807,0.0,59,20,249.23573479483602,466.7936,mp-1246412,Mg5FeN4,https://materialsproject.org/materials/mp-1246412,0.9399601667349584,4.074112543797979,-8.604250342815693,-0.5045126942092143
-8.861430663333334,-531.6858398,10.534994203088477,-0.4589899867395853,0.0051110166666666675,4.1972762483486855e-05,0.0,2,60,1419.113628996888,9003.31368,mp-676291,Ta6Te3S,https://materialsproject.org/materials/mp-676291,39.20095375976078,66.19457473430384,-8.604250342815693,-0.5045126942092143
-6.9788750099999985,-76.76762511,9.896919863082006,-0.7509717763636364,0.0001002,6.640329989445169e-06,0.0,187,11,175.85531021298704,1048.109,mp-1103596,Ce(Ge2Rh3)2,https://materialsproject.org/materials/mp-1103596,34.202124366778285,53.29316215420381,-8.604250342815693,-0.5045126942092143
-6.106210829999998,-73.27452996,9.557345018488721,-0.6728269166666662,4.23e-05,2.37366044381024e-06,0.0,62,12,207.68216497215423,1195.3287799999996,mp-1095692,ErCoGe,https://materialsproject.org/materials/mp-1095692,21.299406394524368,69.57004540542256,-8.604250342815693,-0.5045126942092143
-4.24185238,-16.96740952,8.243057182875043,-0.7699982412500002,2.7000000000000004e-06,3.667023005476095e-07,0.0,225,4,85.80795604205895,425.958,mp-1183592,CaYbPd2,https://materialsproject.org/materials/mp-1183592,14.52340187966785,45.844541920233574,-8.604250342815693,-0.5045126942092143
-3.950090503977272,-347.60796435,7.946725326994745,-0.5758006769318175,1.25e-07,7.462281489371763e-10,0.0026000000000001573,14,88,1952.1618135750648,9342.324,mp-1203855,LiYb8Ge13,https://materialsproject.org/materials/mp-1203855,-2.7190504156537183,52.1610991100852,-8.604250342815693,-0.5045126942092143
-2.999015315,-11.99606126,9.658787601396254,-0.27710803270833306,0.0026379999999999997,0.00032207080425557656,0.0,225,4,95.45547893132307,555.2318700000002,mp-1184971,LaAg2Hg,https://materialsproject.org/materials/mp-1184971,-19.287804805480555,56.04208216788356,-8.604250342815693,-0.5045126942092143
-4.981325767,-49.81325767,4.270803885374463,-0.11370107658482168,3.9276552000000002,0.18184454901724548,0.24259999999999995,148,10,251.7158108530376,647.397524,mp-2928,FePSe3,https://materialsproject.org/materials/mp-2928,20.248845145395887,3.355456893893247,-8.604250342815693,-0.5045126942092143
-7.376895413421052,-280.32202571,3.8335558650527264,-2.9010304088763146,18.9999999,0.468595360338385,0.0,25,38,472.53397761627264,1090.902025,mp-1247630,Ca8Ti3Mn5O22,https://materialsproject.org/materials/mp-1247630,-30.676637724625273,-11.748456904090435,-8.604250342815693,-0.5045126942092143
-8.021008200576922,-417.09242643,2.8748167318655713,-3.0478097295283884,7.499999999999999e-06,1.2540037448170203e-07,1.9456,62,52,697.0113618516472,1206.7044959999996,mvc-9702,Ti2P2O9,https://materialsproject.org/materials/mvc-9702,-0.11677885789971243,-53.33870351399325,4.391707053965316,-1.0769315092480305
-7.213289013333332,-21.63986704,7.20545384026634,-0.3658551383333328,0.004601600000000001,0.0008648957633907303,0.0,216,3,62.00440183354638,269.0511,mp-961720,ZrAsRh,https://materialsproject.org/materials/mp-961720,32.5851148909427,50.37732018268514,-8.604250342815693,-0.5045126942092143
-6.75251788,-27.01007152,8.822648825175298,-0.31300750437500025,0.0,0.0,0.0,38,4,48.13643141451386,255.7548,mp-1064469,YbNiC2,https://materialsproject.org/materials/mp-1064469,-12.989665403967907,12.907348105062535,1.4074810085412597,-1.5553019048171777
-6.699626081,-66.99626081,5.2441610730830535,-2.14744884025,1.01459075,0.09545574549981324,0.0,194,10,123.87003271754921,391.1949,mvc-14342,YNiO3,https://materialsproject.org/materials/mvc-14342,-67.2717818468834,-17.300571940313734,-8.604250342815693,-0.5045126942092143
-5.733299642105262,-108.9326932,6.461746986666832,-2.019625421973684,8.5073911,0.35061934176008397,0.0,1,19,282.7730108304738,1100.370185,mvc-3021,Ba2Ca2Tl2Co3O10,https://materialsproject.org/materials/mvc-3021,-27.56003417711286,-12.950905471683715,-8.604250342815693,-0.5045126942092143
-7.2473743621875,-463.83195918,3.6483180599394975,-0.5802422133774989,0.99389060625,0.01482914921118314,0.0,61,64,781.08766302932,1716.10312,mp-1245658,MgMnN2,https://materialsproject.org/materials/mp-1245658,-0.7187529937674907,9.253205664782275,-8.604250342815693,-0.5045126942092143
-3.4586337866666668,-103.75901359999999,3.4512525628644672,-1.8288720535854104,2.99999995,0.032586664189569514,0.9592,42,30,1072.898825470043,2229.905309,mp-1226391,Cs5CoAgCl8,https://materialsproject.org/materials/mp-1226391,17.76520693907322,-7.19006380264768,6.409955712366211,-4.594952929242612
-4.141548270714286,-57.98167579,5.8201307483640505,-0.8978513214999998,8.290000000000001e-05,2.2516287338362135e-06,0.0,129,14,429.0769411168279,1503.8995400000001,mp-1211368,KLaCuTe4,https://materialsproject.org/materials/mp-1211368,-9.615613118148007,23.116449486472693,-8.604250342815693,-0.5045126942092143
-3.42367523,-13.69470092,6.267702454020472,-0.6303073625000004,9e-06,1.5795649905157022e-06,0.0,225,4,66.4021952770639,250.635,mp-864614,LiMg2Pt,https://materialsproject.org/materials/mp-864614,29.409201031886358,38.23625872751345,-8.604250342815693,-0.5045126942092143
-6.12543810875,-49.00350487,3.2828821494983327,-1.865047155365,3.99999985,0.36561326444041176,2.2362,58,8,127.50154842843959,252.07029000000003,mp-1002574,KMnO2,https://materialsproject.org/materials/mp-1002574,-33.88824029020285,-27.10612246955253,-1.7914863272615085,-2.403728789606963
-5.802411258571429,-81.23375762,9.055118062810793,-0.3391190100000005,0.0005016,2.2035978542772987e-05,0.0,63,14,265.2788428963649,1446.59727,mp-1104279,Tb3GaCo3,https://materialsproject.org/materials/mp-1104279,23.70328474771261,71.87620813084403,-8.604250342815693,-0.5045126942092143
-8.822031238928572,-247.01687469,5.245922750702229,-3.7090096784821434,0.0,0.0,2.1408,12,28,357.94641963251985,1130.8130800000001,mp-758038,La2Ti3O9,https://materialsproject.org/materials/mp-758038,6.071329759975085,-40.73492036551692,-6.1907542019312585,-3.775483941082472
-4.318092574,-21.59046287,4.7427227781063515,-1.66049803075,0.0,0.0,0.0,221,5,139.19841843949578,397.5694,mp-7961,Sr3SnO,https://materialsproject.org/materials/mp-7961,-35.92231645017774,49.33131916209671,-8.604250342815693,-0.5045126942092143
-5.231874445,-20.92749778,3.361290615056386,0.4226311203333335,1e-07,1.5231435249108524e-08,1.1942000000000002,123,4,76.51324108305414,154.87936928,mp-1206388,NaAgC2,https://materialsproject.org/materials/mp-1206388,15.730461967227821,-14.2964517185351,5.893955188280285,-3.2574995610019783
-5.515227740714287,-77.21318837,6.7762670274510075,-1.6081655810714284,2.3800000000000003e-05,6.104239176766864e-07,0.0,220,14,454.38380370578653,1854.23282,mp-879,La3Te4,https://materialsproject.org/materials/mp-879,-10.557526317317672,24.88572910753737,-8.604250342815693,-0.5045126942092143
-8.037881793,-160.75763586,5.551869346685767,-2.9060831578940003,12.9999924,0.6568808511555553,0.5084999999999997,2,20,230.6396254448077,771.123735,mp-1216205,Y4Mn3NiO12,https://materialsproject.org/materials/mp-1216205,-32.37113165978462,-10.635353453210833,-8.604250342815693,-0.5045126942092143
-6.039619145,-96.63390632,9.076576748014778,-0.8112808112499996,0.53812105,0.020135984735592263,0.0,62,16,311.44727484286966,1702.384,mp-1188948,CeGePd2,https://materialsproject.org/materials/mp-1188948,26.563918056648067,51.704360044965846,-8.604250342815693,-0.5045126942092143
-6.184771705,-24.73908682,9.190177646532627,-0.5494538824999999,1.4400000000000001e-05,3.13419923815913e-06,0.0,225,4,53.54430907954265,296.33853860000005,mp-1183191,AlCuRh2,https://materialsproject.org/materials/mp-1183191,34.26555088226813,66.85027001560847,-8.604250342815693,-0.5045126942092143
-4.6774169025,-93.54833805,2.599876104388553,-0.570249763148,0.0,0.0,2.1412,15,20,226.75235289361993,355.02208,mp-866097,CuH6BrN2,https://materialsproject.org/materials/mp-866097,46.70070171105989,-12.654531197354084,8.807892454568663,-0.7367162938924294
-3.9989324675,-31.99145974,5.1679428069635485,-1.3760572299999998,1.0,0.034819340437020264,0.02329999999999988,63,8,334.70090548208594,1041.6588199999999,mp-1025426,CeI3,https://materialsproject.org/materials/mp-1025426,-27.83315400855024,37.426174988028116,-8.604250342815693,-0.5045126942092143
-3.897028302083333,-187.0573585,3.422914866851111,-0.07189203512666667,2.5e-08,4.5032285238027237e-10,0.5571999999999999,206,48,646.9838645185215,1333.64566272,mp-1246233,Na3GaN2,https://materialsproject.org/materials/mp-1246233,4.805402724620691,1.62551729935862,3.522779913305964,-5.345415223984191
-6.562952661111112,-118.13314790000001,4.994505142601095,-2.6730359460788886,4.0000007,0.18453715239802104,0.0,12,18,252.6118271703863,759.79609,mp-1218775,Sr2MnGaO5,https://materialsproject.org/materials/mp-1218775,-31.080766960591067,-12.828192169148053,1.7130572970354083,0.9929773302838932
-6.285084174285713,-87.99117844,4.54935152268597,-2.74514097721,3.99999985,0.20360632227339046,0.0,129,14,228.9528970497072,627.2584899999998,mp-542187,Sr2MnClO3,https://materialsproject.org/materials/mp-542187,-29.376729504426518,-9.469414082013973,-8.604250342815693,-0.5045126942092143
-7.088400945833333,-170.1216227,7.702568325395094,-0.3127369841666656,9.3061138,0.3723853532001735,0.0,141,24,291.2414574686905,1350.95121,mp-1191660,YCo9Si2,https://materialsproject.org/materials/mp-1191660,48.86623933563373,50.4509292181703,-8.604250342815693,-0.5045126942092143
-5.759828643125,-92.15725829,5.777442389595018,0.2804481100900009,0.0,0.0,2.1303,14,16,278.9217202919048,970.4404,mp-636839,HgN3,https://materialsproject.org/materials/mp-636839,33.94150757304115,-14.590543330950124,8.311519091005858,-1.7618112463400837
-6.207223328055557,-893.84015924,4.350618360040037,-2.2547519234722224,27.999982975,0.17751054266718105,0.0,1,144,1838.2773795753205,4816.29346,mp-1099653,Sr2Ca6FeCo7O20,https://materialsproject.org/materials/mp-1099653,-32.900401059397716,-16.135274972955894,-8.604250342815693,-0.5045126942092143
-5.557968351212121,-183.41295559,7.537112858111607,-2.0857840039015154,1e-07,1.748015644005425e-09,0.0,1,33,666.7025442550057,3026.1332,mp-677325,Ba8Tl2Bi2Pb4O17,https://materialsproject.org/materials/mp-677325,38.472613331987795,-5.929086028898745,3.211803080726616,-5.172913652566745
-6.313741295714286,-88.39237814,3.9865700777910753,-1.0714466780357148,11.9882677,0.5611094542937932,0.0,216,14,248.99250443467471,597.7734,mp-1226247,Cr4GaCuS8,https://materialsproject.org/materials/mp-1226247,13.933850470702309,7.0232214451892006,-8.604250342815693,-0.5045126942092143
-8.24167700125,-65.93341601,5.338343723126387,-0.17993088093749954,1e-07,1.3101351552684932e-08,0.0,194,8,88.95314903729425,285.9688772,mp-9956,AlCr2C,https://materialsproject.org/materials/mp-9956,-0.438872646542082,17.36864131569518,-8.604250342815693,-0.5045126942092143
-8.4181938825,-67.34555106,6.7245805145508255,-0.2771616359375013,8.99e-05,1.1308824992174753e-05,0.0,164,8,92.64449876782798,375.1766,mp-1216420,VCrGeC,https://materialsproject.org/materials/mp-1216420,-0.35506251634570857,17.566166059314895,-8.604250342815693,-0.5045126942092143
-3.2442914519999997,-129.77165808,8.086718206021569,-1.8578334477140004,0.0,0.0,2.1963,55,40,758.8905421437346,3695.7480768,mp-998758,TlHgF3,https://materialsproject.org/materials/mp-998758,35.82366289474707,-13.232850607977527,9.658518179657346,-1.648127373687577
-5.6404564287499985,-135.37095429,8.842936131108525,-0.4375958437499996,6.3499999999999985e-06,1.5091103344648913e-07,0.0,11,24,490.3770759213212,2611.425,mp-31139,TbNi,https://materialsproject.org/materials/mp-31139,2.1063555960064506,58.92440249728092,-8.604250342815693,-0.5045126942092143
-5.1596573725,-20.63862949,8.294729141181778,-0.46706762125,0.00045039999999999994,5.700371989883236e-05,0.0,225,4,92.08154806171524,459.966,mp-1186462,Pm2CuPd,https://materialsproject.org/materials/mp-1186462,11.039160217072663,50.065871112833,-8.604250342815693,-0.5045126942092143
-2.00579839,-8.02319356,0.4172235991604053,1.26754649,1.0,0.01592715815124714,0.4517000000000002,71,4,731.7102437164629,183.84799999999998,mp-1097385,Li2CuPd,https://materialsproject.org/materials/mp-1097385,17.559884460080653,-10.336686257781787,4.57192462303959,-6.418112609112514
-6.455321097142857,-90.37449536,4.244157737436471,-1.9069839087771416,7.000480900000001,0.5706861450259553,0.5467,166,14,142.95783866271444,365.384735,mp-769631,Li2Mn3NiO8,https://materialsproject.org/materials/mp-769631,-65.5914982928919,-38.706487750443344,3.6000261125147484,-0.0016781419861313274
-6.33000067125,-50.64000537,9.779435573395789,-0.4989736637499984,2e-07,1.7616752546874254e-08,0.0,129,8,132.306618277697,779.1952,mp-1080723,HfCuGeAs,https://materialsproject.org/materials/mp-1080723,21.862197430793632,39.39530381329246,-8.604250342815693,-0.5045126942092143
-3.95152684375,-31.61221475,6.502811962289015,-0.4408566387499997,0.0,0.0,0.0,63,8,223.84243668104799,876.586,mp-5792,BaCuSn2,https://materialsproject.org/materials/mp-5792,-17.769976901466514,50.702796895164546,-8.604250342815693,-0.5045126942092143
-2.8910956558928573,-161.90135673,2.4399331762401704,-0.28704495587285705,2.7875e-06,2.6315126844119023e-08,1.7662,136,56,1234.4878953441234,1813.9097600000002,mp-707337,K3H3Pd,https://materialsproject.org/materials/mp-707337,31.712602812118522,-20.63781840950032,6.406203529749228,-4.963163709680142
-6.7896438733333335,-20.36893162,9.34374535881978,-0.38061151833333423,2e-07,3.653825388275563e-08,0.0,216,3,63.791032871769886,358.94800000000004,mp-961681,ZrGePt,https://materialsproject.org/materials/mp-961681,29.119676179984822,52.591999727677965,-8.604250342815693,-0.5045126942092143
-1.12716657,-22.5433314,5.3968045387553225,-0.2026494747000001,0.00086605,1.7442639289596842e-05,0.0,136,20,578.6396558859648,1880.59723136,mp-17974,Na3Hg2,https://materialsproject.org/materials/mp-17974,-13.818703485437313,47.46178638145633,-8.604250342815693,-0.5045126942092143