energy_per_atom,energy,density,formation_energy_per_atom,total_magnetization_uB,total_magnetization_T,band_gap,sgr,num_sites,cell_volume,weight,mp_id,formula,URL,tsne_cry_lin1_0,tsne_cry_lin1_1,tsne_cry_lin2_0,tsne_cry_lin2_1
-5.267387244782608,-121.14990663,6.646007696303022,-1.7669419441304353,1e-07,3.8788198860938656e-09,0.0,139,23,300.4538781071329,1202.5123999999996,mvc-10565,Ba2Mg3Tl2(CuO3)4,https://materialsproject.org/materials/mvc-10565,-47.919444132107884,-4.884403770131397,-8.604250342815693,-0.5045126942092143
-6.987425562916666,-167.69821351,3.926150130161985,-2.9955139246875007,0.9999998,0.033854867305954765,0.15879999999999986,113,24,344.23595096167725,813.9056,mp-15748,Sr2CuSi2O7,https://materialsproject.org/materials/mp-15748,-53.990908900017224,-19.60111259178709,2.1361932204584,-0.4630646806945609
-6.03531011,-24.14124044,12.32049779790942,-0.8481644800000003,7.1e-06,1.1085310807182491e-06,0.0,225,4,74.64279651190445,553.818,mp-865663,YbLuRh2,https://materialsproject.org/materials/mp-865663,13.937605468241575,47.9624055515294,-8.604250342815693,-0.5045126942092143
-5.490744814166668,-263.55575108,1.9836100221389619,-0.5697244654699993,2.5e-08,3.146260599212862e-10,3.8504,130,48,926.0250704817116,1106.19056,mp-777297,K5H(CN2)2,https://materialsproject.org/materials/mp-777297,4.955800905540278,0.14344301971540116,4.295529307750009,-4.556300261970382
-7.342165225333332,-220.26495676,4.2375358775951035,-2.5610156527753323,4.000000016666667,0.15260960389873296,0.8841999999999999,36,30,305.46084973398075,779.5067015999999,mp-1258775,MnAlO3,https://materialsproject.org/materials/mp-1258775,-42.486416353645176,-21.27648502486871,3.1840670557413104,-0.9550129981988588
-5.98702839,-35.92217034,7.485836007735478,-0.4216381783333329,0.20899945,0.022327736214944497,0.0,227,6,109.08822570642349,491.778,mp-571262,CaRh2,https://materialsproject.org/materials/mp-571262,40.808551288487635,73.32057963652265,-8.604250342815693,-0.5045126942092143
-4.218949420833334,-101.25478609999999,4.742720454458401,-0.06853542829333333,1.525e-06,5.1627202441173234e-08,0.0,141,24,344.2458227017898,983.211876,mp-1247381,Li3AuN2,https://materialsproject.org/materials/mp-1247381,32.597017249160025,-7.628097558279529,-8.604250342815693,-0.5045126942092143
-2.077221236666667,-12.46332742,4.860136420985142,-0.3019306302777777,2.2e-06,1.952919065231668e-07,0.0,8,6,131.28522812894894,384.2512,mp-1227685,Ca2Zn3Ag,https://materialsproject.org/materials/mp-1227685,-12.6058416009287,49.55026842532937,-8.604250342815693,-0.5045126942092143
-5.549755775454545,-61.04731353,4.572048086407827,-2.3736183683199994,6.0000208,0.3733822888385879,0.04640000000000022,139,11,187.27356152164367,515.62999,mp-1101806,Sr3Co2(ClO2)2,https://materialsproject.org/materials/mp-1101806,-32.0348449740302,-18.414704483224906,-8.604250342815693,-0.5045126942092143
-6.1971847435714285,-173.52117282,5.2341599809453845,-1.753306178571428,0.0,0.0,0.0,62,28,242.22212279763488,763.504688,mp-757006,Be(CoO2)2,https://materialsproject.org/materials/mp-757006,-73.22932543388555,-23.17297257962613,-8.604250342815693,-0.5045126942092143
-2.81095146375,-22.48761171,7.702092582974171,-0.28201650654166643,2.405e-05,1.4457834706264204e-06,0.0,63,8,193.86046629695,899.18467656,mp-21352,NaIn2Au,https://materialsproject.org/materials/mp-21352,-16.047111543514532,49.72430420142013,-8.604250342815693,-0.5045126942092143
-1.089288942,-21.78577884,5.372046992109902,-0.16477184670000006,4.375e-06,8.771026133630776e-08,0.0,136,20,581.3063671586932,1880.59723136,mp-570560,Na3Hg2,https://materialsproject.org/materials/mp-570560,-13.728878831125414,47.36672269975543,-8.604250342815693,-0.5045126942092143
-4.369420715,-26.21652429,9.039158419237944,-0.1903335258333332,7.2999999999999996e-06,9.594836940567095e-07,0.0,191,6,88.66713771860876,482.66032,mp-30585,HoCu5,https://materialsproject.org/materials/mp-30585,3.635288796130244,43.746893291082706,-8.604250342815693,-0.5045126942092143
-5.9859002675,-23.94360107,10.035633971531974,-0.3418504699999998,2.2100000000000002e-05,3.1791412353200463e-06,0.0,225,4,81.01396333454842,489.616,mp-865220,Dy2CuRu,https://materialsproject.org/materials/mp-865220,10.52454232906943,50.15042444567223,-8.604250342815693,-0.5045126942092143
-6.9065517341666665,-248.63586243,6.985823438668035,-2.624157479027778,0.014293675,0.0003292650032693041,0.06610000000000005,62,36,505.912904906182,2128.356,mp-771141,Dy2Cu2O5,https://materialsproject.org/materials/mp-771141,-48.54886815550025,-7.954240912172956,-2.550718013928964,-2.1767161780388853
-7.450904684285715,-104.31266558,8.547104094543599,-3.1421794550000004,2.795e-05,1.8327319912966989e-06,0.0,64,14,177.72981098157257,914.80848,mp-754263,Ho2CuO4,https://materialsproject.org/materials/mp-754263,-45.73399483014532,-7.170911270932839,-8.604250342815693,-0.5045126942092143
-6.031937577058822,-410.17175524,5.7107464530321375,-2.1392729213602943,16.00000015,0.1766451856720537,0.8183000000000002,1,68,1055.5908297169326,3630.27393,mp-704890,Ba8Co7O19,https://materialsproject.org/materials/mp-704890,-38.860815473676645,-24.440739243573127,2.2461592630761893,-1.5237798631048964
-4.791204762,-47.91204762,5.035791717152803,-0.2436672019999996,0.0,0.0,0.0,127,10,217.1114014885141,658.4174,mp-4901,Y2MgCu2,https://materialsproject.org/materials/mp-4901,-8.820706957621912,54.17128225454493,-8.604250342815693,-0.5045126942092143
-4.779278018333334,-28.67566811,8.914235584334367,-0.5503608516666668,5.9e-06,5.315839450097083e-07,0.0,194,6,129.3473642377338,694.3726399999998,mp-1018724,HoCuSn,https://materialsproject.org/materials/mp-1018724,-5.364118887171626,55.68911346118421,-8.604250342815693,-0.5045126942092143
-7.199298484444443,-64.79368636,5.81558932234887,-2.6162929404166664,2.8606729,0.2768296322389209,0.0,99,9,120.42954722756359,421.77195,mvc-7667,BaYCrCuO5,https://materialsproject.org/materials/mvc-7667,-48.518317470997545,-3.9116271448031217,-8.604250342815693,-0.5045126942092143
-4.6518227775000005,-55.82187333,9.76365473823532,-0.6752092624999998,1.775e-06,9.99015947490879e-08,0.0,62,12,207.0634109820586,1217.4936,mp-1102907,YbNiGe,https://materialsproject.org/materials/mp-1102907,6.67521155397709,47.78844041855794,-8.604250342815693,-0.5045126942092143
-5.027439406666667,-15.08231822,9.155037790976694,-0.627367158333333,1e-07,2.1058018543599684e-08,0.0,187,3,55.3426465478244,305.12021,mp-1216535,TmCuGe,https://materialsproject.org/materials/mp-1216535,-4.841580197060454,56.689020931057065,-8.604250342815693,-0.5045126942092143
-8.78925199,-35.15700796,14.640026868504016,-0.5713582949999996,0.0001222,2.0490995510110722e-05,0.0,225,4,69.50012333486181,612.743,mp-864939,Hf2CuIr,https://materialsproject.org/materials/mp-864939,-10.011516320496792,53.432367202153365,-8.604250342815693,-0.5045126942092143
-5.172607599999999,-20.690430399999997,10.337245877500333,-0.6141599099999997,1.6e-05,2.2857621286718056e-06,0.0,225,4,81.57674590107277,507.83442,mp-979045,Tm2CuPd,https://materialsproject.org/materials/mp-979045,-10.069066103545044,55.02725899224157,-8.604250342815693,-0.5045126942092143
-4.643376618235294,-78.93740251,4.206014207790553,-0.9367744203823534,2.0000004000000002,0.1182075904413835,0.04809999999999981,2,17,197.1796745007105,499.44053856,mp-760161,Na2(NiO2)5,https://materialsproject.org/materials/mp-760161,-62.54088669874234,-24.869138163314748,-4.827084536589361,-2.9860356572449707
-5.598906493333334,-134.37375584,2.6445259885303014,-0.4675545624599996,0.0,0.0,0.08819999999999982,141,24,260.6463585901089,415.09778,mp-1245419,Li3MnN2,https://materialsproject.org/materials/mp-1245419,2.250235310998655,6.6888494126126155,-6.123130584779946,-2.678786439373066
-4.0511767575,-97.22824218,6.7099987026953025,-0.17036971583333305,0.0,0.0,0.0,194,24,351.12852155787897,1418.8597,mp-13218,YMg2Cu9,https://materialsproject.org/materials/mp-13218,3.523569889058677,41.131855519664995,-8.604250342815693,-0.5045126942092143
-6.7280052052083335,-322.94424985,4.861233807804761,-2.7011148951079167,16.000000099999998,0.2621675320308499,1.1903,14,48,711.2438221542238,2082.16876,mp-554474,Sr7Mn4O13,https://materialsproject.org/materials/mp-554474,-32.532574131288236,-11.040149281619527,0.2273360752222093,1.8022631410424983
-4.8796169649999985,-29.27770179,7.680961746312269,-0.5883552024999995,0.0,0.0,0.0,186,6,141.1705183253176,652.996,mp-20774,NdCuSn,https://materialsproject.org/materials/mp-20774,-5.839501502986463,54.20502381390708,-8.604250342815693,-0.5045126942092143
-6.042941188260869,-138.98764733,5.282884870866706,-2.3041718401630424,12.5754067,0.4809482586352069,0.0,65,23,304.7201057322903,969.44498,mp-1218543,Sr6Co4O13,https://materialsproject.org/materials/mp-1218543,-35.467013528064925,-17.102301841888803,-6.340325665328527,1.0279182737027484
-3.6569810508333336,-87.76754522,7.585219952742526,-0.1877195333333332,5e-08,1.6770830385048593e-09,0.0,194,24,347.4504393935508,1587.128,mp-13227,YbMg2Cu9,https://materialsproject.org/materials/mp-13227,3.5407066593966547,41.193438504018935,-8.604250342815693,-0.5045126942092143
-7.1122094377777785,-256.03953976,7.358263985195918,-2.9815941945833337,2.9971591,0.06425175460448218,0.6926000000000001,10,36,543.6285203428524,2408.954,mp-1228282,Ba4Nd8Cu3PtO20,https://materialsproject.org/materials/mp-1228282,-46.33285661180773,-8.219906238999599,2.9702461203949437,1.4011670219681516
-7.882880565714286,-110.36032792,7.020421312139902,-2.7888178171428573,6.9597117,0.4461950190724965,0.0,123,14,181.77910438969556,768.5250799999999,mp-1209256,Sr2GdTa(CuO4)2,https://materialsproject.org/materials/mp-1209256,-46.99499696377363,-6.508436947845889,-8.604250342815693,-0.5045126942092143
-4.636695340357143,-129.82746953,4.361997816571718,-0.997756018857144,1.000000025,0.03744792822174201,0.0,13,28,311.20720470578783,817.49667712,mp-764934,Na(NiO2)2,https://materialsproject.org/materials/mp-764934,-62.69612390827506,-24.815396124425195,-4.788769104425611,-3.003896699936977
-6.444835619230768,-83.78286305,5.46922608094052,-2.341311571634616,3.118298,0.2140912518104619,0.0,47,13,169.74466058200463,559.07865,mp-1218472,Sr2YFeCu2O7,https://materialsproject.org/materials/mp-1218472,-48.71653670715453,-3.1548762323542814,-8.604250342815693,-0.5045126942092143
-7.238553038333332,-260.58790938,4.744516685298401,-2.5723603043055547,2.00000005,0.05605736455759151,0.0,33,36,415.79068712508973,1188.003296,mp-15336,Sc2Cu2O5,https://materialsproject.org/materials/mp-15336,-48.81462386614273,-8.321574193698371,-4.7767066473027935,-0.6075337687904196
-6.99910524756579,-1063.86399763,4.158483002251791,-2.557024892125264,25.9999999,0.16442056998883225,0.0,1,152,1842.8696782995355,4615.0930800000015,mp-1247571,SrCa7Mn6Cr2O22,https://materialsproject.org/materials/mp-1247571,-31.86837853822539,-10.273088981294027,-8.604250342815693,-0.5045126942092143
-6.7310770999999985,-175.0080046,3.9413917291839904,-1.8966403779507688,20.0000008,0.8364829252382059,0.0,160,26,278.64442625421304,661.379715,mp-770710,Li3Mn7O16,https://materialsproject.org/materials/mp-770710,-66.98340316237056,-37.04484770635649,-8.604250342815693,-0.5045126942092143
-6.996877515945945,-1035.53787236,4.0157148431127405,-2.552895527715405,29.00000025,0.17912316341955406,0.0,1,148,1886.7904902178207,4562.86326,mp-1247575,SrCa7Mn7CrO21,https://materialsproject.org/materials/mp-1247575,-30.885342905027734,-10.88206078218224,-8.604250342815693,-0.5045126942092143
-1.2515276075,-5.00611043,0.3093885351449934,1.0454884912500004,1.0,0.015201688640763263,0.4672999999999998,71,4,766.6296191141141,142.83700000000005,mp-1096722,Li2ZnCu,https://materialsproject.org/materials/mp-1096722,0.09740027851733674,-5.552030320996145,4.875336373959457,-4.417458584076718
-5.895134438333333,-848.89935912,4.970491921695618,-2.08638271375,13.06676535,0.08075270857452027,0.0,1,144,1885.768693643392,5644.6719,mp-1076678,Sr6Ca2Co5Cu3O20,https://materialsproject.org/materials/mp-1076678,-33.584544160159524,-15.983577566489506,-8.604250342815693,-0.5045126942092143
-4.2107338475,-16.84293539,9.23226112053938,-0.32176215333333325,0.0,0.0,0.0,225,4,72.73825820116821,404.41,mp-22680,DyInCu2,https://materialsproject.org/materials/mp-22680,-8.113102780873342,53.89102131759872,-8.604250342815693,-0.5045126942092143
-6.676373763636364,-146.8802228,4.3832608397082815,-0.5764439142636362,1.0157047,0.04256157355316717,0.0,2,22,278.11679351579016,734.13417,mp-1246509,Ca3Co3N5,https://materialsproject.org/materials/mp-1246509,3.4696259940326906,8.065707709494964,-8.604250342815693,-0.5045126942092143
-4.203587436,-21.01793718,5.692714136029634,-1.6075779957500005,2e-07,1.6439490825894376e-08,0.0,221,5,141.78133490853614,486.0594,mp-19944,Sr3PbO,https://materialsproject.org/materials/mp-19944,-35.963951119473045,49.18208892548441,-8.604250342815693,-0.5045126942092143
-3.896819344166667,-93.52366426,7.441963209685878,-0.17117398999999978,0.01125565,0.0003753888480227009,0.0,194,24,349.4351919301796,1566.0479999999998,mp-13225,DyMg2Cu9,https://materialsproject.org/materials/mp-13225,3.5385780558510382,41.157488071711214,-8.604250342815693,-0.5045126942092143
-6.19164748375,-198.13271948,1.9748942612990528,0.06266089381000127,0.00077525,1.0573923252316272e-05,0.3933,33,32,854.4429063212445,1016.1967599999999,mvc-11274,CaCoN2,https://materialsproject.org/materials/mvc-11274,4.7262656340809786,5.30021571621443,3.5762675671835487,-0.3956842603437196
-6.348259223333333,-114.26866602,5.572468107071741,-2.4893957020833337,0.0,0.0,0.24780000000000024,1,18,263.3000635815577,883.5873,mp-691074,SrPrGaCuO5,https://materialsproject.org/materials/mp-691074,-48.66468981516271,-6.880620545127399,-1.5939494637735845,-0.7294492315165324
-4.550134783333333,-13.65040435,4.305893440250261,-0.2889879313488889,1.3500000000000001e-05,2.519049226298695e-06,0.0,187,3,62.45605396950688,161.9529,mp-1246949,CaAgN,https://materialsproject.org/materials/mp-1246949,5.024028156034901,4.793492514868383,-8.604250342815693,-0.5045126942092143
-4.289676947857143,-60.05547727,2.8946564555115195,-0.5301700699657143,0.0,0.0,0.3745000000000001,44,14,196.99359250126483,343.3998,mp-1218762,Sr2Li7CuN4,https://materialsproject.org/materials/mp-1218762,24.837987396494547,-14.481685107448234,5.2891425116135045,-4.65666131202175
-4.157117246428571,-116.39928290000002,8.310182425500866,-0.2006682952380951,2.75e-05,6.839293191551709e-07,0.0,6,28,468.5963479987602,2345.094600000001,mp-1220295,Pr4In5Cu19,https://materialsproject.org/materials/mp-1220295,2.9645249113080188,42.60089026493871,-8.604250342815693,-0.5045126942092143
-7.247901388333334,-130.46222499,3.868329515997962,-0.9045479599466671,2.343257,0.1134988485696311,0.0,15,18,240.6056907264594,560.506,mp-1246029,Ca3(CrN2)2,https://materialsproject.org/materials/mp-1246029,0.20650382882775356,10.246030501792859,-8.604250342815693,-0.5045126942092143
-7.408818828461539,-96.31464477,6.923065560247487,-3.036213200096155,0.0,0.0,1.6683,12,13,195.73590672020003,816.0558,mp-556595,Nd4Cu2O7,https://materialsproject.org/materials/mp-556595,13.835306026693427,-15.162399404911929,4.834251341070333,1.2748899041258628
-7.493371775714285,-104.90720486,6.916565782975947,-2.670221690714285,6.0360494000000005,0.3838937441066098,0.0,123,14,183.2395337456578,763.23908,mp-1208877,Sr2EuTa(CuO4)2,https://materialsproject.org/materials/mp-1208877,-46.961725407797005,-6.3924306125947,-8.604250342815693,-0.5045126942092143
-6.920697462051282,-269.90720102,4.6525358342560565,-2.5079185818956407,25.9999997,0.6680892975900472,0.0,6,39,453.54068937093325,1270.74056,mp-1247625,Sr3Ca5Mn8O23,https://materialsproject.org/materials/mp-1247625,-34.06458544330495,6.570798561249609,-8.604250342815693,-0.5045126942092143
-7.00163784,-616.14412992,4.565367737130517,-2.7594538468939387,0.987107725,0.008673348835875313,0.0,62,88,1326.3409073391754,3646.5472,mp-559180,Ba2Cu(BO3)2,https://materialsproject.org/materials/mp-559180,-48.37463966733185,-5.972811939539387,-8.604250342815693,-0.5045126942092143
-5.9491617749999985,-154.67820615,6.151762753420584,-2.1954736431730777,0.0,0.0,0.0,9,26,351.06409058323084,1300.5794772000004,mp-1262316,Sr2AlCu2BiO7,https://materialsproject.org/materials/mp-1262316,-48.977539383930925,-5.10893455210949,-8.604250342815693,-0.5045126942092143
-6.998326370810809,-258.93807572,4.0316795317998055,-2.5543443825802696,29.0000006,0.7193411171455371,0.0,1,37,469.8297891517472,1140.715815,mp-1247578,SrCa7Mn7CrO21,https://materialsproject.org/materials/mp-1247578,-30.81925609512061,-10.75126696684649,-8.604250342815693,-0.5045126942092143
-3.6068059325,-14.42722373,10.070291954600279,-0.6034896477916667,6e-07,6.585485136320838e-08,0.0,225,4,106.1795557774553,643.92290728,mp-864803,NaAcAu2,https://materialsproject.org/materials/mp-864803,-7.261471071644691,50.943367804168176,-8.604250342815693,-0.5045126942092143
-7.12753105125,-285.10124205,6.8791300542915055,-2.7954946585000005,1.25e-06,2.7132362755770826e-08,0.0,11,40,536.9079389372831,2224.25336,mp-14735,La2CuSnO6,https://materialsproject.org/materials/mp-14735,-44.28350619692631,-4.358870156764067,1.7789556952955026,-0.986613960541854
-5.145861511428572,-72.04206116,5.311828474765599,-0.3272201095914288,1.9998293999999999,0.07202536261206448,0.0,176,14,323.58242314166887,1035.0942,mp-1246600,Ba3CuN3,https://materialsproject.org/materials/mp-1246600,6.49657839484368,3.576209821782121,-8.604250342815693,-0.5045126942092143
-5.821970702857143,-81.50758984,5.313075748599283,-0.5732290053057137,1.56341025,0.05682710957373181,0.0,176,14,320.6231049978641,1025.86859,mp-1246164,Ba3CoN3,https://materialsproject.org/materials/mp-1246164,4.25188142651097,6.521139450308106,-6.320556092887037,-2.7078699308624703
-7.16568310857143,-100.31956352,6.2043301829589845,-2.373888451428571,8.599278,0.5854568654301909,0.0,38,14,171.17664635396994,639.5733,mp-1218882,Sr2GdCr(CuO4)2,https://materialsproject.org/materials/mp-1218882,-47.86804121600247,1.2441223452495591,-8.604250342815693,-0.5045126942092143
-5.10518203,-20.42072812,8.513376536883076,-0.4887324374999995,2.44e-05,3.3526176470975427e-06,0.0,225,4,84.81706248150141,434.8465,mp-1185331,LiDy2Rh,https://materialsproject.org/materials/mp-1185331,9.265673019658363,42.83051407407929,-8.604250342815693,-0.5045126942092143
-6.854298591052633,-260.46334646,4.112541428582845,-2.6161972187700004,20.000000600000003,0.5229982287076334,0.0,38,38,445.6636555339653,1103.7441472,mp-1247607,SrCa7Mn6Al2O22,https://materialsproject.org/materials/mp-1247607,-36.211712371974244,6.031375289504066,-8.604250342815693,-0.5045126942092143
-1.9121163160869563,-43.97867527,5.363153457620271,-0.08160546245652192,0.996,0.012365142700382768,0.0,148,23,938.7233770549319,3031.85736928,mp-1223685,K9NaTl13,https://materialsproject.org/materials/mp-1223685,-39.03712870272153,49.31509152614878,-8.604250342815693,-0.5045126942092143
-4.436422215555557,-39.92779994,8.764741432078809,-0.41746765611111103,0.0,0.0,0.0,189,9,194.9556110310841,1029.0246,mp-21045,DyAgGe,https://materialsproject.org/materials/mp-21045,-2.8994859815687684,55.9119005426762,-8.604250342815693,-0.5045126942092143
-5.7480903975,-321.89306226,4.783405041328497,-1.564430098214286,0.5,0.011113018646075636,0.6284000000000001,4,56,524.3428965484153,1510.43992,mp-774082,Li(CoO2)2,https://materialsproject.org/materials/mp-774082,-72.8874267658116,-22.479202263112988,-1.851804741130032,-2.355015238193397
-4.697189554,-23.48594777,8.546106679302273,-0.3127385099999998,1.6e-06,2.1745860144133677e-07,0.0,139,5,85.74737220098292,441.30621,mp-567840,Tm(CuGe)2,https://materialsproject.org/materials/mp-567840,-4.495948510463563,56.66607267742872,-8.604250342815693,-0.5045126942092143
-4.947263096,-24.73631548,4.3269389785953285,-0.5959777979519991,0.0202027,0.001789974679359845,0.0,164,5,131.53458375444407,342.7454,mp-1245728,Ba2CaN2,https://materialsproject.org/materials/mp-1245728,7.730532340049428,2.3350399605356422,-8.604250342815693,-0.5045126942092143