energy_per_atom,energy,density,formation_energy_per_atom,total_magnetization_uB,total_magnetization_T,band_gap,sgr,num_sites,cell_volume,weight,mp_id,formula,URL,tsne_cry_lin1_0,tsne_cry_lin1_1,tsne_cry_lin2_0,tsne_cry_lin2_1
-5.001789764166666,-120.04295434,7.63794520638824,-0.5554682,0.479120925,0.0074391002701370435,0.0,216,24,750.5889275687705,3452.46752,mp-1211384,La4CdPt,https://materialsproject.org/materials/mp-1211384,-28.748089719206792,64.61698079287599,-8.604250342815693,-0.5045126942092143
-6.69640513,-20.08921539,7.995516030004122,-0.7847180116666669,2e-07,3.547574307365799e-08,0.4710000000000001,216,3,65.70159643090466,316.35400000000004,mp-961687,ZrSnPd,https://materialsproject.org/materials/mp-961687,31.152660138714353,52.275307683055935,-8.604250342815693,-0.5045126942092143
-7.396150228333332,-44.37690137,11.537875389108953,-0.1056883899999998,1.2903262,0.17635431630834875,0.0,216,6,85.26893714491365,592.4716900000001,mp-13018,UCo4Sn,https://materialsproject.org/materials/mp-13018,43.59911023393772,74.81672592469614,-8.604250342815693,-0.5045126942092143
-8.669630672777778,-156.05335211,9.131402171901767,-0.06902761763888697,0.0,0.0,0.0,193,18,258.0916838727107,1419.2614,mp-18021,Ge3Mo5C,https://materialsproject.org/materials/mp-18021,48.65283931075864,55.756690660507964,-8.604250342815693,-0.5045126942092143
-7.188420993333334,-64.69578894,10.9470226897285,-0.9330079150000006,1.8966666666666666e-05,1.0707048968615377e-06,0.0,189,9,206.44228162287618,1360.96068,mp-1095053,ThSnRh,https://materialsproject.org/materials/mp-1095053,9.54812488043185,55.718484808487815,-8.604250342815693,-0.5045126942092143
-8.686314787142857,-60.80420351,9.261529745637702,-0.34953430089285675,1.3e-06,1.4935041192150208e-07,0.0,12,7,101.44119463353421,565.78052,mp-1077928,Tm2Mo2C3,https://materialsproject.org/materials/mp-1077928,-14.79181441834435,32.768373526698014,-8.604250342815693,-0.5045126942092143
-6.406385,-25.62554,1.4092697592291976,-0.17377987868500003,1.5e-06,5.697943196513996e-07,3.091,164,4,30.679662039338126,26.03728,mp-1096986,HC,https://materialsproject.org/materials/mp-1096986,65.18982339447669,-38.24354633864887,7.645599474339706,-2.930038260897048
-8.50515688,-51.03094128,18.011010916689983,-0.7028055383333331,0.00684765,0.0006889412510914558,0.0,63,6,115.83419705728242,1256.39382,mp-30854,UPt2,https://materialsproject.org/materials/mp-30854,24.82851780322561,50.787421434260104,-8.604250342815693,-0.5045126942092143
-6.226287705,-12.45257541,12.429141534011881,-0.009852259999999724,4.2530292,1.4727590925087684,0.0,123,2,33.65457258318888,251.904614,mp-12675,MnAu,https://materialsproject.org/materials/mp-12675,45.51995062270743,35.80392455219242,-8.604250342815693,-0.5045126942092143
-8.176319751538461,-106.29215677,7.743901532649826,-0.8441736621978027,0.0,0.0,0.0,87,13,176.52040666323467,823.200548,mp-10430,Nb5(NiP)4,https://materialsproject.org/materials/mp-10430,46.04423380018297,61.73365995390365,-8.604250342815693,-0.5045126942092143
-6.657325585810812,-492.64209335,14.00782947277798,-0.8929785524999998,0.00252415,2.3730071852715165e-05,0.0,225,74,1239.6341561136378,10457.197,mp-1196005,Nd3Si11Pt23,https://materialsproject.org/materials/mp-1196005,60.49428738764696,43.70985499349422,-8.604250342815693,-0.5045126942092143
-6.467931766666667,-58.211385899999996,9.934053018390058,-1.0016772999999997,1.8666666666666669e-06,1.2092289190375875e-07,0.0,189,9,179.9018688655363,1076.249736,mp-1084775,ScSnPt,https://materialsproject.org/materials/mp-1084775,8.920615693175241,54.10609936906686,-8.604250342815693,-0.5045126942092143
-6.5766540825,-26.30661633,13.138079433735092,-0.23886606875000016,2.1510208,0.30139320511788353,0.0,225,4,83.17419007677462,658.06891,mp-1206611,UPd2Pb,https://materialsproject.org/materials/mp-1206611,28.6823040937822,40.914530446157066,-8.604250342815693,-0.5045126942092143
-7.654955490909091,-84.2045104,9.901365478636247,-0.5009115586363645,5.5258235,0.3618447223625112,0.0010000000000012221,71,11,177.9722102073817,1061.20233,mp-9903,U3(SiNi)4,https://materialsproject.org/materials/mp-9903,22.93931952484959,64.97223779623936,-8.604250342815693,-0.5045126942092143
-10.509238761071428,-294.25868531,14.360058144918895,-0.3853400723214264,1.344736125,0.03968919621119845,0.0,227,28,394.8591404914649,3414.67444,mp-1194051,Ta4Co2C,https://materialsproject.org/materials/mp-1194051,21.539831358565408,42.19261537363847,-8.604250342815693,-0.5045126942092143
-6.037528975,-24.1501159,13.038687879825218,-0.8201495656249991,0.00020089999999999998,2.8115475800104547e-05,0.0,225,4,83.27447948786045,653.8779999999998,mp-1186649,PmSnPt2,https://materialsproject.org/materials/mp-1186649,22.61136357828002,52.113954753576145,-8.604250342815693,-0.5045126942092143
-4.04383485,-16.1753394,0.4308776089332696,1.8615332850000008,2.0,0.023715327203464802,0.0,71,4,982.829768493098,255.025224,mp-1096367,Sc2NiPd,https://materialsproject.org/materials/mp-1096367,-66.87223122992489,43.2014959823319,-8.604250342815693,-0.5045126942092143
-10.16530833,-50.82654165,8.769514865841735,0.04228693849999985,0.0003403,6.716330875793943e-05,0.0,164,5,59.04828567031034,311.8414,mp-1221473,Mo3C2,https://materialsproject.org/materials/mp-1221473,4.3868890695738925,22.089114464118207,-8.604250342815693,-0.5045126942092143
-7.20455474625,-57.63643797,10.36831353270585,-0.6127206975000004,1.4194885,0.11565200428038636,0.0,129,8,143.03955236951415,893.1310199999999,mp-22159,UNiAs2,https://materialsproject.org/materials/mp-22159,32.472719307189514,44.59934705317214,-8.604250342815693,-0.5045126942092143
-7.2997714999999985,-21.8993145,6.0480788492575215,0.4555049333333336,3.7755894,0.8907423523520991,0.0,216,3,49.3980816181027,179.91958359999998,mp-631551,MnAlTc,https://materialsproject.org/materials/mp-631551,53.066593190364046,46.39790724312922,-8.604250342815693,-0.5045126942092143
-6.8259533800000005,-20.47786014,10.625196514623546,0.543221925000001,0.0001483,2.7116376540387523e-05,0.0,216,3,63.73631090409337,407.8259,mp-631482,BiMoRh,https://materialsproject.org/materials/mp-631482,31.39139305553896,50.22089871764621,-8.604250342815693,-0.5045126942092143
-6.73662429,-13.47324858,12.996406695889569,0.9045269506249998,0.0001349,5.9414793965131004e-05,0.0,216,2,26.4603010950597,207.0947,mp-1018164,PtC,https://materialsproject.org/materials/mp-1018164,-1.3943021198299164,19.67061640211123,-7.0147864887339235,-3.351065205978516
-7.4155571160000004,-333.70007022,5.340116281246676,-2.3741391872571422,4.999995200000001,0.0873334911941079,1.2862,8,45,667.2156022456005,2145.694148,mp-1223454,KP4(WO4)8,https://materialsproject.org/materials/mp-1223454,-19.240258883338512,0.341590147396492,3.711444379884791,1.8901993441630904
-9.8924641825,-39.56985673,15.024506502954042,-0.808231395,6.7050149,0.9865533806320952,0.0,225,4,79.2057272111442,716.6510000000002,mp-1184485,GdLuIr2,https://materialsproject.org/materials/mp-1184485,16.890347345204116,49.5940787888096,-8.604250342815693,-0.5045126942092143
-1.72588736,-6.90354944,0.38251466847540616,2.11050635375,3.9999998999999997,0.04057099659677437,0.0,71,4,1149.004506547876,264.67976200000004,mp-1095718,YScZn2,https://materialsproject.org/materials/mp-1095718,-71.08521226856223,42.8315340969852,-8.604250342815693,-0.5045126942092143
-3.7949734275,-15.17989371,0.5285682445903782,2.0557591100000008,1.197517,0.01126541509300425,0.0,71,4,1238.8305773932748,394.3337,mp-1096320,Y2MgIr,https://materialsproject.org/materials/mp-1096320,-69.95909701970453,42.74180169801834,-8.604250342815693,-0.5045126942092143
-8.375070115,-100.50084138,9.040612920535636,-0.29507239750000025,2.4e-06,1.9189957394967662e-07,0.0,194,12,145.75204560630237,793.53017,mp-1226069,Co3SiMo2,https://materialsproject.org/materials/mp-1226069,53.9437609141243,56.983400145596676,-8.604250342815693,-0.5045126942092143
-7.27289426,-14.54578852,4.0410429672564705,-1.4226065761899995,2.3e-06,1.5914404249845725e-06,4.448799999999999,225,2,16.842822738493112,40.9882386,mp-1330,AlN,https://materialsproject.org/materials/mp-1330,37.18504196479432,-18.2653134547197,7.415627223747937,-0.5309811546767726
-7.278904408701298,-1120.95127894,6.702450253322524,-2.236510216028885,2.2471784,0.011488713159563823,0.0,191,154,2279.5209755320693,9200.8532,mp-705830,Rb5(WO3)18,https://materialsproject.org/materials/mp-705830,-17.175251014404555,0.7910242387147635,-8.604250342815693,-0.5045126942092143
-4.423041472,-22.11520736,7.336226064641049,-0.8785250019999999,0.0001302,1.3552906789940145e-05,0.0,71,5,111.95821360725031,494.629,mp-1068002,Ca2MgPt2,https://materialsproject.org/materials/mp-1068002,-12.375547434464028,51.36541522088829,-8.604250342815693,-0.5045126942092143
-7.080753515,-28.32301406,9.113780851866286,-0.7923137362499997,0.0003911,6.71517108735049e-05,0.0,225,4,67.8747372666933,372.526912,mp-862635,ScSbRh2,https://materialsproject.org/materials/mp-862635,31.50403900304398,56.21624470285056,-8.604250342815693,-0.5045126942092143
-5.82435461,-23.29741844,11.844471168026047,-0.76632682375,2.6e-06,4.343812073815827e-07,0.0,225,4,69.75570741493344,497.561,mp-865992,YbSnRh2,https://materialsproject.org/materials/mp-865992,30.308583431454558,57.18577635506472,-8.604250342815693,-0.5045126942092143
-7.09865083,-28.39460332,1.3751470652673117,4.80272782125,0.0864803,0.00128542875410987,0.0,71,4,784.0551368778932,649.30188,mp-1093870,TaRe2Mo,https://materialsproject.org/materials/mp-1093870,-58.060698533864546,40.96644797867653,-8.604250342815693,-0.5045126942092143
-7.505676378043478,-690.52222678,6.0539462076404735,-2.2751553693866464,1.00000935,0.008691237798209463,0.0,19,92,1340.9106974919346,4888.654248,mp-29926,PW5O17,https://materialsproject.org/materials/mp-29926,-18.68381746339195,-0.6116721619323557,-8.604250342815693,-0.5045126942092143
-4.960507252142857,-138.89420306,6.355590599014647,-1.3328242210714285,0.226690525,0.002546953788391903,0.0,214,28,1037.2650158460808,3970.0552800000014,mp-1211495,La3PtI3,https://materialsproject.org/materials/mp-1211495,-30.76729791424658,39.189412221305844,-8.604250342815693,-0.5045126942092143
-6.551639561818181,-144.13607036,8.693298305211421,-0.8865147813636356,0.0,0.0,0.0,15,22,460.9198688027019,2413.02,mp-3375,Nd4Ge3Rh4,https://materialsproject.org/materials/mp-3375,13.439879698078284,64.84741473169248,-8.604250342815693,-0.5045126942092143
-6.626715645,-26.50686258,12.348500140062244,-0.67716391,1.49e-05,2.223432063438145e-06,0.0,225,4,78.09798552721563,580.7710400000001,mp-977379,Ho2NiIr,https://materialsproject.org/materials/mp-977379,15.348935338316192,48.07072257252965,-8.604250342815693,-0.5045126942092143
-7.679860261851852,-414.71245414,4.4292313017552205,-1.01466357499537,5e-08,4.740687923538331e-10,0.0,163,54,1229.1533381363554,3278.576600000001,mp-560296,K(Mo6S7)2,https://materialsproject.org/materials/mp-560296,67.05722805658765,33.37157905411992,-8.604250342815693,-0.5045126942092143
-6.836643638333332,-205.09930915,8.423892024267229,-0.1749947924722221,20.9376937,0.6182936890551469,0.0,191,30,394.6494083429845,2002.051095,mp-505807,Nd5Co21B4,https://materialsproject.org/materials/mp-505807,42.53243030794474,82.93468199339941,-8.604250342815693,-0.5045126942092143
-5.739487941428571,-160.70566236,2.9130192343385004,-2.308571560247142,3.9999997000000005,0.18622779738449707,0.9829000000000004,15,28,250.31846077077648,439.12396720000004,mp-770706,Li6MnAlO6,https://materialsproject.org/materials/mp-770706,-48.036902548629676,-48.824414052586896,5.239034175946759,2.6456256327082643
-5.617458995,-22.46983598,1.011332921293265,3.8446103781249987,3.0000001,0.04450578721059742,0.0,71,4,785.5651517329097,478.43976,mp-1095836,Nb2RePd,https://materialsproject.org/materials/mp-1095836,-59.30292544082296,42.57792049238461,-8.604250342815693,-0.5045126942092143
-7.133064428250001,-285.32257713,7.449646545431538,0.0003189224999999851,26.5386461,0.41919803203792416,0.0,140,40,737.7971197094224,3309.966,mp-1198821,Nd6Fe13Cu,https://materialsproject.org/materials/mp-1198821,53.75530575756682,81.4441415107967,-8.604250342815693,-0.5045126942092143
-8.391262331875,-402.78059193,3.603946551970616,-3.4438292874826395,1.9953161,0.04123972341372452,0.0,6,48,563.8627310335561,1223.7779999999998,mp-759796,Mg5Ti13O30,https://materialsproject.org/materials/mp-759796,-42.74250420522128,27.894263521135287,-8.604250342815693,-0.5045126942092143
-4.510122674285714,-63.14171744,11.012335910392077,-0.4576839371428574,6.98642355,0.2482997270341525,0.0,59,14,327.91108372437895,2174.6354140000008,mp-606777,Eu(InAu)3,https://materialsproject.org/materials/mp-606777,-15.731610140470538,51.136964380705,-8.604250342815693,-0.5045126942092143
-9.327196364,-93.27196364,13.161818143251093,-0.30155073699999946,1.3763979,0.07977193744536558,0.0,127,10,201.08111690782349,1593.8156399999998,mp-20705,U2SnRu2,https://materialsproject.org/materials/mp-20705,24.413271132761,61.27980619943967,-8.604250342815693,-0.5045126942092143
-6.681109578888888,-60.12998621,6.3360753472149876,-0.3099781777777777,0.2786195,0.01874160148608331,0.0009999999999994458,12,9,173.25358787024214,661.07918,mp-21875,Y4GaCo4,https://materialsproject.org/materials/mp-21875,-27.479633812524597,66.35151746839134,-8.604250342815693,-0.5045126942092143
-6.952246739666665,-208.56740219,7.949472526056515,-0.6196274973333327,0.0,0.0,0.0,139,30,463.356134073059,2218.21756,mp-22233,Zr4Co4Ge7,https://materialsproject.org/materials/mp-22233,46.688608400669956,51.947038829352714,-8.604250342815693,-0.5045126942092143
-4.6951239525,-37.56099162,7.095986428778567,0.03005870187499937,0.46192425,0.01932413160848165,0.0,194,8,278.57888978324115,1190.452,mp-1186266,Nd3Dy,https://materialsproject.org/materials/mp-1186266,-52.97267635889946,67.9309404372925,-8.604250342815693,-0.5045126942092143
-7.225617255,-28.90246902,8.960090392028341,0.9630543825000002,0.0006207000000000001,9.1574596848913e-05,0.0,225,4,78.9921905554495,426.23337999999995,mp-631491,BaNbTc2,https://materialsproject.org/materials/mp-631491,57.17746080393764,46.0762782360849,-8.604250342815693,-0.5045126942092143
-7.174001959230769,-93.26202547,7.858278812414988,-2.0793431706730767,0.0011364,6.964561172067123e-05,0.0,183,13,190.15812885172824,899.8978999999998,mp-766046,Tl(WO3)3,https://materialsproject.org/materials/mp-766046,-17.26826351145943,0.4665815543765838,-8.604250342815693,-0.5045126942092143
-6.327964519166668,-303.74229692,3.2079393541808594,-2.078182077483333,10.00000015,0.2656476134788627,0.0,2,48,438.7039203835335,847.5173044000002,mp-757927,LiMn3Al2(HO2)6,https://materialsproject.org/materials/mp-757927,-44.19744360427432,-17.317732785253565,-0.8197026112203071,-1.7786739577574544
-6.948362841428571,-194.55415956,5.9192371091925455,0.12230915571428573,3.5625e-05,7.265168480557361e-07,0.0,15,28,571.4610179151524,2037.0573544,mp-1261118,Zr4AlNi2,https://materialsproject.org/materials/mp-1261118,25.266758683426083,58.139041845759046,-8.604250342815693,-0.5045126942092143
-11.0682087075,-44.27283483,11.36249158069374,-0.1975086337499992,14.1334111,1.9833053714719948,0.0,225,4,83.04908098663914,568.276,mp-1184428,Gd2CuOs,https://materialsproject.org/materials/mp-1184428,11.413785537463374,49.47841911311741,-8.604250342815693,-0.5045126942092143
-4.703834826666667,-14.11150448,5.572063256619872,1.0766883933333322,1.13e-05,1.8584574367238052e-06,0.0,216,3,70.86034327591425,237.777195,mp-631506,SrZrCo,https://materialsproject.org/materials/mp-631506,14.091080333158052,28.0029816300117,-8.604250342815693,-0.5045126942092143
-7.106111164583332,-170.54666795,7.636629265605168,-0.15676937208333305,3.4144082166666667,0.11478728899782645,0.0,194,24,346.6562793180597,1594.23261,mp-1192425,YCo3,https://materialsproject.org/materials/mp-1192425,43.05502944034812,74.80627843827472,-8.604250342815693,-0.5045126942092143
-8.793231395,-35.17292558,7.731076916470082,0.09347840500000082,0.0039532,0.0006609019040521372,0.0,225,4,69.70905754153877,324.54888,mp-1187253,TaTi3,https://materialsproject.org/materials/mp-1187253,59.59646410568135,56.708612985447175,-8.604250342815693,-0.5045126942092143
-6.0602348175,-24.24093927,11.381173531548574,-0.1828581249999992,6.5000000000000004e-06,1.015079559072707e-06,0.0,225,4,74.62609245214064,511.48,mp-865420,Lu2CuTc,https://materialsproject.org/materials/mp-865420,-9.942971429027956,55.64875589417764,-8.604250342815693,-0.5045126942092143
-3.90871393625,-31.26971149,7.2558669291241396,-0.10620866812499984,0.006742799999999999,0.00031493597225075616,0.0,194,8,249.5142977374723,1090.274,mp-1186265,Nd3Cd,https://materialsproject.org/materials/mp-1186265,-24.19622660422367,55.06491959217078,-8.604250342815693,-0.5045126942092143
-6.93533509,-83.22402108,9.606394104373054,-0.32793962777777824,3.6759003,0.2939772877071549,0.0,191,12,145.72275473316768,843.0215599999999,mp-1210782,LuCo4B,https://materialsproject.org/materials/mp-1210782,42.47728435262135,83.28786398691359,-8.604250342815693,-0.5045126942092143
-10.4648372525,-125.57804703,16.463507392120196,-0.17271327333333275,0.00015719999999999997,7.937792609698515e-06,0.0,164,12,230.79703291920163,2288.25012,mp-1225488,ErThRe4,https://materialsproject.org/materials/mp-1225488,66.88227640273736,59.9237928129448,-8.604250342815693,-0.5045126942092143
-6.183489015,-148.40373636,3.9855997502548983,-2.049223114118333,16.000000099999998,0.8618919176864114,0.08250000000000003,2,24,216.34387525861976,519.265175,mp-1175191,Li7Mn4CoO12,https://materialsproject.org/materials/mp-1175191,-70.93076542724957,-44.26828762907114,3.708922129836092,1.2842122106463514
-5.2523298325,-63.02795799,7.383277660217044,-0.25415701479166697,0.0015318,0.00011007496715422036,0.0,166,12,162.17762203458892,721.0926,mp-568207,NdMg2Ni9,https://materialsproject.org/materials/mp-568207,31.749389707492227,72.98860374059096,-8.604250342815693,-0.5045126942092143
-5.9256519039999995,-59.25651904,11.170542701874327,-0.9462441810000002,0.798958,0.04000733699880895,0.0,127,10,232.7350176501861,1565.622,mp-11964,Ce2CdPt2,https://materialsproject.org/materials/mp-11964,10.250544354960915,35.64059393382614,-8.604250342815693,-0.5045126942092143
-8.01912346,-48.11474076,10.276543772237163,-0.17065727583333276,8.1271275,1.0462536675465757,0.0,216,6,90.52687052648709,560.2417800000002,mp-1224689,GdErCo4,https://materialsproject.org/materials/mp-1224689,42.782967276529995,74.31066713627214,-8.604250342815693,-0.5045126942092143
-4.424719474444443,-39.82247527,6.537750805958028,-0.7126652227777773,7.333333333333333e-07,4.633147927862159e-08,0.0,189,9,184.46020501847528,726.2429999999998,mp-1079394,LiDyGe,https://materialsproject.org/materials/mp-1079394,-2.5976117205192764,66.82257541477661,-8.604250342815693,-0.5045126942092143
-5.339963597352941,-363.11752462,7.149523421432633,-0.5715298506617648,0.55679465,0.0029991980675950192,0.0,186,68,2163.5519795189803,9315.26762,mp-1212033,La23Mg4Pt7,https://materialsproject.org/materials/mp-1212033,-28.70325988252215,64.62200064958965,-8.604250342815693,-0.5045126942092143
-7.802705393333333,-23.40811618,5.748721610267061,-0.1288684266666659,0.0,0.0,0.007200000000000095,139,3,37.83223834871895,130.9737386,mp-1699,AlCr2,https://materialsproject.org/materials/mp-1699,51.87098169361688,54.12082835122193,-8.604250342815693,-0.5045126942092143
-5.824551477000001,-58.24551477,9.774680062981602,-0.7431065990000001,0.0208871,0.0012928671460422402,0.0,12,10,188.2789094425473,1108.29439,mp-1091386,Lu2CoGe2,https://materialsproject.org/materials/mp-1091386,19.6657472772974,70.44209871828629,-8.604250342815693,-0.5045126942092143
-5.510396485555557,-198.37427348,6.894889384004051,-0.8085672986111108,1e-07,1.195676932714819e-09,0.0,62,36,974.6834160377084,4047.08,mp-172,Nd5Ge4,https://materialsproject.org/materials/mp-172,0.16205820227512538,72.11111882585881,-8.604250342815693,-0.5045126942092143