energy_per_atom,energy,density,formation_energy_per_atom,total_magnetization_uB,total_magnetization_T,band_gap,sgr,num_sites,cell_volume,weight,mp_id,formula,URL,tsne_cry_lin1_0,tsne_cry_lin1_1,tsne_cry_lin2_0,tsne_cry_lin2_1
-7.13234577125,-114.11753234,4.965371952314503,-1.1262159857812497,0.0,0.0,1.1301000000000003,2,16,294.550536053812,880.77,mp-677217,MgMo3S4,https://materialsproject.org/materials/mp-677217,67.093940525813,33.31929013375039,-8.604250342815693,-0.5045126942092143
-8.74752089875,-69.98016719,8.72212995443442,-0.8002909587500007,5e-08,3.941571119878796e-09,0.0,63,8,147.83527200338906,776.518,mp-567181,ZrRh,https://materialsproject.org/materials/mp-567181,26.77669209087604,58.0346285189603,-8.604250342815693,-0.5045126942092143
-7.3794653596,-184.48663399,6.278838795735345,-2.22596278022,0.6470043000000001,0.01993609430116893,0.21830000000000016,191,25,378.2200217563441,1430.1275,mp-34278,K(WO3)6,https://materialsproject.org/materials/mp-34278,-17.38969140492877,0.3761137996022918,-8.604250342815693,-0.5045126942092143
-7.756773506578948,-589.5147865,7.9665386180853845,-2.796893772697368,2.999999925,0.03466270123864967,0.4894999999999996,55,76,1008.6401865484337,4839.0136,mp-16390,Dy4Mo4O11,https://materialsproject.org/materials/mp-16390,-20.920182730421747,-14.596469566053154,-0.5457289723159771,0.9027775407634946
-6.9267559775,-27.70702391,11.8579734342962,-1.002275245,2.8699999999999996e-05,4.344955404889916e-06,0.0,225,4,76.97930768082011,549.7122099999999,mp-981541,TmLuRh2,https://materialsproject.org/materials/mp-981541,17.713546015895492,51.18650583371471,-8.604250342815693,-0.5045126942092143
-10.38545899,-41.54183596,11.527459854171713,-0.37912132499999984,7.043881900000001,0.9635452076647748,0.0,225,4,85.19564547657484,591.42806,mp-1184613,GdThRu2,https://materialsproject.org/materials/mp-1184613,20.330134047183872,54.14063776635827,-8.604250342815693,-0.5045126942092143
-3.99123524,-15.96494096,0.7159754677333771,1.7814871275000002,1.7861901000000002,0.020564962318835457,0.0,71,4,1012.2252984844592,436.4417,mp-1097357,Y2CuPt,https://materialsproject.org/materials/mp-1097357,-68.70410401732562,40.712288519028455,-8.604250342815693,-0.5045126942092143
-5.74952337,-22.99809348,0.7101042040970355,2.350638394999999,5.001768900000001,0.07082142115552899,0.0512999999999999,71,4,823.0693169791597,351.973045,mp-1093558,ZrMnRh2,https://materialsproject.org/materials/mp-1093558,-63.30462588047666,37.64100643370574,-8.604250342815693,-0.5045126942092143
-10.142309166666667,-60.853855,12.09210582979648,-0.5207856682533331,2.5e-07,5.007314289136553e-08,1.5764999999999991,194,6,58.18520717704584,423.7068,mp-1077232,WN2,https://materialsproject.org/materials/mp-1077232,5.853913124299363,20.918168785370355,-8.604250342815693,-0.5045126942092143
-8.283990734166666,-99.40788881,12.232425567990573,-0.4212581725000011,4.525e-06,3.1075648580335804e-07,0.0,62,12,169.69764270407632,1250.0843,mp-1095502,TaCoGe,https://materialsproject.org/materials/mp-1095502,60.32430717926328,63.80626660938875,-8.604250342815693,-0.5045126942092143
-7.4481736875,-29.79269475,5.512402051646081,-0.08076405250000017,0.00011279999999999999,2.157220117688193e-05,0.0,221,4,60.9385428758895,202.2944,mp-981209,Ti3Ni,https://materialsproject.org/materials/mp-981209,58.72983529016415,52.24823958937984,-8.604250342815693,-0.5045126942092143
-5.620122000625,-89.92195201,4.690605245619057,-1.720922657500001,1.998464875,0.16804704179667884,0.5174000000000003,74,16,138.59356790769584,391.49197999999996,mp-853240,LiCoO2,https://materialsproject.org/materials/mp-853240,-75.21289835132082,-32.09238093448242,2.2859038630803843,2.9176289509072952
-9.9669496225,-39.86779849,17.1188277881127,-0.2502244287499984,2.8e-06,4.631498268103532e-07,0.0,225,4,70.45534614121485,726.3381999999998,mp-977354,HoTaOs2,https://materialsproject.org/materials/mp-977354,40.162799188317905,59.27786111748362,-8.604250342815693,-0.5045126942092143
-4.9749775225000015,-119.39946054,4.5476264583030055,-1.413640233541667,4.9999997,0.2723056076584895,0.19520000000000026,2,24,213.9886903822356,586.038995,mp-867666,Li6CoNi5O12,https://materialsproject.org/materials/mp-867666,-64.8389354208751,-24.428472045316035,-8.604250342815693,-0.5045126942092143
-8.84898713,-35.39594852,12.478856245065598,-0.5829051712499993,4.5e-06,7.223918823500076e-07,0.0,225,4,72.59673420736088,545.56032,mp-973890,HoHfRu2,https://materialsproject.org/materials/mp-973890,39.76885216089315,59.69744159617262,-8.604250342815693,-0.5045126942092143
-5.294441659705883,-360.02203286,7.571762622152593,-0.4507739824264706,2.33e-05,1.3795647764233788e-07,0.0,186,68,1968.2998133993176,8975.097,mp-567916,Nd23Cd4Rh7,https://materialsproject.org/materials/mp-567916,-30.795981410009798,68.16184783631346,-8.604250342815693,-0.5045126942092143
-5.3408902625,-21.36356105,10.216727251029052,-0.1939752062500002,0.0001112,1.5906212548367317e-05,0.0,225,4,81.47332363175656,501.27742,mp-865401,Tm2ZnTc,https://materialsproject.org/materials/mp-865401,12.105211003794045,46.50628228156413,-8.604250342815693,-0.5045126942092143
-4.66466548625,-37.31732389,7.228788297858952,0.028700760625000044,0.54020025,0.02277546944991024,0.0,194,8,276.41707748323716,1203.32042,mp-1186286,Nd3Tm,https://materialsproject.org/materials/mp-1186286,-52.967457902375344,68.04833455037232,-8.604250342815693,-0.5045126942092143
-5.16248215,-41.299857200000005,6.128472455202112,0.028185566874999964,0.51974075,0.02142758604697643,0.0,194,8,282.6773091546375,1043.2637,mp-1186291,Nd3Y,https://materialsproject.org/materials/mp-1186291,-53.07797558878217,67.87081310362558,-8.604250342815693,-0.5045126942092143
-5.6285618025,-45.02849442,8.756940609925266,-0.4145906653125007,3.3e-06,2.3530596576976513e-07,0.0,25,8,163.44002849072083,861.90965,mp-1217630,Tb3SmNi4,https://materialsproject.org/materials/mp-1217630,2.1233265258211342,58.88985405359576,-8.604250342815693,-0.5045126942092143
-7.08334261857143,-694.16757662,5.819859982143573,-0.6359279244414139,3.5e-07,1.681207402659595e-09,0.0,148,98,2426.186479992426,8503.3024,mp-580799,Rb4(Mo7Se8)3,https://materialsproject.org/materials/mp-580799,63.58424036901202,32.16531442326496,-8.604250342815693,-0.5045126942092143
-6.3265298904166665,-303.67343474,3.2437619152551176,-2.0767474487333337,9.999999800000001,0.26861404976334513,0.0,2,48,433.8590833110138,847.5173044000002,mp-758328,LiMn3Al2(HO2)6,https://materialsproject.org/materials/mp-758328,-44.19603508944989,-17.32040474992818,-0.5830626782347232,-1.633620911050604
-6.559470345,-26.23788138,10.297742395588065,-0.7045647468749996,0.35523920000000003,0.05406378534074903,0.0,225,4,76.57585610143904,474.881,mp-972520,SmSnRh2,https://materialsproject.org/materials/mp-972520,31.63763383119979,56.252299609123774,-8.604250342815693,-0.5045126942092143
-6.9829195625,-27.93167825,5.421446565351366,-0.19423031749999972,0.0986647,0.012696563067350902,0.0,166,4,90.56346969377769,295.67809,mp-865373,YCo,https://materialsproject.org/materials/mp-865373,-27.797733242812384,66.02531995249943,-8.604250342815693,-0.5045126942092143
-9.602738488888887,-86.4246464,7.361807214504894,0.12356062500000085,0.23009179999999996,0.03002729708537705,0.0,160,9,89.30223500338673,395.9111,mp-1226369,Cr3(MoC2)2,https://materialsproject.org/materials/mp-1226369,4.548781684549102,20.992862954137497,-8.604250342815693,-0.5045126942092143
-5.296466534666666,-79.44699802,2.7380221527754514,-2.0897551042306666,3.0,0.2792193316746404,1.7967,148,15,125.21408925374368,206.462445,mp-755817,Li8MnO6,https://materialsproject.org/materials/mp-755817,-70.29062865768904,-42.40987228283792,2.413801734084149,-0.18387729064922853
-7.085966837142857,-892.83182148,5.856950862333492,-0.6329445082242923,2.95e-06,1.1093375351416367e-08,0.0,176,126,3099.1010391315776,10930.958,mp-568072,Rb5Mo27Se31,https://materialsproject.org/materials/mp-568072,63.56298808347257,32.18362378132386,-8.604250342815693,-0.5045126942092143
-4.418388832222223,-39.76549949,6.686095976407696,-0.7154619522222221,0.0,0.0,0.0,189,9,182.1783267909711,733.53396,mp-15820,LiHoGe,https://materialsproject.org/materials/mp-15820,-2.5817276671862146,66.74659623875505,-8.604250342815693,-0.5045126942092143
-7.372714596666667,-88.47257516,8.64206116749728,-0.5263021316666668,0.0,0.0,0.0141,62,12,174.1008713520164,906.08552,mp-1103243,NbNiAs,https://materialsproject.org/materials/mp-1103243,53.901549649626176,59.041915660104415,-8.604250342815693,-0.5045126942092143
-4.99794672,-19.99178688,11.281116800270595,-0.7438119225,0.0004564,6.546651903879266e-05,0.0,225,4,81.24634149319108,551.9590000000002,mp-1185372,LiLu2Pt,https://materialsproject.org/materials/mp-1185372,7.986187568313838,43.624946575638454,-8.604250342815693,-0.5045126942092143
-4.120010278181818,-90.64022612,5.650867651925902,-0.16309384046181788,0.0,0.0,0.2852999999999999,11,22,195.475946444764,665.21092,mp-1190554,BaReH9,https://materialsproject.org/materials/mp-1190554,-50.000615553088295,42.38610637326521,-6.407355444261133,-2.964969412963049
-10.73634570125,-257.67229683,15.224799810161832,0.10624466208333416,1.575e-06,4.366958521624151e-08,0.0,227,24,420.3188998908765,3853.7312,mp-1191664,Ta5Ni,https://materialsproject.org/materials/mp-1191664,40.093489762076814,66.64861559851369,-8.604250342815693,-0.5045126942092143
-7.990409465,-31.96163786,9.029386195645419,-0.4290681125000004,7.2508848,1.0511391265648076,0.0,38,4,80.39114802407515,437.1368,mp-1224615,GdDyNi2,https://materialsproject.org/materials/mp-1224615,2.1858998421460862,58.84660900300437,-8.604250342815693,-0.5045126942092143
-6.1205692525,-24.48227701,13.217722798893215,-0.4496102199999994,4.48e-05,6.444218102478397e-06,0.0,225,4,81.01868892517429,644.900569,mp-973456,Lu2TcAu,https://materialsproject.org/materials/mp-973456,17.574574150848633,55.24859338250023,-8.604250342815693,-0.5045126942092143
-4.5719234858333335,-109.72616366,6.4113811327229655,-0.16476119750000015,3.8075e-05,6.489900330440596e-07,0.0,216,24,683.721619165584,2639.8656,mp-1210038,Nd4MgNi,https://materialsproject.org/materials/mp-1210038,-30.462230901538987,68.77015012844006,-8.604250342815693,-0.5045126942092143
-6.499617645,-25.99847058,1.0416726095179345,4.3874762387500015,0.9999998999999999,0.013135897067682787,0.06329999999999991,71,4,887.192062110839,556.5443799999999,mp-1096386,ZrNbRe2,https://materialsproject.org/materials/mp-1096386,-61.63940699170191,37.26296798877245,-8.604250342815693,-0.5045126942092143
-10.325231658214287,-289.10648643,12.895966036142154,-0.3378184723214283,0.03252615,0.0010203991657825218,0.0,44,28,371.48389729552383,2884.9931300000007,mp-1218084,Ta6Cr3Co3C2,https://materialsproject.org/materials/mp-1218084,21.484768495413604,42.12870397149509,-8.604250342815693,-0.5045126942092143
-6.50754189,-26.03016756,12.65085730279059,-0.8936438149999999,0.0,0.0,0.0,225,4,72.69569251635306,553.833912,mp-30844,ScSnPt2,https://materialsproject.org/materials/mp-30844,22.636633885810923,52.00729974977431,-8.604250342815693,-0.5045126942092143
-8.6503483825,-103.80418059,9.255471195334867,-0.1437247203566656,1.99076085,0.1878947504801806,0.0,36,12,123.47580671245632,688.2263800000002,mp-1245950,Mn2IrN3,https://materialsproject.org/materials/mp-1245950,5.381083015847402,16.46227094611885,-8.604250342815693,-0.5045126942092143
-6.2145669075,-24.85826763,1.0223386941518404,4.3617611737500015,0.0084901,0.00012906539224981906,0.004799999999999915,71,4,766.6204983439142,471.98276,mp-1095844,Nb2MoOs,https://materialsproject.org/materials/mp-1095844,-59.395725636833276,42.70582724396214,-8.604250342815693,-0.5045126942092143
-7.5023655113235295,-510.16085477,5.853253782926183,-2.304119884353992,2.0,0.023489968626479032,0.0,14,68,992.2588623147556,3497.625048000001,mp-29182,P2W7O25,https://materialsproject.org/materials/mp-29182,-18.789089335613575,-0.19707234262227272,-8.604250342815693,-0.5045126942092143
-6.678819372,-66.78819372,5.047675210302084,-2.34615075325,0.0,0.0,2.3464,148,10,88.10695812990706,267.8258672,mp-1178576,AlCoO3,https://materialsproject.org/materials/mp-1178576,-73.31395074706262,-21.83115668806017,2.7853006560707643,-0.29637138302642085
-6.5140977975,-26.05639119,1.54733881950897,4.038802298125002,2.0948949,0.030611036394403088,0.0,71,4,797.556820414248,743.1867599999999,mp-1095922,Ta2RePt,https://materialsproject.org/materials/mp-1095922,-57.59450331395978,40.447401558381664,-8.604250342815693,-0.5045126942092143
-5.677572004375,-90.84115207,10.297241848867076,-0.7092818543750008,0.000844625,2.235615369295294e-05,0.02160000000000029,62,16,440.29552640023314,2730.336,mp-1105479,Dy3Pt,https://materialsproject.org/materials/mp-1105479,-31.72032410306527,69.83411417154609,-8.604250342815693,-0.5045126942092143
-6.377477145454545,-70.1522486,7.3436768734749185,-0.4526815378787874,1.17e-05,9.749213639546441e-07,0.0,12,11,139.86005731359876,618.5263,mp-1102902,Pr2Ni5B4,https://materialsproject.org/materials/mp-1102902,30.364558939921608,86.27356332733402,-8.604250342815693,-0.5045126942092143
-8.874425435,-35.49770174,12.62631969258632,-0.6110061237499984,1.04e-05,1.682077015226298e-06,0.0,225,4,72.0551274034946,547.889,mp-1184159,ErHfRu2,https://materialsproject.org/materials/mp-1184159,39.77655120326014,59.71240473184664,-8.604250342815693,-0.5045126942092143
-8.9306203625,-35.72248145,16.427608961105932,-0.8906053974999981,0.0001063,1.6745919875487986e-05,0.0,225,4,73.97784621771906,731.8582100000001,mp-980201,TmHfIr2,https://materialsproject.org/materials/mp-980201,39.30345542921712,60.87432665816555,-8.604250342815693,-0.5045126942092143
-6.73779847,-26.95119388,1.494591272079956,4.362696069999998,1.1425627,0.018316582040092916,0.0,71,4,726.9642165423973,654.31426,mp-1095889,TaNbOs2,https://materialsproject.org/materials/mp-1095889,-58.22561867968016,40.33001215589976,-8.604250342815693,-0.5045126942092143
-7.852746212307693,-102.08570076,7.2364534393861994,0.6433149723076923,9.1743454,0.4803641683170183,0.0,166,13,222.57783279720772,969.970645,mp-622633,Nb6Co7,https://materialsproject.org/materials/mp-622633,54.78947195943051,60.272436968152256,-8.604250342815693,-0.5045126942092143
-7.4495893639999995,-37.24794682,2.9721636638933298,0.3312484599999991,6.68e-05,1.5812447213238915e-05,0.0,123,5,49.23283008054555,88.1208,mp-1022724,CaC4,https://materialsproject.org/materials/mp-1022724,50.86092863461616,55.74560901000389,-8.604250342815693,-0.5045126942092143
-8.037302085,-32.14920834,13.050002287675635,-0.5707528342187507,4.5644241999999995,0.7421915632789348,0.0,221,4,71.6716517784604,563.26,mp-21085,PuPd3,https://materialsproject.org/materials/mp-21085,60.814719284863656,50.0107997493965,-8.604250342815693,-0.5045126942092143
-6.381788495357143,-178.69007787,4.653818273582899,-2.00804726654762,0.9999995999999999,0.0445534898832322,0.0,9,28,261.57457342796874,733.0875699999998,mp-773179,Li2TiCo3O8,https://materialsproject.org/materials/mp-773179,-73.10170015086845,-24.684630818219627,-8.604250342815693,-0.5045126942092143
-6.752566416666667,-40.515398499999996,9.084006677832734,-0.17166253416666655,0.00010229999999999999,1.332194234763872e-05,0.0,216,6,89.49226735275379,489.56895,mp-1215908,YHoCo4,https://materialsproject.org/materials/mp-1215908,42.62143897332185,74.15477745285996,-8.604250342815693,-0.5045126942092143
-7.971068357999999,-39.85534179,9.605149894297304,-0.3687726177499997,0.3560072,0.05838616305999555,0.0,139,5,71.06017506295659,411.03739,mp-21130,Np(CoSi)2,https://materialsproject.org/materials/mp-21130,11.012397724013075,71.26008390405893,-8.604250342815693,-0.5045126942092143
-4.122682371363637,-90.69901217,5.7177524545654475,-0.16576593364363648,5.445e-05,3.284673450831762e-06,0.0,11,22,193.1893189276358,665.21092,mp-1191044,BaReH9,https://materialsproject.org/materials/mp-1191044,-49.99380944554592,42.386367800764866,-6.40769198093171,-2.9649149222555486
-9.8713017425,-39.48520697,11.15140865794563,-0.34344123666666704,1.23e-05,2.027021599874724e-06,0.0,225,4,70.71705437738967,474.90288,mp-862831,PaTiTc2,https://materialsproject.org/materials/mp-862831,20.843293357486502,56.63161330544934,-8.604250342815693,-0.5045126942092143
-6.8311856025,-27.32474241,10.780207633507457,-0.8494894949999994,0.000199,2.855638275350034e-05,0.0,225,4,81.2133283742005,527.23635,mp-1187335,TbDyRh2,https://materialsproject.org/materials/mp-1187335,17.26997856557093,51.11292596610785,-8.604250342815693,-0.5045126942092143
-7.87117198,-31.48468792,8.974300876910004,-0.3613920368749993,5e-07,1.2502305334175882e-07,0.0,38,4,46.607663391096885,251.888805,mp-13502,TmCoC2,https://materialsproject.org/materials/mp-13502,8.152586121955355,38.36475433851156,-8.604250342815693,-0.5045126942092143
-8.265746030199999,-826.57460302,4.616474983118655,-1.2862967173875006,0.00015076,1.2241960337739458e-06,0.0,1,100,1435.2005370371362,3990.01,mp-1245176,Ti3O,https://materialsproject.org/materials/mp-1245176,-6.255931380772137,19.70890963256027,-8.604250342815693,-0.5045126942092143
-7.4383326690163925,-453.73829281,5.753455059150456,-2.3195890498044514,5.0,0.06604506571508803,0.1332,1,61,882.2812610130627,3056.93841728,mp-1221142,NaP4(W3O11)4,https://materialsproject.org/materials/mp-1221142,-19.010671104708237,0.15120448634831382,2.5039601758481536,-0.1009813618587829
-9.692935714848483,-319.86687859,5.617822720045477,-0.5472448106439398,1.3333333333333334e-07,4.791659177407571e-09,0.0,151,33,324.28752661174263,1097.1075,mp-28731,V6C5,https://materialsproject.org/materials/mp-28731,5.358322447589676,21.795895882122736,-8.604250342815693,-0.5045126942092143
-6.8107132575,-27.24285303,10.683618143355796,-0.8386124531250001,5.3e-06,7.567914838082038e-07,0.0,225,4,81.61632975011129,525.1052099999999,mp-972510,SmTmRh2,https://materialsproject.org/materials/mp-972510,17.483756115114872,51.16622679076133,-8.604250342815693,-0.5045126942092143
-7.849381681666666,-141.28887027,7.004119691903285,-0.14615152050222158,0.0002455,1.7607103768755144e-05,0.0,2,18,162.49537341516378,685.40216,mp-1246063,V(CoN)4,https://materialsproject.org/materials/mp-1246063,2.7471105903114403,16.593025997641202,-8.604250342815693,-0.5045126942092143
-6.614827940909091,-72.76310735,7.625024684999722,-0.4808247378787872,3.289999999999999e-05,2.853779724122284e-06,0.0,12,11,134.35470431591884,616.9430000000001,mp-1095458,Ce2Ni5B4,https://materialsproject.org/materials/mp-1095458,6.0907857659855065,38.56810152872197,-8.604250342815693,-0.5045126942092143
-6.0184078575,-24.07363143,1.2169342336078492,4.0158565275,0.6162614000000001,0.01020533514558377,0.0,71,4,703.7446756989862,515.74276,mp-1096188,Ta2VRh,https://materialsproject.org/materials/mp-1096188,-58.15188287681639,39.979330408582314,-8.604250342815693,-0.5045126942092143
-6.2900757725,-50.32060618,11.804180751593274,-0.9568507008333338,0.00266985,0.0001862145830825107,0.0,194,8,167.09005448424938,1187.7837,mp-510441,YInPt2,https://materialsproject.org/materials/mp-510441,22.73954006978807,51.78285273876304,-8.604250342815693,-0.5045126942092143
-10.260073443571429,-287.28205642,12.497511000501433,-0.3921242262499983,1.0478145,0.031926040580940944,0.0,44,28,382.48708046550223,2878.66553,mp-1218094,Ta6V3Co3C2,https://materialsproject.org/materials/mp-1218094,21.568969492653583,42.162579191652505,-8.604250342815693,-0.5045126942092143
-4.640411355,-18.56164542,11.804646915810055,-0.7447224575000004,2.2e-06,3.2816619635108443e-07,0.0,225,4,78.12792050099465,555.4055,mp-864882,Yb2PdRh,https://materialsproject.org/materials/mp-864882,30.01197001657627,57.04701431461571,-8.604250342815693,-0.5045126942092143
-6.974376785192307,-362.66759283,4.05148469233145,-1.9256928916415383,13.000012925,0.26054297717757186,0.0,198,52,581.4894506590637,1418.75352,mp-1195443,LiMn4O8,https://materialsproject.org/materials/mp-1195443,-75.8961570976951,-14.513308474927324,-8.604250342815693,-0.5045126942092143