energy_per_atom,energy,density,formation_energy_per_atom,total_magnetization_uB,total_magnetization_T,band_gap,sgr,num_sites,cell_volume,weight,mp_id,formula,URL,tsne_cry_lin1_0,tsne_cry_lin1_1,tsne_cry_lin2_0,tsne_cry_lin2_1
-7.10210488,-28.40841952,9.41726295201654,-0.2787600149999996,0.9835058000000001,0.16925200937522875,0.0,225,4,67.72055669943296,384.05739000000005,mp-865461,LuZrCo2,https://materialsproject.org/materials/mp-865461,30.94749224734574,59.21449091987577,-8.604250342815693,-0.5045126942092143
-7.270265538333334,-130.86477969,10.085892285474811,-0.4611823711111119,0.0005846,2.0728883495748056e-05,0.0,166,18,328.67019911785815,1996.2988800000005,mp-1190346,La2Rh7,https://materialsproject.org/materials/mp-1190346,32.02160785345915,65.11874826545464,-8.604250342815693,-0.5045126942092143
-7.5313217825,-30.12528713,4.925116583369119,-0.08041147916666702,0.1948568,0.038110650354568974,0.0,35,4,59.58632947604529,176.7315386,mp-1217032,TiAlV2,https://materialsproject.org/materials/mp-1217032,57.56004783885452,55.68059322070022,-8.604250342815693,-0.5045126942092143
-11.126666176666667,-66.75999706,10.906271162400216,-0.2548505800000005,6.62072405,0.7050406069107085,0.0,227,6,109.43816024729428,718.78,mp-646926,GdRu2,https://materialsproject.org/materials/mp-646926,29.642586781850515,64.15914827788704,-8.604250342815693,-0.5045126942092143
-4.695689424444446,-42.26120482,9.374147613739057,-0.3701721342592595,0.5809839,0.035427200446510085,0.0,174,9,191.11936357029683,1078.9153900000001,mp-1205952,Er3(In2Co)2,https://materialsproject.org/materials/mp-1205952,6.159174475540577,56.773510165687924,-8.604250342815693,-0.5045126942092143
-7.555349056551724,-219.10512264,10.41410082575691,-0.6049329643103449,1e-07,3.290237307665982e-09,0.0,225,29,354.2013442436715,2221.38018,mp-4502,Ta6Si7Ni16,https://materialsproject.org/materials/mp-4502,37.49972991059586,70.31939185905289,-8.604250342815693,-0.5045126942092143
-6.140446286666666,-36.84267772,8.534803575798831,-0.6128116575,4e-07,5.680561870491898e-08,0.0,65,6,82.06276096100706,421.78445,mp-1070859,TbSiNi4,https://materialsproject.org/materials/mp-1070859,25.99686229142437,78.2894812989828,-8.604250342815693,-0.5045126942092143
-5.637472262,-28.18736131,7.979853409117158,-0.28130256700000017,0.0018135000000000002,0.00021333735335008744,0.0,71,5,99.06678850728485,476.07339,mp-1206412,Nd2GaCo2,https://materialsproject.org/materials/mp-1206412,24.240358876863127,71.60109859586325,-8.604250342815693,-0.5045126942092143
-9.06772691,-36.27090764,14.452928941051463,-0.25720498499999955,9.14e-05,2.1050848116948677e-05,0.0,225,4,50.60040879561266,440.41368200000005,mp-867275,BeVOs2,https://materialsproject.org/materials/mp-867275,40.65625890640525,52.75628730299082,-8.604250342815693,-0.5045126942092143
-8.763269541666666,-52.57961725,14.005447608863301,-0.7432059299999997,5e-08,5.722865010283438e-09,0.0,227,6,101.82019627947241,858.7798240000002,mp-2263,ScIr2,https://materialsproject.org/materials/mp-2263,30.45372518967897,64.0012459053378,-8.604250342815693,-0.5045126942092143
-6.7049393980000005,-67.04939398,6.640332547357953,-0.2410888990000004,6.8111218,0.6477247949978534,0.0,123,10,122.54780926096308,490.05665439999996,mp-1228777,Al4Fe5Rh,https://materialsproject.org/materials/mp-1228777,23.880960370153613,89.62092009380525,-8.604250342815693,-0.5045126942092143
-8.828691105,-35.31476442,8.864954014418988,-0.5695509187500001,0.9793516,0.21671008089279756,0.0,225,4,52.66680227559872,281.16700000000003,mp-865507,VSiRu2,https://materialsproject.org/materials/mp-865507,56.454782166960676,55.513972534810506,-8.604250342815693,-0.5045126942092143
-5.2666717525,-21.06668701,9.043587272200963,0.0918436749999998,1.1889502,0.3149186887844803,0.0,65,4,43.998984930457546,239.6262,mp-1225694,CuNi3,https://materialsproject.org/materials/mp-1225694,32.299381662331726,79.74980794325094,-8.604250342815693,-0.5045126942092143
-7.563378245,-30.25351298,6.86823442315303,-0.2692292349999992,2.0012638,0.4927032798472923,0.0,216,4,47.33651856226245,195.7908236,mp-13079,Mn2AlCo,https://materialsproject.org/materials/mp-13079,45.13605970833631,46.67473203225704,-8.604250342815693,-0.5045126942092143
-7.6984453675,-30.79378147,8.407869649255623,-0.9510701225,0.0020238,0.0003685655341597149,0.0,225,4,63.99268000052801,324.01653860000005,mp-977435,ZrAlRh2,https://materialsproject.org/materials/mp-977435,33.76248087076357,57.412834963503855,-8.604250342815693,-0.5045126942092143
-8.229414196111113,-148.12945553,7.224164742137869,-0.001351494652777458,8.488384,0.4258667939947029,0.0,25,18,232.28901230460755,1010.5719,mp-1226144,Cr12As5C,https://materialsproject.org/materials/mp-1226144,45.785401801230925,64.11446280484635,-8.604250342815693,-0.5045126942092143
-6.27524173,-25.10096692,8.217886560462883,-0.2651573637500002,0.0,0.0,0.0,225,4,55.466445076544225,274.49939,mp-1183041,ZrZnCo2,https://materialsproject.org/materials/mp-1183041,16.573571146684145,21.034265196085464,-8.604250342815693,-0.5045126942092143
-4.706993728888889,-42.36294356,9.161342800426047,-0.3687988703703703,0.3338337,0.020161160382624225,0.0,174,9,192.9710140303373,1064.6383899999996,mp-1207275,Dy3(In2Co)2,https://materialsproject.org/materials/mp-1207275,6.1618897366258905,56.7450587900691,-8.604250342815693,-0.5045126942092143
-6.28248191875,-100.5197107,8.012048297639472,-0.7537162275,0.83967015,0.033874392778683995,0.0,63,16,288.8781026900839,1393.8276999999996,mp-1212311,Ho3Co2Si3,https://materialsproject.org/materials/mp-1212311,19.8813292906708,70.76757143790357,-8.604250342815693,-0.5045126942092143
-6.202225662999999,-62.02225663,9.666359221089047,-0.5243038040000002,0.0,0.0,0.0,194,10,162.998371106205,948.8489999999999,mp-10744,Si3Pt2,https://materialsproject.org/materials/mp-10744,30.42362430584975,53.7199861359221,-8.604250342815693,-0.5045126942092143
-7.549964306666667,-158.54925044,8.683604510207703,-0.9325079364285715,0.00014419999999999998,5.39312961811288e-06,0.0,147,21,311.6031431099073,1629.494034,mp-1216134,Y2P7Rh12,https://materialsproject.org/materials/mp-1216134,33.401437362865074,51.65456669320813,-8.604250342815693,-0.5045126942092143
-7.0113536025,-56.09082882,11.169353734705807,0.15192495750000035,7.79506465,0.8381981656156787,0.0,194,8,108.3803234890915,729.003138,mp-1184413,Fe3Au,https://materialsproject.org/materials/mp-1184413,50.35191986434703,76.20432326401612,-8.604250342815693,-0.5045126942092143
-7.785967345625,-124.57547753,6.538707521304096,-0.3766518162499999,8.27567725,0.5237167779249328,0.0,38,16,184.15541142377282,725.14909,mp-1221713,MnFe4Si3,https://materialsproject.org/materials/mp-1221713,47.18215736642623,66.43320986296224,-8.604250342815693,-0.5045126942092143
-5.7989967316666675,-69.58796078,9.484045102399486,-0.8095254383333336,4.8e-06,2.675004051867217e-07,0.0,62,12,209.11935019029002,1194.3696,mp-20676,ErNiGe,https://materialsproject.org/materials/mp-20676,17.73800384305435,76.19104231677275,-8.604250342815693,-0.5045126942092143
-5.46328562,-21.85314248,8.930710566025814,-0.5817261004166667,3.12e-05,5.996486204114382e-06,0.0,225,4,60.63664761779658,326.116,mp-865079,TiZnPd2,https://materialsproject.org/materials/mp-865079,38.03831564091573,57.77999184609539,-8.604250342815693,-0.5045126942092143
-2.1894648858450707,-310.90401379,7.9650820742487145,-0.31145419492957765,1.55e-05,7.296146530338537e-08,0.04790000000000028,194,142,2475.8001120667427,11875.63232,mp-1197586,Ho13Zn58,https://materialsproject.org/materials/mp-1197586,-0.13733302914338616,93.37164940709907,-8.604250342815693,-0.5045126942092143
-7.2647558863888895,-261.53121191,10.070752070665922,-0.4556727191666678,0.0036701,6.496995714475089e-05,0.0,194,36,658.328633748021,3992.597760000001,mp-568375,La2Rh7,https://materialsproject.org/materials/mp-568375,32.02121445200873,65.11956566484547,-8.604250342815693,-0.5045126942092143
-6.475302485909091,-142.45665469,6.730392664108122,-0.34532509090909064,0.00035865,9.61736150680594e-06,0.0,71,22,434.6026015264848,1761.504,mp-568232,Ti6Sn5,https://materialsproject.org/materials/mp-568232,35.736452718581184,61.38013123243329,-8.604250342815693,-0.5045126942092143
-9.035211984285716,-252.98593556,8.61008303328493,-0.17228512035714313,9.695e-05,2.559329707892324e-06,0.0015000000000000568,140,28,441.4677703366845,2289.0604000000008,mp-505764,Nb9Co4Ge,https://materialsproject.org/materials/mp-505764,47.49563277717357,57.262190938953715,-8.604250342815693,-0.5045126942092143
-6.2334418375,-24.93376735,3.7832652423111433,0.09048741749999943,0.028435000000000002,0.00449657813626643,0.0,187,4,73.6967804773625,167.90599999999998,mp-1094865,MgTi3,https://materialsproject.org/materials/mp-1094865,59.50414733476129,54.22391930388535,-8.604250342815693,-0.5045126942092143
-5.950665391111111,-53.55598852,9.203090908549422,-0.6901317027777779,1e-07,8.936305871634767e-09,0.0,189,9,130.41255458311377,722.7764999999998,mp-697068,SiPd2,https://materialsproject.org/materials/mp-697068,45.33805335933652,53.71202356792655,-8.604250342815693,-0.5045126942092143
-2.8790575557142857,-80.61361156,2.0317499613908216,0.08991390607142892,0.00029015,5.759543979639869e-06,0.0,1,28,587.0997609726783,718.345,mp-1074063,Mg9Si5,https://materialsproject.org/materials/mp-1074063,-13.183949549247641,94.89386412553169,-8.604250342815693,-0.5045126942092143
-6.886230955714287,-144.61085007,10.17426414884814,-0.7026942497619053,0.00014539999999999998,4.969587500809134e-06,0.0,147,21,340.9741789744693,2089.17784,mp-1224190,Ho2As7Rh12,https://materialsproject.org/materials/mp-1224190,33.197104934376426,51.15825237578572,-8.604250342815693,-0.5045126942092143
-8.254930895,-49.52958537,16.665656043399355,-0.8105650016666658,0.0,0.0,0.0,227,6,108.99124006139157,1093.868,mp-1358,DyIr2,https://materialsproject.org/materials/mp-1358,31.05030902492503,65.31060551594263,-8.604250342815693,-0.5045126942092143
-5.991717131034482,-173.7597968,9.491067030299464,-0.8051644169827586,1.31e-05,3.196755777327616e-07,0.0,225,29,477.57244892870006,2729.639,mp-1209902,Nd3(Si3Pd10)2,https://materialsproject.org/materials/mp-1209902,28.18959345488479,54.354058622716344,-8.604250342815693,-0.5045126942092143
-6.617891023333333,-39.70734614,6.508863968518313,-0.2824152733333325,1.63e-05,1.95128604218534e-06,0.0,166,6,97.3518242256149,381.59282360000003,mp-1216136,Y2AlCo3,https://materialsproject.org/materials/mp-1216136,41.97577031184802,74.12966253742545,-8.604250342815693,-0.5045126942092143
-5.775152643333333,-69.30183172,8.382788078841795,-0.7360353791666658,5.0125e-05,2.617185748482602e-06,0.0,62,12,223.20158095895184,1126.7736,mp-1101817,SmNiGe,https://materialsproject.org/materials/mp-1101817,4.3693773222302585,75.1457889733148,-8.604250342815693,-0.5045126942092143
-8.275722552916667,-198.61734127,7.975104314181514,-0.3888479470833334,8.5e-07,2.803894981763641e-08,0.0,227,24,353.29265614808884,1696.7657599999998,mp-540747,Nb3SiNi2,https://materialsproject.org/materials/mp-540747,53.93170068093113,59.27161401188047,-8.604250342815693,-0.5045126942092143
-9.102804057916666,-218.46729739,8.792967783257806,-0.09187042125000032,0.00705165,0.00026586834684877984,0.0,194,24,309.1018048123005,1636.77104,mp-1192350,NbFe2,https://materialsproject.org/materials/mp-1192350,54.835568726745144,62.38035288576414,-8.604250342815693,-0.5045126942092143
-7.0788543486206885,-205.28677611,10.10621985023848,-0.8118955220689646,1.6224929,0.04040498493795282,0.0,225,29,467.9778343849137,2848.1636175999997,mp-1212464,Hf6Al16Ir7,https://materialsproject.org/materials/mp-1212464,9.717632390170312,83.90866169457628,-8.604250342815693,-0.5045126942092143
-6.931899355,-41.59139613,6.451610873590352,-0.3306819711111117,1e-07,1.055729378420736e-08,0.0,194,6,110.38875123464872,428.88800000000003,mp-30875,Ti2Sn,https://materialsproject.org/materials/mp-30875,35.3396630456773,61.13314471434439,-8.604250342815693,-0.5045126942092143
-7.902296615,-31.60918646,12.148509832009056,-0.6669215343749997,0.2917695,0.040231293995999215,0.0,225,4,84.51879902236048,618.3398500000002,mp-1186681,PmYIr2,https://materialsproject.org/materials/mp-1186681,15.387885567054912,49.88825855324554,-8.604250342815693,-0.5045126942092143
-4.720867465,-37.76693972,9.6228856766574,-0.7795304475,1.455e-05,1.167499955990496e-06,0.0,63,8,145.23909964252184,841.666,mp-1079942,LuGa2Pd,https://materialsproject.org/materials/mp-1079942,10.593494909938999,79.65211327440583,-8.604250342815693,-0.5045126942092143
-7.103695466666667,-42.622172799999994,10.767276499656038,-1.003536580833334,7.6e-05,8.554964449070982e-06,0.0,166,6,103.53157257254524,671.3199999999998,mp-1077251,Er2SiRh3,https://materialsproject.org/materials/mp-1077251,17.303136428121302,63.300438604231246,-8.604250342815693,-0.5045126942092143
-6.095778764444443,-54.86200888,12.188731695283822,-0.6978630938888881,3.3333333333333334e-08,2.0138830978724317e-09,0.0,189,9,192.89541987933063,1415.89596,mp-13525,HoInIr,https://materialsproject.org/materials/mp-13525,7.848948594914558,55.04919688370184,-8.604250342815693,-0.5045126942092143
-5.442837510357144,-152.39945029,6.461381025000062,-0.8124460803571429,5.685e-05,1.4298680824972417e-06,0.0,63,28,463.35294173635526,1802.9686947999999,mp-1210912,Lu2(Al3Rh)3,https://materialsproject.org/materials/mp-1210912,10.591532989219708,83.74799185904473,-8.604250342815693,-0.5045126942092143
-10.3159339875,-41.26373595,10.61855199371741,-0.2561910518749997,1.6e-06,3.5061035282030016e-07,0.0,225,4,53.182980725194035,340.0861,mp-865484,V2CrRe,https://materialsproject.org/materials/mp-865484,56.71953043392868,55.75269994336646,-8.604250342815693,-0.5045126942092143
-5.630211052500001,-67.56253263,3.57883691924132,0.16931883638888814,3.625e-06,1.896251322401568e-07,0.0,8,12,222.78684424079984,480.156,mp-1094325,MgTi2,https://materialsproject.org/materials/mp-1094325,33.50820878872757,61.40318358631849,-8.604250342815693,-0.5045126942092143
-6.499929248636364,-142.99844347,6.813392301966974,-0.3699518536363641,0.0054277,0.0001473411089245551,0.0,194,22,429.30834325681207,1761.504,mp-20382,Ti6Sn5,https://materialsproject.org/materials/mp-20382,35.716513068297594,61.36264391897582,-8.604250342815693,-0.5045126942092143
-4.3011694125,-51.61403295,8.425514021073084,-0.8161417491666665,5e-08,2.412054528284229e-09,0.0,62,12,241.57962923105217,1225.7661544000002,mp-569338,YbAlPd,https://materialsproject.org/materials/mp-569338,3.891711839039458,64.99805778752406,-8.604250342815693,-0.5045126942092143
-9.16049005125,-293.13568164,8.325057132046473,-0.4136752374999997,2.625e-07,5.4211645498537575e-09,0.0,86,32,564.3053212394087,2829.12592,mp-504425,Nb3As,https://materialsproject.org/materials/mp-504425,46.98967890821653,58.09627223643192,-8.604250342815693,-0.5045126942092143
-8.090706519166668,-97.08847823,11.986169639204256,-0.4047374991666679,0.00026365,1.4703202794382718e-05,0.0,194,12,208.97448129187413,1508.428,mp-568630,LuRu2,https://materialsproject.org/materials/mp-568630,30.63475211958535,63.46867659034796,-8.604250342815693,-0.5045126942092143
-6.260641825,-25.0425673,7.796986626341393,-0.760263216666667,8.599999999999999e-06,1.635803064546105e-06,0.0,225,4,61.26957408031468,287.6885386,mp-865441,TiAlPd2,https://materialsproject.org/materials/mp-865441,38.05933094491128,57.61163537115645,-8.604250342815693,-0.5045126942092143
-9.02298934625,-144.36782954,6.9741389924024615,-0.6677834281250004,6.5e-07,2.8986606411732638e-08,0.0,140,16,261.33249248168914,1097.5768,mp-13686,Nb5Si3,https://materialsproject.org/materials/mp-13686,47.51759893328642,57.98663871731889,-8.604250342815693,-0.5045126942092143
-6.93824005,-201.20896145,8.361502692041052,-0.19884770517241326,22.1306313,0.9006760045124339,0.0,225,29,286.3535936737354,1441.9090949999998,mp-1194289,Ga2(Co7B2)3,https://materialsproject.org/materials/mp-1194289,39.362274971158115,89.45916766065884,-8.604250342815693,-0.5045126942092143
-1.806363672608696,-166.18545788,5.6353598134173115,-0.21527222581521735,3e-07,2.1736398357437277e-09,0.0,194,92,1608.4630831085447,5458.630000000001,mp-571469,Sm3Mg13Zn30,https://materialsproject.org/materials/mp-571469,0.3150340238210387,97.33878991894392,-8.604250342815693,-0.5045126942092143
-6.05101155625,-96.81618490000001,8.462106622102679,-0.9143373968750002,5.75e-07,2.216486287267552e-08,0.0,62,16,302.32928950274777,1540.67,mp-1209845,NdSiPd2,https://materialsproject.org/materials/mp-1209845,27.61211336045309,53.66383378348152,-8.604250342815693,-0.5045126942092143
-6.644832294166666,-79.73798753,8.6972764968503,-0.8449257024999994,6.925e-06,3.6450097315370773e-07,0.0,62,12,221.41065317799118,1159.6654,mp-1239087,TbSiRh,https://materialsproject.org/materials/mp-1239087,17.020413342482104,63.38200107131414,-8.604250342815693,-0.5045126942092143
-2.475425165,-9.90170066,6.890101030608463,-0.3183834449999998,8.5e-06,1.2683851952533702e-06,0.0,225,4,78.0989489135195,324.05721000000005,mp-865233,TmMgZn2,https://materialsproject.org/materials/mp-865233,-0.6329785014746582,96.78456405686347,-8.604250342815693,-0.5045126942092143
-7.63534008,-61.08272064,7.725808557283545,-0.18665747749999986,2.0025264,0.18231652279394306,0.0,26,8,128.00580011465698,595.5586000000002,mp-1226254,CrMoAs2,https://materialsproject.org/materials/mp-1226254,48.73151779226741,59.45353850059402,-8.604250342815693,-0.5045126942092143
-8.324518381136365,-366.27880877,8.05942727637565,-0.2842716014609101,39.5154857,0.8489593360530844,0.0,194,44,542.4476889646464,2632.7702,mp-1200240,Dy2Fe17N3,https://materialsproject.org/materials/mp-1200240,61.47422762071853,75.2803162206894,-8.604250342815693,-0.5045126942092143
-5.797036553333334,-69.56443864,9.278638988857036,-0.8040150633333342,7.5e-07,4.1213112541108505e-08,0.0,62,12,212.0817390509248,1185.0548800000001,mp-542171,HoNiGe,https://materialsproject.org/materials/mp-542171,17.7273280099494,76.18461901028537,-8.604250342815693,-0.5045126942092143
-9.35976511,-37.43906044,9.371069480409348,-0.16714189999999896,4.0360945,0.8617882056433331,0.0,225,4,54.580587693305034,308.019545,mp-864983,MnVRu2,https://materialsproject.org/materials/mp-864983,62.19975564747033,54.26490073572368,-8.604250342815693,-0.5045126942092143
-5.858159552999999,-117.16319106,9.556640206698242,-0.7337670975000001,0.00084315,2.294842570309717e-05,0.0,36,20,428.18295425195765,2464.25428,mp-1188971,Ho2Sn5Rh3,https://materialsproject.org/materials/mp-1188971,2.4274385225769275,50.45280204279096,-8.604250342815693,-0.5045126942092143
-8.597608380833334,-103.17130057,7.175612861248887,-0.5981793124999998,0.929039225,0.0661437102047644,0.0,62,12,163.69029301320887,707.3475199999998,mp-1209887,NbFeSi,https://materialsproject.org/materials/mp-1209887,49.886993391769344,63.564130943338,-8.604250342815693,-0.5045126942092143
-7.7432169375,-30.97286775,8.078836875483475,0.04622033500000011,8.127452499999999,2.0369693401437483,0.0,221,4,46.49940281586074,226.2284,mp-999189,Fe3Ni,https://materialsproject.org/materials/mp-999189,49.78195477522916,75.74954530545166,-8.604250342815693,-0.5045126942092143
-4.460339313333333,-13.38101794,5.520680222679112,-0.705954387413333,1.3699999999999998e-05,3.7139646187056154e-06,0.0,225,3,42.98928605294911,142.92353,mp-24095,PrH2,https://materialsproject.org/materials/mp-24095,42.32435045929174,79.1385662239623,-8.604250342815693,-0.5045126942092143
-5.799860290833332,-69.59832349,8.920832358298687,-0.7903711658333332,0.0,0.0,0.0,62,12,216.11704680370002,1161.035,mp-21424,TbNiGe,https://materialsproject.org/materials/mp-21424,17.785689528354098,76.20458726514744,-8.604250342815693,-0.5045126942092143
-8.48381174,-33.93524696,8.575395892181476,-0.6439750500000008,2e-06,4.2979040436749924e-07,0.0,225,4,54.23138652762799,280.0630386,mp-866001,AlVRu2,https://materialsproject.org/materials/mp-866001,42.30715750217462,53.35263623486473,-8.604250342815693,-0.5045126942092143