energy_per_atom,energy,density,formation_energy_per_atom,total_magnetization_uB,total_magnetization_T,band_gap,sgr,num_sites,cell_volume,weight,mp_id,formula,URL,tsne_cry_lin1_0,tsne_cry_lin1_1,tsne_cry_lin2_0,tsne_cry_lin2_1
-5.492967490441177,-373.52178935,7.586784127474947,-0.2541948602205885,0.2003667,0.0011921137297425588,0.0,186,68,1958.778295899928,8949.4,mp-1210535,Nd23Cd4Ru7,https://materialsproject.org/materials/mp-1210535,-30.883044598312697,68.19873848361887,-8.604250342815693,-0.5045126942092143
-10.052468955,-40.20987582,13.096141652908244,-0.523034805,9.800000000000001e-06,1.620538336046589e-06,0.0,225,4,70.47647823605794,555.8255,mp-865130,Hf2MoRh,https://materialsproject.org/materials/mp-865130,40.6235980092849,60.88233764605465,-8.604250342815693,-0.5045126942092143
-7.469307524027778,-537.79014173,5.111439437231054,-2.3810372716964285,2.000000025,0.021835105332982517,0.8175999999999999,62,72,1067.4612959738483,3285.838896,mp-27738,P2W3O13,https://materialsproject.org/materials/mp-27738,-19.25935499473287,0.38841863652244624,3.4640221182544693,1.248648283285293
-5.546107598,-55.46107598,9.588809731557935,-0.601700803,4.165e-05,2.4762487810078536e-06,0.0,127,10,196.01899514294877,1131.91488,mp-1078261,Ho2Ni2Sn,https://materialsproject.org/materials/mp-1078261,3.2609846178296964,57.547918559371325,-8.604250342815693,-0.5045126942092143
-7.718317760476191,-162.08467297,9.336985970314522,-0.6447329667460324,0.0004433,1.632730782133426e-05,0.0,123,21,316.4175607031293,1779.17306,mp-1219416,Sc5BRh15,https://materialsproject.org/materials/mp-1219416,31.61361573032713,57.30985808419286,-8.604250342815693,-0.5045126942092143
-5.3721134925000005,-193.39608573,8.594248755573616,-0.4836941997222218,3.735e-05,6.194465838940296e-07,0.0,57,36,702.6906444762459,3636.83,mp-638141,LiSn5Rh3,https://materialsproject.org/materials/mp-638141,33.399710422502345,35.54498489436111,-8.604250342815693,-0.5045126942092143
-6.502147794642857,-182.06013825,4.406109307078445,-1.9076791615314292,19.9999774,0.8479514293171511,0.0,8,28,274.87545160107624,729.36032,mp-769581,Li4Mn3Cr2Co3O16,https://materialsproject.org/materials/mp-769581,-69.33477779045705,-30.12475880455852,-8.604250342815693,-0.5045126942092143
-9.7343742975,-77.87499438,13.592861794882607,1.3416745837500006,0.00023530000000000003,1.9364160420623054e-05,0.0,229,8,141.6122042690175,1159.211,mp-570334,SiW3,https://materialsproject.org/materials/mp-570334,51.996409559492506,58.712637050274566,-8.604250342815693,-0.5045126942092143
-7.485153589318182,-329.34675793,8.294436793984254,-0.09101008185727334,37.598777,0.8503776934811437,0.0,194,44,515.2752546145471,2573.81364,mp-1213007,Er2Fe17H3,https://materialsproject.org/materials/mp-1213007,61.76179564699977,74.66701468051724,-8.604250342815693,-0.5045126942092143
-7.503011779456522,-690.27708371,6.122259704792688,-2.27249077079969,0.999268475,0.008782799108522811,0.0,4,92,1325.9485260827769,4888.654248,mp-1203346,PW5O17,https://materialsproject.org/materials/mp-1203346,-18.71337453615152,-0.6669548863082619,-8.604250342815693,-0.5045126942092143
-7.776295166666666,-93.31554200000001,8.63043578710505,-0.9372264716666668,2.5125e-05,1.4261689172999397e-06,0.0,62,12,205.3111478301706,1067.078,mp-1101959,ZrGeRh,https://materialsproject.org/materials/mp-1101959,44.42626613169118,57.6475078894568,-8.604250342815693,-0.5045126942092143
-6.353269779375,-101.65231647,9.60489859696692,-0.7060026281249998,0.0010359000000000002,3.164450569854352e-05,0.0,193,16,381.5021101261897,2206.6865,mp-1105551,Tb5Rh3,https://materialsproject.org/materials/mp-1105551,15.772518539456856,50.60209937833415,-8.604250342815693,-0.5045126942092143
-7.226989143333332,-21.68096743,10.155429659700747,-1.0224063750000003,0.0,0.0,0.9726,216,3,66.22547971274493,405.018,mp-961713,ZrSnPt,https://materialsproject.org/materials/mp-961713,31.074186610019368,52.44484979519661,-8.604250342815693,-0.5045126942092143
-3.827925296666667,-11.48377589,8.504146482271208,-0.5370005633333333,1.4e-06,3.99863235109489e-07,0.0,191,3,40.803177809322904,208.96599999999998,mp-2170,Li2Pt,https://materialsproject.org/materials/mp-2170,29.792383788015275,44.32137515783585,-8.604250342815693,-0.5045126942092143
-8.891402077999999,-177.82804156,13.171174135555262,-0.33946209150000045,1.8000000000000001e-06,3.79026378683454e-08,0.0,186,20,553.4526821977942,4389.91284,mp-569819,Th7Os3,https://materialsproject.org/materials/mp-569819,-31.718300087497372,67.78766568313536,-8.604250342815693,-0.5045126942092143
-6.121222756111112,-110.18200961,9.208393802673033,-0.438405026851852,0.013318100000000001,0.0006765826883076238,0.0,191,18,229.40285456558627,1272.1362,mp-542729,Dy3Ni13B2,https://materialsproject.org/materials/mp-542729,30.385501490731908,84.98810090759183,-8.604250342815693,-0.5045126942092143
-7.231810716153847,-188.02707862,6.395718123151371,-2.233814608211538,1.0000033000000002,0.0305513593926312,0.556,9,26,381.4594002577948,1469.2258,mp-1178157,K(WO3)3,https://materialsproject.org/materials/mp-1178157,-17.145184880378036,1.006590872005078,-8.604250342815693,-0.5045126942092143
-7.708533056666668,-185.00479336,7.181926245290577,-0.05987610583333355,9.5e-07,3.971022361279902e-08,0.0,227,24,278.80380734908005,1205.8424,mp-505629,Cr3SiNi2,https://materialsproject.org/materials/mp-505629,46.37091587096017,64.25273228933125,-8.604250342815693,-0.5045126942092143
-6.381022585,-25.52409034,7.383398449231625,-0.6896238475,2e-06,3.248584811958537e-07,0.0,225,4,71.74856404954735,319.02185,mp-866165,YMgRh2,https://materialsproject.org/materials/mp-866165,38.45164620538935,56.038174056500004,-8.604250342815693,-0.5045126942092143
-4.8039522475,-57.64742697,10.596227855504845,-0.6277685774999995,2.5e-07,9.02831153260159e-09,0.0,62,12,322.70886783415716,2059.269076,mp-1095658,Tb2Au,https://materialsproject.org/materials/mp-1095658,-31.521555379698373,41.6841181713657,-8.604250342815693,-0.5045126942092143
-8.0546318425,-32.21852737,9.78265363415736,-0.16364117999999905,1.9463348999999999,0.3632289534375001,0.0,225,4,62.44742545722322,367.8935086,mp-861991,PaMn2Al,https://materialsproject.org/materials/mp-861991,53.34478974168008,45.5447068690787,-8.604250342815693,-0.5045126942092143
-8.6330715175,-34.53228607,10.893703261843696,-0.32726171875,3.6000000000000003e-06,5.98371011689761e-07,0.0,225,4,70.11474881234257,459.9767,mp-866112,HoNbRu2,https://materialsproject.org/materials/mp-866112,40.96519420290639,59.56271011507322,-8.604250342815693,-0.5045126942092143
-7.219304121666667,-86.63164946,8.030642827343375,-0.8947640600000012,7e-07,4.386771883361518e-08,0.0,62,12,185.96465824296638,899.3560000000001,mp-1207428,ZrNiAs,https://materialsproject.org/materials/mp-1207428,18.461020796223814,28.66910756545101,-8.604250342815693,-0.5045126942092143
-10.521867205,-63.13120323,14.935339666649801,-0.2482309983333325,2.2800000000000002e-05,2.839505267642292e-06,0.0,140,6,93.57710297012,841.65791,mp-574,Ta2Co,https://materialsproject.org/materials/mp-574,42.351132705717866,65.06174478409268,-8.604250342815693,-0.5045126942092143
-8.397045404,-167.94090808,14.022251047296296,-0.6519197953333347,2.95145505,0.1283446379319209,0.0,127,20,268.00066508616936,2263.104038,mp-1208990,Sc2CoB2Ir5,https://materialsproject.org/materials/mp-1208990,29.65000320596198,49.77423918650303,-8.604250342815693,-0.5045126942092143
-7.697743912000001,-38.48871956,11.275526783396561,-0.54885078975,0.00036710000000000003,5.9327177013191014e-05,0.0,221,5,72.11209758144115,489.66141,mp-10714,TmRh3C,https://materialsproject.org/materials/mp-10714,22.30750206405007,43.17530807677351,-8.604250342815693,-0.5045126942092143
-8.0514901425,-32.20596057,7.741150958014948,-0.1689631475000004,0.8030142,0.18595494470112295,0.0,225,4,50.32605890166839,234.6115386,mp-672259,AlFe2Mo,https://materialsproject.org/materials/mp-672259,51.233361798864614,64.4589122133984,-8.604250342815693,-0.5045126942092143
-7.567640385,-30.27056154,7.1459834286042,-0.7903315900000001,0.0001234,2.0809510942705348e-05,0.0,225,4,69.10838014854873,297.40182400000003,mp-862370,Sc2PdRu,https://materialsproject.org/materials/mp-862370,20.50990764420273,53.301735325910904,-8.604250342815693,-0.5045126942092143
-9.6032702725,-115.23924327,5.741137609586986,-0.4753088520833337,0.0,0.0,0.0,60,12,131.7682648430045,455.5748,mp-20648,V2C,https://materialsproject.org/materials/mp-20648,6.411685557313462,22.52545120408803,-8.604250342815693,-0.5045126942092143
-5.68610187375,-45.48881499,13.181648937949324,-0.8128566670833335,2e-07,1.3934390747266868e-08,0.0,194,8,167.2705320804292,1327.8227000000004,mp-1025449,TbInPt2,https://materialsproject.org/materials/mp-1025449,22.771671655231618,51.767803436218045,-8.604250342815693,-0.5045126942092143
-5.6414459675,-22.56578387,9.005828334871858,-0.5350567125000003,9.429999999999999e-05,1.6938464869084212e-05,0.0,225,4,64.88063213203074,351.876,mp-1185944,MgSbRh2,https://materialsproject.org/materials/mp-1185944,38.80962863250532,55.12676956382894,-8.604250342815693,-0.5045126942092143
-7.555165145,-30.22066058,14.314788405332429,-0.7597692325000001,0.0012901,0.0002015006401663557,0.0,225,4,74.61469576804656,643.221,mp-865321,Lu2IrRu,https://materialsproject.org/materials/mp-865321,18.947647100319667,52.675492683834065,-8.604250342815693,-0.5045126942092143
-6.007800516750001,-240.31202067,9.900697404109838,-0.8912601414166665,0.6401594,0.0069258012431611775,0.0,140,40,1077.1979804834448,6422.62,mp-1211197,Nd12InPt7,https://materialsproject.org/materials/mp-1211197,13.862424562283206,55.276146986874544,-8.604250342815693,-0.5045126942092143
-1.22173477,-4.88693908,0.4639551300035638,1.11029787,3.289999999999999e-05,4.0959732827350727e-07,0.6654,71,4,936.0869921524176,261.543,mp-1097358,MgZn2Pd,https://materialsproject.org/materials/mp-1097358,49.15836229090432,59.140597697337455,-8.604250342815693,-0.5045126942092143
-6.1671799125,-24.66871965,0.7287786355088741,3.949519275,8.538623300000001,0.12810959644081035,0.0,71,4,776.7542149167817,340.90248,mp-1095968,NbCrTc2,https://materialsproject.org/materials/mp-1095968,-60.19827764246032,42.329274207273656,-8.604250342815693,-0.5045126942092143
-7.10579141423077,-184.75057677,4.096520347027593,-2.0804642660646158,14.00000065,0.540925464233784,0.2455999999999996,44,26,301.6255014396265,744.1047599999999,mp-1004375,MgMn4O8,https://materialsproject.org/materials/mp-1004375,-66.7226567472199,-40.80100332033325,3.5804150707867124,0.4612427278664821
-7.224793128333333,-86.69751754,3.9706005788395786,-1.9211494452400002,9.9999999,0.8106637857053354,0.5167000000000002,166,12,143.75953214536625,343.750835,mp-756398,Mn3VO8,https://materialsproject.org/materials/mp-756398,-77.780242604706,-15.388665149502694,3.2525866986803926,-0.7030355979357749
-9.673799824166668,-580.42798945,5.639359834703188,-0.5263359715833341,2.5e-08,5.031763162701246e-10,0.0,212,60,579.0249061674506,1966.4276,mp-542730,V8C7,https://materialsproject.org/materials/mp-542730,5.2520505731045235,21.745837911278812,-8.604250342815693,-0.5045126942092143
-7.5603282875,-30.24131315,15.000830843027284,-0.8420465974999995,0.28553909999999993,0.041948680099451005,0.0,225,4,79.32767273271013,716.6233199999998,mp-1184769,HoErIr2,https://materialsproject.org/materials/mp-1184769,16.830371609030255,49.09838315011378,-8.604250342815693,-0.5045126942092143
-6.9774405228378376,-516.33059869,6.959498538166233,-0.4817634821157096,0.0589996,0.00040463244242609813,0.0,11,74,1699.2833195294104,7121.879999999999,mp-1224355,Mo15Pb3Se19,https://materialsproject.org/materials/mp-1224355,63.54291383962217,33.171453611041,-8.604250342815693,-0.5045126942092143
-7.4607873025,-29.84314921,13.150102694315018,-0.6392949075000001,3.11e-05,4.606031629064073e-06,0.0,225,4,78.68843369194428,623.1476399999998,mp-866111,Ho2IrRu,https://materialsproject.org/materials/mp-866111,16.5900335748323,49.75969057720843,-8.604250342815693,-0.5045126942092143
-10.644617731363637,-234.18159009,12.516586974692943,1.2108394086363654,0.0003356227272727273,7.406097763871602e-06,0.0,136,22,528.1281894305966,3980.85336,mp-697196,Ta,https://materialsproject.org/materials/mp-697196,41.017451128151386,66.36707936225207,-8.604250342815693,-0.5045126942092143
-5.138332555,-20.55333022,0.8698120626466033,3.02531115875,0.9998235000000001,0.014751371483583563,0.16349999999999998,71,4,789.8931867517923,413.75638,mp-1096159,NbSnRu2,https://materialsproject.org/materials/mp-1096159,-60.59840388190242,42.573715218810136,-8.604250342815693,-0.5045126942092143
-6.233636115,-24.93454446,1.168540465452942,3.8772759783333326,1.0000003,0.015734031061135738,0.0,71,4,740.6918305611817,521.23338,mp-1097600,TiNbOs2,https://materialsproject.org/materials/mp-1097600,-60.02363103504596,35.15991237487456,-8.604250342815693,-0.5045126942092143
-8.5295920625,-34.11836825,9.519982455992801,-0.8308620325000007,1.4000000000000001e-05,2.441003224744213e-06,0.0,225,4,66.8401029387958,383.198824,mp-862369,Sc2IrRu,https://materialsproject.org/materials/mp-862369,20.745744484517573,52.82673331190762,-8.604250342815693,-0.5045126942092143
-7.131552967777778,-128.36795342,7.165734308439116,-2.1889178524999995,0.2687921,0.014361756624078188,0.0,71,18,218.1154176154551,941.2348,mp-756203,Li(WO3)2,https://materialsproject.org/materials/mp-756203,-17.502667658423768,1.8338051048658608,-8.604250342815693,-0.5045126942092143
-4.756163735,-9.51232747,3.629439903428479,0.414803515,0.9999998999999999,0.15563585951250553,0.0,216,2,74.88032413389152,163.66591200000002,mp-1009747,ScSn,https://materialsproject.org/materials/mp-1009747,10.862016852506304,29.07078449498011,-8.604250342815693,-0.5045126942092143
-4.1471798375,-16.58871935,11.647160881674841,-0.6090280525000002,2.6300000000000002e-05,4.263015101124207e-06,0.0,225,4,71.89791643888191,504.29805,mp-1186992,ScZnAu2,https://materialsproject.org/materials/mp-1186992,-9.84203371084942,58.0239699606455,-8.604250342815693,-0.5045126942092143
-7.192585145,-28.77034058,10.325167575245342,-0.221599011875,4.4e-06,6.256257498818272e-07,0.0,225,4,81.96255510414716,509.64,mp-983429,PmDyRu2,https://materialsproject.org/materials/mp-983429,19.737681140313423,53.56312534416686,-8.604250342815693,-0.5045126942092143
-10.7552689275,-129.06322713,15.198777689953443,-0.14648278916666632,7.15e-06,3.578069535298192e-07,0.0,164,12,232.8813409068012,2131.54382,mp-1216012,YThRe4,https://materialsproject.org/materials/mp-1216012,66.94507107089454,59.90398122412166,-8.604250342815693,-0.5045126942092143
-6.8420993208333325,-82.10519185,14.902042251865026,-1.0125860174999997,0.0,0.0,0.14320000000000022,180,12,192.5335068377248,1727.838,mp-1095320,LuBPt2,https://materialsproject.org/materials/mp-1095320,15.37565919603646,57.807508094464175,-8.604250342815693,-0.5045126942092143
-8.357910577142857,-117.01074808,8.304678167676427,0.1415048596514278,19.136731,1.2193876264291217,0.0,71,14,182.89565825934216,914.6967,mp-1219146,SmFe10Mo2N,https://materialsproject.org/materials/mp-1219146,61.10301076206019,75.29570154247983,-8.604250342815693,-0.5045126942092143
-7.2687884999999985,-87.225462,7.503727329321486,-0.3563085433333329,0.51851535,0.03162164429775152,0.0,38,12,191.09731984734702,863.5401800000001,mp-1216045,ZrMnGa,https://materialsproject.org/materials/mp-1216045,39.62706453354572,45.826814545687704,-8.604250342815693,-0.5045126942092143
-6.0810481625,-24.32419265,7.191542570471121,-0.3959866081249999,2e-06,2.8303160428155736e-07,0.0,38,4,82.35168508578519,356.65265,mp-1218998,SmYNi2,https://materialsproject.org/materials/mp-1218998,2.2414266175494237,58.798499169155086,-8.604250342815693,-0.5045126942092143
-5.781579795,-11.56315959,10.986829327828005,-0.953419685,1e-07,2.800328588925013e-08,0.0,221,2,41.61677604067686,275.35421,mp-348,TmPd,https://materialsproject.org/materials/mp-348,16.912557050643922,54.17630318533846,-8.604250342815693,-0.5045126942092143
-6.7551230166666665,-20.26536905,10.570572151203109,-0.43298407333333344,5.7999999999999995e-06,1.2314053204135952e-06,0.0,191,3,54.891411105925215,349.42486,mp-220,ThNi2,https://materialsproject.org/materials/mp-220,17.667234191921093,76.4981725046664,-8.604250342815693,-0.5045126942092143
-4.9611594325,-19.84463773,10.08185439177266,-0.667237095,0.0007803,0.00010476088239954556,0.0,225,4,86.80402965055376,527.025,mp-1185326,LiDy2Pt,https://materialsproject.org/materials/mp-1185326,8.52786374732475,42.875480664826824,-4.5116344708661815,-0.6134537759749399
-6.2839700675,-175.95116189,10.112273876484648,-0.9448410589285712,0.007282275,0.00015060895703721138,0.0,57,28,563.4997161598001,3431.57452,mp-1208062,Tm3(GeRh)2,https://materialsproject.org/materials/mp-1208062,15.834902217337993,63.576085079585134,-8.604250342815693,-0.5045126942092143
-6.8325081007142865,-191.31022682,3.7429156828074484,-2.541060142994285,3.00000055,0.1288875680787467,1.7180000000000002,62,28,271.2612337138193,611.4327344000002,mp-770386,LiMnAlO4,https://materialsproject.org/materials/mp-770386,-64.5598858065275,-39.25640474968689,4.068056705941569,1.1207066417089242
-11.07933281,-44.31733124,15.219342772177978,-0.40163538937499865,1.7e-06,2.831968695108123e-07,0.0,225,4,69.95808303804387,641.187,mp-973443,Hf2ReTc,https://materialsproject.org/materials/mp-973443,63.60256461630722,57.71637577421363,-8.604250342815693,-0.5045126942092143
-5.7933785,-23.173514,10.922542959719825,-0.9429101587500002,2.65e-05,3.699979838602622e-06,0.0,225,4,83.46875657286536,549.0332099999999,mp-1184248,ErTmPd2,https://materialsproject.org/materials/mp-1184248,16.850661163162716,54.151444869850366,-8.604250342815693,-0.5045126942092143
-6.015450925,-24.0618037,0.7366700522727853,3.7978393250000018,9.0820296,0.1373903035146422,0.0,71,4,770.3786840635689,341.76547000000005,mp-1097184,TaMn2V,https://materialsproject.org/materials/mp-1097184,-58.536230945108976,41.26222294215438,-8.604250342815693,-0.5045126942092143
-7.616670082435897,-594.10026643,6.971879508289613,-2.3048400151762833,5.303355799999999,0.05541524170172138,0.0,2,78,1115.3186399114857,4682.73674,mp-685542,La2(WO3)19,https://materialsproject.org/materials/mp-685542,-18.057736797393858,0.5138933911106935,-8.604250342815693,-0.5045126942092143
-8.906445312499997,-106.87734375,12.191918821802187,-0.4954095683333328,1.75e-06,1.320971014015545e-07,0.0,194,12,154.3910739568996,1133.56169,mp-1217775,Ta2Co3Si,https://materialsproject.org/materials/mp-1217775,59.80485473954483,63.759553752135716,-8.604250342815693,-0.5045126942092143
-7.827503265,-15.65500653,13.659324471848366,0.5806462738100011,1.8000000000000001e-06,8.367418466574141e-07,0.0,216,2,25.07023722359156,206.2237,mp-1008987,IrN,https://materialsproject.org/materials/mp-1008987,-0.2303752445744245,14.216324441375914,-8.604250342815693,-0.5045126942092143
-6.302195812142857,-176.46148274,10.421817456407966,-0.9426279964285718,0.000169075,3.5293202162758904e-06,0.0,57,28,558.2975985952592,3503.9680000000008,mp-1211064,Lu3(GeRh)2,https://materialsproject.org/materials/mp-1211064,13.297899613901276,65.24427723636467,-8.604250342815693,-0.5045126942092143
-4.4787158,-17.9148632,0.33968492045327153,2.16446948,0.051711400000000005,0.000362505018100097,0.0,71,4,1662.4542419805528,340.0767,mp-1093983,Y2FePd,https://materialsproject.org/materials/mp-1093983,-67.80649629879366,41.89468363890424,-8.604250342815693,-0.5045126942092143
-5.77436597875,-184.77971132,4.170103276394822,-1.839017015372499,22.000000600000003,0.8905507284188906,0.0,6,32,287.8998621942102,723.001465,mp-1100604,Li9Mn2Co5O16,https://materialsproject.org/materials/mp-1100604,-84.1799477064074,-43.82354957547585,1.3718900343717035,-1.4311737557443083
-8.253558856666666,-74.28202971,7.117220891809724,-0.7323577911111114,0.0,0.0,0.0,189,9,176.4125989517325,756.120395,mp-29135,Zr6CoAs2,https://materialsproject.org/materials/mp-29135,5.109907467773743,52.93078011928613,-8.604250342815693,-0.5045126942092143