energy_per_atom,energy,density,formation_energy_per_atom,total_magnetization_uB,total_magnetization_T,band_gap,sgr,num_sites,cell_volume,weight,mp_id,formula,URL,tsne_cry_lin1_0,tsne_cry_lin1_1,tsne_cry_lin2_0,tsne_cry_lin2_1
-6.952025469166667,-83.42430563,13.402748375618804,-0.947878164166666,1e-07,5.346668842310389e-09,0.0,62,12,217.96870380930056,1759.2960000000005,mp-10999,LuGeIr,https://materialsproject.org/materials/mp-10999,15.901760170372032,61.98885586872314,-8.604250342815693,-0.5045126942092143
-7.980842175,-175.57852785,5.66976061417489,-0.1717803927272725,3.9909035000000004,0.1486313284291167,0.0,72,22,312.92358334949716,1068.44932,mp-569796,Nb2Cr4Si5,https://materialsproject.org/materials/mp-569796,46.92722273742396,61.87590757050342,-8.604250342815693,-0.5045126942092143
-9.380640295,-37.52256118,13.138561228668554,0.19944678031250085,0.0211003,0.004809596845544848,0.0,139,4,51.12783270976725,404.535,mp-977155,NpFe3,https://materialsproject.org/materials/mp-977155,52.697268085071705,72.68852521220894,-8.604250342815693,-0.5045126942092143
-6.7606005375,-54.084804299999995,8.44454665184564,-0.2555566787500005,6.9999883,0.8607682451988596,0.0,166,8,94.77384593400437,481.96528,mp-1216459,VGa2FeCo4,https://materialsproject.org/materials/mp-1216459,44.77851850511263,47.257535246035225,-8.604250342815693,-0.5045126942092143
-8.361653224,-83.61653224,12.095398743628008,-0.25067636199999865,0.40203245,0.027482355887222733,0.0,127,10,170.48437303547146,1241.8114971999996,mp-21269,U2AlCo2,https://materialsproject.org/materials/mp-21269,26.145597331003213,65.19570536767202,-8.604250342815693,-0.5045126942092143
-6.286433490833333,-75.43720189,12.07351659561944,-0.25435711041666664,2e-07,9.456725470859134e-09,0.0,107,12,246.4714622090205,1792.0549999999996,mp-20466,Sn7Ir5,https://materialsproject.org/materials/mp-20466,42.625561255437844,41.474346517327845,-8.604250342815693,-0.5045126942092143
-6.6032970775,-79.23956493,10.602656244426663,-0.4255867316666671,0.0001248,8.347273115989322e-06,0.0,26,12,174.23981022370927,1112.5332,mp-1224900,GaAsRh4,https://materialsproject.org/materials/mp-1224900,33.95306856302571,52.593226848527365,-8.604250342815693,-0.5045126942092143
-6.02760326,-18.08280978,6.521179439362168,0.3112364527777771,0.0883287,0.017926278768038987,0.0,216,3,57.42342872137547,225.510195,mp-20453,TiCoSn,https://materialsproject.org/materials/mp-20453,30.986120492229425,53.08938552787393,-8.604250342815693,-0.5045126942092143
-5.5095402622727265,-121.20988577,9.040566612245874,-0.5446975122727273,1.485e-05,4.864895718538526e-07,0.0,229,22,355.73807104030095,1936.7649,mp-1192010,Tb3(GaNi3)2,https://materialsproject.org/materials/mp-1192010,25.202590886909718,79.59018405725023,-8.604250342815693,-0.5045126942092143
-8.3376336525,-33.35053461,8.726915580543215,-0.3584223324999991,1.0521707,0.22923832134359734,0.0,225,4,53.49046973350624,281.1176386,mp-862781,AlCrRu2,https://materialsproject.org/materials/mp-862781,43.33666631054353,53.49686700443514,-8.604250342815693,-0.5045126942092143
-7.385808363333332,-398.83365162,8.947384624149324,-0.9716983408333336,3.3333333333333334e-08,4.656789781462321e-10,0.0,176,54,834.1987591932981,4494.8640000000005,mp-21780,SmSi3Rh5,https://materialsproject.org/materials/mp-21780,34.00369452222394,53.05925116477722,-8.604250342815693,-0.5045126942092143
-7.939599436206898,-230.24838365,7.843611366660996,-0.10312360948275792,42.0766653,1.5177636527571516,0.0,225,29,323.08336145006837,1526.0949999999998,mp-1210236,Nd2(Fe7B2)3,https://materialsproject.org/materials/mp-1210236,41.623115886824436,88.22934060404572,-8.604250342815693,-0.5045126942092143
-7.664175211862068,-1111.30540572,9.654123076785822,-0.2834494346206893,86.7869728,0.6963976700208633,0.0,87,145,1452.3612670836121,8443.80896,mp-1217955,Ta11(Co52B15)2,https://materialsproject.org/materials/mp-1217955,39.45000448875629,89.39681759729339,-8.604250342815693,-0.5045126942092143
-6.678187900999999,-66.78187901,8.281698257683807,0.001469599000000699,6.14193485,0.4407742185848169,0.0,166,10,162.39267986352988,809.91,mp-27505,Fe3Sn2,https://materialsproject.org/materials/mp-27505,50.75690308210764,67.33028056615369,-8.604250342815693,-0.5045126942092143
-6.921272123333334,-41.52763274,7.554207365494773,-0.1579622079166659,7.7632613,0.9687546485947736,0.0,191,6,93.39160350635973,424.86175999999995,mp-1025065,LaMn2Ni3,https://materialsproject.org/materials/mp-1025065,28.95641281509128,79.81545911108022,-8.604250342815693,-0.5045126942092143
-7.230816352333332,-433.84898114,8.827541939905084,-0.04384682566666621,0.3155628,0.005354314351836085,0.0,1,60,686.8459842573852,3651.3214,mp-768498,Cr7Ni20Mo3,https://materialsproject.org/materials/mp-768498,37.6122690216417,81.20315566853502,-8.604250342815693,-0.5045126942092143
-7.02982524,-42.17895144,9.52464319287714,-0.37177643888888906,7.0040325,0.9237468102671323,0.0,216,6,88.36344279284546,506.8416,mp-1206797,GdInNi4,https://materialsproject.org/materials/mp-1206797,31.18164821886445,74.80010964649573,-8.604250342815693,-0.5045126942092143
-6.514129785384616,-84.68368721,5.036531703631218,-0.3925804503846159,10.1971856,0.6651336895388115,0.0,71,13,178.66883507676926,541.9151436000001,mp-1219472,Sc(AlFe)6,https://materialsproject.org/materials/mp-1219472,23.89769939294054,89.60168643371433,-8.604250342815693,-0.5045126942092143
-7.4719667725,-29.88786709,8.958221912504245,0.19896118249999967,3.0008575,0.6609542701404747,0.0,225,4,52.91166009229171,285.4461,mp-1008225,CrFe2Sb,https://materialsproject.org/materials/mp-1008225,50.324724149958094,66.89676033803775,-8.604250342815693,-0.5045126942092143
-6.167720111111112,-55.50948100000001,8.512403857969494,-0.07838631444444467,0.2811853,0.017611212997268522,0.0,38,9,186.07189066419681,953.8583808,mp-1080545,ThAlCo,https://materialsproject.org/materials/mp-1080545,6.14399349060862,56.956359401697576,-8.604250342815693,-0.5045126942092143
-7.391275630000001,-214.34699327,8.31857143170962,-0.2714106431034489,20.0657248,0.7889173126690101,0.0,225,29,296.41541993345487,1484.911095,mp-541854,Zr2(Co7B2)3,https://materialsproject.org/materials/mp-541854,39.457968660284,89.4226676430229,-8.604250342815693,-0.5045126942092143
-6.604368517999999,-33.02184259,6.987828403784382,-0.27379253599999914,0.0987852,0.014539627781095197,0.0,139,5,79.18009571518384,333.2032,mp-568551,Yb(CrSi)2,https://materialsproject.org/materials/mp-568551,24.85206765616593,69.015919683693,-8.604250342815693,-0.5045126942092143
-8.329601489545455,-183.25123277,7.833794400504554,-0.5494326818181812,0.02653215,0.0010339808279311337,0.0,72,22,299.04557831498187,1410.7838000000004,mp-1212482,Hf2Cr4Si5,https://materialsproject.org/materials/mp-1212482,47.70309969357808,62.10273846602156,-8.604250342815693,-0.5045126942092143
-6.507326750344827,-188.71247576,6.841524684596398,-0.6716843801724136,5.7000000000000005e-06,1.639707746343278e-07,0.0,225,29,405.12200635590165,1669.128,mp-1207874,Y6Si7Ni16,https://materialsproject.org/materials/mp-1207874,26.231806248246787,76.8992718059386,-8.604250342815693,-0.5045126942092143
-4.490198282692308,-350.23546605,9.620034597961258,-0.2899701161965811,0.0159256,0.00011904390006611867,0.0,129,78,1559.0716856453198,9032.20171,mp-637436,Tm10In20Co9,https://materialsproject.org/materials/mp-637436,5.145175053139491,54.602451856150935,-8.604250342815693,-0.5045126942092143
-9.0735563025,-36.29422521,10.081839011326547,0.20269576749999985,0.10501179999999999,0.021175491458406373,0.0,225,4,57.79390393308896,350.89138,mp-1186223,NbFeRu2,https://materialsproject.org/materials/mp-1186223,57.14827295374423,58.57475150552905,-8.604250342815693,-0.5045126942092143
-9.084302310192307,-472.38372013,6.870598158442951,-0.7801419179395594,0.163524875,0.002194888307847341,0.0,26,52,868.2580696071004,3592.4794,mp-1220618,Nb8P5,https://materialsproject.org/materials/mp-1220618,46.28336269472634,61.72359510611436,-8.604250342815693,-0.5045126942092143
-6.706788552857143,-46.94751987,7.7455235800750275,-0.09954583410714284,1.2329335,0.13465782138786772,0.0,12,7,106.7051785122175,497.7224,mp-1077982,Tb2Fe2Si2C,https://materialsproject.org/materials/mp-1077982,18.33312734557132,73.89926155294124,-8.604250342815693,-0.5045126942092143
-8.415870990909092,-185.1491618,6.421768604492892,-0.5201846068181818,8.905e-05,3.2574242531986006e-06,0.0,72,22,318.5935841723371,1232.09044,mp-3276,Nb4Cr2Si5,https://materialsproject.org/materials/mp-3276,47.76085074893563,58.19510242053604,-8.604250342815693,-0.5045126942092143
-7.2305163858823525,-122.91877856,13.705798529841232,-0.8719568211764707,8.5e-06,3.3494194966668183e-07,0.0,229,17,295.75140010182866,2441.08028,mp-1189529,Ho4Ge6Ir7,https://materialsproject.org/materials/mp-1189529,41.64411486253046,54.7462336633362,-8.604250342815693,-0.5045126942092143
-7.292600119999999,-21.87780036,8.90804957939666,0.07333444333333361,5.833291099999999,1.6720491309518892,0.0,164,3,40.6576284501248,218.11,mp-1224694,Fe2Pd,https://materialsproject.org/materials/mp-1224694,50.744055470106495,76.78770711201497,-8.604250342815693,-0.5045126942092143
-5.783290739375,-92.53265183,10.565105383233274,-0.9070660081250006,1.0575e-05,4.2573848207019367e-07,0.0,62,16,289.4775552600839,1841.7879999999998,mp-1189057,LuGePd2,https://materialsproject.org/materials/mp-1189057,27.97858021494205,53.89981735858021,-8.604250342815693,-0.5045126942092143
-7.371707224761903,-154.80585172,9.109813601395226,-0.916373576190477,3.2500000000000004e-05,1.194071757712783e-06,0.0,147,21,317.19794280512133,1740.166334,mp-1220487,Nd2P7Rh12,https://materialsproject.org/materials/mp-1220487,33.43543732866439,51.68935371654146,-8.604250342815693,-0.5045126942092143
-7.503087730999999,-150.06175462,5.391727735059309,-0.6825211059999999,0.9976663,0.04434814558835437,0.0,57,20,262.1725785227226,851.267648,mp-505554,Sc(FeSi)2,https://materialsproject.org/materials/mp-505554,19.082194488540694,73.59383980009969,-8.604250342815693,-0.5045126942092143
-9.341700825,-112.10040990000002,7.735945134559934,-0.2854167058333334,0.00034219999999999997,2.0391535862633294e-05,0.01890000000000036,124,12,195.5723684589066,911.1120400000001,mp-22312,Nb4FeSi,https://materialsproject.org/materials/mp-22312,47.34810079401676,58.39688139873044,-8.604250342815693,-0.5045126942092143
-7.52887208,-30.11548832,7.369237042721495,-0.32773330374999965,5.0298245,1.2949276887395011,0.0,123,4,45.267315717580395,200.889935,mp-1221634,MnCo2Si,https://materialsproject.org/materials/mp-1221634,47.35438203685714,49.01402997780567,-8.604250342815693,-0.5045126942092143
-8.750050879166666,-105.00061055,8.122319469450666,-0.12976907625000084,9.8340269,0.7439080951016589,0.0,156,12,154.05987274816903,753.5646399999998,mp-1220756,Nb3Fe8Si,https://materialsproject.org/materials/mp-1220756,54.837893940503136,62.3801974712837,-8.604250342815693,-0.5045126942092143
-5.512957970909091,-121.28507536,9.204501392293631,-0.5541208909090911,3.16e-05,1.0424513650478428e-06,0.0,229,22,353.2715857645645,1958.2128,mp-1191661,Dy3(GaNi3)2,https://materialsproject.org/materials/mp-1191661,25.111062828619925,79.62403685678255,-8.604250342815693,-0.5045126942092143
-5.967701303333333,-35.80620782,9.10411655515888,-0.043355921666666575,1e-07,1.350726318607063e-08,0.0,129,6,86.27998590105175,473.04100000000005,mp-19768,NiAsRh,https://materialsproject.org/materials/mp-19768,34.828114635708985,50.75980450855429,-8.604250342815693,-0.5045126942092143
-5.662200807272727,-124.56841776,8.53691373823007,-0.5803889350000001,1.7e-06,5.652812875243535e-08,0.0,229,22,350.47878906654836,1801.8288744000004,mp-30791,Ho3(AlNi3)2,https://materialsproject.org/materials/mp-30791,25.07755380656993,79.58439420261509,-8.604250342815693,-0.5045126942092143
-6.0851360539999995,-243.40544216,7.321883912349898,-0.5287606385000003,1.191337525,0.023400225156658717,0.0,128,40,593.3244056149679,2616.17,mp-1198337,Yb2Fe3Si5,https://materialsproject.org/materials/mp-1198337,18.188010052124763,71.73533803816139,-8.604250342815693,-0.5045126942092143
-9.0709638175,-36.28385527,8.810677528791867,-0.3439455712499999,1.8903808000000002,0.3501549560139364,0.0,225,4,62.91677415848537,333.83099999999996,mp-865899,Ti3Os,https://materialsproject.org/materials/mp-865899,62.769701008976895,55.89565630041968,-8.604250342815693,-0.5045126942092143
-7.232138225,-28.9285529,5.100892956291906,-0.2315910358333344,0.9999991,0.20048813169184584,0.0,216,4,58.12839984869481,178.5605386,mp-999069,Ti2AlFe,https://materialsproject.org/materials/mp-999069,35.90099590989489,58.983026937738074,-8.604250342815693,-0.5045126942092143
-5.886858840833334,-70.64230609,7.961419257291612,-0.32482140083333394,1.526375275,0.08469000176061298,0.0,38,12,210.0422240203158,1007.0429944,mp-1216664,TmAlFe,https://materialsproject.org/materials/mp-1216664,23.53559238938898,79.45761618013972,-8.604250342815693,-0.5045126942092143
-6.620179005,-26.48071602,6.9756988971449605,-0.6521240500000003,0.0,0.0,0.0,225,4,50.933871067282574,213.96627220000002,mp-862695,Al2CoRu,https://materialsproject.org/materials/mp-862695,43.61507343172028,47.88814998411842,-8.604250342815693,-0.5045126942092143
-7.361715424482759,-213.48974731,8.309917172390055,-0.16673444448275926,17.6777205,0.733036099573851,0.0,225,29,281.046594919369,1406.4552949999998,mp-542727,Cr2(Co7B2)3,https://materialsproject.org/materials/mp-542727,39.40177406343252,89.43208112931464,-8.604250342815693,-0.5045126942092143
-6.3296344033333325,-18.98890321,8.940083733528509,0.2509928416666665,3.05e-05,5.377121238786136e-06,0.0,216,3,66.10395410078421,355.8934,mp-636297,HfNiSn,https://materialsproject.org/materials/mp-636297,30.938795076836534,52.70620918927975,-8.604250342815693,-0.5045126942092143
-8.1327308655,-162.65461731,8.97789633067117,-0.5062399091666663,2.068852,0.0950267728128132,0.0,10,20,253.72360335053543,1371.786,mp-1217491,Ti2FeB2RuRh4,https://materialsproject.org/materials/mp-1217491,40.095002317108715,56.54346949020817,-8.604250342815693,-0.5045126942092143
-7.82026271,-31.28105084,11.953774017657981,-0.9005696349999992,3.9899999999999994e-05,7.3727152958304445e-06,0.0,225,4,63.07000416632194,454.024,mp-865019,HfGaRh2,https://materialsproject.org/materials/mp-865019,33.79112697332163,57.21310747626147,-8.604250342815693,-0.5045126942092143
-4.848848349444443,-87.27927029,6.15477366460547,-0.16368787472222282,3.1465451,0.14585608545967366,0.0,166,18,251.41248162263938,931.8582,mp-1227816,Ca3Mg2Ni13,https://materialsproject.org/materials/mp-1227816,31.72414194709703,73.44138602883204,-8.604250342815693,-0.5045126942092143
-7.05522637125,-56.44181097,10.650827176236083,-0.35840733312500017,2e-07,1.6475063665142687e-08,0.0,194,8,141.4752016675592,907.433,mp-1186636,PmRh3,https://materialsproject.org/materials/mp-1186636,33.20863121236736,57.30930035562224,-8.604250342815693,-0.5045126942092143
-8.2042945525,-32.81717821,7.394992394527758,-0.3282375112500002,3.0000001,0.7996338571059418,0.0,225,4,43.72275532407013,194.71354499999998,mp-5529,MnFe2Si,https://materialsproject.org/materials/mp-5529,49.962565807763866,65.82685827065538,-8.604250342815693,-0.5045126942092143
-8.728287465,-69.82629972,11.268908264936085,-0.009074074999999128,4.84743795,0.4809355470111227,0.0,194,8,117.46346511782684,797.14176,mp-1186420,PaFe3,https://materialsproject.org/materials/mp-1186420,55.05474588606623,61.90780911162579,-8.604250342815693,-0.5045126942092143
-8.876017332,-88.76017332,6.929227687201735,-0.6380069640000002,0.00026975,1.958584285833301e-05,0.0,127,10,160.50797482327715,669.78028,mp-1078996,Nb3Si2,https://materialsproject.org/materials/mp-1078996,47.53595156773282,58.314333523446614,-8.604250342815693,-0.5045126942092143
-5.995973992000001,-29.97986996,5.91588680552078,-0.01317456199999967,0.08364160000000001,0.015272438791226722,0.0,107,5,63.825079766597845,227.38516719999998,mp-1221904,Mn2Al2Cu,https://materialsproject.org/materials/mp-1221904,13.528183651161617,89.44410202191881,-8.604250342815693,-0.5045126942092143
-5.724801618333332,-34.34880971,7.613186235952067,-0.450666525833333,2.2e-06,2.9192814977101603e-07,0.0,65,6,87.82620833154365,402.66278860000006,mp-1219687,PrAlNi4,https://materialsproject.org/materials/mp-1219687,25.508053493744217,79.58016215715148,-8.604250342815693,-0.5045126942092143
-4.77592853125,-114.62228475,8.084551551877366,-0.3369457018750002,0.00146085,4.294235628187211e-05,0.0,194,24,396.45799618547653,1930.20762,mp-1212250,LaZnNi2,https://materialsproject.org/materials/mp-1212250,28.53370586636489,78.30502227260544,-8.604250342815693,-0.5045126942092143
-3.7363694975,-44.83643397,3.226671316928549,0.15313076583333304,2.22660885,0.12068068640995065,0.0,63,12,215.02234146155,417.82,mp-1094145,Mg2Fe,https://materialsproject.org/materials/mp-1094145,33.695054804189745,69.64136283344253,-8.604250342815693,-0.5045126942092143
-6.568976488275862,-190.50031816,6.259723147633326,-0.7612335170689664,1e-07,3.12589759463166e-09,0.0,225,29,372.8229866702639,1405.428372,mp-5382,Sc6Si7Ni16,https://materialsproject.org/materials/mp-5382,36.829162922460156,71.7869809546861,-8.604250342815693,-0.5045126942092143
-5.521014642142856,-154.58840998,5.22941129970438,-0.7446729649999995,0.0,0.0,0.0,194,28,432.7651117564672,1362.874772,mp-1791,Al5Rh2,https://materialsproject.org/materials/mp-1791,10.169652007878598,83.37407895956727,-8.604250342815693,-0.5045126942092143
-5.2044279327777785,-93.67970279,7.968264963616179,-0.5077965669444447,7.433333333333333e-06,3.035824157773466e-07,0.0,189,18,285.354301305214,1369.30155,mp-1220050,PrGa2Ni3,https://materialsproject.org/materials/mp-1220050,24.264303128226643,80.11814050331445,-8.604250342815693,-0.5045126942092143
-7.509379366206898,-217.77200162,9.355809649771855,-0.29250018275862016,20.1014866,0.7953815755650946,0.0,225,29,294.53036637755065,1659.443095,mp-1194066,Hf2(Co7B2)3,https://materialsproject.org/materials/mp-1194066,39.447219346025356,89.42214269050902,-8.604250342815693,-0.5045126942092143
-6.187527008888888,-55.68774308,10.414139771730444,-0.9093557972222226,6.666666666666667e-08,4.158750880178806e-09,0.0,189,9,186.81995481070385,1171.64913,mp-11974,TmSnRh,https://materialsproject.org/materials/mp-11974,8.646122961229443,55.70752911808789,-8.604250342815693,-0.5045126942092143
-4.663525105555554,-41.97172595,9.367438404558644,-0.36775212370370425,0.5795670999999999,0.03515177465287773,0.0,174,9,192.14712742509099,1083.94102,mp-1206804,Tm3(In2Co)2,https://materialsproject.org/materials/mp-1206804,6.109246380782612,56.75387623085918,-8.604250342815693,-0.5045126942092143
-7.049817855,-28.19927142,10.172027329986811,-0.2590418162499999,3.4890006000000002,0.6548400154281679,0.0,225,4,62.093088427580824,380.366,mp-1184221,FeSnRh2,https://materialsproject.org/materials/mp-1184221,34.75240771780641,55.72505037425666,-8.604250342815693,-0.5045126942092143
-7.6397439875,-30.55897595,8.201312434224945,-0.7133793412500005,8.7e-06,1.946919959640808e-06,0.0,225,4,52.07731474486249,257.2070386,mp-862778,AlSiRu2,https://materialsproject.org/materials/mp-862778,42.67566022102393,53.409799641085684,-8.604250342815693,-0.5045126942092143
-7.416182989615384,-385.64151546,13.846114453708115,-0.6584959955769224,0.00692105,8.957803833069853e-05,0.0,59,52,900.4256679115342,7508.042000000001,mp-1197262,Sm4Ge9Ir13,https://materialsproject.org/materials/mp-1197262,15.41743576421602,61.6274319095175,-8.604250342815693,-0.5045126942092143
-8.390651994166666,-100.68782393,10.091858016870825,-0.9952281913888884,0.001869875,0.0001234646615989471,0.0,62,12,176.50106584648748,1072.678,mp-1103248,TiSiIr,https://materialsproject.org/materials/mp-1103248,42.98025514418157,54.524912206249724,-8.604250342815693,-0.5045126942092143
-6.9178296425,-83.01395571,8.335782272950336,-0.5476845608333333,2.1551632,0.12217745686572827,0.0,62,12,205.57320615896998,1031.96218,mp-19967,LuMnSi,https://materialsproject.org/materials/mp-19967,24.45041317251549,69.12934916392334,-8.604250342815693,-0.5045126942092143