energy_per_atom,energy,density,formation_energy_per_atom,total_magnetization_uB,total_magnetization_T,band_gap,sgr,num_sites,cell_volume,weight,mp_id,formula,URL,tsne_cry_lin1_0,tsne_cry_lin1_1,tsne_cry_lin2_0,tsne_cry_lin2_1
-6.2220810029999996,-248.88324012,8.494266686682112,-0.2854732855000002,4.10513899,0.1011069185465201,0.0,12,40,473.1778633705269,2420.47845,mp-604537,MnGaNi2,https://materialsproject.org/materials/mp-604537,34.275187359529966,77.64396232990019,-8.604250342815693,-0.5045126942092143
-4.24007895,-46.64086845,7.817673998205068,-0.43450589181818217,0.00227,0.00013200628668732814,0.0,123,11,200.40505416512107,943.48964,mp-1102211,Ho2Ga8Fe,https://materialsproject.org/materials/mp-1102211,16.576813391749553,82.88355093986529,-8.604250342815693,-0.5045126942092143
-6.735026069166668,-80.82031283,4.873667368024472,-0.8896558358333332,0.0,0.0,0.0,62,12,179.5369127472731,526.9392479999998,mp-22426,ScSiNi,https://materialsproject.org/materials/mp-22426,14.988968832030167,74.40871167792443,-8.604250342815693,-0.5045126942092143
-5.04996318,-60.59955816,7.252646962508214,-0.7438455383333332,2.025e-06,9.883046253592012e-08,0.0,62,12,238.78752116389322,1042.9394,mp-1095522,YZnPd,https://materialsproject.org/materials/mp-1095522,17.814198570603136,59.71779355095885,-8.604250342815693,-0.5045126942092143
-6.7139751016666676,-40.28385061,5.702483955854095,-0.4234483833333336,0.0001618,2.204841670899536e-05,0.0,166,6,85.5221354479778,293.6929476,mp-1219430,Sc2AlCo3,https://materialsproject.org/materials/mp-1219430,60.2786164664367,63.72174167127595,-8.604250342815693,-0.5045126942092143
-6.23959405375,-149.75025729,9.203617196777573,-0.5069414312499999,1.2251612333333333,0.03515469715364924,0.0,65,24,406.1507999255697,2251.11027,mp-28516,LuMnGe2,https://materialsproject.org/materials/mp-28516,24.425042736516897,68.10184231624096,-8.604250342815693,-0.5045126942092143
-7.030615596666667,-126.55108074,6.333171329658406,-0.7938287055555564,1.5e-07,7.079614847337464e-09,0.0,64,18,246.92158451831483,941.7404,mp-1189144,Zr2Si4Ni3,https://materialsproject.org/materials/mp-1189144,48.214664839164755,61.09167195125005,-8.604250342815693,-0.5045126942092143
-1.4135381658333337,-16.96245799,4.939392412443911,-0.030208629166666633,7.5e-08,4.190124663558803e-09,0.0,38,12,208.5987716650929,620.4920000000002,mp-1094191,MgZn2,https://materialsproject.org/materials/mp-1094191,2.608231837317576,98.25717798634173,-8.604250342815693,-0.5045126942092143
-6.1904991308333335,-74.28598957,12.977181423986812,-1.1220178224999997,2.25e-07,1.1572589474657706e-08,0.0,62,12,226.5840829805716,1770.764,mp-13580,LuGePt,https://materialsproject.org/materials/mp-13580,16.21075931704978,62.130498441169365,-8.604250342815693,-0.5045126942092143
-7.23841596875,-347.4439665,4.495436670421379,-0.6528108074999986,0.7672720666666667,0.012925964695465864,0.0,55,48,691.7733858770067,1872.779484,mp-1205070,ScMnSi2,https://materialsproject.org/materials/mp-1205070,24.754551322221943,68.35295660330335,-8.604250342815693,-0.5045126942092143
-8.868534545000003,-106.42241454,9.569297577763672,-0.6889364666666656,1.536059375,0.0986193693961232,0.0,62,12,181.51946783236352,1046.05418,mp-20192,HfMnSi,https://materialsproject.org/materials/mp-20192,48.399817733809215,61.34019252814265,-8.604250342815693,-0.5045126942092143
-6.6102298600000005,-79.32275832,7.9625234036316215,-0.7108913572222223,0.0,0.0,0.0,62,12,189.2973489073657,907.708,mp-20268,TiGePd,https://materialsproject.org/materials/mp-20268,42.88772124441244,56.49331027590031,-8.604250342815693,-0.5045126942092143
-10.627941670833334,-127.53530005,14.162673129366688,-0.4126993745238097,5e-08,3.065501051461791e-09,0.0,124,12,190.0841750976145,1621.220564,mp-22444,Ta4FeP,https://materialsproject.org/materials/mp-22444,41.703377854358244,65.69207626819916,-8.604250342815693,-0.5045126942092143
-5.990011744482758,-173.71034059,10.06410225635922,-0.8331401306896546,1.4999999999999999e-05,3.778858884159316e-07,0.0,225,29,462.6025394099511,2803.71563,mp-1208056,Tm3(Si3Pd10)2,https://materialsproject.org/materials/mp-1208056,28.29625216510712,54.49036407383958,-8.604250342815693,-0.5045126942092143
-8.7988145975,-70.39051678,9.191846208915301,-0.4448349285714297,9.325e-05,1.0100645298150908e-05,0.0,26,8,107.59129817578464,595.5672480000002,mp-1226189,CrP2W,https://materialsproject.org/materials/mp-1226189,36.517317552528475,47.83678646269181,-8.604250342815693,-0.5045126942092143
-6.828953615,-81.94744338,8.462604114980422,0.0955457425400006,8.565e-05,5.564604265194911e-06,0.0,12,12,179.3785506029645,914.1668,mp-1247118,MgOsN,https://materialsproject.org/materials/mp-1247118,34.19966942439785,51.128482573759854,-8.604250342815693,-0.5045126942092143
-6.272883535,-100.36613656,8.333951355520242,-0.91127997125,3e-07,1.171712695440179e-08,0.0,62,16,298.3853845207743,1497.5434,mp-1207627,YGePd2,https://materialsproject.org/materials/mp-1207627,27.66676716989866,53.435124532014,-8.604250342815693,-0.5045126942092143
-2.0419340275,-73.50962499,8.027817130058489,-0.23488196166666675,0.00014031666666666667,2.6565643737197395e-06,0.0,194,36,615.5542618051824,2975.8752600000007,mp-1199856,TmZn5,https://materialsproject.org/materials/mp-1199856,0.9470461646484748,93.28283842091408,-8.604250342815693,-0.5045126942092143
-6.34895313,-50.79162504,8.59502600270533,-0.10798138874999984,7.576539299999999,0.7891726769130106,0.0,166,8,111.88613384264059,579.127745,mp-1221685,MnCr(Ni2Sn)2,https://materialsproject.org/materials/mp-1221685,34.064890164767554,72.39373548288575,-8.604250342815693,-0.5045126942092143
-4.840298735999999,-24.20149368,11.709544229005985,-0.5991659859999998,1e-07,1.3711887415841335e-08,0.0,164,5,84.9924187613717,599.337,mp-21400,Ga3Pt2,https://materialsproject.org/materials/mp-21400,42.29593296678895,51.570940055947105,-8.604250342815693,-0.5045126942092143
-5.274939554666667,-158.24818664,6.488596046316163,-0.4341460955000002,0.0007811,1.999111744801975e-05,0.0,38,30,455.3517339646307,1779.2977999999996,mp-1193893,Ca5Ni17Ge8,https://materialsproject.org/materials/mp-1193893,22.2673603901284,71.55832349400144,-8.604250342815693,-0.5045126942092143
-4.329367285,-25.97620371,6.252525865345482,-0.3260152416666671,1.83e-05,1.6596878791986937e-06,0.0,63,6,128.49969443701062,483.8475,mp-1077298,TbMgNi,https://materialsproject.org/materials/mp-1077298,3.553972849130225,58.29807245395425,-8.604250342815693,-0.5045126942092143
-3.439172657692308,-223.54622275,9.93247393232599,-0.2360017504615384,0.0007359,6.54075171407068e-06,0.0,174,65,1311.1988714809672,7842.904199999999,mp-1225453,Er14Ag51,https://materialsproject.org/materials/mp-1225453,-4.3408598579391136,50.89463295883245,-8.604250342815693,-0.5045126942092143
-6.7478819525,-26.99152781,8.4939330590507,-0.005013627500000339,2.0766009999999997,0.5427627958013479,0.0,221,4,44.58824876718296,228.0763,mp-1007974,CrNi3,https://materialsproject.org/materials/mp-1007974,37.28859598048506,80.69629567316396,-8.604250342815693,-0.5045126942092143
-6.0529392125,-24.21175685,7.841701581597749,0.18167494499999925,1.9108906000000003,0.301239683840487,0.0,194,4,73.92665714477286,349.11,mp-20512,FeSn,https://materialsproject.org/materials/mp-20512,47.923041133354175,66.28822704425167,-8.604250342815693,-0.5045126942092143
-2.9264127066666665,-26.33771436,2.6926439748873103,-0.22676611388888865,0.0,0.0,0.3492000000000002,71,9,196.84614605037132,319.1955,mp-1222090,Mg6SiGe2,https://materialsproject.org/materials/mp-1222090,-13.795838504670575,97.17181698031904,-8.604250342815693,-0.5045126942092143
-8.808960119375,-140.94336191,7.851600089450645,-0.5794156324999999,1.53e-05,7.894564586733069e-07,0.003199999999999648,189,16,225.8607033500127,1067.94714,mp-1218038,Ta3V7Si6,https://materialsproject.org/materials/mp-1218038,53.581459356691475,52.680067036301615,-8.604250342815693,-0.5045126942092143
-6.84193000125,-54.73544001,7.668653149648606,-0.3986018899999992,0.00010315,8.80386134507241e-06,0.0,194,8,136.54426554120667,630.58476,mp-1186408,PaSi3,https://materialsproject.org/materials/mp-1186408,48.1860547561441,58.203666664907864,-8.604250342815693,-0.5045126942092143
-7.03235272,-21.09705816,12.75687408284933,-0.051367823333333014,2.4e-06,4.820451761004707e-07,0.0,216,3,58.023099993253844,445.75487999999996,mp-961677,TaGaPt,https://materialsproject.org/materials/mp-961677,30.21498063703788,53.17512216363553,-8.604250342815693,-0.5045126942092143
-6.575530815,-236.71910934,10.952986769640589,-0.4346860261111105,8.525e-06,1.8725008696964976e-07,0.0,194,36,530.5786704503618,3499.7196799999997,mp-867004,Th2Ni7,https://materialsproject.org/materials/mp-867004,28.728370791685187,83.46475600663078,-8.604250342815693,-0.5045126942092143
-3.9678548775,-15.87141951,8.260677065128263,-0.6594934562500003,1e-07,1.9162010889101986e-08,0.0,225,4,60.818589656410815,302.55400000000003,mp-864923,MgZnPd2,https://materialsproject.org/materials/mp-864923,37.787157021883424,55.34396418366994,-8.604250342815693,-0.5045126942092143
-6.891010349523809,-144.71121734,10.230614337082189,-0.7048658230952375,9.6e-06,3.307024947008505e-07,0.0,143,21,338.30716008894177,2084.3172,mp-1225463,Dy2As7Rh12,https://materialsproject.org/materials/mp-1225463,33.15469536407214,51.152732817937796,-8.604250342815693,-0.5045126942092143
-6.522132914375,-104.35412663,8.251917438054804,-0.6933644087499999,0.006026,0.0002483030340022853,0.0,63,16,282.82938467356115,1405.4982599999996,mp-1207959,Tm3Fe2Si3,https://materialsproject.org/materials/mp-1207959,16.69460956456609,74.49933030366819,-8.604250342815693,-0.5045126942092143
-6.75871794,-33.793589700000005,7.7192862449878605,-0.8289809810000002,1.2e-06,1.9179107763220275e-07,0.0,139,5,72.9172488090942,338.96771,mp-5835,Ho(CoSi)2,https://materialsproject.org/materials/mp-5835,19.492582457778184,69.37821684827382,-8.604250342815693,-0.5045126942092143
-5.141430725,-41.1314458,8.003255508111268,-0.4376370956250009,2e-07,2.3798915213584595e-08,0.0,146,8,97.93778134818065,472.0281,mp-1224819,Ga3SiNi4,https://materialsproject.org/materials/mp-1224819,34.67672093331479,77.19994478333992,-8.604250342815693,-0.5045126942092143
-5.049335086666667,-45.44401578,7.22291489166105,-0.7432174450000006,1.1733333333333333e-05,7.603996450711473e-07,0.0,189,9,179.82784125564143,782.20455,mp-1078813,YZnPd,https://materialsproject.org/materials/mp-1078813,17.840485655155465,59.715978583104885,-8.604250342815693,-0.5045126942092143
-7.37569291,-14.75138582,10.51406233527588,0.14644488999999972,5e-07,2.3093597622577728e-07,0.0,187,2,25.23224177329122,159.7634,mp-1219922,NiRu,https://materialsproject.org/materials/mp-1219922,50.045329024953794,77.44374324059255,-8.604250342815693,-0.5045126942092143
-8.641795935833334,-103.70155123,11.118916248134674,-0.24341860583333386,0.0,0.0,0.0,194,12,218.0023625371653,1459.73684,mp-1102890,TmTc2,https://materialsproject.org/materials/mp-1102890,66.35979216875575,60.189366403561905,-8.604250342815693,-0.5045126942092143
-9.0154116825,-108.18494019,10.405236024065289,-0.16884328145833294,4.3028472,0.2403581712969069,0.0,38,12,208.62889622039836,1307.3061544000002,mp-1219827,PuAlFe,https://materialsproject.org/materials/mp-1219827,25.040802271682722,64.95067459448069,-8.604250342815693,-0.5045126942092143
-5.808714395,-11.61742879,7.909129689243537,-0.06346463499999988,2.0160326,0.8912008815986423,0.0,187,2,26.36327565323597,125.568,mp-1224926,GaFe,https://materialsproject.org/materials/mp-1224926,46.6298143478475,71.4407744042143,-8.604250342815693,-0.5045126942092143
-7.326886976500001,-146.53773953,12.503001375906743,-0.06656288350000067,5e-08,1.8330552685187436e-09,0.8456000000000001,116,20,317.88634452841995,2393.52,mp-510032,Ge3Os2,https://materialsproject.org/materials/mp-510032,35.58837807491951,50.75915369155091,-8.604250342815693,-0.5045126942092143
-4.72974312625,-37.83794501,8.970673582563398,-0.6503001137500002,6.6e-06,5.659970507480891e-07,0.0,63,8,135.89616305814943,734.1472200000002,mp-1025504,TmGa2Ni,https://materialsproject.org/materials/mp-1025504,22.92233201467981,79.81850175581725,-8.604250342815693,-0.5045126942092143
-8.80622508625,-211.34940207,12.806756433886992,-0.4440258962499992,1.02875e-05,2.4942002519148085e-07,0.0,227,24,480.6798943094759,3707.2,mp-1190654,Hf2Pd,https://materialsproject.org/materials/mp-1190654,31.30192800020367,60.769507775102404,-8.604250342815693,-0.5045126942092143
-7.9511356,-47.7068136,10.52677377523946,-0.20167315083333293,2e-07,2.0958707928983714e-08,0.0,227,6,111.20976361756856,705.0,mp-1720,SmRu2,https://materialsproject.org/materials/mp-1720,29.60865107170103,64.16253346663089,-8.604250342815693,-0.5045126942092143
-5.01235148,-40.09881184,9.402713498331453,-0.365009755,8.115e-05,6.0825433963758676e-06,0.0,194,8,155.48222094999062,880.40976,mp-1186416,PaGa3,https://materialsproject.org/materials/mp-1186416,39.8792843214249,45.81368901185109,-8.604250342815693,-0.5045126942092143
-5.921223145,-23.68489258,12.79472814184444,-0.0733235600000004,2.1900313,0.5298386567333685,0.0,139,4,48.170827665707606,371.1642,mp-1100766,Ni3Pt,https://materialsproject.org/materials/mp-1100766,36.858874363120925,81.18021141174405,-8.604250342815693,-0.5045126942092143
-6.494704321111112,-116.90467778,4.921537244189079,-0.4305968066666668,0.0,0.0,0.0,63,18,225.2769627870834,667.6801544,mp-29111,Al2Fe3Si4,https://materialsproject.org/materials/mp-29111,24.22911010913439,88.45785939269014,-8.604250342815693,-0.5045126942092143
-7.6366149425,-30.54645977,7.4657079387080145,-0.4354761662499991,5.0,1.3041007938671314,0.0,225,4,44.68237741808733,200.889935,mp-4492,MnCo2Si,https://materialsproject.org/materials/mp-4492,47.27764931412872,49.01554341587795,-8.604250342815693,-0.5045126942092143
-7.214967949,-144.29935898,13.605683214856992,-0.5839504768333328,0.0,0.0,0.0,127,20,258.59476257724856,2118.8050000000007,mp-22250,Mg2SiB2Ir5,https://materialsproject.org/materials/mp-22250,40.01697920555336,54.47163532536083,-8.604250342815693,-0.5045126942092143
-7.7403900131,-774.03900131,4.531640879702412,0.15673734023333286,0.011067231,7.353372866389478e-05,0.0,1,100,1754.0009091121908,4786.7,mp-1245320,Ti,https://materialsproject.org/materials/mp-1245320,59.718641404313466,55.249426313047024,-8.604250342815693,-0.5045126942092143
-9.6883748625,-116.26049835,11.305547980820405,-0.26413275249999896,1.148569975,0.07900839390715593,0.0,194,12,169.41882023569298,1153.46436,mp-11449,HfMn2,https://materialsproject.org/materials/mp-11449,48.602751189427565,61.45639018180662,-8.604250342815693,-0.5045126942092143
-5.6486650325,-22.59466013,7.448141728434153,-0.3779468775000003,1.4e-06,3.603928818131344e-07,0.0,225,4,45.27195598175921,203.0617386,mp-672232,AlNi3,https://materialsproject.org/materials/mp-672232,34.6681750983529,77.9294856440345,-8.604250342815693,-0.5045126942092143
-4.955038536428573,-69.37053951,9.214795974893423,-0.6790550064285712,2.55e-05,1.185227649100911e-06,0.0,71,14,250.73550378756832,1391.4015,mp-1104465,Lu3Ga8Rh3,https://materialsproject.org/materials/mp-1104465,11.68410145562285,80.04314542161902,-8.604250342815693,-0.5045126942092143
-7.58438385,-30.3375354,8.15391597531127,0.04272025750000008,1.5922266,0.3884971419486729,0.0,187,4,47.763316445308746,234.53713500000003,mp-1221828,Mn3Ga,https://materialsproject.org/materials/mp-1221828,57.080879506015656,67.18992406959671,-8.604250342815693,-0.5045126942092143
-4.838891917586206,-280.65573122,5.185529765442913,-0.4649554237931039,2.3e-06,2.9423964064104957e-08,0.013799999999999812,88,58,910.9700147298167,2844.7763124000007,mp-18663,Al17(SiPd2)4,https://materialsproject.org/materials/mp-18663,7.698738241606362,83.61061933584635,-8.604250342815693,-0.5045126942092143
-6.314370009999998,-176.80236028,16.126604712783234,-0.7903660632142849,2.1600000000000003e-05,5.288016357391587e-07,0.0,15,28,476.03445616317816,4623.088839999999,mp-1208107,Tm2(GePt3)3,https://materialsproject.org/materials/mp-1208107,61.97326947444275,44.80604782841995,-8.604250342815693,-0.5045126942092143
-9.9098990325,-39.63959613,12.739206257002461,-0.5054721033333339,1.3e-06,2.46356716247165e-07,0.0,225,4,61.49734594257057,471.79100000000005,mp-972337,Ti2IrW,https://materialsproject.org/materials/mp-972337,62.83416889585124,56.40238536947674,-8.604250342815693,-0.5045126942092143
-5.630409688333334,-67.56491626,10.465225531770658,-0.755521329444445,1.25e-07,5.844892875605525e-09,0.0,62,12,249.23606429981712,1570.7620000000004,mp-11101,LuInRh,https://materialsproject.org/materials/mp-11101,7.093359654421258,54.92323724073342,-8.604250342815693,-0.5045126942092143
-6.644820650833334,-79.73784781,10.944322189827409,-0.3710799641666671,0.0,0.0,0.0,62,12,198.8042473301557,1310.2839999999999,mp-21359,SbRh2,https://materialsproject.org/materials/mp-21359,34.018439264234395,55.3009830745899,-8.604250342815693,-0.5045126942092143
-6.738965761999999,-33.69482881,7.914242939751091,-0.8292055059999995,1e-07,1.6194947893383232e-08,0.0,139,5,71.96111311553643,342.9716,mp-3262,Tm(CoSi)2,https://materialsproject.org/materials/mp-3262,19.45205452815896,69.28266078876186,-8.604250342815693,-0.5045126942092143
-6.8571273449999985,-123.42829221,11.021652956631993,-0.9787875083333324,2.9333333333333333e-06,1.0621782936644116e-07,0.0,190,18,321.8410399655155,2136.186,mp-601253,ZrGaPt,https://materialsproject.org/materials/mp-601253,33.304681798846005,58.04842481762615,-8.604250342815693,-0.5045126942092143
-7.066840329285714,-197.87152922,7.125722509429755,-0.4840830528571435,5.59147745,0.19109638143849536,0.0,140,28,340.997772360121,1463.2932099999996,mp-1193464,YCo9Si4,https://materialsproject.org/materials/mp-1193464,48.877009967910176,50.42801554453496,-8.604250342815693,-0.5045126942092143
-10.58145107,-42.32580428,13.422385727349667,-0.12958881750000018,2.2e-06,4.4119043942253466e-07,0.0,225,4,58.11309631548141,469.73686,mp-867779,Ta2CrFe,https://materialsproject.org/materials/mp-867779,42.08404993058742,65.18287996456336,-8.604250342815693,-0.5045126942092143
-8.6950018025,-34.78000721,9.000073784234843,-0.3857949829166678,0.04233769999999999,0.008449253662547415,0.0,225,4,58.39643568855057,316.507,mp-1187489,TiTc2Ge,https://materialsproject.org/materials/mp-1187489,63.675045470097466,57.35776989963721,-8.604250342815693,-0.5045126942092143
-7.2564825822222225,-65.30834324,10.985472877564032,-0.22283273222222197,2.466666666666666e-06,1.943189833583826e-07,0.0,180,9,147.9355882210937,978.68364,mp-7558,TaGe2,https://materialsproject.org/materials/mp-7558,50.711888373389094,55.89474292518482,-8.604250342815693,-0.5045126942092143
-7.479882525,-29.919530100000003,14.180383287489025,-0.7270290043749998,0.25533110000000003,0.036195128558061146,0.0,225,4,82.21120621455009,702.0530000000001,mp-1187013,SmErIr2,https://materialsproject.org/materials/mp-1187013,16.214635185745216,49.11428174093451,-8.604250342815693,-0.5045126942092143
-7.270331146666668,-21.81099344,11.912311055976758,-0.3923968416666668,2.0399999999999998e-05,3.822181776548467e-06,0.0,216,3,62.20084110570639,446.214,mp-961676,HfGePt,https://materialsproject.org/materials/mp-961676,29.16036603895937,52.63321022109878,-8.604250342815693,-0.5045126942092143
-8.544386723333334,-102.53264068,5.294103800691347,-1.0823443762698408,1.825e-06,1.3061959336165786e-07,0.0,62,12,162.82907994540315,519.129048,mp-1208170,TiVP,https://materialsproject.org/materials/mp-1208170,52.48181568625077,52.35374996266707,-8.604250342815693,-0.5045126942092143
-3.446033406,-223.99217139,9.835863708908931,-0.24056852553846175,0.0041362,3.6557333002773545e-05,0.0,174,65,1318.5738332882283,7810.30268,mp-1224563,Ho14Ag51,https://materialsproject.org/materials/mp-1224563,-4.340291403367446,50.89960842734953,-8.604250342815693,-0.5045126942092143