energy_per_atom,energy,density,formation_energy_per_atom,total_magnetization_uB,total_magnetization_T,band_gap,sgr,num_sites,cell_volume,weight,mp_id,formula,URL,tsne_cry_lin1_0,tsne_cry_lin1_1,tsne_cry_lin2_0,tsne_cry_lin2_1
-7.8125346025,-31.25013841,9.729091384298007,-0.4768462112500007,5.65e-05,9.273086082528737e-06,0.0,225,4,71.00706860580169,416.030122,mp-980206,TmScRu2,https://materialsproject.org/materials/mp-980206,19.680978791490173,53.29334620815057,-8.604250342815693,-0.5045126942092143
-9.186624517,-183.73249034,11.80379821628516,-0.3975112776666663,0.0,0.0,0.0,58,20,228.3035431223384,1622.8760000000002,mp-20391,B2Mo2Ir,https://materialsproject.org/materials/mp-20391,20.24567473715216,37.3191313666038,-6.183513934446697,-1.479937301931905
-9.974851303333333,-59.84910782,9.202543996558981,-0.3533278049199993,0.0,0.0,0.0,141,6,76.45512840542305,423.7068,mp-1101174,WN2,https://materialsproject.org/materials/mp-1101174,6.1618479985958325,18.975964970155736,-8.604250342815693,-0.5045126942092143
-8.93895159,-35.75580636,10.587598525461036,-0.7422811312500013,7.1455634,1.1021015786178132,0.0,225,4,75.56005754430547,481.771,mp-866089,GdSnRh2,https://materialsproject.org/materials/mp-866089,31.640814906086845,56.274517002825014,-8.604250342815693,-0.5045126942092143
-9.6481998875,-38.59279955,11.494737839616814,-0.3628709850000007,7.000124799999999,1.0568216159420674,0.0,225,4,77.19364044468361,534.357,mp-1184510,GdLuRu2,https://materialsproject.org/materials/mp-1184510,19.808052629231398,53.194752483557004,-8.604250342815693,-0.5045126942092143
-9.50489179,-38.01956716,12.629983730686808,-0.4935945499999992,7.8e-06,1.3459801464761887e-06,0.0,225,4,67.53569542905119,513.6734,mp-1184612,Hf2TcNi,https://materialsproject.org/materials/mp-1184612,38.14953083360304,60.71671819543122,-8.604250342815693,-0.5045126942092143
-8.170075970000001,-147.06136746,8.22670337464416,-0.4770212718518521,7.551383900000001,0.4997334337296413,0.0,137,18,176.1025201701339,872.4535599999998,mp-1181496,Gd(CoB)4,https://materialsproject.org/materials/mp-1181496,8.223374606473486,39.577293738869116,-8.604250342815693,-0.5045126942092143
-5.208398245,-20.83359298,0.5936471144642196,2.8639942775,2.032929,0.029309498091377555,0.0,71,4,808.3347647288722,288.981824,mp-1096460,Sc2TcRu,https://materialsproject.org/materials/mp-1096460,-66.44818021236149,42.913247900534145,-8.604250342815693,-0.5045126942092143
-8.375525814090908,-184.26156791,6.738942772277018,-3.4691601844263635,0.5008869,0.01936094960222717,0.0,166,22,301.50217299543687,1223.5821264,mp-756170,Sr3LiTa4(O6F)2,https://materialsproject.org/materials/mp-756170,-42.25139443693264,27.848134057697806,-5.847533284848177,-2.7140350598079173
-6.61414339,-26.45657356,10.788154773171033,-0.7814588962499993,0.3677087,0.05758788453882095,0.0,225,4,74.41323885312939,483.44635000000005,mp-864600,TbSnRh2,https://materialsproject.org/materials/mp-864600,31.77512237765007,56.37738383098121,-8.604250342815693,-0.5045126942092143
-5.016499989166666,-120.39599974,6.608158110203267,-0.34789079416666685,0.004106175,6.760883691473812e-05,0.0,216,24,707.8013999532898,2816.7139999999995,mp-1210030,Nd4MgRh,https://materialsproject.org/materials/mp-1210030,-30.856834106600648,68.26775531225493,-8.604250342815693,-0.5045126942092143
-8.197362038181819,-180.34196484,8.63336723289675,-0.4397416296753249,3e-06,1.2448884522670285e-07,0.0,2,22,280.84600073211783,1460.1563720000001,mp-1209818,Ni7(Mo3P2)3,https://materialsproject.org/materials/mp-1209818,53.08317822483796,57.32693291929121,-8.604250342815693,-0.5045126942092143
-7.6960804691666675,-92.35296563,7.999100000426226,-0.3407749008333336,0.088526125,0.006799820591910714,0.0,38,12,151.72300222759503,730.8756,mp-1219282,SiNiMo,https://materialsproject.org/materials/mp-1219282,53.33042014669627,57.00838450131113,-8.604250342815693,-0.5045126942092143
-5.5509859225,-22.20394369,0.9391951458072422,1.4447713462500005,4.98e-05,5.747816906049388e-07,0.0,71,4,1009.7267104361827,571.0979400000001,mp-1096140,La2IrRu,https://materialsproject.org/materials/mp-1096140,-67.90242441854821,41.68866445557451,-8.604250342815693,-0.5045126942092143
-7.4133498575,-29.65339943,12.058859600420346,-0.08027567625000033,3.3858796,0.4914851142559601,0.0,225,4,80.28576863456856,583.036465,mp-865451,Tm2MnOs,https://materialsproject.org/materials/mp-865451,18.11351571292448,53.92570881042387,-8.604250342815693,-0.5045126942092143
-6.619051674285713,-92.66672344,4.2834714841284764,-1.954876067348572,10.0000004,0.8222216524112324,0.0,166,14,141.73872950859155,365.62453000000005,mp-774822,Li2Mn3CoO8,https://materialsproject.org/materials/mp-774822,-68.10173026291602,-36.25111928118809,-8.604250342815693,-0.5045126942092143
-7.7195873838888875,-138.95257291,7.779277150441576,-0.6592288038888875,1.35e-06,5.132621373755679e-08,0.0,14,18,306.52928196500363,1436.0254,mp-1190079,Tb2Si4Mo3,https://materialsproject.org/materials/mp-1190079,51.816645599477155,58.836745514974965,-8.604250342815693,-0.5045126942092143
-4.973586378333334,-29.84151827,9.234612427786438,-0.3377024766666672,1.7199999999999998e-05,1.6652223538437668e-06,0.0,191,6,120.3742633080418,669.427,mp-2606,BaPd5,https://materialsproject.org/materials/mp-2606,29.19931467769457,55.40532495279084,-8.604250342815693,-0.5045126942092143
-7.321640445,-29.28656178,12.116239759655347,-0.4376191125000002,2.47e-05,3.846517641644667e-06,0.0,225,4,74.83532553334274,546.04121,mp-983312,TmLuRu2,https://materialsproject.org/materials/mp-983312,19.33106429964262,53.39352061988895,-8.604250342815693,-0.5045126942092143
-6.86985125,-13.7397025,10.919240686500931,-0.8936603400000003,1e-07,2.8874259650070732e-08,0.0,221,2,40.36143234076357,265.4055,mp-232,DyRh,https://materialsproject.org/materials/mp-232,17.23522100927833,51.220292648579594,-8.604250342815693,-0.5045126942092143
-6.5800214859375,-210.56068755,3.2436326453412345,-2.5865079416825,3.999999825,0.142457534744029,1.1130999999999998,14,32,327.2291432990092,639.1967344000002,mp-770551,Li2MnAlO4,https://materialsproject.org/materials/mp-770551,-48.56414923723006,-48.70769919446651,4.007502420951416,2.981571132542668
-9.336882505,-37.34753002,8.848609783404697,-0.6367678300000001,3.229999999999999e-05,5.232466664233738e-06,0.0,225,4,71.94050460497357,383.3535,mp-1188004,Zr2TcRh,https://materialsproject.org/materials/mp-1188004,39.235104791353066,59.52564071008399,-8.604250342815693,-0.5045126942092143
-9.398204167083334,-451.11380002,10.804019954454857,-0.7320678583333342,0.0,0.0,0.0,178,48,952.3991470449143,6196.626,mp-30749,Zr5Ir3,https://materialsproject.org/materials/mp-30749,26.378136041552192,58.097886321385744,-8.604250342815693,-0.5045126942092143
-10.14260291,-30.42780873,12.066237758071251,-0.5210794115866655,0.0,0.0,1.1319,187,3,29.154973448241464,211.8534,mp-999549,WN2,https://materialsproject.org/materials/mp-999549,5.849461874088111,20.91466356772032,-8.604250342815693,-0.5045126942092143
-5.6982482375,-22.79299295,10.473499553691141,-0.3855441716666661,5.400000000000001e-06,7.366942215226214e-07,0.0,225,4,85.42479081993167,538.7988399999998,mp-1184631,Ho2AgRu,https://materialsproject.org/materials/mp-1184631,18.381223054172352,55.292348286481065,-8.604250342815693,-0.5045126942092143
-9.563210474375,-153.01136759,10.916602381094695,-0.6029661612500004,3.575e-05,1.3285998862236308e-06,0.0,38,16,313.58787543120496,2061.5679999999998,mp-1215568,Zr5Ir2Os,https://materialsproject.org/materials/mp-1215568,26.356999851684364,58.06631548746274,-8.604250342815693,-0.5045126942092143
-7.32199229,-29.28796916,11.727039560120053,-0.4061545500000001,8.329999999999999e-05,1.2705277462426618e-05,0.0,225,4,76.40790202536904,539.607,mp-1183818,DyLuRu2,https://materialsproject.org/materials/mp-1183818,19.731692155053604,53.20788035388378,-8.604250342815693,-0.5045126942092143
-10.669278136875,-341.41690038,15.165605027887112,0.2600038896874999,1.57990585,0.04473727384435477,0.0,194,32,411.56564824455353,3758.80477,mp-1226205,Co3W9C4,https://materialsproject.org/materials/mp-1226205,57.20919954223367,47.660093924910534,-8.604250342815693,-0.5045126942092143
-7.419984972000001,-37.09992486,8.298259158150971,-0.451159747666668,1.1094363999999999,0.2149664405785798,0.0,139,5,60.146335548172026,300.57099999999997,mp-3190,Er(FeB)2,https://materialsproject.org/materials/mp-3190,6.8316629679628385,39.3668945656729,-8.604250342815693,-0.5045126942092143
-7.367327196428571,-103.14258075,4.8983472236104175,-1.099373647627771,0.00072415,2.4079791839206784e-05,0.0,176,14,350.47192523102404,1033.8409038,mp-561682,Cs(MoS)3,https://materialsproject.org/materials/mp-561682,64.657610352788,31.852536959489782,-8.604250342815693,-0.5045126942092143
-6.9436095525,-27.77443821,1.3159752782665028,4.5319956487500015,8.9585983,0.1360186212482264,0.0,71,4,767.5719978738169,608.299925,mp-1093928,TaMnRe2,https://materialsproject.org/materials/mp-1093928,-58.35837090751292,41.169549973303376,-8.604250342815693,-0.5045126942092143
-4.601756195,-18.40702478,0.90034228024999,3.40915018125,0.0,0.0,0.0,71,4,955.9759204301448,518.3290000000001,mp-1096095,Hf2ZnMo,https://materialsproject.org/materials/mp-1096095,-65.35550328814665,40.61469307842131,-4.227334412482331,-1.0277400122590838
-7.3680540720000005,-36.84027036,6.368624655833236,-0.5591688686666657,9.000000000000001e-07,1.7612919628980332e-07,0.0,139,5,59.55093486059896,228.39424,mp-3515,Y(CoB)2,https://materialsproject.org/materials/mp-3515,7.380177640102018,39.54809208565841,-8.604250342815693,-0.5045126942092143
-7.350538815599999,-183.76347039,6.998547115781318,-2.1467716423,0.000193,5.941834435258896e-06,0.0,191,25,378.54210271444856,1595.4125,mp-33436,Tl(WO3)6,https://materialsproject.org/materials/mp-33436,-17.435069570543384,0.1835066439830351,-8.604250342815693,-0.5045126942092143
-5.138744,-35.971208000000004,9.785879562649608,-0.4854110110204084,0.0264385,0.002889160341141891,0.0,123,7,106.6455146506483,628.4827620000002,mp-1025258,ZnPPd5,https://materialsproject.org/materials/mp-1025258,26.45863316775146,46.67837222535289,-8.604250342815693,-0.5045126942092143
-6.918854718550725,-477.40097558,4.022948689784641,-2.0522410420173918,69.0000007,1.0815797928866553,0.4996,1,69,743.4777191225995,1801.2059,mp-690161,Li9Mn20O40,https://materialsproject.org/materials/mp-690161,-67.32703029704463,-38.1217376017484,3.548020004395128,0.4583345363622115
-6.949968406666668,-41.69981044,4.194755056635176,-1.639558576153333,5.400000000000001e-06,9.143128682174942e-07,0.0,59,6,68.82977584523317,173.87368999999998,mp-510732,MnO2,https://materialsproject.org/materials/mp-510732,-77.03174158631195,-15.083435061636164,-8.604250342815693,-0.5045126942092143
-9.597368496875,-153.55789595,10.738469813321094,-0.22035578743999906,0.005988075,0.00041916978217113233,0.0,33,16,166.48483951177195,1076.6337800000001,mp-1245861,MnReN2,https://materialsproject.org/materials/mp-1245861,2.823420512340441,17.856420586592375,-8.604250342815693,-0.5045126942092143
-9.2977282575,-37.19091303,13.303828469979301,0.6356653199999993,7.000000000000001e-06,1.1681796522905988e-06,0.0,225,4,69.83382500110886,559.49135,mp-631465,YRhW2,https://materialsproject.org/materials/mp-631465,41.25196058633597,59.09594365670948,-8.604250342815693,-0.5045126942092143
-4.8439830025,-19.37593201,0.8813197301163879,2.955869685,0.5423486999999999,0.010358200867954522,0.0,71,4,610.1992961603663,323.8591,mp-1097653,CrGaRu2,https://materialsproject.org/materials/mp-1097653,7.147631721738003,25.1503241275909,-8.604250342815693,-0.5045126942092143
-6.7290599339999995,-134.58119868,10.192657590297696,-0.7221519830000005,1.84545175,0.04853603861222635,0.0,220,20,443.1143299716258,2719.90753,mp-22708,Th3Co3Sb4,https://materialsproject.org/materials/mp-22708,10.74291553585849,46.41502567092812,-8.604250342815693,-0.5045126942092143
-9.867173821,-296.01521463,13.18869413803972,-0.17367773699999892,0.01836645,0.00040508563522617257,0.0,10,30,528.3914790571907,4196.7056688,mp-1217804,Ta11Al4,https://materialsproject.org/materials/mp-1217804,36.0591443449814,64.83265988947723,-8.604250342815693,-0.5045126942092143
-1.57022581,-9.42135486,6.1198414100895215,-0.016222249999999917,5.6e-06,3.246931647446097e-07,0.0,63,6,200.99826486235798,740.77,mp-1187900,Yb2Mg,https://materialsproject.org/materials/mp-1187900,-26.773947488535644,55.430346601721624,-8.604250342815693,-0.5045126942092143
-8.491231816666668,-50.9473909,7.1164443030378575,-0.19791297500000127,1.29e-05,1.3431816395639644e-06,0.0,97,6,111.9263628520294,479.674195,mp-1215368,Zr4FeCo,https://materialsproject.org/materials/mp-1215368,25.698784515469022,58.2443820729557,-8.604250342815693,-0.5045126942092143
-8.135331004500001,-162.70662009,8.423621717613557,-0.6298499878333331,3.66714565,0.1598250876723151,0.0,55,20,267.3995275581097,1356.470648,mp-1219440,Sc2FeB2Ru2Rh3,https://materialsproject.org/materials/mp-1219440,29.686031703322897,50.224610551699065,-8.604250342815693,-0.5045126942092143
-4.09377461,-16.37509844,0.4250076099638366,3.502749959166666,2.9468072999999997,0.043798507320855,0.0,71,4,784.0971130561658,200.686182,mp-1095720,Ti2BeMo,https://materialsproject.org/materials/mp-1095720,-58.273707217188246,38.56336455616623,-8.604250342815693,-0.5045126942092143
-7.191392796944445,-258.89014069,8.894671097524553,-0.43854042509259256,3.25e-07,8.50269516672958e-09,0.0,194,36,445.4553499580211,2386.0799,mp-574273,Ce2Co5B2,https://materialsproject.org/materials/mp-574273,42.03392990237398,83.76413798686809,-8.604250342815693,-0.5045126942092143
-3.8965176025,-15.58607041,0.8230964196352936,2.9167321425000003,7.000325999999999,0.12434951822844985,0.06479999999999997,71,4,656.0721247279312,325.202,mp-1095874,FeCuRh2,https://materialsproject.org/materials/mp-1095874,-63.17391722116705,36.36968409862678,-8.604250342815693,-0.5045126942092143
-6.5845226925,-26.33809077,11.420548134421368,-0.7343932900000008,7.400000000000001e-06,1.0875894411010043e-06,0.0,225,4,79.294700792275,545.35842,mp-865384,Tm2PdRu,https://materialsproject.org/materials/mp-865384,18.025880439481444,54.41753255195302,-8.604250342815693,-0.5045126942092143
-9.0030581125,-72.02446490000001,7.988275488258081,-0.44551001083333297,1.9698494,0.2861045666279841,0.0,6,8,80.23902858439182,386.002045,mp-1221732,MnB4Mo3,https://materialsproject.org/materials/mp-1221732,21.600044409187273,36.622636001406065,-8.604250342815693,-0.5045126942092143
-7.379303267599998,-184.48258169,6.287087510699493,-2.225800688219999,0.00017519999999999998,5.405516364480207e-06,0.0,162,25,377.7237937099088,1430.1275,mp-675140,K(WO3)6,https://materialsproject.org/materials/mp-675140,-17.388266962113427,0.38794249460370817,-8.604250342815693,-0.5045126942092143
-6.916229179333332,-103.74343769,6.440860958173048,-0.5830274259166657,0.0007341,2.7328477580055912e-05,0.0,148,15,313.0525264158739,1214.261,mp-1104651,Li(Mo3Se4)2,https://materialsproject.org/materials/mp-1104651,63.41671333834729,32.387331142166296,-8.604250342815693,-0.5045126942092143
-6.1055924975,-48.84473998,7.732601893025391,-0.4577654212500004,2.2800000000000002e-05,1.6561824595247578e-06,0.0,26,8,160.4368379137449,747.1033,mp-1215981,YErNi2,https://materialsproject.org/materials/mp-1215981,2.1953873266616224,59.02856545990098,-8.604250342815693,-0.5045126942092143
-7.6583578744444445,-275.70088348,8.97400360904925,-0.35060836777777776,2.875e-06,3.501326128086716e-08,0.0,55,36,956.9356008381317,5171.53968,mp-1197091,Ta4NiTe4,https://materialsproject.org/materials/mp-1197091,58.02184650495457,32.759463006666685,-8.604250342815693,-0.5045126942092143
-3.979693915,-15.91877566,7.97254814141483,-0.20882765312500015,0.007966299999999999,0.0007220734191195287,0.0,139,4,128.5738731538517,617.3064099999999,mp-1185066,La3Hg,https://materialsproject.org/materials/mp-1185066,-23.547550156441673,55.93096010689776,-8.604250342815693,-0.5045126942092143
-8.287311578333332,-49.72386947,7.137405985933367,-0.21594904666666773,0.4990924,0.0521459402224972,0.0,97,6,111.54185987009764,479.4344,mp-1215366,Zr4FeNi,https://materialsproject.org/materials/mp-1215366,25.302280012377725,58.22740927684611,-8.604250342815693,-0.5045126942092143
-7.896450445,-31.58580178,7.425827502521805,-0.40062676000000064,7e-07,1.215743636489552e-07,0.0,38,4,67.10169065204803,300.07459500000004,mp-1215600,Zr2CoNi,https://materialsproject.org/materials/mp-1215600,25.609821260917872,58.004854872957424,-8.604250342815693,-0.5045126942092143
-7.750598528999999,-155.01197058,12.914055318329776,-0.7466171500000002,2.055e-05,4.214782648895619e-07,0.0,186,20,568.2168003108168,4419.03684,mp-569074,Th7Pt3,https://materialsproject.org/materials/mp-569074,-29.666179633444628,68.60182368320665,-8.604250342815693,-0.5045126942092143
-9.44408741,-18.88817482,12.892750089315172,-0.7384129850000001,0.0031515000000000002,0.0010060707932871631,0.0,221,2,36.50616375684673,283.4410000000001,mp-11484,ZrIr,https://materialsproject.org/materials/mp-11484,27.495848741492292,58.000728620680064,-8.604250342815693,-0.5045126942092143
-7.070159669285713,-296.94670611,5.738039845986657,-0.6563907838870058,0.0,0.0,0.0,148,42,1055.697061674,3647.9912,mp-542629,Rb2Mo9Se10,https://materialsproject.org/materials/mp-542629,63.69198107962187,32.06472979150095,-8.604250342815693,-0.5045126942092143
-9.632504201428572,-269.71011764,9.16625805095098,-0.033647719821429084,0.036061725,0.001240938006613942,0.0,227,28,338.6677470754433,1869.4628,mp-1193060,Fe3Mo3C,https://materialsproject.org/materials/mp-1193060,57.72161376274278,49.45414443218042,-8.604250342815693,-0.5045126942092143
-4.339244264444444,-39.05319838,5.551721193128768,-0.10664694777777743,0.21416970000000002,0.010869123741498423,0.0,10,9,229.63650202914928,767.7493900000001,mp-567369,Nd4Mg3Co2,https://materialsproject.org/materials/mp-567369,-30.4723559189132,71.88180999486791,-8.604250342815693,-0.5045126942092143
-7.0666587375,-28.26663495,8.977607311840275,-1.0916474975000003,0.00011040000000000001,1.7771317923529137e-05,0.0,225,4,72.39804928519828,391.41582400000004,mp-862363,Sc2PdPt,https://materialsproject.org/materials/mp-862363,22.133974471635646,52.583323811564206,-8.604250342815693,-0.5045126942092143
-6.613623432105262,-251.31769042,7.244747316412032,-1.2353222101315775,0.0,0.0,0.21039999999999992,109,38,455.1676775472366,1985.846,mp-29325,Zn(Mo4O5)2,https://materialsproject.org/materials/mp-29325,-20.996932969956934,-14.958370176046689,-8.139285414042536,2.2241420318696448
-7.505084789333334,-225.15254368,6.805624194189472,-2.776228423875001,1.0558163,0.030339800785658663,0.0,12,30,405.55808639127787,1662.1566000000007,mp-30165,Sr7Re4O19,https://materialsproject.org/materials/mp-30165,-25.38543116717581,-6.297150171910328,-8.604250342815693,-0.5045126942092143
-5.819500026071429,-162.94600073,4.1912960418275835,-1.8789868312292868,7.00000045,0.3293862485137797,0.5390000000000001,2,28,247.6680766739241,625.12847,mp-1174455,Li4MnCo2O7,https://materialsproject.org/materials/mp-1174455,-76.52192145411328,-53.08940666438832,3.8369903247483506,2.4187548011996873
-7.003324115972222,-504.23933635,6.133670718494887,-0.5613119557578119,0.13960235,0.0010065160499352556,0.0,167,72,1616.4022713857382,5970.63907712,mp-1199740,Na2Mo15Se19,https://materialsproject.org/materials/mp-1199740,63.4069861655284,32.44885531650536,-8.604250342815693,-0.5045126942092143
-6.942864900000001,-27.771459600000004,13.11020265761091,-0.8284472975000003,8.85e-05,1.2911522690219002e-05,0.0,225,4,79.88095262790719,630.672,mp-1184144,Er2RuPt,https://materialsproject.org/materials/mp-1184144,17.949015496164968,54.074284099169645,-8.604250342815693,-0.5045126942092143
-5.146767804375,-82.34828487,6.67654468215864,-0.4350532446874995,0.00021869999999999998,5.455985031473813e-06,0.0,193,16,467.14643662985236,1878.26,mp-1465,Nd5Ge3,https://materialsproject.org/materials/mp-1465,1.1403238672254257,71.66983030518767,-8.604250342815693,-0.5045126942092143