energy_per_atom,energy,density,formation_energy_per_atom,total_magnetization_uB,total_magnetization_T,band_gap,sgr,num_sites,cell_volume,weight,mp_id,formula,URL,tsne_cry_lin1_0,tsne_cry_lin1_1,tsne_cry_lin2_0,tsne_cry_lin2_1
-6.196177898333333,-37.17706739,8.915655689104414,-0.1509933604166669,3.6601809999999997,0.5154676713407063,0.0,191,6,82.75201108606127,444.30659,mp-1219076,SmCo2Ni3,https://materialsproject.org/materials/mp-1219076,42.99225974422621,78.75851031154113,-8.604250342815693,-0.5045126942092143
-7.108489092999999,-213.25467279,8.61605524103333,-0.10733331366666618,29.338779,0.8348650104140661,0.0,65,30,409.54648541832495,2125.017875,mp-1227615,Ce4ZrCo25,https://materialsproject.org/materials/mp-1227615,43.97978350009082,77.13130138883164,-8.604250342815693,-0.5045126942092143
-6.795216740526316,-129.10911807,8.183775959674016,-0.16286053421052615,17.8389032,0.8410738240622242,0.0,166,19,247.17893651727996,1218.1930022,mp-16484,Ce2Al2Co15,https://materialsproject.org/materials/mp-16484,42.36039072797729,77.31692875632056,-8.604250342815693,-0.5045126942092143
-7.010493178333332,-168.25183628,8.921875257920723,-0.1454303195833333,17.962269,0.6178743360001049,0.005700000000000038,166,24,338.79615027108923,1820.310705,mp-542327,Ce5Co19,https://materialsproject.org/materials/mp-542327,43.797490265547246,77.30057300915085,-8.604250342815693,-0.5045126942092143
-6.973662181666668,-41.84197309,8.181112969386524,-0.02641390083333424,8.037864599999999,1.0671118231347445,0.0,187,6,87.782547855471,432.48543,mp-1219989,PrFeCo4,https://materialsproject.org/materials/mp-1219989,43.93707052290737,77.28622666213094,-8.604250342815693,-0.5045126942092143
-6.752070386153847,-87.77691502,8.73984408615587,0.17379739749999928,18.158265300000004,1.2988012689869737,0.0,139,13,162.93300985806587,857.5583399999998,mp-1094061,SmCo12,https://materialsproject.org/materials/mp-1094061,46.450034337326606,78.33028376945336,-8.604250342815693,-0.5045126942092143
-7.280292103157893,-138.32554996,8.12840200438577,0.016249284736843308,28.780788,1.2951499075805302,0.0,160,19,258.97632821817064,1267.6990150000001,mp-1219878,Pr2Mn4Co13,https://materialsproject.org/materials/mp-1219878,44.704566819480455,78.93296883549193,-8.604250342815693,-0.5045126942092143
-7.657792037692308,-99.55129649,8.647570441053325,0.05625071519230792,14.6980701,1.0650135131007743,0.0,44,13,160.8357629926286,837.58259,mp-1219042,SmMn5Co7,https://materialsproject.org/materials/mp-1219042,44.84917950327214,79.59592204557902,-8.604250342815693,-0.5045126942092143
-6.935202515,-83.22243018,8.371091363666027,-0.07822946020833399,13.629722899999999,0.9663927642428978,0.0,47,12,164.36554513431366,828.5978,mp-1219018,SmYCo10,https://materialsproject.org/materials/mp-1219018,44.102852237361994,76.731902899039,-8.604250342815693,-0.5045126942092143
-6.933367205,-83.20040646,7.987778897939951,-0.05887394812499973,13.676167000000001,0.9382542909064868,0.0,47,12,169.87179019917602,817.14327,mp-1222814,LaYCo10,https://materialsproject.org/materials/mp-1222814,43.97884625913912,77.08160747567763,-8.604250342815693,-0.5045126942092143
-7.506834379166666,-90.08201255,9.426438219344345,-0.10177406458333377,10.8575455,0.7839452131093547,0.0,47,12,161.4073744083993,916.26671,mp-1215820,YUCo10,https://materialsproject.org/materials/mp-1215820,44.299637364851705,76.63670521353147,-8.604250342815693,-0.5045126942092143
-6.800922316666667,-40.8055339,9.268921417187613,-0.11291673583333288,7.1066631,1.0058813266136548,0.0,191,6,82.3372597669968,459.596295,mp-2435,HoCo5,https://materialsproject.org/materials/mp-2435,44.0182483663331,76.66908334458992,-8.604250342815693,-0.5045126942092143
-6.910143164558824,-469.88973519,8.44931796982776,-0.0992131490686277,18.545698975,0.24598659473538,0.0,136,68,878.6364043111728,4470.764119999999,mp-1197003,Pr2Co14B,https://materialsproject.org/materials/mp-1197003,44.33946286708619,79.77501056723297,-8.604250342815693,-0.5045126942092143
-7.374278337794117,-501.45092697,8.060232402873384,-0.08693542936274543,24.370184899999998,0.3135545330582783,0.0,136,68,905.7809197453664,4396.64744,mp-1199281,Pr2Fe6Co8B,https://materialsproject.org/materials/mp-1199281,44.212616045734514,79.73141095784055,-8.604250342815693,-0.5045126942092143
-6.749659903333334,-40.49795942,8.481169573857205,-0.030482024583333118,7.0063149000000005,0.9501677033373102,0.0,191,6,85.93435387748974,438.907975,mp-569,NdCo5,https://materialsproject.org/materials/mp-569,44.079370722727155,77.00378797036028,-8.604250342815693,-0.5045126942092143
-6.5959773944736835,-250.64714099,9.25218704574008,-0.10295960236842093,19.9543194,0.4869185340896408,0.0,194,38,477.5930971999777,2661.0519600000002,mp-1204922,Ho2Co12Ni5,https://materialsproject.org/materials/mp-1204922,43.369078211905034,78.73129378655383,-8.604250342815693,-0.5045126942092143
-6.804154623333332,-40.82492774,9.362229224883404,-0.11792414083333352,7.1257774000000005,1.01360423091606,0.0,191,6,81.92968107422905,461.924975,mp-2740,ErCo5,https://materialsproject.org/materials/mp-2740,44.01846654182018,76.64881345503343,-8.604250342815693,-0.5045126942092143
-7.623829263846153,-99.10978043,8.222872849677438,0.026268812307692384,21.8906504,1.5196205929102515,0.0,139,13,167.88075843752847,831.33374,mp-1226889,Ce(MnCo2)4,https://materialsproject.org/materials/mp-1226889,44.85571696723626,79.58290876001575,-8.604250342815693,-0.5045126942092143
-6.598890216578948,-250.75782823,9.26517684560508,-0.10699353921052678,19.9432604,0.4856320151134159,0.0,194,38,478.5929288935877,2670.36668,mp-1203663,Er2Co12Ni5,https://materialsproject.org/materials/mp-1203663,43.374516632929755,78.73417925801449,-8.604250342815693,-0.5045126942092143
-7.419078708235293,-504.49735216,8.648363224611561,-0.15270492392156895,24.363669675,0.3236287468079581,0.0,136,68,877.3503197421037,4569.386239999999,mp-1198179,Dy2Fe6Co8B,https://materialsproject.org/materials/mp-1198179,44.205233214116994,79.71937628942067,-8.604250342815693,-0.5045126942092143
-6.2058761975,-74.47051437,8.911337959436516,-0.1680986943750007,7.599937400000001,0.5297883383490504,0.0,47,12,167.18027996426858,897.1785299999998,mp-1217504,TbSm(Co2Ni3)2,https://materialsproject.org/materials/mp-1217504,42.985311490836246,78.74710936698183,-8.604250342815693,-0.5045126942092143
-6.538520345833334,-78.46224415,8.020093494779081,-0.11984888208333425,9.8476104,0.677464338705406,0.0,47,12,169.40329239446163,818.1862699999998,mp-1219786,PrY(Co3Ni2)2,https://materialsproject.org/materials/mp-1219786,42.95354700901865,78.57335370382148,-8.604250342815693,-0.5045126942092143
-7.3001332916666675,-43.80079975,10.28785247324182,-0.1401540300000003,6.044453,0.828597129536927,0.0,191,6,85.01410910759549,526.704035,mp-809,ThCo5,https://materialsproject.org/materials/mp-809,44.42407159190821,76.56697727659775,-8.604250342815693,-0.5045126942092143
-6.262723099166667,-75.15267719,8.45501017848397,-0.09533834833333424,8.3733431,0.5711470360777823,0.0,47,12,170.85527313666432,869.948275,mp-1219955,Pr2(CoNi)5,https://materialsproject.org/materials/mp-1219955,42.98011215642278,78.77159916191972,-8.604250342815693,-0.5045126942092143
-6.4293809325,-77.15257119,8.585991669507129,-0.15420019395833387,7.1983976,0.500216687825734,0.0,47,12,167.7085029963337,867.1544449999999,mp-1223140,LaCe(CoNi)5,https://materialsproject.org/materials/mp-1223140,42.965429677286046,78.73287296124619,-8.604250342815693,-0.5045126942092143
-6.761487243333334,-40.56892346,8.255495154863334,-0.015393371250000362,6.8242791,0.9119427444426812,0.0,191,6,87.21007008617538,433.571445,mp-1731,LaCo5,https://materialsproject.org/materials/mp-1731,43.89638608094765,77.43381566633559,-8.604250342815693,-0.5045126942092143
-6.4973475647368435,-123.44960373,8.513283066845643,-0.06163096947368424,21.097508899999998,0.9657391074252644,0.0,166,19,254.59436546560462,1305.259225,mp-1190263,Pr2Ga2Co15,https://materialsproject.org/materials/mp-1190263,42.18298316983412,77.29143169733237,-8.604250342815693,-0.5045126942092143
-6.839101679736843,-259.88586383,7.44463004908525,-0.1506337976315788,19.629855600000003,0.4596029791933512,0.0,194,38,497.75049117371583,2231.5454044,mp-1200452,Y2Al2Co15,https://materialsproject.org/materials/mp-1200452,42.36214936996312,77.08857292189684,-8.604250342815693,-0.5045126942092143
-7.3304778542105264,-278.55815846,10.43401469253458,-0.04194101421052659,15.694696400000002,0.38174145991760505,0.0,194,38,479.13844220834176,3010.6714899999997,mp-1197772,U2Co15Ge2,https://materialsproject.org/materials/mp-1197772,45.40257064193608,77.08160270391402,-8.604250342815693,-0.5045126942092143
-7.79310829,-15.58621658,8.303921902703436,-0.008195685000000452,4.3108279000000005,2.1888343081616224,0.0,65,2,22.95224786208344,114.778195,mp-1225016,FeCo,https://materialsproject.org/materials/mp-1225016,48.88952190493764,74.45587641074955,-8.604250342815693,-0.5045126942092143
-6.7987704933333335,-40.79262296,9.17246750053685,-0.1062012266666675,7.0894728,0.9982850312286236,0.0,191,6,82.76311136591463,457.165975,mp-2551,DyCo5,https://materialsproject.org/materials/mp-2551,43.97092573518721,76.8446372345979,-8.604250342815693,-0.5045126942092143
-7.729391708333334,-46.37635025,9.979893003090627,-0.11946693666666636,7.880586999999999,1.060398220935664,0.0,65,6,86.60979387795861,520.527645,mp-1217405,ThFe2Co3,https://materialsproject.org/materials/mp-1217405,44.25906597397006,76.53312228689803,-8.604250342815693,-0.5045126942092143
-6.180316121666666,-74.16379346,8.547201425012634,-0.12952055479166566,7.521164999999999,0.5131792193953972,0.0,47,12,170.80220858977185,879.16083,mp-1219759,PrSm(Co2Ni3)2,https://materialsproject.org/materials/mp-1219759,42.98561017727868,78.79197338563496,-8.604250342815693,-0.5045126942092143
-7.00416723,-252.15002028,9.141859502897313,-0.1554331366666667,6.09374365,0.1410917202968122,0.0,194,36,503.33841741441216,2771.05746,mp-1196386,Ce2Co7,https://materialsproject.org/materials/mp-1196386,43.722535654336646,77.22243552587653,-8.604250342815693,-0.5045126942092143
-6.986038008214287,-195.60906423,8.387663398676954,-0.03200101160714297,20.19831665,0.6568832298061785,0.0,226,28,358.3475416250562,1810.07401,mp-30559,LaCo13,https://materialsproject.org/materials/mp-30559,44.402738653660535,79.62741734427587,-8.604250342815693,-0.5045126942092143
-7.2010837683333335,-86.41300522,9.0724291698711,-0.11964781666666725,12.9633924,0.9067708803313304,0.0,47,12,166.60902768128747,910.27586,mp-1215983,YThCo10,https://materialsproject.org/materials/mp-1215983,44.25829462752378,76.57287760276556,-8.604250342815693,-0.5045126942092143
-6.357470958333334,-76.2896515,8.313691859788657,-0.16636683354166712,7.48128,0.5277268059258654,0.0,47,12,165.212986573025,827.15903,mp-1219012,SmY(Co2Ni3)2,https://materialsproject.org/materials/mp-1219012,42.961859740039216,78.68305754995419,-8.604250342815693,-0.5045126942092143
-6.3074193833333325,-75.68903259999999,8.384450089814173,-0.11621628625000112,8.0912864,0.5498329088561882,0.0,47,12,171.50005807236082,865.9439150000001,mp-1223263,La2(CoNi)5,https://materialsproject.org/materials/mp-1223263,42.96673384221671,78.76244474361914,-8.604250342815693,-0.5045126942092143
-6.6720599794736835,-126.76913961,8.608657483810731,-0.11522319736842085,18.7656755,0.8696776764344697,0.0,166,19,251.46833557284637,1303.675925,mp-1106200,Ce2Ga2Co15,https://materialsproject.org/materials/mp-1106200,42.21860301496039,77.2911955298462,-8.604250342815693,-0.5045126942092143
-7.3695815145,-147.39163029,8.384486529149205,-0.055718603187499126,27.989975,1.2677880992272923,0.0,12,20,257.29613792016283,1299.15404,mp-1219314,Sm2Fe5Co12C,https://materialsproject.org/materials/mp-1219314,44.38659321461557,79.74839603541417,-8.604250342815693,-0.5045126942092143
-6.3801390966666665,-38.28083458,8.396334895327984,-0.10177619083333292,4.6313837,0.6272572981647652,0.0,191,6,86.0483342071843,435.094035,mp-1219681,PrCo3Ni2,https://materialsproject.org/materials/mp-1219681,42.97870114585525,78.63085521777471,-8.604250342815693,-0.5045126942092143
-6.207906385833333,-74.49487663,9.230390922612454,-0.17513334062500027,7.399275200000001,0.5293504851582271,0.0,47,12,162.90082821973658,905.5121800000001,mp-1219109,SmEr(Co2Ni3)2,https://materialsproject.org/materials/mp-1219109,42.977011817400815,78.71608887424058,-8.604250342815693,-0.5045126942092143
-6.615281646666666,-39.69168988,9.295596431626672,-0.14923237583333324,5.9478229,0.8447219124885134,0.0,187,6,82.0581451807152,459.3565,mp-1223872,HoCo4Ni,https://materialsproject.org/materials/mp-1223872,43.883071737934564,76.69483309572041,-8.604250342815693,-0.5045126942092143
-6.9976491491666675,-83.97178979,9.133758785116882,-0.18157258666666698,2.007532466666667,0.1353554044554879,0.0,166,12,172.84801810217854,950.7467550000001,mp-570872,CeCo3,https://materialsproject.org/materials/mp-570872,43.67282151721772,77.18945914393672,-8.604250342815693,-0.5045126942092143
-6.764103656666666,-81.16924388,8.253254538269267,-0.018009784583333282,6.74068785,0.4502638961980061,0.0,66,12,174.4674922391746,867.1428900000002,mp-570460,LaCo5,https://materialsproject.org/materials/mp-570460,43.90374418768432,77.5192320164047,-8.604250342815693,-0.5045126942092143
-7.4327431125,-29.73097245,8.712102887884901,0.014710359999999591,7.2429405,1.9035895054109269,0.0,221,4,44.34238447462674,232.644585,mp-1007852,FeCo3,https://materialsproject.org/materials/mp-1007852,47.24707845251457,79.31425519674175,-8.604250342815693,-0.5045126942092143
-6.211822130000002,-37.27093278,8.447318102480288,-0.131597187916667,3.5631446,0.48802395977616,0.0,191,6,85.08827718508422,432.85205999999994,mp-1222937,LaCo2Ni3,https://materialsproject.org/materials/mp-1222937,42.96040694563775,78.77887008378731,-8.604250342815693,-0.5045126942092143
-6.9280981275,-471.11067267,8.361713775107024,-0.10035516171568637,18.486266925,0.2435285265763329,0.0,136,68,884.6608451813103,4454.746679999998,mp-1197631,La2Co14B,https://materialsproject.org/materials/mp-1197631,44.30661781154986,79.81751775399735,-8.604250342815693,-0.5045126942092143
-6.406085197894738,-121.71561876,8.94871860658831,-0.20151382473684154,17.6452347,0.8196205080497647,0.0,160,19,250.89502532107474,1352.08443,mp-1217733,Tb2Ga3Co14,https://materialsproject.org/materials/mp-1217733,41.887405316475906,77.35835184677516,-8.604250342815693,-0.5045126942092143
-6.314079754166666,-75.76895705,9.310845742478985,-0.1809649483333331,8.847615699999999,0.6298020336326128,0.0,47,12,163.7192021368804,917.9936150000001,mp-1224084,Ho2(CoNi)5,https://materialsproject.org/materials/mp-1224084,42.96918727202314,78.63888740965281,-8.604250342815693,-0.5045126942092143
-7.8696637275,-94.43596473,9.030585619557232,-0.11877182749999922,0.0122008,0.0010618640326942417,0.0,160,12,133.9050095860897,728.221755,mp-1216772,V2Co9Mo,https://materialsproject.org/materials/mp-1216772,46.86590661464074,79.08931526480231,-8.604250342815693,-0.5045126942092143
-7.512839688333332,-45.07703813,10.015199348580355,-0.1278876716666666,7.4467849,0.999640789094392,0.0,187,6,86.81649900514881,523.6158399999998,mp-1217307,ThFeCo4,https://materialsproject.org/materials/mp-1217307,44.330173664609795,76.54698528249395,-8.604250342815693,-0.5045126942092143
-8.5275373975,-34.11014959,12.337664873236823,-0.2311773575,3.6000000000000003e-06,8.713391789984237e-07,0.0,221,4,48.149600284748345,357.747465,mp-11358,TaCo3,https://materialsproject.org/materials/mp-11358,47.07230982320008,78.22760321371801,-8.604250342815693,-0.5045126942092143
-8.526610036666666,-102.31932044,12.349032558261106,-0.23024999666666565,0.0,0.0,0.0,166,12,144.31583104770357,1073.242395,mp-7851,TaCo3,https://materialsproject.org/materials/mp-7851,47.09946264183685,78.15618051814677,-8.604250342815693,-0.5045126942092143
-8.30529484875,-66.44235879,10.873651060808944,-0.13307406875000005,2.2026592000000003,0.26660903683545195,0.0,187,8,96.28305661866106,630.48705,mp-1217983,TaCo6Mo,https://materialsproject.org/materials/mp-1217983,47.17481049857436,78.27481858246766,-8.604250342815693,-0.5045126942092143
-7.935456598947367,-150.77367538,8.012494279573026,-0.011764496578947322,38.46821679999999,1.7219403865667648,0.0,8,19,260.35227105969653,1256.2613900000001,mp-1219271,Sm2Fe15Co2,https://materialsproject.org/materials/mp-1219271,50.598656836101675,72.85518016264695,-8.604250342815693,-0.5045126942092143
-8.51689368375,-68.13514947,12.200336312807712,-0.2205336437500005,0.65956685,0.07893187122043192,0.0,194,8,97.38315680198187,715.49493,mp-1095124,TaCo3,https://materialsproject.org/materials/mp-1095124,47.1110877713683,78.09758789412689,-8.604250342815693,-0.5045126942092143
-7.29175945,-29.167037800000003,8.993632535488084,0.15569402249999964,2.9968538,0.8130852530158243,0.0,123,4,42.95432510865121,232.644585,mp-1225083,FeCo3,https://materialsproject.org/materials/mp-1225083,47.18512528970755,79.17033635811988,-8.604250342815693,-0.5045126942092143
-6.699078432777778,-120.58341179,9.451867923210113,-0.14075734833333325,8.67832185,0.3940951075905827,0.0,166,18,256.63278485073187,1460.76613,mp-1205432,Tb2Co7,https://materialsproject.org/materials/mp-1205432,43.38138386985533,75.56487747917586,-8.604250342815693,-0.5045126942092143
-8.0570082825,-96.68409939,10.229866149689649,-0.13134279416666672,0.0107524,0.0009459076672563519,0.0,160,12,132.4750505764857,816.121755,mp-1216765,V2Co9W,https://materialsproject.org/materials/mp-1216765,46.88749351471098,79.0664181533593,-8.604250342815693,-0.5045126942092143
-7.862829123684209,-149.39375335,8.048014688480464,-0.02406130263157916,34.5728421,1.5684460397521172,0.0,166,19,256.8874739666254,1245.0379750000004,mp-1188210,Ce2Fe12Co5,https://materialsproject.org/materials/mp-1188210,49.818404622743365,71.94712176907952,-8.604250342815693,-0.5045126942092143
-6.805048585,-27.22019434,12.406723166154812,0.04165439500000012,5.381394599999999,1.260007872282908,0.0,166,4,49.773594764510825,371.883585,mp-1226450,Co3Pt,https://materialsproject.org/materials/mp-1226450,47.893507205158386,78.25106637284121,-8.604250342815693,-0.5045126942092143
-6.232441456111111,-112.18394621,8.445557579301829,-0.19315119236111164,4.251005133333334,0.1867696458418802,0.0,191,18,265.2545007998378,1349.0933400000001,mp-1210011,NdGaCo4,https://materialsproject.org/materials/mp-1210011,40.95435723567172,77.71526702894093,-8.604250342815693,-0.5045126942092143
-6.414006953333334,-38.48404172,8.282389867334317,-0.1118257012500005,4.7989082000000005,0.6440898165825842,0.0,191,6,86.83072695839928,433.091855,mp-1211224,LaCo3Ni2,https://materialsproject.org/materials/mp-1211224,42.94499846664453,78.65627934805154,-8.604250342815693,-0.5045126942092143
-8.0963286675,-32.38531467,7.350149774810182,-0.27723734416666623,4.9408136,1.1549864159995558,0.0,225,4,49.85388652706544,220.671435,mp-865537,TiMnCo2,https://materialsproject.org/materials/mp-865537,45.89443099726746,76.15862938474805,-8.604250342815693,-0.5045126942092143
-6.799252783888888,-122.38655011,8.186059327522067,-0.12491811879629705,14.3257082,0.6799280662715657,0.0,191,18,245.544697384073,1210.476485,mp-1209806,Pr3Co13B2,https://materialsproject.org/materials/mp-1209806,42.510691554243394,82.83722743740509,-8.604250342815693,-0.5045126942092143
-7.87879749,-141.81835482,11.305691525890785,-0.07156950250000055,4.114042633333333,0.20426524309032174,0.0,166,18,234.7208883928349,1598.084655,mp-510322,UCo5,https://materialsproject.org/materials/mp-510322,45.4308635804575,77.11461867360418,-8.604250342815693,-0.5045126942092143
-8.09378716,-129.50059456,8.108530924088765,-0.05578020562500008,37.2732293,2.3335778702978764,0.0,123,16,186.1453324843286,908.960975,mp-601848,Fe11Co5,https://materialsproject.org/materials/mp-601848,48.88527742830011,74.40943695910815,-8.604250342815693,-0.5045126942092143