energy_per_atom,energy,density,formation_energy_per_atom,total_magnetization_uB,total_magnetization_T,band_gap,sgr,num_sites,cell_volume,weight,mp_id,formula,URL,tsne_cry_lin1_0,tsne_cry_lin1_1,tsne_cry_lin2_0,tsne_cry_lin2_1
-8.195898076538462,-213.09334999,8.013504838231343,-0.07304060926282191,42.4859256,1.455250805118959,0.0,8,26,340.2394467832488,1641.943,mp-1219391,SmEr(TiFe11)2,https://materialsproject.org/materials/mp-1219391,51.055096254402244,72.61492030420773,-8.604250342815693,-0.5045126942092143
-7.947012328461539,-103.31116027,7.843301233576871,-0.252627342692308,20.5975112,1.4544448844752744,0.0,71,13,165.0421629864136,779.55132,mp-1224130,Ho(Fe5Si)2,https://materialsproject.org/materials/mp-1224130,49.716119404933394,69.2131970422398,-8.604250342815693,-0.5045126942092143
-7.887910888947368,-149.87030689,7.846588739257822,0.0409124202631568,38.1939306,1.6907303089711954,0.0,166,19,263.2676180046128,1244.0253899999998,mp-1190182,Nd2Fe15Co2,https://materialsproject.org/materials/mp-1190182,51.141557601418626,71.64761563457841,-8.604250342815693,-0.5045126942092143
-7.90122403736842,-150.12325671,7.7212055662488845,-0.15486637447368498,31.311522200000002,1.4203895999289404,0.0,8,19,256.90592768666875,1194.566,mp-1219239,Sm2Fe15Si2,https://materialsproject.org/materials/mp-1219239,50.435163220688324,71.07061631745948,-8.604250342815693,-0.5045126942092143
-7.982841033157894,-151.67397963,8.212974309201256,0.08082660118421059,28.614417,1.3168149597584708,0.0,160,19,253.24307464444263,1252.53235,mp-1217525,TbNdFe17,https://materialsproject.org/materials/mp-1217525,51.12778676118328,72.2524269275913,-8.604250342815693,-0.5045126942092143
-7.301065652631579,-277.4404948,8.518766264658293,-0.11759224894736887,28.57097775,0.6427150843503036,0.0,194,38,518.0647434943069,2657.73484,mp-1197720,Tm2Ga3Fe14,https://materialsproject.org/materials/mp-1197720,48.18303408959418,70.96665354858395,-8.604250342815693,-0.5045126942092143
-8.061096059473684,-306.32165026,8.220830886935316,-0.005791355855264831,78.02761140000001,1.7690797501443312,0.0,8,38,514.0180012967353,2544.749,mp-1220333,NdEr3Fe34,https://materialsproject.org/materials/mp-1220333,51.02639652454596,72.54005578757938,-8.604250342815693,-0.5045126942092143
-7.9379476136842095,-301.64200932,7.860052349039388,-0.1117343269736855,65.1458873,1.4869063797322022,0.0,1,38,510.599995136756,2416.8915,mp-1219345,Sm4Fe31Si3,https://materialsproject.org/materials/mp-1219345,50.59773113926608,71.32120306373339,-8.604250342815693,-0.5045126942092143
-8.06219383736842,-306.36336582,8.196903924482745,-0.006889133750001675,79.2109468,1.790681858735987,0.0,187,38,515.5184323778217,2544.749,mp-1220311,NdEr3Fe34,https://materialsproject.org/materials/mp-1220311,51.007345574557974,72.5998388141428,-8.604250342815693,-0.5045126942092143
-6.799625195,-54.39700156,9.020552079850146,-0.02256532,5.74967415,0.7728526807530829,0.0,194,8,86.70096725280047,470.98597,mp-1183837,Co3Ni,https://materialsproject.org/materials/mp-1183837,47.30586182593329,79.59976551354531,-8.604250342815693,-0.5045126942092143
-7.10999434,-14.21998868,8.959679905394706,0.0,1.6594668000000001,0.8853182507700803,0.0,194,2,21.844724830071183,117.86639,mp-54,Co,https://materialsproject.org/materials/mp-54,47.32233952300418,79.36956981190812,-8.604250342815693,-0.5045126942092143
-7.944494815384615,-103.27843259999999,7.782272994264157,-0.2463096061538469,20.5269469,1.4493484687224334,0.0,71,13,165.05510849738042,773.5463500000002,mp-1217843,Tb(Fe5Si)2,https://materialsproject.org/materials/mp-1217843,49.70436273690977,69.24212145355203,-8.604250342815693,-0.5045126942092143
-6.4879659033333335,-38.92779542,8.87069153153134,-0.2503114966666675,5.378853400000001,0.7203544744966437,0.0,10,6,87.0203603156698,464.867585,mp-1225818,DyGaFeCo3,https://materialsproject.org/materials/mp-1225818,41.0908634458773,77.67788089792963,-8.604250342815693,-0.5045126942092143
-6.9671118175,-167.21068362,8.963045732137244,-0.2914250195833337,4.40237325,0.15052222852378874,0.0,194,24,340.8502751497313,1839.79812,mp-1214094,Ce3Co8Si,https://materialsproject.org/materials/mp-1214094,41.750024953116544,76.48181684987242,-8.604250342815693,-0.5045126942092143
-8.28127829375,-265.0009054,7.37276071944435,-0.008239303750000815,64.6487891,1.7734785432926852,0.0,12,32,424.8267781352066,1886.22255,mp-13412,Y3Fe29,https://materialsproject.org/materials/mp-13412,50.991983490231455,72.33855248592855,-8.604250342815693,-0.5045126942092143
-8.3391233625,-333.5649345,7.1817270080420075,-0.040255028937501436,38.02098095,0.8411150015745753,0.0,38,40,526.7995147846284,2278.3748,mp-1216410,Y2Fe17C,https://materialsproject.org/materials/mp-1216410,56.37001812171133,76.10902800110594,-8.604250342815693,-0.5045126942092143
-7.84468719,-15.68937438,8.290364795175082,-0.059774585000000435,4.4633142,2.2625597022325485,0.0,221,2,22.98978132411695,114.778195,mp-2090,FeCo,https://materialsproject.org/materials/mp-2090,48.51308798982035,74.59238808958098,-8.604250342815693,-0.5045126942092143
-8.146059208333334,-48.87635525,9.479488960994669,-0.08618892666666747,10.1175219,1.3086623604658336,0.0,187,6,90.09982950714628,514.3512549999998,mp-1217382,ThFe4Co,https://materialsproject.org/materials/mp-1217382,51.94295109895263,70.77005019580866,-8.604250342815693,-0.5045126942092143
-8.134020734705883,-553.11340996,8.674793127348462,-0.09197112286764764,29.3879414,0.391071486150564,0.0,136,68,875.7707599165872,4575.0988,mp-567900,Lu2Fe14C,https://materialsproject.org/materials/mp-567900,56.41632379486738,76.32873227812416,-8.604250342815693,-0.5045126942092143
-7.441406239210527,-282.77343709,7.7455979437943006,-0.1352607597368421,28.111755100000003,0.6381767060840396,0.0,194,38,513.3628533953297,2394.5852316,mp-1199551,Er2Al3Fe14,https://materialsproject.org/materials/mp-1199551,48.15979078132619,70.9790097599896,-8.604250342815693,-0.5045126942092143
-6.7797080425,-27.11883217,9.011468894574405,-0.002648167500000298,5.4373123,1.4602601324688378,0.0,221,4,43.39417910814446,235.492985,mp-1008349,Co3Ni,https://materialsproject.org/materials/mp-1008349,47.30938981179214,79.60204507831249,-8.604250342815693,-0.5045126942092143
-8.066294640526316,-153.25959817,8.124261635840025,-0.009870736842106896,39.610234000000005,1.7822519610432557,0.0,166,19,259.0095243447133,1267.2157,mp-571149,Tb2Fe17,https://materialsproject.org/materials/mp-571149,50.82878388578893,73.27326624235334,-8.604250342815693,-0.5045126942092143
-8.060927030526315,-153.15761358,8.128949745240558,-0.002985709868421569,39.7277695,1.788899026314896,0.0,160,19,258.8128185055104,1266.984,mp-1219100,SmErFe17,https://materialsproject.org/materials/mp-1219100,50.894390014518706,72.76027390417572,-8.604250342815693,-0.5045126942092143
-7.949188528461537,-103.33945087,7.9312382236452175,-0.2556228188461533,20.4460701,1.4555900318398436,0.0,71,13,163.69981937050915,781.8800000000001,mp-1225118,Er(Fe5Si)2,https://materialsproject.org/materials/mp-1225118,49.72726454326035,69.19554721127011,-8.604250342815693,-0.5045126942092143
-8.372563888421054,-159.07871388,8.915574000134821,-0.02325165000000221,38.1692785,1.6897166172039777,0.0,166,19,263.2555302065612,1413.44112,mp-843,Th2Fe17,https://materialsproject.org/materials/mp-843,51.19033423667919,72.47299910397436,-8.604250342815693,-0.5045126942092143
-7.74719829625,-61.97758637,8.836903842146722,-0.0055265762499994145,0.95673095,0.1296702847673627,0.0,194,8,85.98580994262545,457.59137000000004,mp-1087479,CrCo3,https://materialsproject.org/materials/mp-1087479,45.89248678840413,79.75329529560437,-8.604250342815693,-0.5045126942092143
-8.340073155499999,-166.80146311,7.202252264478245,-0.041204821937500934,37.720616299999996,1.673710238798174,0.0,12,20,262.6491105991737,1139.1874,mp-1216258,Y2Fe17C,https://materialsproject.org/materials/mp-1216258,56.403687443651094,76.07727320347237,-8.604250342815693,-0.5045126942092143
-7.917442068461539,-102.92674689,7.5209775936928125,-0.2086698682692313,20.552582100000002,1.429570722341536,0.0,71,13,167.5475856447537,758.863,mp-1220494,Nd(Fe5Si)2,https://materialsproject.org/materials/mp-1220494,49.742247786574296,69.13509873794457,-8.604250342815693,-0.5045126942092143
-8.062767555789472,-306.38516712,8.073479916831065,-0.004004588486843001,79.69770159999999,1.787823278172906,0.0,8,38,519.5156523634362,2525.86605,mp-1217679,Tb3SmFe34,https://materialsproject.org/materials/mp-1217679,50.812539812561596,73.20456980018834,-8.604250342815693,-0.5045126942092143
-8.058580266578947,-306.22605013,8.022063861380085,0.0014655024342094913,79.79218990000001,1.7828619596542443,0.0,8,38,521.5789951675912,2519.74805,mp-1217666,Tb3NdFe34,https://materialsproject.org/materials/mp-1217666,50.82470482934534,73.1814387216577,-8.604250342815693,-0.5045126942092143
-8.052365514736843,-152.99494478,8.054056146553746,0.008141409342104717,39.743155200000004,1.7817074612088275,0.0,160,19,259.95811043663025,1260.866,mp-1220213,NdErFe17,https://materialsproject.org/materials/mp-1220213,50.974566353590546,72.61991768566901,-8.604250342815693,-0.5045126942092143
-8.362723110263158,-317.78347819,9.407323689411443,-0.00852585184210553,27.67069765,0.6260736561425674,0.0,194,38,515.0769395120215,2918.02564,mp-1204045,U2Fe15Ge2,https://materialsproject.org/materials/mp-1204045,51.025756370541366,69.99444587913952,-8.604250342815693,-0.5045126942092143
-6.298687591666668,-37.79212555,9.291086588801967,-0.11246568916666652,5.241569,0.7362791495439813,0.0,187,6,82.96525125514506,464.2091,mp-1223858,HoCo4Cu,https://materialsproject.org/materials/mp-1223858,40.21786747072461,75.64733270728145,-8.604250342815693,-0.5045126942092143
-7.492154635,-29.96861854,12.623509078380813,0.05629784249999936,5.298099099999999,1.271986862355457,0.0,187,4,48.541688526957216,369.016585,mp-1226447,Co3Ir,https://materialsproject.org/materials/mp-1226447,47.60978447605724,79.17735589215944,-8.604250342815693,-0.5045126942092143
-8.049580852631577,-305.8840724,8.050059975097277,0.01092607144736827,39.6881544,0.8891794704484492,0.0,194,38,520.1743151443636,2521.732,mp-1220296,NdErFe17,https://materialsproject.org/materials/mp-1220296,50.97691641869562,72.63474801866123,-8.604250342815693,-0.5045126942092143
-8.156315648,-163.12631296,8.183195027384869,-0.043641339437502334,37.6211245,1.679636036064046,0.0,12,20,261.0321595426965,1286.3757,mp-1225413,Dy2Fe17C,https://materialsproject.org/materials/mp-1225413,56.45350135707236,76.27217397803204,-8.604250342815693,-0.5045126942092143
-8.154789155,-163.0957831,8.097158817360965,-0.039912767437502335,37.671874700000004,1.6735196419272216,0.0,12,20,262.33959665508684,1279.2264,mp-1217730,Tb2Fe17C,https://materialsproject.org/materials/mp-1217730,56.545375375196045,76.2334875404212,-8.604250342815693,-0.5045126942092143
-8.156601994210527,-154.97543789,7.594302401558937,0.0013379030263147222,39.7447249,1.7821683269097923,0.0,160,19,259.9011503898257,1188.63085,mp-1219026,SmYFe17,https://materialsproject.org/materials/mp-1219026,50.88419900626714,72.57626942482669,-8.604250342815693,-0.5045126942092143
-8.26408219631579,-314.03512346,7.2748182309403315,-0.01398256000000156,39.3442693,0.8910661974378247,0.0,194,38,514.5753078387038,2254.3534,mp-1196012,Y2Fe17,https://materialsproject.org/materials/mp-1196012,50.98467530328611,71.92392842208395,-8.604250342815693,-0.5045126942092143
-8.1389436395,-162.77887279,7.892270782267832,-0.015178810187502731,37.7960537,1.658763554497259,0.0,12,20,265.54577762015344,1262.0957,mp-1219267,Sm2Fe17C,https://materialsproject.org/materials/mp-1219267,56.44003546667813,76.50851434949669,-8.604250342815693,-0.5045126942092143
-6.3753681250000005,-38.25220875,8.440168440513128,-0.2643249899999998,4.341475900000001,0.5957809062111458,0.0,187,6,84.92356975464337,431.6485286,mp-1216604,TmAlCo4,https://materialsproject.org/materials/mp-1216604,41.15236664910928,77.6751284760671,-8.604250342815693,-0.5045126942092143
-8.209758397631576,-311.97081911,7.3921862627503385,-0.0057386308552637676,79.4245208,1.7793171968146866,0.0,187,38,520.209949968306,2315.80755,mp-1219085,SmY3Fe34,https://materialsproject.org/materials/mp-1219085,50.93326607448015,72.36309369440677,-8.604250342815693,-0.5045126942092143
-8.085636453076923,-105.11327389,7.0850594704278755,-0.2459189776923081,20.5123182,1.4497926880223453,0.0,71,13,164.88694343206024,703.5268500000002,mp-1216179,Y(Fe5Si)2,https://materialsproject.org/materials/mp-1216179,49.700619402307176,69.16598889075348,-8.604250342815693,-0.5045126942092143
-7.635530299,-152.71060598,7.947788055628401,-0.054681691687501664,30.533111199999997,1.3204011480265467,0.0,12,20,269.48996232273333,1289.8517,mp-1219379,Sm2Ga2Fe15C,https://materialsproject.org/materials/mp-1219379,55.80976485945947,75.10647337035617,-8.604250342815693,-0.5045126942092143
-7.856176105384615,-102.13028937,9.130599688117195,-0.1643948280769223,13.0520062,0.9634733685639066,0.0,8,13,157.87558912331409,868.0908850000002,mp-1217449,UFe5Co5Si2,https://materialsproject.org/materials/mp-1217449,45.89270677211642,74.9610247717791,-8.604250342815693,-0.5045126942092143
-5.754021965833334,-69.04826359,10.126393863366577,-0.03931674583333352,4.2364695333333335,0.2868778621578931,0.0,166,12,172.10143012453426,1049.518755,mp-1095601,YbCo3,https://materialsproject.org/materials/mp-1095601,43.63550656829422,75.84842085592301,-8.604250342815693,-0.5045126942092143
-7.564574585,-30.25829834,8.958975266414832,0.05773348500000086,1.2636848,0.34286951668688137,0.0,221,4,42.95238799180953,231.73763,mp-999543,MnCo3,https://materialsproject.org/materials/mp-999543,47.12618718607767,79.39124612460651,-8.604250342815693,-0.5045126942092143
-7.647286578684211,-290.59688999,7.9117811724327325,-0.08915198868421133,29.22091385,0.6668144424658559,0.0,194,38,510.70043033557124,2433.2761544,mp-1196052,Dy2Al2Fe15,https://materialsproject.org/materials/mp-1196052,50.42389901134264,71.19931905280154,-8.604250342815693,-0.5045126942092143
-6.503199238333334,-39.01919543,8.583199718725261,-0.09093376166666664,4.0748603999999995,0.5586443320087859,0.0,187,6,85.00701487470141,439.39477999999997,mp-1226692,CeCo4Cu,https://materialsproject.org/materials/mp-1226692,40.11120805850878,75.7157672982798,-8.604250342815693,-0.5045126942092143
-7.5877233906896535,-220.04397833,9.027674132703142,0.07920413172413791,19.057188699999998,0.5395174135722056,0.0,225,29,411.652535962065,2237.9871000000007,mp-1193316,Tb6Fe23,https://materialsproject.org/materials/mp-1193316,51.88730588432715,73.10664893008015,-8.604250342815693,-0.5045126942092143
-8.025294905789472,-304.96120642,8.049072759701362,0.04041423874999856,67.8418983,1.5337531152689,0.0,8,38,515.4896633693174,2498.715,mp-1220953,Nd3ErFe34,https://materialsproject.org/materials/mp-1220953,51.10301668188553,72.31126497858523,-8.604250342815693,-0.5045126942092143
-8.05880695368421,-153.11733212,8.120917522862296,0.0011360882894728929,38.9646856,1.7594131574531715,0.0,160,19,258.0956996377982,1262.225,mp-1219083,SmDyFe17,https://materialsproject.org/materials/mp-1219083,50.876988887432965,72.69155559902298,-8.604250342815693,-0.5045126942092143
-8.671764294615384,-112.73293583,7.769548728962898,-0.2461987884615389,13.515965300000001,0.9548309232253104,0.0,71,13,164.9673583442378,771.8710000000002,mp-1225229,Gd(Fe5Si)2,https://materialsproject.org/materials/mp-1225229,49.714249423179496,69.19384307467705,-8.604250342815693,-0.5045126942092143
-8.068910894736844,-153.30930700000002,8.211313758070656,-0.01480496894736922,39.1927899,1.772365665647617,0.0,166,19,257.709411192541,1274.365,mp-1106107,Dy2Fe17,https://materialsproject.org/materials/mp-1106107,50.89554046059433,72.66108566343182,-8.604250342815693,-0.5045126942092143
-8.069882908684214,-306.65555053,8.196244448242732,-0.01577698289473891,39.3576609,0.8882775545091395,0.0,194,38,516.366452238573,2548.73,mp-1196404,Dy2Fe17,https://materialsproject.org/materials/mp-1196404,50.906559127672914,72.6514600159348,-8.604250342815693,-0.5045126942092143
-8.079566287894735,-307.02351894,7.933933412080816,0.01718421210526344,72.9002399,1.626093066929353,0.0,8,38,522.4695529475814,2496.3211,mp-1219321,Sm4CrFe33,https://materialsproject.org/materials/mp-1219321,50.85792313591535,72.56192775506851,-8.604250342815693,-0.5045126942092143
-8.123903178499999,-162.47806357,7.684252481661388,0.004736297312500426,37.9533084,1.6376396224395138,0.0,12,20,270.09013971440504,1249.8597,mp-1220532,Nd2Fe17C,https://materialsproject.org/materials/mp-1220532,56.38669705748892,76.65611015987055,-8.604250342815693,-0.5045126942092143
-8.109355656842105,-154.07775748,7.932900756908044,0.018365184999999274,32.8034181,1.4654774162492674,0.0,160,19,260.8659506177826,1246.2361,mp-1219244,Sm2CrFe16,https://materialsproject.org/materials/mp-1219244,50.964903404246286,72.00307841582685,-8.604250342815693,-0.5045126942092143
-6.558050115,-39.34830069,8.447439092730116,-0.007237838749999763,6.533975099999999,0.8692469552786672,0.0,187,6,87.60153668100052,445.64363,mp-1219008,SmMnCo3Cu,https://materialsproject.org/materials/mp-1219008,40.103962054704176,75.74197045460986,-8.604250342815693,-0.5045126942092143
-7.946066742307693,-103.29886765,7.8597998552986565,-0.24957544000000095,20.4648508,1.4526458976146552,0.0,71,13,164.1822671138241,777.1210000000002,mp-1225375,Dy(Fe5Si)2,https://materialsproject.org/materials/mp-1225375,49.72255327291024,69.2130670831291,-8.604250342815693,-0.5045126942092143
-8.22359476631579,-156.24830056,7.539438106506194,-0.0015509678947371176,38.797475899999995,1.742139396507712,0.0,160,19,259.536233470639,1178.38685,mp-1226697,CeYFe17,https://materialsproject.org/materials/mp-1226697,50.80343956979426,72.51189491988076,-8.604250342815693,-0.5045126942092143
-8.076101040625,-258.4352333,7.8273517477327506,0.03734839523437472,65.5828267,1.7555252304472695,0.0,12,32,435.37198843597855,2052.231,mp-13494,Nd3Fe29,https://materialsproject.org/materials/mp-13494,50.90425498193023,72.75792536794191,-8.604250342815693,-0.5045126942092143
-6.2633316866666675,-37.57999012,9.210911219687775,-0.2329612183333332,3.5522378,0.5070578984933628,0.0,65,6,81.64355497023547,452.87194000000005,mp-1217588,TbCo2Ni3,https://materialsproject.org/materials/mp-1217588,42.85790641084096,78.1813010193097,-8.604250342815693,-0.5045126942092143
-8.032169318684211,-305.22243411,7.830746189874352,0.036007993026315355,79.29249759999999,1.7543660614536618,0.0,8,38,526.7315204688493,2483.95295,mp-1219904,Pr3DyFe34,https://materialsproject.org/materials/mp-1219904,50.719500306265566,72.91385105485061,-8.604250342815693,-0.5045126942092143
-7.860320485384616,-102.18416631,7.691118913922954,-0.1552980132692312,19.5722414,1.3810448355441851,0.0,69,13,165.16203033328438,764.9810000000001,mp-1219261,Sm(Fe5Si)2,https://materialsproject.org/materials/mp-1219261,49.70689773826935,69.28146577845914,-8.604250342815693,-0.5045126942092143
-8.224402430789473,-312.52729237,7.549119434190281,-0.0023586323684218033,38.38532825,0.8629229293973013,0.0,194,38,518.4067852431601,2356.7737,mp-1226946,CeYFe17,https://materialsproject.org/materials/mp-1226946,50.834966515817925,72.38713887062511,-8.604250342815693,-0.5045126942092143
-7.522051996315787,-142.91898793,8.111287631343957,-0.027762598157895158,30.3090239,1.3502471544639283,0.0,166,19,261.5990165621905,1277.8410000000001,mp-1188910,Sm2Ga2Fe15,https://materialsproject.org/materials/mp-1188910,50.6256065256325,71.08133682345745,-8.604250342815693,-0.5045126942092143
-8.260708310526315,-156.95345790000002,7.33690939303607,-0.010608674210526726,38.153386100000006,1.7429405639590887,0.0,166,19,255.110267152125,1127.1767,mp-1105569,Y2Fe17,https://materialsproject.org/materials/mp-1105569,51.01814755240324,71.56087135838092,-8.604250342815693,-0.5045126942092143