energy_per_atom,energy,density,formation_energy_per_atom,total_magnetization_uB,total_magnetization_T,band_gap,sgr,num_sites,cell_volume,weight,mp_id,formula,URL,tsne_cry_lin1_0,tsne_cry_lin1_1,tsne_cry_lin2_0,tsne_cry_lin2_1
-6.248417541666666,-74.9810105,5.883749155893767,-2.250672589375,2.7000000000000004e-06,1.7147591372461347e-07,0.0,123,12,183.50084395202484,650.19425,mp-22215,Ba2Y(CuO2)3,https://materialsproject.org/materials/mp-22215,-48.414987121418626,-2.1712460623416634,-8.604250342815693,-0.5045126942092143
-6.2298728472,-155.74682118,6.0495934540949055,-2.2229810853500007,0.343513,0.011079338280946744,0.0,47,25,361.3322971734562,1316.3879,mp-20897,Ba4Y2Cu6O13,https://materialsproject.org/materials/mp-20897,-48.59057959226019,-1.710216705043475,-8.604250342815693,-0.5045126942092143
-5.525333227692308,-71.82933196,6.502397307924221,-1.9867238304807704,0.011767399999999999,0.0007082666614059049,0.0,123,13,193.6248722090078,758.2031,mp-632802,Ba2CaTlCu2O7,https://materialsproject.org/materials/mp-632802,-46.60361481871079,-2.1732403386199084,-8.604250342815693,-0.5045126942092143
-6.238031169615384,-162.18881041,5.792077396802071,-2.4714198077884624,0.0001598,5.1970671511079735e-06,0.0,46,26,358.34048252734385,1249.9169,mp-541331,Sr2PrGaCu2O7,https://materialsproject.org/materials/mp-541331,-45.731119830403436,-2.7572307438241057,-8.604250342815693,-0.5045126942092143
-5.533176495,-55.33176495,5.459280736279949,-1.8533705463750003,0.0038431,0.0003302420167664141,0.0,65,10,135.6209508589069,445.87500000000006,mp-552089,Sr2Cu3O5,https://materialsproject.org/materials/mp-552089,-50.71757433454128,0.03483814208819196,-8.604250342815693,-0.5045126942092143
-6.214899384400001,-155.37248461,5.742675902000997,-2.227250846549999,2.2e-06,7.285914331939312e-08,0.0,42,25,351.8973917554551,1216.9739,mp-1228545,Ba2Sr2Y2Cu6O13,https://materialsproject.org/materials/mp-1228545,-48.38529098096633,-1.5389208759553623,-8.604250342815693,-0.5045126942092143
-6.08305823265625,-389.31572689,6.851540989251514,-2.2194567775390626,0.0007032,9.122291952529294e-06,0.0,2,64,898.3639627749196,3706.7346,mp-1229210,Ba10Er5Cu15O34,https://materialsproject.org/materials/mp-1229210,-49.0130486478139,-1.7034318426364492,-8.604250342815693,-0.5045126942092143
-6.08237558140625,-389.27203721,6.897344220140058,-2.2187741262890626,0.0004796,6.263223651389045e-06,0.0,2,64,892.3981923717586,3706.7346,mp-1229149,Ba10Er5Cu15O34,https://materialsproject.org/materials/mp-1229149,-48.99472948682838,-1.7086176492133374,-8.604250342815693,-0.5045126942092143
-6.218032959375,-397.95410939999994,6.091089496742018,-2.205996117148437,1.62e-05,2.0890983230008247e-07,0.0,2,64,903.7193091241237,3314.96885,mp-1228903,Ba10Y5Cu15O34,https://materialsproject.org/materials/mp-1228903,-48.51934034055249,-1.2455838044634162,-8.604250342815693,-0.5045126942092143
-6.0568695257692315,-157.47860767,6.732435543070976,-2.182800269519232,6.92e-05,2.232758427935089e-06,0.0,47,26,361.1950456310521,1464.41746,mp-1228261,Ba4PrTm(Cu3O7)2,https://materialsproject.org/materials/mp-1228261,-47.973215408210315,0.1511199994487022,-8.604250342815693,-0.5045126942092143
-5.1130231275,-40.90418502,6.5820371022066215,-1.968294276875,2e-07,1.5326900883836076e-08,0.0,123,8,152.07333642837347,602.7876,mp-6562,Ba2CuHgO4,https://materialsproject.org/materials/mp-6562,-50.66899189369592,-1.2241652548400026,-8.604250342815693,-0.5045126942092143
-6.369560251153847,-165.60856653,5.649671418185653,-2.398146467019231,0.01361165,0.0004338916245342842,0.0,46,26,365.6006288014388,1243.8873,mvc-272,Sr2YCu2SnO7,https://materialsproject.org/materials/mvc-272,-46.638893752878545,-4.090786860019713,-8.604250342815693,-0.5045126942092143
-6.102162248333332,-73.22594698,6.6020181587369065,-2.2618608264583338,1.1e-06,7.018273637174676e-08,0.0,123,12,182.65847005327592,726.21872,mp-616166,Ba2Ho(CuO2)3,https://materialsproject.org/materials/mp-616166,-48.50105283773134,-2.26210489283395,-8.604250342815693,-0.5045126942092143
-6.076475485384616,-78.99418131,6.953388105287057,-2.20729228048077,0.0001875,1.2289496154498226e-05,0.0,47,13,177.80526698445115,744.5468000000002,mp-622110,Ba2ErCu3O7,https://materialsproject.org/materials/mp-622110,-48.51696484007097,-0.3173870544296581,-8.604250342815693,-0.5045126942092143
-6.581064068888888,-59.22957662,3.4820188750985706,-2.3075716913888886,8.7e-06,9.019890296674204e-07,0.0,25,9,112.40753511010416,235.7097,mp-1227430,Ca2CuCO5,https://materialsproject.org/materials/mp-1227430,-45.749393897765295,-3.975960715690276,-8.604250342815693,-0.5045126942092143
-6.5957834525,-474.89640858,4.675684446756826,-2.428385657609954,0.1812058,0.002247994978227805,0.0,1,72,939.4078504696267,2645.1499,mp-686590,Sr16Cu8BC7O40,https://materialsproject.org/materials/mp-686590,-45.6406159653718,-3.3833820729872217,-8.604250342815693,-0.5045126942092143
-6.464364203529412,-219.78838292,6.405353484810762,-2.73113555375,5.5e-07,1.114859477853843e-08,0.0,118,34,574.9366401985366,2217.7572,mp-560766,Ba4Nd2Cu2O9,https://materialsproject.org/materials/mp-560766,-45.72246292042696,-4.408133649301302,-8.604250342815693,-0.5045126942092143
-6.453741087272728,-141.98230392,6.236006951962764,-2.506668484772727,0.0005288,2.1345673450663494e-05,0.0,38,22,288.7081293533987,1084.2177499999998,mp-1218853,Sr2CaPr3(CuO3)4,https://materialsproject.org/materials/mp-1218853,-44.652673389131316,-2.0670017415112065,-8.604250342815693,-0.5045126942092143
-6.084052861599998,-152.10132154,5.982945909301665,-2.21966773315,5.27e-05,1.6802624082562025e-06,0.0,42,25,365.5198202947886,1316.97314,mp-1228705,Ba2Sr2La2Cu6O13,https://materialsproject.org/materials/mp-1228705,-46.88638909066442,0.16976288298205508,-8.604250342815693,-0.5045126942092143
-6.2438403523809525,-524.4825896000001,5.864859312394648,-2.2721825384226193,0.0420831,0.0003853786576827032,0.0,1,84,1272.6163305958266,4494.75475,mp-774711,Ba14LiY7(Cu10O21)2,https://materialsproject.org/materials/mp-774711,-48.43882646934299,-2.333387370262185,-8.604250342815693,-0.5045126942092143
-6.1963253684615385,-80.55222979,6.440396385333813,-2.224497052211539,2.5580502999999997,0.1612802317455919,0.0,47,13,184.84400453176164,716.916995,mp-1214600,Ba2NdCoCu2O7,https://materialsproject.org/materials/mp-1214600,-48.89399641396788,-2.798442583112674,-8.604250342815693,-0.5045126942092143
-6.536601968888888,-58.82941772,4.493157781235292,-2.3338299102777795,5.13e-05,4.890352245161859e-06,0.0,25,9,122.25162787072917,330.7937,mp-1218825,Sr2CuCO5,https://materialsproject.org/materials/mp-1218825,-45.7515808967397,-4.060257713506292,-5.106214531357582,-2.4498086610918524
-5.827153646923077,-75.75299741,6.824211275937125,-2.103788047019232,0.6143094,0.036628902396488264,0.0,123,13,195.4522540833399,803.23765,mp-1214583,Ba2YCu2HgO7,https://materialsproject.org/materials/mp-1214583,-47.82484927424578,-2.871389601232364,-8.604250342815693,-0.5045126942092143
-5.862923646538461,-152.43601481,6.787665275656584,-2.1022905599038464,7.699999999999999e-06,2.4978057037432033e-07,0.0,65,26,359.26052460458055,1468.52325,mp-1228154,Ba4YbPr(Cu3O7)2,https://materialsproject.org/materials/mp-1228154,-48.76989672111263,-0.17878241985395088,-8.604250342815693,-0.5045126942092143
-6.4140947211538455,-166.76646275,6.631690111787107,-2.1705935310576927,6.9161964000000005,0.22158175710342856,0.0,47,26,363.7564837421221,1452.73325,mp-1228407,Ba4PrGd(Cu3O7)2,https://materialsproject.org/materials/mp-1228407,-47.41374225048838,0.475813228837232,-8.604250342815693,-0.5045126942092143
-6.259102995060241,-519.50554859,5.8498657664901925,-2.2625815044277107,0.4607155,0.00421475404841736,0.0,1,83,1273.907852520686,4487.81375,mp-774710,Ba14Y7(Cu10O21)2,https://materialsproject.org/materials/mp-774710,-48.44404036321856,-2.3134739487408327,-8.604250342815693,-0.5045126942092143
-6.057981823461537,-157.50752741,6.769716908394447,-2.182078315288462,0.00020240000000000001,6.5397179432580535e-06,0.0,47,26,360.6856947703386,1470.45025,mp-1228451,Ba4PrLu(Cu3O7)2,https://materialsproject.org/materials/mp-1228451,-47.92113091466901,0.2479742742392153,-8.604250342815693,-0.5045126942092143
-6.057481676538463,-157.49452359,6.637341533133467,-2.179980384711539,0.0002572,8.190787539208385e-06,0.0,47,26,365.9508252599659,1462.74225,mp-1228227,Ba4PrEr(Cu3O7)2,https://materialsproject.org/materials/mp-1228227,-47.90292924291109,0.3125790802101909,-8.604250342815693,-0.5045126942092143
-5.93110701875,-94.89771230000001,7.545617840319582,-2.0882512175,2e-07,9.891351738626403e-09,0.0,123,16,235.64149937262408,1070.7732,mp-22301,Sr2DyCu3(PbO4)2,https://materialsproject.org/materials/mp-22301,-46.53136413609623,-4.2129792353467055,-8.604250342815693,-0.5045126942092143
-6.058431120384616,-157.51920913,6.684451637692027,-2.1805201904807703,0.0002838,9.11655284907368e-06,0.0,47,26,362.79322208816063,1460.4135700000004,mp-1228221,Ba4PrHo(Cu3O7)2,https://materialsproject.org/materials/mp-1228221,-47.79529962435495,0.3647730082040455,-8.604250342815693,-0.5045126942092143
-5.903066275,-94.44906040000001,7.202741244186252,-2.049070626562499,3.9e-06,1.8790589374894825e-07,0.0,2,16,241.88093149280053,1049.18085,mp-1218727,Sr2PrCu3(PbO4)2,https://materialsproject.org/materials/mp-1218727,-46.582978739376486,-3.791960228731368,-8.604250342815693,-0.5045126942092143
-5.930567288125,-94.88907661,7.6010723345371565,-2.0894228690625,6e-07,2.9824444570879896e-08,0.0,123,16,234.45328032573383,1073.20352,mp-14824,Sr2HoCu3(PbO4)2,https://materialsproject.org/materials/mp-14824,-46.55328610481267,-4.356912356315103,-8.604250342815693,-0.5045126942092143
-6.072510616153847,-78.94263801,7.0353261799165345,-2.2101914824038458,2.2800000000000002e-05,1.5086182843092654e-06,0.0,47,13,176.12982659561226,746.2220100000002,mp-622108,Ba2TmCu3O7,https://materialsproject.org/materials/mp-622108,-48.33481968132615,-0.16978075197535228,-8.604250342815693,-0.5045126942092143
-6.047178858461539,-78.61332516,6.480716128257996,-2.1613594797115394,1e-07,6.332988309084679e-09,0.0,47,13,184.02157407810031,718.19545,mp-20936,Ba2PrCu3O7,https://materialsproject.org/materials/mp-20936,-47.21668577278093,0.5720752157583907,-8.604250342815693,-0.5045126942092143
-5.1051996624390235,-209.31318616,6.868897546572095,-1.9340882181402432,0.00034169999999999996,5.436591460927042e-06,0.0,2,41,732.47989322056,3029.9374,mp-1229200,Ba10Cu5Hg5O21,https://materialsproject.org/materials/mp-1229200,-50.74884359619165,-1.2824787336094203,-8.604250342815693,-0.5045126942092143
-6.0814024924000005,-152.03506231,6.774783446390842,-2.233647200950001,0.00010549999999999999,3.39749677155736e-06,0.0,69,25,361.8852102518591,1476.44462,mp-1228146,Ba4Tm2Cu6O13,https://materialsproject.org/materials/mp-1228146,-48.76313798658853,-2.0991544089268057,-8.604250342815693,-0.5045126942092143
-6.124813763461537,-159.24515785,6.3059849555127325,-2.174236588750001,0.0007013,2.241955225730733e-05,0.0,115,26,364.5476738872982,1384.3891,mp-1228357,Ba4PrY(Cu3O7)2,https://materialsproject.org/materials/mp-1228357,-47.75535661794177,0.36743034428221305,-8.604250342815693,-0.5045126942092143
-5.5920512625,-44.7364101,5.922488285979134,-2.002939721875,5.9e-06,5.894582094948175e-07,0.0,123,8,116.64776408327671,416.0366,mp-1206538,BaSr(CuO2)2,https://materialsproject.org/materials/mp-1206538,-45.89364194410704,-0.2994644641933024,-8.604250342815693,-0.5045126942092143
-4.691894881666667,-56.30273858,4.775916776886663,-1.7845394453333334,1.5e-07,7.487040647797086e-09,0.0,99,12,233.48473690980973,671.5311385599998,mp-1147772,BaNaCuBrO2,https://materialsproject.org/materials/mp-1147772,-50.87353006485893,0.13179954278978934,-8.604250342815693,-0.5045126942092143
-6.077473806923077,-79.00715949,6.951037212413161,-2.2074713258653853,2.4e-06,1.5774573993105485e-07,0.0,47,13,177.30910176317832,742.21812,mp-6616,Ba2HoCu3O7,https://materialsproject.org/materials/mp-6616,-48.243294041103525,-0.02427623404118838,-8.604250342815693,-0.5045126942092143
-5.731102521666667,-171.93307565,6.18031165002748,-2.031433262333333,7.5e-07,1.9344828363190635e-08,0.0,66,30,451.8286962964891,1681.648,mp-1208800,SrCa2Cu2(BiO4)2,https://materialsproject.org/materials/mp-1208800,-46.09684978441693,-4.598126503071347,-8.604250342815693,-0.5045126942092143
-6.6722038644615385,-433.69325119,6.684597974642633,-2.1881904691730774,0.0010954,1.4257718330303491e-05,0.0,47,65,895.3650406130693,3604.34485,mp-1229238,Ba10Gd4Y(Cu3O7)5,https://materialsproject.org/materials/mp-1229238,-47.56699352879696,0.37153117767776817,-8.604250342815693,-0.5045126942092143
-6.240064561538461,-81.12083929999999,6.5768502807842895,-2.2923373554807704,0.0027346000000000002,0.00017767101284919432,0.0,123,13,179.37200343475303,710.4336500000002,mp-1208525,Sr2YCu2PbO7,https://materialsproject.org/materials/mp-1208525,-46.57286306103561,-3.1981301560930797,-8.604250342815693,-0.5045126942092143
-5.693246100769231,-74.01219931,7.0751898991121935,-2.088403009903847,0.0008136000000000002,4.734864557309591e-05,0.0,123,13,200.2538189675739,853.2372700000002,mp-1214663,Ba2LaCu2HgO7,https://materialsproject.org/materials/mp-1214663,-47.644748261202146,-2.678514911329814,-8.604250342815693,-0.5045126942092143
-5.91593889,-94.65502224,7.353946964691862,-2.066151513281249,7.400000000000001e-06,3.607738411838151e-07,0.0,123,16,239.04194116169913,1058.6332,mp-20437,Sr2SmCu3(PbO4)2,https://materialsproject.org/materials/mp-20437,-46.550495668229324,-3.93081751942656,-8.604250342815693,-0.5045126942092143
-6.0767343792307695,-78.99754693,6.709777304933483,-2.226054274326924,7.020000000000001e-05,4.757610334692416e-06,0.0,25,13,171.95930088431305,694.8398000000002,mp-1227765,BaSrErCu3O7,https://materialsproject.org/materials/mp-1227765,-47.96865378023858,0.22767590495545276,-8.604250342815693,-0.5045126942092143
-6.126139647692307,-159.27963084,6.285426798651015,-2.1755624729807703,4e-05,1.2745736329997514e-06,0.0,47,26,365.74002382683733,1384.3891,mp-1228301,Ba4PrY(Cu3O7)2,https://materialsproject.org/materials/mp-1228301,-47.79446378169418,0.3765486244126319,-8.604250342815693,-0.5045126942092143
-5.509531801875,-88.15250883,6.068505795846021,-1.89035272375,2.5e-08,1.1430710489675996e-09,0.0,18,16,254.8849606305187,931.4872,mp-755472,BaCuO2,https://materialsproject.org/materials/mp-755472,-47.0516008921013,-0.38706592564745057,-8.604250342815693,-0.5045126942092143
-5.77803655,-23.1121462,4.672732884275376,-2.139432188125,1.1e-06,2.659863018159031e-07,0.0,123,4,48.195982884443396,135.62279999999998,mp-4826,CaCuO2,https://materialsproject.org/materials/mp-4826,-45.74833741017891,-1.0958959934974108,-8.604250342815693,-0.5045126942092143
-6.290757811153847,-163.55970309,5.194412485157269,-2.4751862285576935,1.5e-06,5.1600398470426866e-08,0.0,46,26,338.7783365444025,1059.7489,mp-1214167,Ca2PrGaCu2O7,https://materialsproject.org/materials/mp-1214167,-45.66822411886635,-2.8960473818288004,-8.604250342815693,-0.5045126942092143
-6.245722097692307,-162.38877454,5.8624013839402975,-2.480540419134616,1.15e-06,3.765387261290012e-08,0.0,46,26,355.9308394710003,1256.5856,mp-541323,Sr2NdGaCu2O7,https://materialsproject.org/materials/mp-541323,-45.722793359376325,-2.7058472860046394,-8.604250342815693,-0.5045126942092143
-6.7871168292307695,-88.23251878,6.781488410482644,-2.1859338277884626,6.947515400000001,0.4501618937356914,0.03730000000000011,47,13,179.86150228765237,734.5378000000002,mp-19813,Ba2GdCu3O7,https://materialsproject.org/materials/mp-19813,-47.51154498428785,0.32407678160641623,-8.604250342815693,-0.5045126942092143
-6.2559441030769225,-162.65454668,5.974921516771955,-2.4945121525961547,2e-07,6.609825198063161e-09,0.0,46,26,352.62853171895125,1268.8216,mp-541330,Sr2SmGaCu2O7,https://materialsproject.org/materials/mp-541330,-45.87847070131382,-2.858853669532955,-8.604250342815693,-0.5045126942092143
-6.053728306923077,-157.39693598,6.533020546469557,-2.170498633846154,1.83e-05,5.803262813876541e-07,0.0,47,26,367.4990986585697,1445.84325,mp-1228206,Ba4PrSm(Cu3O7)2,https://materialsproject.org/materials/mp-1228206,-47.21801565503527,0.5882171074788564,-8.604250342815693,-0.5045126942092143
-5.9096887775,-94.55502044,7.221214215736003,-2.0568547467187503,2.42e-05,1.1652672883001269e-06,0.0,2,16,242.02890643859314,1052.5152,mp-1218726,Sr2NdCu3(PbO4)2,https://materialsproject.org/materials/mp-1218726,-46.53264185596319,-3.6964963963828055,-8.604250342815693,-0.5045126942092143
-6.130244484285713,-85.82342278,6.688907300749574,-2.1373283022321443,8.400000000000001e-06,4.514948182047664e-07,0.0,8,14,216.82229815781292,873.3936500000002,mp-1228257,Ba2YCu3PbO7,https://materialsproject.org/materials/mp-1228257,-48.03364079937594,-3.0459689452158267,-8.604250342815693,-0.5045126942092143
-5.556794558125,-88.90871293,5.157844114812974,-2.0280652918749995,1.0,0.04973711149057618,0.06629999999999958,38,16,234.31326072821537,727.8066,mp-1218506,Sr4Cu3NiO8,https://materialsproject.org/materials/mp-1218506,-50.937253225321506,-0.1842100222428851,-8.604250342815693,-0.5045126942092143
-6.101190283846153,-396.57736845,6.126938100340288,-2.154548995557692,1.23e-05,1.6114609516035676e-07,0.0,2,65,889.5344101254292,3282.1404,mp-1228878,Ba10CaY4(Cu3O7)5,https://materialsproject.org/materials/mp-1228878,-47.91378866126837,0.3109001356092656,-8.604250342815693,-0.5045126942092143
-6.385570638653847,-332.04967321,5.4595828789777014,-2.308661458149039,2.8e-06,4.842367527344532e-08,0.0,38,52,673.8724638082481,2215.5833,mp-1173193,Sr8Y4Cu11CO28,https://materialsproject.org/materials/mp-1173193,-47.42769281537213,0.5826904815097884,-8.604250342815693,-0.5045126942092143
-6.558646744615384,-426.31203839999995,6.531613277447003,-2.1918029554807688,6.9490069000000005,0.090086393503535,0.0,47,65,898.9612456223638,3536.0007,mp-1229307,Ba10Gd3Y2(Cu3O7)5,https://materialsproject.org/materials/mp-1229307,-47.66615170311751,0.4304754508715146,-8.604250342815693,-0.5045126942092143
-6.6568000075,-53.25440006,4.285350543343064,-1.5254690913762508,2e-07,1.9353131143671995e-08,0.0,123,8,120.43596135471121,310.8089,mp-1021672,Sr2CuC(NO)2,https://materialsproject.org/materials/mp-1021672,-45.9327079113726,-4.365897126074592,-8.604250342815693,-0.5045126942092143
-6.239518185384616,-162.22747282,6.282675942006316,-2.182688996250001,0.0034256,0.00010983087017423747,0.0,47,26,363.48764442590067,1375.2613,mp-1228291,Ba4Y2Cu5PdO14,https://materialsproject.org/materials/mp-1228291,-48.363778845197665,-1.3953629403681114,-8.604250342815693,-0.5045126942092143
-6.065841081538461,-78.85593406,6.673485656821624,-2.185201114134616,0.0,0.0,0.0,47,13,181.0579420418777,727.6478000000002,mp-21451,Ba2SmCu3O7,https://materialsproject.org/materials/mp-21451,-47.39442809828392,0.4742083291321108,-8.604250342815693,-0.5045126942092143
-6.187938245384616,-80.44319719,6.4017414248268,-2.2146802458653854,2.5715404,0.1619106953972668,0.0,47,13,185.0952360702415,713.5826450000002,mp-1214590,Ba2PrCoCu2O7,https://materialsproject.org/materials/mp-1214590,-48.90765585902323,-2.8548608893981533,-8.604250342815693,-0.5045126942092143
-6.201680949230768,-161.24370468,6.571776906500367,-2.1040558087500014,5.9782608,0.19049485942293465,0.0,65,26,365.7371059854777,1447.4472500000004,mp-1228601,Ba4PrEu(Cu3O7)2,https://materialsproject.org/materials/mp-1228601,-48.78838173555211,-0.01890977723743345,-8.604250342815693,-0.5045126942092143
-6.237044064230768,-162.16314567,6.301880701222668,-2.180214875096155,0.33454459999999997,0.01075888626687065,0.0,69,26,362.37992864702784,1375.2613,mp-1228152,Ba4Y2Cu5PdO14,https://materialsproject.org/materials/mp-1228152,-48.35174222624968,-1.4944073994908806,-8.604250342815693,-0.5045126942092143
-5.712171855625,-182.78949938,6.0110225992353525,-2.224938849335937,1.0,0.02149110048840117,0.0,2,32,542.2739881956924,1962.9898,mp-766417,Ba10Cu5O17,https://materialsproject.org/materials/mp-766417,-50.43391788701109,-1.1354810671387623,-8.604250342815693,-0.5045126942092143