energy_per_atom,energy,density,formation_energy_per_atom,total_magnetization_uB,total_magnetization_T,band_gap,sgr,num_sites,cell_volume,weight,mp_id,formula,URL,tsne_cry_lin1_0,tsne_cry_lin1_1,tsne_cry_lin2_0,tsne_cry_lin2_1
-6.38059739625,-51.04477917,7.04281592404341,0.1666937406575002,1.17e-05,1.9602135882644043e-06,0.0,139,8,69.5600513409748,295.02386,mp-1079801,NbNi3(HC)2,https://materialsproject.org/materials/mp-1079801,4.5128820370621465,20.79410544737263,-8.604250342815693,-0.5045126942092143
-6.066947966785714,-169.87454307,4.705823190453907,-1.7127369874999994,1.00001395,0.044550151691309436,0.0,186,28,261.59792737668056,741.34577,mp-765293,Li2CrCo3O8,https://materialsproject.org/materials/mp-765293,-74.21973928195682,-22.99523185897914,-0.8568211021674836,-1.9373730393133
-7.559325628656716,-506.47481712,7.205400414829633,-2.155600038638061,9.999999,0.12354781127556914,0.0,10,67,943.2836961521904,4093.0906,mp-907,W18O49,https://materialsproject.org/materials/mp-907,-18.961568105565924,0.7264856506901703,-8.604250342815693,-0.5045126942092143
-7.4174429725,-29.66977189,4.784565492813567,-0.7503108236899987,2.9999702999999998,0.9392136542747732,0.0,166,4,37.2245953120769,107.256445,mp-1247154,MgMnN2,https://materialsproject.org/materials/mp-1247154,5.194860947764676,17.716317553502954,-8.604250342815693,-0.5045126942092143
-5.34716023,-32.08296138,2.9104994996489193,-2.2675416574479166,0.00031319999999999997,1.5167576432393619e-05,0.0,123,6,240.64840569850196,421.795,mp-1218714,Sr2SmS3,https://materialsproject.org/materials/mp-1218714,30.489485769280485,12.002829708616858,-5.963442332645809,0.13217521707128116
-7.855680296944445,-282.80449069,6.406081036534959,-0.7738996996688898,1.675e-06,3.4611781194723404e-08,0.0,52,36,563.9859556552788,2175.7632,mp-1246855,Ca3(WN2)2,https://materialsproject.org/materials/mp-1246855,-8.155111663572791,33.9655653964712,-8.604250342815693,-0.5045126942092143
-8.681341296,-43.40670648,5.857552608753682,-1.4718227229999996,14.0000001,1.052268415683669,0.0,164,5,155.0525565050221,546.948,mp-1206452,Gd2GeBr2,https://materialsproject.org/materials/mp-1206452,-33.25081526081107,37.97727813593636,-11.335378675311553,-0.3284717466993919
-5.9587701175,-23.83508047,9.279805003196355,-0.7397019712499997,3.66e-05,6.033929788403903e-06,0.0,225,4,70.69004539883998,395.04632,mp-864744,HoMgRh2,https://materialsproject.org/materials/mp-864744,38.48584691855065,55.960811749177644,-8.604250342815693,-0.5045126942092143
-9.3629520525,-187.25904105,6.226526976511332,0.069771312572,6.3e-06,2.123175203117193e-07,0.0,2,20,345.80569686068185,1296.6684,mp-1245819,ReMoN3,https://materialsproject.org/materials/mp-1245819,6.5344918503768525,19.122511041481246,-8.604250342815693,-0.5045126942092143
-4.0812247316666665,-73.46204517,3.988945178782135,-2.2180751502760923,2.99999965,0.1325350446492322,0.3944,74,18,263.79581590127714,633.6900383999999,mp-1179708,RbNi2F6,https://materialsproject.org/materials/mp-1179708,-68.68205507471782,-18.484161459900783,-4.524723777006738,-1.1049513116326477
-10.4108263025,-41.64330521,15.490173753129778,-0.7928051862499998,0.0006803,0.0001137613079620626,0.0,225,4,69.69206320497207,650.1155,mp-865131,Hf2OsRh,https://materialsproject.org/materials/mp-865131,39.726358738558105,60.392479387473564,-8.604250342815693,-0.5045126942092143
-3.62586128,-14.50344512,0.4072460651308728,2.3045014683333336,0.5648314,0.008494987092351297,0.0,71,4,774.8783664547749,190.03839,mp-1093966,MgTiCo2,https://materialsproject.org/materials/mp-1093966,43.28221643479897,84.6242892672514,-8.604250342815693,-0.5045126942092143
-5.60932522,-22.43730088,0.7116085011153486,3.7750670224999987,1.7643727999999999,0.029783413826951644,0.0,71,4,690.3881137875275,295.85938,mp-1097335,NbV2Ru,https://materialsproject.org/materials/mp-1097335,-60.5371066520059,42.34185411171442,-8.604250342815693,-0.5045126942092143
-8.608382265,-34.43352906,10.746873024926817,-0.2957269374999996,1.4e-06,2.3078276203593153e-07,0.0,225,4,70.6971809230852,457.54638,mp-866126,DyNbRu2,https://materialsproject.org/materials/mp-866126,40.30111780779078,59.283603789567316,-8.604250342815693,-0.5045126942092143
-9.413939712916667,-451.86910622,8.811426822389656,-0.3384077126190472,6.795e-05,1.1429438363575035e-06,0.0,1,48,692.8544309046284,3676.538744,mp-1220567,NiMo8P3,https://materialsproject.org/materials/mp-1220567,56.337019208335896,48.063390172944864,-8.604250342815693,-0.5045126942092143
-8.315739394000001,-166.31478788,13.515043369612016,-0.9068029013333344,1.3e-06,5.606918752651719e-08,0.0,127,20,270.2069509596955,2199.2007252000008,mp-1209025,Sc2AlB2Ir5,https://materialsproject.org/materials/mp-1209025,29.635045689698483,49.79368826063784,-8.604250342815693,-0.5045126942092143
-8.58446317,-326.20960046,4.249564475932174,-3.4776335529824562,1.0,0.025018061751282256,0.0,1,38,465.82604553537743,1192.1175999999996,mp-767384,Ba2LiTi11O24,https://materialsproject.org/materials/mp-767384,-42.7680138865188,27.97486745384727,-8.604250342815693,-0.5045126942092143
-5.892461040892857,-329.97781829,5.1932341010300425,-1.7879898930357143,0.0,0.0,0.7363999999999997,212,56,563.3194744673847,1761.74714,mp-757613,Li2Co3SbO8,https://materialsproject.org/materials/mp-757613,-73.12251186233273,-24.479124134897393,-0.0060311272072016845,1.82426717617598
-8.2741788134,-827.41788134,4.640026348986165,-1.2947295005875004,4.6848e-05,3.823541908434419e-07,0.0,1,100,1427.9158945806564,3990.01,mp-1245140,Ti3O,https://materialsproject.org/materials/mp-1245140,-6.189407877856238,19.673232067365557,-8.604250342815693,-0.5045126942092143
-7.125424359677418,-441.77631030000003,4.073885191161561,-2.3581878687529034,14.006865900000001,0.2512491578009611,0.6986999999999997,26,62,649.7013716896654,1593.94554,mp-774525,Li4Ti3Mn4(CoO9)2,https://materialsproject.org/materials/mp-774525,-63.96328555150384,-46.8360910542152,4.56430975769475,1.1336253196868462
-7.486156476666667,-89.83387772,6.022270851981813,-1.1178924300000002,0.0,0.0,0.0,62,12,194.05750656153103,703.787648,mp-20492,ScSiRh,https://materialsproject.org/materials/mp-20492,30.055786162032124,51.314552156434004,-8.604250342815693,-0.5045126942092143
-9.114244334,-91.14244334,7.750683348629486,-0.29311962066666697,0.0014751,0.00016474574090662004,0.0,38,10,104.34813580854164,487.0523,mp-1226327,Cr3B4Mo3,https://materialsproject.org/materials/mp-1226327,21.383669646408087,36.814991863181696,-8.604250342815693,-0.5045126942092143
-8.017356229166667,-96.20827475,9.091642249114493,-1.143462525833333,1.475e-06,8.870202587209969e-08,0.0,62,12,193.79202865458348,1061.033648,mp-1095563,ScSiIr,https://materialsproject.org/materials/mp-1095563,29.69382142773011,49.868955458633245,-8.604250342815693,-0.5045126942092143
-8.594258085,-103.13109702,7.784189878122016,-0.16285136499999928,0.139919225,0.009453188831408624,0.0,38,12,172.4949898026498,808.6131799999999,mp-1215320,ZrCrCo,https://materialsproject.org/materials/mp-1215320,61.566056043592425,64.34962563193578,-8.604250342815693,-0.5045126942092143
-5.857182635357143,-328.00222758,4.5539578623735455,-1.6384625839285718,2.999999875,0.06400317308249437,0.20150000000000026,1,56,546.2571803410099,1498.08714,mp-761944,Li2FeCo3O8,https://materialsproject.org/materials/mp-761944,-74.2658519252457,-23.054458442469677,-0.6921787665038782,-1.5100492906500198
-6.0446811915625,-193.42979813,15.118592229367616,-0.3998329151041666,0.0,0.0,0.0,190,32,441.13141922569633,4016.3379999999997,mp-28869,Ga3B4Pt9,https://materialsproject.org/materials/mp-28869,61.977540682069765,42.2168873959126,-8.604250342815693,-0.5045126942092143
-7.20585728,-28.82342912,10.532457940813977,-0.2423994681250008,6.709999999999999e-05,9.63104388323286e-06,0.0,225,4,81.1944951886425,515.0,mp-978520,SmDyRu2,https://materialsproject.org/materials/mp-978520,19.56382495445038,53.26149393534335,-8.604250342815693,-0.5045126942092143
-7.8502448975,-31.40097959,9.984155165357112,-0.5026338687499994,9.53e-05,1.5821780987069727e-05,0.0,225,4,70.19641933690005,422.062912,mp-973433,LuScRu2,https://materialsproject.org/materials/mp-973433,20.314265493339807,52.99549056692646,-8.604250342815693,-0.5045126942092143
-5.1018942733333335,-122.44546256,4.638035032916231,-1.4729845735416671,2.00000375,0.11104243811736114,0.0,15,24,209.90329141753705,586.2787900000001,mp-760869,Li3Co(NiO3)2,https://materialsproject.org/materials/mp-760869,-70.36389395395305,-24.46924103568594,-8.604250342815693,-0.5045126942092143
-5.88804572,-23.55218288,10.685905639183227,-0.8253519806250003,0.0,0.0,0.0,221,4,72.9767200175656,469.62,mp-357,SmPd3,https://materialsproject.org/materials/mp-357,61.37265279438635,49.973512172169855,-8.604250342815693,-0.5045126942092143
-7.218276840945946,-1068.30497246,6.926356650425558,-0.670835617347973,0.023684675,8.70431898680419e-05,0.0,2,148,3171.100886645787,13227.136,mp-685251,Nd2(Mo3Se4)5,https://materialsproject.org/materials/mp-685251,63.030245536383426,32.99861042664011,-8.604250342815693,-0.5045126942092143
-7.498533646363636,-329.93548044,5.387847043091897,-2.367772908376624,0.0,0.0,1.1592000000000002,19,44,649.2546316048492,2106.595848,mp-28000,P(WO4)2,https://materialsproject.org/materials/mp-28000,-19.176810350600125,0.2408532307926992,3.5738738788816202,1.2827548465619725
-8.188911758888889,-73.70020583,11.799725265940793,-0.8809411138888884,2.333333333333333e-07,1.8193194032627992e-08,0.0,189,9,149.46698064051432,1062.1065,mp-1079167,HfGeRh,https://materialsproject.org/materials/mp-1079167,43.06500315544557,57.37659181186701,-8.604250342815693,-0.5045126942092143
-7.8277828875,-31.31113155,11.074932654384488,-0.3434399275000004,1.39e-05,2.4548005149484157e-06,0.0,225,4,65.98967995653356,440.11688,mp-865029,LiPaRu2,https://materialsproject.org/materials/mp-865029,27.48588201358864,44.39325556692468,-8.604250342815693,-0.5045126942092143
-5.434613111,-54.34613111,9.30493259496944,-0.37647344800000015,0.00038885,2.0740352254468654e-05,0.0,12,10,218.49595567179688,1224.3555199999998,mp-1080523,Ho3Ni2,https://materialsproject.org/materials/mp-1080523,2.087402831739058,58.942928290011984,-8.604250342815693,-0.5045126942092143
-8.726783184999999,-87.26783185,12.674161575109698,-0.4687700379999996,3.29908165,0.183276401256474,0.0,127,10,209.77993334373696,1601.15764,mp-639876,U2SnRh2,https://materialsproject.org/materials/mp-639876,24.124664101615977,62.249914953983186,-8.604250342815693,-0.5045126942092143
-6.619302575,-26.4772103,12.959531856953982,-0.7660430508333329,3.3e-06,5.034221667015797e-07,0.0,123,4,76.3939617546569,596.21,mp-1215299,ZrInPt2,https://materialsproject.org/materials/mp-1215299,32.08746131057942,41.89590519703892,-8.604250342815693,-0.5045126942092143
-6.8808034325,-27.52321373,11.527042086880188,-0.9245062924999994,0.0005543,8.254085739189729e-05,0.0,225,4,78.2624303592947,543.278,mp-1183831,DyLuRh2,https://materialsproject.org/materials/mp-1183831,17.436227652211887,51.2865429366502,-8.604250342815693,-0.5045126942092143
-9.164450405,-73.31560324,8.947393731891061,-0.42311755937500095,7.165841400000001,0.5149780111189952,0.0,25,8,162.1645546457964,873.7826,mp-1224942,Gd3ErNi4,https://materialsproject.org/materials/mp-1224942,2.187543419364609,58.73799353389549,-8.604250342815693,-0.5045126942092143
-7.4252565750000015,-74.25256575,12.20840690981427,-0.04622382566666658,3.71695855,0.2248281742833076,0.0,127,10,192.67013948187233,1416.52524,mp-647194,U2InNi2,https://materialsproject.org/materials/mp-647194,28.12271227548662,71.0534479822425,-8.604250342815693,-0.5045126942092143
-7.213077608000001,-36.06538804,7.512862456173545,0.1110637110479999,0.7044521,0.18540497273102105,0.0,164,5,44.279990345653154,200.338245,mp-1245787,Mn(NiN)2,https://materialsproject.org/materials/mp-1245787,1.6877510138106149,16.89805425265338,-8.604250342815693,-0.5045126942092143
-9.43868129,-37.75472516,10.520025420533171,-0.7339805137499997,0.0002721,4.720482857349334e-05,0.0,225,4,67.17683593907013,425.585912,mp-865030,HfScRu2,https://materialsproject.org/materials/mp-865030,39.99928068074947,59.65752948461449,-8.604250342815693,-0.5045126942092143
-8.201675872000001,-41.00837936,9.537462772670423,-0.7483034093333331,3e-06,4.88881146799106e-07,0.0,221,5,71.51471179976994,410.7515,mp-1068661,ZrBRh3,https://materialsproject.org/materials/mp-1068661,21.74913435740933,44.055656352222684,-8.604250342815693,-0.5045126942092143
-4.745663235,-18.98265294,6.922831023694808,0.007245721249999448,1.07e-05,8.915859825221685e-07,0.0,221,4,139.86143289695354,583.086,mp-974066,Nd3Sm,https://materialsproject.org/materials/mp-974066,-52.95342461140075,67.94801336476687,-8.604250342815693,-0.5045126942092143
-6.323296442999999,-63.23296443,6.09543868739187,-0.5885331989999998,0.4071296,0.020607457712350084,0.0,194,10,230.24260418027225,845.1651199999999,mp-1205726,Y2Co2I,https://materialsproject.org/materials/mp-1205726,-26.981805191246533,66.28211029045706,-8.604250342815693,-0.5045126942092143
-9.2492434185,-369.96973674,7.854111633257349,-0.07012686212499801,2.575e-06,8.436746832198697e-08,0.0,62,40,355.6965425916487,1682.3936600000004,mp-21256,Mn7C3,https://materialsproject.org/materials/mp-21256,58.88179234172666,69.14814984005125,-8.604250342815693,-0.5045126942092143
-7.8800440372222225,-141.84079267,11.391714526147972,-0.7397952722222227,4.883333333333334e-06,1.6180554356880107e-07,0.0,190,18,351.72270193862437,2412.906,mp-607139,ZrSnIr,https://materialsproject.org/materials/mp-607139,32.11913761965783,53.96400077084033,-8.604250342815693,-0.5045126942092143
-6.775667228333332,-81.30800674,7.085255602984335,-0.6762905488888885,0.0,0.0,0.0,62,12,167.99352167804852,716.8016,mp-16356,TiNiGe,https://materialsproject.org/materials/mp-16356,36.97942013713206,69.06072627656303,-8.604250342815693,-0.5045126942092143
-5.588597120833334,-134.1263309,8.790478851247503,-0.7956080799999997,0.28878145,0.006374108119602109,0.0,62,24,527.9919418159778,2795.05744,mp-1190282,Ho3NiGe2,https://materialsproject.org/materials/mp-1190282,1.6861387581634888,75.71257438379462,-8.604250342815693,-0.5045126942092143
-3.90025407,-15.60101628,0.6611960369771976,1.4613494937500002,1.0002386,0.01239774681738675,0.0,71,4,940.2390292457601,374.38585,mp-1093911,YGePd2,https://materialsproject.org/materials/mp-1093911,-68.25379025851674,42.458545363472986,-8.604250342815693,-0.5045126942092143
-5.9786438275,-23.91457531,9.024775580783595,-0.6731339637499998,9.000000000000001e-07,1.3544835483636028e-07,0.0,225,4,77.43658686718952,420.856,mp-861869,CaLuRh2,https://materialsproject.org/materials/mp-861869,13.504435716423288,46.26838990424478,-8.604250342815693,-0.5045126942092143
-7.2043444815,-144.08688963,11.505571573762015,-0.2839348285,5e-08,1.121296370598916e-09,0.0,186,20,519.6692452654122,3600.69324,mp-30809,Th7Ni3,https://materialsproject.org/materials/mp-30809,-29.89306855979311,69.31111256157119,-8.604250342815693,-0.5045126942092143
-7.145298975862068,-207.21367030000002,6.680360847476777,-0.4801230571551714,1.5469097,0.02932030311776803,0.0,1,29,614.8567348942614,2473.573195,mp-675208,Co(Mo3Se4)4,https://materialsproject.org/materials/mp-675208,63.038818563729954,32.875648402142666,-8.604250342815693,-0.5045126942092143
-7.290868613846153,-189.56258396,6.665057193342862,-1.969192882548077,1.9621511000000003,0.05943159125659282,0.0,8,26,384.7623045161622,1544.3556,mp-675198,BaW6O19,https://materialsproject.org/materials/mp-675198,-18.015186831171032,0.5353632789624934,-8.604250342815693,-0.5045126942092143
-7.2087886025,-28.83515441,10.451990454331824,-0.2446479981250009,6.26e-05,8.967514140137723e-06,0.0,225,4,81.35414601654948,512.07032,mp-1186586,PmHoRu2,https://materialsproject.org/materials/mp-1186586,19.715824922527197,53.60228517948978,-8.604250342815693,-0.5045126942092143
-8.50666319,-68.05330552,5.618498237366429,-0.4651828721874995,0.00186855,0.00020148922179260125,0.0,164,8,108.07626600087471,365.6802372,mp-1220371,NbAlVC,https://materialsproject.org/materials/mp-1220371,19.675112847287792,42.42334399090704,-8.604250342815693,-0.5045126942092143
-7.332780716,-109.99171074,6.8946927188249205,-0.6956181959166666,0.0168084,0.0006274641954330853,0.0,148,15,312.1870279592428,1296.2258499999996,mp-1103848,Y(Mo3Se4)2,https://materialsproject.org/materials/mp-1103848,63.0350993211716,33.052860832327994,-8.604250342815693,-0.5045126942092143
-5.75409831,-23.01639324,14.78117347339782,-1.20162159625,4.2000000000000004e-06,5.964663402334567e-07,0.0,225,4,82.06175058527668,730.467,mp-980197,YbErPt2,https://materialsproject.org/materials/mp-980197,23.51115911293829,53.691667367972926,-8.604250342815693,-0.5045126942092143
-5.1077114675,-40.86169174,13.461087568205476,-0.29024652875,7e-07,5.010419081812285e-08,0.0,187,8,162.81762478521188,1319.874,mp-1224042,In3Pt5,https://materialsproject.org/materials/mp-1224042,42.88998331104241,41.243854410290325,-8.604250342815693,-0.5045126942092143
-7.837448561666666,-141.07407411,11.64392989540839,-0.7339275033333329,0.0,0.0,0.0,190,18,342.3539005318363,2400.633,mp-2960,HfSnRh,https://materialsproject.org/materials/mp-2960,32.1186689331083,53.893795446269046,-8.604250342815693,-0.5045126942092143
-4.7401031583333335,-56.881237899999995,11.757432402798901,-0.6634437683333338,8.65e-06,3.336392471584475e-07,0.0,62,12,302.1456892173333,2139.339956,mp-1095690,Tm2Au,https://materialsproject.org/materials/mp-1095690,-31.49526476785201,41.715392907756225,-8.604250342815693,-0.5045126942092143
-4.060627623333334,-12.18188287,5.856076895867005,-0.4998057341666667,1.9e-06,2.893324123371816e-07,0.0,216,3,76.53039246103812,269.893,mp-12719,LiNdSn,https://materialsproject.org/materials/mp-12719,-0.14727328630288342,45.33624035976431,-8.604250342815693,-0.5045126942092143
-7.495119146499999,-149.90238293,6.107014210665027,-2.8055545519419995,7.00000105,0.3650980546383184,0.0,31,20,223.44261934099038,821.76162,mp-39739,CaHoMn2O6,https://materialsproject.org/materials/mp-39739,-32.275658211792404,6.021466026202952,-8.604250342815693,-0.5045126942092143
-7.134258315416666,-171.22219957,7.689263046297655,-0.27420565559027804,15.435108600000001,0.5961897084279763,0.0,191,24,301.718987854055,1397.13467,mp-1220135,NdY3(Co4B)4,https://materialsproject.org/materials/mp-1220135,42.47357436215993,83.20384244457827,-8.604250342815693,-0.5045126942092143
-8.657913443333333,-51.94748066,7.20957972986609,0.057131663750000186,3.24454255,0.6635743757099414,0.0,58,6,56.982473132076244,247.4014,mp-1871,Fe2C,https://materialsproject.org/materials/mp-1871,42.52798802379286,87.73050577737854,-8.604250342815693,-0.5045126942092143
-10.902765747777776,-98.12489173,15.469247130168698,0.38780906142889016,3.713333333333333e-05,3.520733632494558e-06,0.0,164,9,122.9159365802677,1145.0601,mp-27943,W2N,https://materialsproject.org/materials/mp-27943,56.9519181360385,47.565712374214286,-8.604250342815693,-0.5045126942092143
-6.90423971,-41.42543826,9.84316085629176,-0.1882773783333332,2.88997865,0.35687972089109216,0.0,74,6,94.37352812964298,559.41703,mp-1223978,HoFeCo,https://materialsproject.org/materials/mp-1223978,42.73962117433658,74.2975976361406,-8.604250342815693,-0.5045126942092143
-9.73714139,-77.89713112,17.01652990093529,-0.027143127499998698,0.64555415,0.052105275902703266,0.0,223,8,144.3871037616826,1479.620418,mp-569249,Ta3Au,https://materialsproject.org/materials/mp-569249,8.723414401915518,73.56413966305324,-8.604250342815693,-0.5045126942092143
-5.97661444,-23.90645776,9.431229552577477,-0.7602089412499993,5.25e-05,8.744911426734906e-06,0.0,225,4,69.96507691191407,397.375,mp-1184217,ErMgRh2,https://materialsproject.org/materials/mp-1184217,38.494198305193336,55.943789249850546,-8.604250342815693,-0.5045126942092143
-7.619617801944445,-274.30624087,7.3664818337176525,-0.537052456388889,0.002878875,5.567819251591045e-05,0.0,62,36,602.5805473573062,2673.167296,mp-1199518,Sc2Ge4Mo3,https://materialsproject.org/materials/mp-1199518,51.84287394511913,58.8783897688449,-8.604250342815693,-0.5045126942092143