energy_per_atom,energy,density,formation_energy_per_atom,total_magnetization_uB,total_magnetization_T,band_gap,sgr,num_sites,cell_volume,weight,mp_id,formula,URL,tsne_cry_lin1_0,tsne_cry_lin1_1,tsne_cry_lin2_0,tsne_cry_lin2_1
-5.057690285555554,-91.03842514,6.228701547454878,-0.1406452819444447,0.8191941999999999,0.03706164987528373,0.0,160,18,257.5962565139885,966.2466,mp-1227887,Ca3MgNi14,https://materialsproject.org/materials/mp-1227887,31.565068937219838,78.9960599167152,-8.604250342815693,-0.5045126942092143
-5.6963662416666665,-34.17819745,8.852296469769938,-0.35990207333333285,1.0669191999999998,0.13949734756843193,0.0,191,6,89.13392032624823,475.170935,mp-568687,TbGa2Co3,https://materialsproject.org/materials/mp-568687,39.93561903238713,77.46228498224446,-8.604250342815693,-0.5045126942092143
-5.11832606,-20.47330424,7.781612472133311,-0.6959326312499998,1.9e-06,4.186332339049242e-07,0.0,225,4,52.89289352715903,247.8665,mp-864997,LiSiPd2,https://materialsproject.org/materials/mp-864997,30.32193460171055,44.99457926329195,-8.604250342815693,-0.5045126942092143
-8.8363336775,-35.34533471,8.35527220430085,0.036824267499998335,4.7306524,1.0651235581572105,0.0,221,4,51.76050145905013,260.44138,mp-1065741,NbFe3,https://materialsproject.org/materials/mp-1065741,50.53989289963321,76.76434334459795,-8.604250342815693,-0.5045126942092143
-7.4238317925,-29.69532717,8.399002440744361,-0.02707323000000006,1.0261367000000001,0.2591453861349879,0.0,225,4,46.146542470454904,233.4091,mp-30570,CrGaFe2,https://materialsproject.org/materials/mp-30570,47.558567322744636,69.76547346369134,-8.604250342815693,-0.5045126942092143
-6.7468511033333325,-20.24055331,10.169742684448114,-0.3383592349999998,3.6620321000000002,0.7088422025689245,0.0,216,3,60.207418714524174,368.732045,mp-21418,MnSnPt,https://materialsproject.org/materials/mp-21418,47.46372733941421,43.92963517947175,-8.604250342815693,-0.5045126942092143
-6.891517778333332,-82.69821334,7.95326031828245,-0.5372695466666665,2.300104325,0.12738941635427298,0.0,62,12,210.4222277983265,1007.83102,mp-1207683,TmMnSi,https://materialsproject.org/materials/mp-1207683,24.806115316614914,69.01665324499679,-8.604250342815693,-0.5045126942092143
-5.87683542,-23.50734168,11.411417681235795,0.4302215687500004,3.4121229,0.7083581782641482,0.0,139,4,56.13699750877407,385.779985,mp-985280,Co3Bi,https://materialsproject.org/materials/mp-985280,48.40592877272692,77.86206492105181,-8.604250342815693,-0.5045126942092143
-9.101033201666667,-109.21239842,7.080158210253298,-0.7144874090476184,1.4471018999999998,0.1022123196486594,0.0,62,12,164.99595482290175,703.504968,mp-20144,NbCrP,https://materialsproject.org/materials/mp-20144,46.10474070178964,62.05069585068101,-8.604250342815693,-0.5045126942092143
-7.32583947,-29.30335788,6.9765465907171285,-0.08511411708333316,0.8427077,0.15317121332526068,0.0,216,4,64.1175969487156,269.382045,mp-999083,Ti2MnSn,https://materialsproject.org/materials/mp-999083,35.2698934777809,57.76504602530849,-8.604250342815693,-0.5045126942092143
-8.736615718,-43.68307859,8.464913246958346,0.2037175899999994,7.4408281,1.3843503010365636,0.0,139,5,62.64013709098903,319.32,mp-1225226,Fe4Mo,https://materialsproject.org/materials/mp-1225226,53.0108784368957,72.43091626091743,-8.604250342815693,-0.5045126942092143
-7.392751674137932,-214.38979855,8.571928532360804,-0.17197122517241376,17.8172433,0.7375302226463742,0.0,216,29,281.53871002275463,1453.34114,mp-1221854,MnCo21B6Mo,https://materialsproject.org/materials/mp-1221854,39.47106178768268,89.34382117939579,-8.604250342815693,-0.5045126942092143
-7.406404575,-14.81280915,7.711691556765847,0.0623482950000005,4.0935459000000005,1.9497508701358748,0.0,65,2,24.467971677182323,113.631445,mp-1221603,MnNi,https://materialsproject.org/materials/mp-1221603,34.83569710108248,73.30232064631845,-8.604250342815693,-0.5045126942092143
-5.7327718,-57.327718000000004,8.253117747257695,-0.6106885739999995,1.02736065,0.056992230037367815,0.0012999999999996348,12,10,210.07999778265915,1044.12779,mp-22629,Tb2CoGe2,https://materialsproject.org/materials/mp-22629,19.946497295760807,70.52647703978919,-8.604250342815693,-0.5045126942092143
-7.774038507857143,-108.83653911,6.040592705962872,-0.4851106700000005,4.02534535,0.2629402609915754,0.0,136,14,178.41176267154088,649.013824,mp-1104929,Sc(Fe2Si)2,https://materialsproject.org/materials/mp-1104929,48.210336626169656,67.56909904905153,-8.604250342815693,-0.5045126942092143
-6.423842978000001,-32.11921489,5.985437301383202,-0.4685734220000008,6.5000000000000004e-06,9.64542372881809e-07,0.0,164,5,78.53612568135487,283.08461580000005,mp-1069983,Al3Ru2,https://materialsproject.org/materials/mp-1069983,42.32828345415749,52.67119879374265,-8.604250342815693,-0.5045126942092143
-6.959273245,-208.77819735,5.174540004362525,-0.5167552805555554,3.0,0.08151349214234849,0.0,160,30,428.91297377646345,1336.5704074,mp-1217391,Ti13Al9Co8,https://materialsproject.org/materials/mp-1217391,35.5440441418073,58.7306428747024,-8.604250342815693,-0.5045126942092143
-6.08055989125,-97.28895826,9.230592320017534,-0.9782934525,2.5e-08,1.0126046119496375e-09,0.0,62,16,287.72495787179247,1599.4034,mp-1208310,TbSiPd2,https://materialsproject.org/materials/mp-1208310,27.727766301868357,53.69636256299427,-8.604250342815693,-0.5045126942092143
-7.938934367500001,-158.77868735,7.53329823272974,-0.2026700824999992,3.2184935,0.16908595270757792,0.0,198,20,221.83115225385205,1006.37214,mp-1210618,Mn3SiNi,https://materialsproject.org/materials/mp-1210618,51.166376463603385,46.37525683432047,-8.604250342815693,-0.5045126942092143
-5.145937629166666,-61.75125155,9.756394916992088,-0.7466621191666665,0.0,0.0,0.0,62,12,226.8731588648633,1332.97928,mp-13380,HoZnRh,https://materialsproject.org/materials/mp-13380,17.20140581878173,59.116897730203526,-8.604250342815693,-0.5045126942092143
-7.224905937058824,-122.82340093,13.417641374235007,-0.8547221594117644,2.2100000000000002e-05,8.610121649170973e-07,0.0,229,17,299.1303049688827,2417.0604000000008,mp-1188834,Tb4Ge6Ir7,https://materialsproject.org/materials/mp-1188834,41.61464661599971,54.71890619964381,-8.604250342815693,-0.5045126942092143
-5.3602085375,-42.881668299999994,8.92425846277687,-0.4597644600000006,0.0,0.0,0.0,62,8,133.2709588107922,716.24,mp-1424,GePd,https://materialsproject.org/materials/mp-1424,48.805429955214464,58.76627584384465,-8.604250342815693,-0.5045126942092143
-7.1340103884615385,-92.74213505,8.067741976547817,-0.2005671442307689,9.5e-06,5.893232378804542e-07,0.0,191,13,187.86568766150643,912.7469199999999,mp-9441,Ho(CrGe)6,https://materialsproject.org/materials/mp-9441,47.16475347653261,64.37089959233515,-8.604250342815693,-0.5045126942092143
-8.1251375525,-32.50055021,10.871053016764169,-1.026085845,5.91e-05,1.0963447976926069e-05,0.0,225,4,62.82286644747603,411.28253860000007,mp-864671,HfAlRh2,https://materialsproject.org/materials/mp-864671,33.789493140957106,57.294265680233146,-8.604250342815693,-0.5045126942092143
-5.6870969175,-68.24516301,10.055209341766123,-0.4720100491666663,0.00823045,0.00041180174107011586,0.0,62,12,232.9232439815797,1410.4407800000001,mp-1102047,LuCoSn,https://materialsproject.org/materials/mp-1102047,34.52836543036584,68.8464679243276,-8.604250342815693,-0.5045126942092143
-5.257519749166667,-63.09023699,7.241434011653887,-0.24588893479166765,2.1904907000000002,0.15553541360246653,0.00480000000000036,166,12,164.13059836480087,715.75607,mp-5134,LaMg2Ni9,https://materialsproject.org/materials/mp-5134,31.71638580101256,73.05794247604533,-8.604250342815693,-0.5045126942092143
-6.03890138,-36.23340828,9.540242365059433,-0.33674994833333355,6.4e-06,7.9605678104796e-07,0.0,166,6,93.69433980098015,538.2991236,mp-1225069,Er2AlCo3,https://materialsproject.org/materials/mp-1225069,41.78551545546243,74.32352232843172,-8.604250342815693,-0.5045126942092143
-7.439802100344827,-215.75426091,7.9689750787153,-0.3376493962068972,15.1157763,0.6094580468728104,0.0,225,29,289.0440728309657,1387.1309,mp-1193476,Ti3(Co10B3)2,https://materialsproject.org/materials/mp-1193476,39.47491765147238,89.378106152285,-8.604250342815693,-0.5045126942092143
-5.759162996666666,-34.55497798,8.573830839334518,-0.5359451016666661,1.8e-05,2.514847308026461e-06,0.0,65,6,83.41387774778859,430.6893486000001,mp-1216573,TmAlNi4,https://materialsproject.org/materials/mp-1216573,25.39588257311728,79.50295934491639,-8.604250342815693,-0.5045126942092143
-9.8418149525,-39.36725981,11.450242292959215,0.1898856737500001,8.400000000000001e-06,1.9497201505601643e-06,0.0,65,4,50.20933084236522,346.2183,mp-1226294,Cr3Os,https://materialsproject.org/materials/mp-1226294,55.00695374612243,64.77594488020769,-8.604250342815693,-0.5045126942092143
-6.717461419166668,-322.43814812,6.372293429999753,-0.5331417379166664,1.5477440833333331,0.023527060697504317,0.0,55,48,766.6707724533587,2942.087484,mp-1200195,ScMnGe2,https://materialsproject.org/materials/mp-1200195,24.597102441167845,68.13257455801919,-8.604250342815693,-0.5045126942092143
-7.2729564425,-29.09182577,10.532872007547619,-0.7579976412500002,4.5e-06,9.58373560967745e-07,0.0,225,4,54.72113757349746,347.09857719999997,mp-1183136,Al2OsRh,https://materialsproject.org/materials/mp-1183136,36.71736143390084,52.97704946379015,-8.604250342815693,-0.5045126942092143
-4.40493427,-105.71842248,4.342740083028528,-0.15013975333333346,3.17245995,0.0985683072019515,0.0,227,24,375.0906837620874,980.9593800000001,mp-1191089,Mg3MnNi2,https://materialsproject.org/materials/mp-1191089,33.6991692427035,69.79735581037241,-8.604250342815693,-0.5045126942092143
-8.0981379525,-129.57020724,7.710903421733211,-0.27224159625000066,12.000321099999999,0.7886985216322162,0.0,166,16,177.32063083050946,823.4086799999999,mp-1222120,Mn4Fe8Si3Ge,https://materialsproject.org/materials/mp-1222120,49.940234003458364,65.86283781380789,-8.604250342815693,-0.5045126942092143
-7.285520348333333,-43.71312209,10.158150721621313,-0.4884351850000002,1.75e-06,2.065899810161735e-07,0.0,74,6,98.72024408764919,603.90939,mp-1226669,CeCoRh,https://materialsproject.org/materials/mp-1226669,41.691680996767,74.08014396918588,-8.604250342815693,-0.5045126942092143
-6.303016828333334,-37.81810097,8.318405834686951,-0.38389461166666666,0.000101,1.2713447436238535e-05,0.0,216,6,92.58389968038286,463.79545,mp-1226560,CeYNi4,https://materialsproject.org/materials/mp-1226560,28.23629600698693,82.11650390147194,-8.604250342815693,-0.5045126942092143
-7.651175015,-45.90705009,6.7307790961024425,-0.07229909833333299,3.555019,0.41408234917114656,0.0,74,6,100.05358058997236,405.55418,mp-1215953,YMnCo,https://materialsproject.org/materials/mp-1215953,42.34098102959585,73.3505439188995,-8.604250342815693,-0.5045126942092143
-5.17630564,-41.41044512,8.275140996400198,-0.40793892270833343,1.15e-06,8.870905937312658e-08,0.0,51,8,151.08011045491585,752.8936,mp-1079595,NdInNi2,https://materialsproject.org/materials/mp-1079595,4.754707950727232,57.861144564177934,-8.604250342815693,-0.5045126942092143
-4.891825904782608,-112.51199581,7.588838967525315,0.4700906091847836,51.160786,1.4348045552412014,0.0,229,23,415.54866248583534,1899.10132,mp-17849,Ho6Fe16O,https://materialsproject.org/materials/mp-17849,55.05528808176396,79.65250365163556,-8.604250342815693,-0.5045126942092143
-6.369679317692308,-82.80583113,5.994448191577594,-0.3830896188461544,10.2682854,0.6526644439051295,0.0,71,13,183.3518958666051,661.8895516,mp-1224088,Ho(AlFe)6,https://materialsproject.org/materials/mp-1224088,23.73106550815036,89.51686518844532,-8.604250342815693,-0.5045126942092143
-6.7451570075,-26.98062803,9.271396707719118,-0.7791995029166667,8e-07,1.6313771588157338e-07,0.0,225,4,57.14957922308895,319.087,mp-861961,TiZnRh2,https://materialsproject.org/materials/mp-861961,37.26208764122575,51.85347306639555,-8.604250342815693,-0.5045126942092143
-7.4927905675,-29.97116227,11.839158330224109,-0.3177692399999996,1.0075425999999998,0.17762070544932826,0.0,225,4,66.10697042222344,471.32339,mp-1185511,LuHfCo2,https://materialsproject.org/materials/mp-1185511,31.122874897740346,59.238679859891775,-8.604250342815693,-0.5045126942092143
-6.09532273,-54.85790457,8.261101756438999,-0.3326488555555558,9.070599699999999,0.5985121685567004,0.0,189,9,176.62022926731206,878.6771349999998,mp-1225846,Er3Mn3Ga2Ge,https://materialsproject.org/materials/mp-1225846,24.619690710399645,70.07445876580404,-8.604250342815693,-0.5045126942092143
-7.261275266,-290.45101064,7.457518835159719,-0.1264892177500002,26.612969,0.4065170104948114,0.0,140,40,762.9428941696938,3426.3940000000002,mp-568431,Nd6Fe13Sb,https://materialsproject.org/materials/mp-568431,53.78940833187835,81.06595895347114,-8.604250342815693,-0.5045126942092143
-4.5917039525,-18.36681581,8.647024134803866,-0.2286824549999995,1.2e-06,2.850982092985552e-07,0.0,225,4,49.05284309389208,255.4358,mp-16358,ZnNi2Ge,https://materialsproject.org/materials/mp-16358,35.057814767263736,75.45423575416334,-8.604250342815693,-0.5045126942092143
-6.808706585,-27.23482634,7.041496909641096,-0.2734367387500001,3.9868597,0.98311460336246,0.0,123,4,47.26114435081546,200.410345,mp-1221579,MnSiNi2,https://materialsproject.org/materials/mp-1221579,35.41831084922215,72.82343421723036,-8.604250342815693,-0.5045126942092143
-7.409039976190478,-155.5898395,7.535553358155696,-0.08724179296381099,29.7137685,1.3268525647098457,0.0,12,21,260.98316568545755,1184.34588,mp-1220506,Nd2Fe15(SiH)2,https://materialsproject.org/materials/mp-1220506,61.59120050471021,74.83257706458654,-8.604250342815693,-0.5045126942092143
-7.494831904137932,-217.35012522,8.211510495087536,-0.27039527034482824,12.1785371,0.5026328338828717,0.0,225,29,282.37204303190236,1396.3544,mp-1193521,V3(Co10B3)2,https://materialsproject.org/materials/mp-1193521,39.43285091984186,89.36184240771252,-8.604250342815693,-0.5045126942092143
-5.72461069,-17.17383207,6.464354016127381,0.17031640277777765,0.0,0.0,0.0,216,3,57.866616342975476,225.2704,mp-22782,TiNiSn,https://materialsproject.org/materials/mp-22782,30.924495248103142,52.986891913980706,-8.604250342815693,-0.5045126942092143
-5.379925303333334,-64.55910364,7.417769045573686,-0.2843168475000013,1.5530648,0.11276966660479006,0.006199999999999761,166,12,160.4998783814234,716.9666,mp-13505,CeMg2Ni9,https://materialsproject.org/materials/mp-13505,31.713127645525713,73.04274685999869,-8.604250342815693,-0.5045126942092143
-7.579228922413793,-219.79763875,9.890774713312263,-0.26999329655172466,17.2823795,0.6745330096455058,0.0,225,29,298.591717880207,1778.5209149999996,mp-541853,U2(Co7B2)3,https://materialsproject.org/materials/mp-541853,39.49222605078678,89.40540667479998,-8.604250342815693,-0.5045126942092143
-5.140123586666667,-61.68148304,10.228635194116348,-0.7582457316666668,2.275e-06,1.1893701568776018e-07,0.0,62,12,222.9162822377908,1373.1260000000002,mp-1210650,LuZnRh,https://materialsproject.org/materials/mp-1210650,17.409710301816446,59.30523729632082,-8.604250342815693,-0.5045126942092143
-7.849632239999999,-47.09779344,7.319025651745412,-0.1604741366666668,0.0780217,0.011732688463986445,0.0,216,6,77.49885699737361,341.58553860000006,mp-1215319,ZrAlFe4,https://materialsproject.org/materials/mp-1215319,54.74195834431762,62.429514842926324,-8.604250342815693,-0.5045126942092143
-7.409708043333333,-22.22912413,8.76771753020646,-0.9499502372222216,0.0,0.0,0.9930000000000004,216,3,51.33225243222017,271.0365,mp-961706,TiSiPt,https://materialsproject.org/materials/mp-961706,30.410715725806245,53.65620758441343,-8.604250342815693,-0.5045126942092143
-8.192467706666667,-49.15480624,15.396640671370466,-0.6948845891666671,5e-08,5.109809678175228e-09,0.0,227,6,114.03619221216759,1057.3519999999999,mp-890,NdIr2,https://materialsproject.org/materials/mp-890,29.874332165392442,63.900957528651105,-8.604250342815693,-0.5045126942092143
-7.831630255,-31.32652102,14.131652216698965,-0.6677678091666674,9e-06,1.778030913676537e-06,0.0,225,4,58.99030334413996,502.024,mp-866142,TiGaIr2,https://materialsproject.org/materials/mp-866142,41.99843010606296,52.43970283782648,-8.604250342815693,-0.5045126942092143
-6.4975992175,-25.99039687,6.7281881364665335,-0.2622692175000001,3.2969739000000002,0.7928282796925055,0.0,225,4,48.46339159211246,196.3644386,mp-10885,AlCrNi2,https://materialsproject.org/materials/mp-10885,34.18026699467069,77.61624025170602,-8.604250342815693,-0.5045126942092143
-6.47502172,-187.77562988,9.229773236722421,-0.5463158060344838,16.7059416,0.3878447794299074,0.0,71,29,501.98464906289877,2790.1809999999996,mp-1194174,Er9(FeGe)10,https://materialsproject.org/materials/mp-1194174,18.070085863774466,74.31300498724859,-8.604250342815693,-0.5045126942092143
-7.279298541818181,-80.07228396,9.605910486919802,-0.8932372935064928,4.6e-06,3.3844598356260146e-07,0.0,187,11,158.39661440053317,916.2950480000001,mp-1095635,Lu(P2Rh3)2,https://materialsproject.org/materials/mp-1095635,33.52642468755427,51.767301919074136,-8.604250342815693,-0.5045126942092143
-6.2666181466666675,-18.79985444,10.623090352697833,-0.18436920999999984,3.3246263999999996,0.7752079867031075,0.0,216,3,49.98066593062699,319.745045,mp-20269,MnGaPt,https://materialsproject.org/materials/mp-20269,35.999701301175854,51.29357593620093,-8.604250342815693,-0.5045126942092143
-5.2586743983333335,-31.55204639,6.747575083828468,-0.10974486583333368,1.9755506999999999,0.2804851080291439,0.0,191,6,82.08348735892035,333.545,mp-774,CaNi5,https://materialsproject.org/materials/mp-774,31.39980019079383,79.2470200346385,-8.604250342815693,-0.5045126942092143
-7.4862218006896555,-217.10043222,8.679605180643033,-0.20671397931034335,18.288777300000003,0.7455257663765329,0.0,225,29,285.89031375942045,1494.3430949999995,mp-542728,Co21(B3Mo)2,https://materialsproject.org/materials/mp-542728,39.463104423535306,89.36993514426581,-8.604250342815693,-0.5045126942092143
-6.496650635,-51.97320508,9.75553217613544,-0.5118085724999997,0.0,0.0,0.18489999999999984,198,8,119.52199051094513,702.182,mp-20866,GeRh,https://materialsproject.org/materials/mp-20866,34.35604144803819,53.1981490725841,-8.604250342815693,-0.5045126942092143
-7.182690895,-43.09614537,12.039188884113056,-0.776109341666667,4.5e-07,4.9927087810809384e-08,0.0,227,6,105.03975652504302,761.556,mp-1728,LuRh2,https://materialsproject.org/materials/mp-1728,30.721789247925035,65.35229728173573,-8.604250342815693,-0.5045126942092143
-5.49733236,-10.99466472,16.045000887838107,-0.3009999849999998,0.0056883,0.0017536867782934294,0.0,221,2,37.80140072120636,365.25699999999995,mp-568705,YbIr,https://materialsproject.org/materials/mp-568705,25.553702968522444,54.830760412232934,-8.604250342815693,-0.5045126942092143
-7.50531523,-15.01063046,7.60840051759081,-0.03656235999999957,4.4112541,2.0729329222957635,0.0,221,2,24.800146911017386,113.631445,mp-11500,MnNi,https://materialsproject.org/materials/mp-11500,34.76143903586624,73.2708878236231,-8.604250342815693,-0.5045126942092143
-5.222306614444445,-94.00151906,8.995188500358289,-0.5617202919444451,3.986666666666666e-05,1.737694105088749e-06,0.0,189,18,267.3708302507309,1448.3556,mp-1225816,ErGa2Ni3,https://materialsproject.org/materials/mp-1225816,24.3660366882142,79.90742011488578,-8.604250342815693,-0.5045126942092143
-8.4167166625,-33.66686665,9.97350631606432,-0.2188445862500004,2.0086784,0.4302653056882093,0.0,225,4,54.40659023947665,326.7761,mp-1206594,CrGeRu2,https://materialsproject.org/materials/mp-1206594,43.705187475635434,53.81797180275645,-8.604250342815693,-0.5045126942092143
-7.17824074,-28.71296296,6.818545553567513,-0.4164164399999999,2.0155382,0.4926311595456426,0.0,225,4,47.68113481906554,195.78942859999998,mp-4955,AlVCo2,https://materialsproject.org/materials/mp-4955,45.017489879441754,47.381396132383735,-8.604250342815693,-0.5045126942092143