energy_per_atom,energy,density,formation_energy_per_atom,total_magnetization_uB,total_magnetization_T,band_gap,sgr,num_sites,cell_volume,weight,mp_id,formula,URL,tsne_cry_lin1_0,tsne_cry_lin1_1,tsne_cry_lin2_0,tsne_cry_lin2_1
-6.957220430972222,-1001.83974206,4.1580263259175165,-2.5289112434077783,32.00228005,0.19094203368550006,0.031300000000000334,1,144,1953.2453770058326,4890.96944,mp-1247665,Sr3Ca5Mn8O20,https://materialsproject.org/materials/mp-1247665,-30.608505457995328,-10.783875843500097,-8.604250342815693,-0.5045126942092143
-7.034044475,-28.136177899999996,6.141147192246133,-0.25333366499999954,1.47e-05,2.51959086725922e-06,0.0,225,4,67.99308347350122,251.45782400000002,mp-862376,Sc2CuTc,https://materialsproject.org/materials/mp-862376,-10.527140854155892,55.81446667830389,-8.604250342815693,-0.5045126942092143
-6.016476890714286,-84.23067647,4.720369859042021,-0.8293734426866664,0.00019655,7.0043847374974856e-06,0.1974,176,14,327.0246448319731,929.6242,mp-1246468,Ba3BN3,https://materialsproject.org/materials/mp-1246468,27.337827342592806,-7.240133986561196,2.001832811954556,-4.609580697785346
-7.6702783010000015,-76.70278301,7.354790359897369,-3.1278147717500007,2.0,0.1773949335321324,0.0,148,10,131.39117944931314,581.95234,mvc-15459,La2MgWO6,https://materialsproject.org/materials/mvc-15459,-15.136513653295234,44.846257597561866,-8.604250342815693,-0.5045126942092143
-7.127594542000001,-35.63797271,7.3447069692150535,-2.5592282527500005,2e-07,4.193588350629468e-08,0.4381000000000004,221,5,55.58039463177347,245.836865,mp-573180,LaCoO3,https://materialsproject.org/materials/mp-573180,-40.11318220469328,-3.8688464146940422,-4.4782643480920505,-0.6156001143394251
-3.402324026666667,-10.20697208,8.13688597045998,-0.4398726816666662,2e-06,3.3593959071413625e-07,0.0,216,3,69.3819073112855,339.981569,mp-5549,MgSnAu,https://materialsproject.org/materials/mp-5549,2.795058534823063,39.63769581505943,-8.604250342815693,-0.5045126942092143
-7.125356204444445,-256.51282336,5.0094273127485405,-0.8880832543911118,0.2126907,0.004420677232233197,0.0,52,36,560.7084761238924,1691.516,mp-1246148,Sr3(CrN2)2,https://materialsproject.org/materials/mp-1246148,0.22450838020466132,10.28384615159626,-8.604250342815693,-0.5045126942092143
-7.113614429999998,-85.36337316,10.066667243233882,-0.8927971499999986,1.2338078000000001,0.06048065920120469,0.0,26,12,237.74337462583355,1441.269,mp-1226896,Ce2Ge2IrRh,https://materialsproject.org/materials/mp-1226896,12.847221908078618,63.501986570697795,-8.604250342815693,-0.5045126942092143
-6.0669862963888885,-218.41150667,10.128358618278698,-0.584017640833333,1.025e-06,1.938084621564492e-08,0.0,15,36,616.3516421811818,3759.4,mp-642651,Yb2Ge4Ru3,https://materialsproject.org/materials/mp-642651,6.552067288944135,48.481321482924145,-8.604250342815693,-0.5045126942092143
-5.122871978,-179.30051923,6.481309553999878,-1.4573713048571433,2.0988167,0.045285301586126835,0.0,1,35,540.1254912923719,2108.1832,mvc-11885,Ba4CaTl4(Cu3O10)2,https://materialsproject.org/materials/mvc-11885,-52.00790138311788,-2.078573432156908,-8.604250342815693,-0.5045126942092143
-6.686366688181818,-73.55003357,9.213002595925131,-0.508082945454544,3.6000000000000003e-06,2.5806399711621325e-07,0.0,71,11,162.57453054298608,901.996,mp-10245,Hf3(CuSi)4,https://materialsproject.org/materials/mp-10245,22.12631813260252,39.70691589482047,-7.992256421769617,-2.7402597690985355
-5.573614545000001,-66.88337454,12.472244243780706,-0.7336108883333333,1.5e-07,6.7400030130418254e-09,0.0,62,12,259.36334338447364,1948.068,mp-1102313,YbSbIr,https://materialsproject.org/materials/mp-1102313,6.55432623213526,49.36019433036307,-8.604250342815693,-0.5045126942092143
-6.3643554814285705,-89.10097674,2.048404086101453,-0.5012653745021416,0.9996642,0.061149254903090464,0.0,229,14,190.51992303213288,235.02114640000002,mp-1103994,Na5(CN2)3,https://materialsproject.org/materials/mp-1103994,26.960883715873546,-13.78318256141077,8.699461181031957,-2.1559046145716967
-6.005299384166666,-144.12718522,7.23636557903293,-0.15296984333333322,3.1375e-05,8.545263579099669e-07,0.0,227,24,427.8935094914708,1864.692,mp-1192282,Zr3ZnCu2,https://materialsproject.org/materials/mp-1192282,-9.810492164931071,53.18456839530315,-8.604250342815693,-0.5045126942092143
-4.942101855,-59.30522226,9.822757030905834,-0.5215757200000001,0.0003151,1.782795128909815e-05,0.0,62,12,205.97968607189983,1218.4527799999996,mp-1207575,YbCoGe,https://materialsproject.org/materials/mp-1207575,21.74498787696408,68.96015894468636,-8.604250342815693,-0.5045126942092143
-7.002460963181817,-154.05414119,5.397218680592403,-0.6211869969909081,0.0046823,0.00017720891106239123,0.0,2,22,307.9293651623657,1000.857,mp-1246649,Sr3Fe3N5,https://materialsproject.org/materials/mp-1246649,1.3576442890686948,10.148616012566904,-8.604250342815693,-0.5045126942092143
-3.9157136926666665,-58.73570539,4.186058594629674,-0.6430800356666666,4.166666666666667e-06,1.2250686071473635e-07,0.0,148,15,396.37456168328384,999.222,mp-1104661,Ca3Pd2,https://materialsproject.org/materials/mp-1104661,-12.277550420873785,50.21348517725561,-8.604250342815693,-0.5045126942092143
-4.266458526666667,-25.59875116,7.609719293076964,-0.1178309995833331,1e-07,1.3107964258768477e-08,0.0,187,6,88.9082739508066,407.438182,mp-1220198,NdBeCu4,https://materialsproject.org/materials/mp-1220198,3.737657698742851,45.27614202346354,-8.604250342815693,-0.5045126942092143
-5.945489737999999,-29.72744869,5.900038996872215,0.3340622380480006,0.0637143,0.01248658503913532,0.0,115,5,59.46626534084928,211.28878999999998,mvc-13747,Zn(CoN)2,https://materialsproject.org/materials/mvc-13747,3.9739983938476575,13.827749769697828,-8.604250342815693,-0.5045126942092143
-4.693572849090909,-51.62930134,8.945463182906066,-0.4963961022727268,2e-07,1.0259953856623017e-08,0.0,71,11,227.17577360324574,1223.81496,mp-1101850,Ho3(CuSn)4,https://materialsproject.org/materials/mp-1101850,-5.103108058208381,54.576125013186676,-8.604250342815693,-0.5045126942092143
-5.800903916666668,-34.805423499999996,9.087288739714452,-0.2621645888888888,7.0260216,0.8514877137220274,0.07370000000000054,216,6,96.16311486384429,526.252,mp-1077293,GdInCu4,https://materialsproject.org/materials/mp-1077293,2.8494298141576566,41.628570839127406,-6.563832998421553,1.311833222124979
-4.428587393571427,-124.00044702,8.488515507471437,-0.2470224839285713,4.275e-06,1.0964727609027448e-07,0.0,62,28,454.37632998446855,2322.728,mp-1209987,NdCu5Sn,https://materialsproject.org/materials/mp-1209987,2.961245567040358,42.38867292159153,-8.604250342815693,-0.5045126942092143
-3.177055509,-31.77055509,9.250805508364653,-0.3754317896666663,2.25e-06,1.2421969819531807e-07,0.0,127,10,211.0908826797297,1175.98,mp-21500,Yb2InCu2,https://materialsproject.org/materials/mp-21500,-7.902195767389707,53.89171418131281,-8.604250342815693,-0.5045126942092143
-8.490292876666668,-331.12142219,7.86133932665668,-3.3667309830769225,0.0048496,9.732371009506789e-05,0.0,156,39,580.7172010376293,2749.2367600000002,mp-773073,Ba8Ta7O24,https://materialsproject.org/materials/mp-773073,-41.338257657145355,28.50587409621028,-8.604250342815693,-0.5045126942092143
-2.5819472125,-10.32778885,2.5624872959890213,1.0114731466250002,3.3235087,0.3579729668572096,0.0,225,4,108.19919169319695,166.96930784,mp-1185997,Na3Tc,https://materialsproject.org/materials/mp-1185997,-18.134792285636443,21.126865266950624,-6.0521166303167675,-3.336295311750741
-5.47511588875,-43.80092711,5.038795572311125,-1.9360014856250003,0.0,0.0,0.0,141,8,78.99319151973867,239.6996,mp-1023125,MgCuO2,https://materialsproject.org/materials/mp-1023125,-59.015768991967384,-0.7120355345692532,-8.604250342815693,-0.5045126942092143
-3.959048015,-87.09905633,2.906902651325552,-1.319469634272727,1.00000105,0.03842322835166801,0.30899999999999994,137,22,303.30811619117327,530.9644313599998,mp-754835,Na6CuO4,https://materialsproject.org/materials/mp-754835,-55.5399168925511,-3.0539308233211453,3.368423881122511,-1.6412895310421274
-6.998906604666669,-104.98359907,6.3008259409581395,-1.1071382925353324,0.5611715,0.01914155333202261,0.0,148,15,341.66135297774366,1296.4155999999996,mp-1104571,Ba6Re2N6O,https://materialsproject.org/materials/mp-1104571,6.140708600843707,4.953726292709126,-8.604250342815693,-0.5045126942092143
-4.693320475454545,-51.62652523,8.95271934527011,-0.4961437286363632,5.6e-06,2.875117357120421e-07,0.0,12,11,226.99164806162318,1223.81496,mp-1103249,Ho3(CuSn)4,https://materialsproject.org/materials/mp-1103249,-5.099051810504159,54.56459929698365,-8.604250342815693,-0.5045126942092143
-8.304595797727272,-182.70110755,7.684958281015072,-0.2498352296427271,38.3881023,1.617711008016094,0.0,166,22,276.5496608992581,1279.8691,mp-4383,Nd2Fe17N3,https://materialsproject.org/materials/mp-4383,61.471559098848196,75.29565729957402,-8.604250342815693,-0.5045126942092143
-7.730225127500002,-154.60450255,6.536801501514269,-2.906585015894002,13.0000027,0.6141340652294296,0.13290000000000024,2,20,246.69348614076972,971.122215,mp-1223131,La4Mn3NiO12,https://materialsproject.org/materials/mp-1223131,-30.55053425565016,8.967980267410002,-8.604250342815693,-0.5045126942092143
-2.5236922586111112,-90.85292131,4.021524704249011,-0.18067568833333306,5e-07,5.223096806209204e-09,0.05009999999999959,14,36,1115.6278741287517,2701.8485856,mp-31483,Na5TlSn3,https://materialsproject.org/materials/mp-31483,35.006394024440525,19.39547554736369,3.243834811545744,-5.162532680949447
-1.6431648999999997,-8.2158245,2.139831286689889,1.015155791974138,0.0,0.0,0.05330000000000002,71,5,274.61730939002655,353.8819,mp-1209415,Rb4C,https://materialsproject.org/materials/mp-1209415,-20.066233921544523,21.81132970953623,-8.604250342815693,-0.5045126942092143
-5.39449601375,-86.31193622,8.552701444193778,-0.14639891125000035,1.65e-06,4.6219629592142506e-08,0.0,62,16,416.03983079069343,2142.83698,mp-1188994,Tb3Co,https://materialsproject.org/materials/mp-1188994,-29.935686813478604,70.66237551267122,-8.604250342815693,-0.5045126942092143
-5.308735373333334,-254.81929792,5.498822726823568,-1.5097295837500002,0.3916509,0.009247793858212271,0.0,25,48,493.5582504121309,1634.4026,mp-758051,Mg7Cu17O24,https://materialsproject.org/materials/mp-758051,-59.44194975439425,-0.5600478908908203,-8.604250342815693,-0.5045126942092143
-3.7410683525,-14.96427341,10.248152519537149,-0.5905698792500003,0.0001653,2.0957866651199565e-05,0.0,225,4,91.9185592200461,567.28290728,mp-865111,NaSmAu2,https://materialsproject.org/materials/mp-865111,-9.571569262172341,47.66832237103968,-8.604250342815693,-0.5045126942092143
-7.3899935325,-29.55997413,11.364687207998008,-0.07059931499999994,4.66e-05,5.941001269903859e-06,0.0,225,4,91.41210272962459,625.62212,mp-1187409,Th2CuTc,https://materialsproject.org/materials/mp-1187409,-10.51896634571036,54.82955005456642,-8.604250342815693,-0.5045126942092143
-3.9165761067857146,-109.66413099,4.835983886479734,-0.7130753089285717,7.5e-08,1.3467725591075566e-09,0.0,57,28,648.9996042993126,1890.08,mp-31480,Ca3(GaPd)2,https://materialsproject.org/materials/mp-31480,-12.399375705030367,50.78149393962062,-8.604250342815693,-0.5045126942092143
-6.1061784633333325,-73.27414156,9.970947803565245,-0.6674747211111113,7.116618925,0.26847009543651323,0.02080000000000037,62,12,308.926540882416,1854.9942760000001,mp-19901,EuInAu,https://materialsproject.org/materials/mp-19901,-1.8172054005249432,50.14502030450697,-8.604250342815693,-0.5045126942092143
-6.485439106666668,-77.82526928,9.12686326899784,-0.9234280291666662,3.325e-05,1.6337659856574654e-06,0.0,62,12,237.18063485797924,1303.622,mp-1103463,SmGeRh,https://materialsproject.org/materials/mp-1103463,13.856481821079234,64.10808487120576,-8.604250342815693,-0.5045126942092143
-4.3817657825,-52.58118939,4.5186311478629335,-0.7389191408333335,1.25e-07,5.712641782469125e-09,0.0,57,12,255.00602909155626,693.9181543999999,mp-571039,CaAlPd,https://materialsproject.org/materials/mp-571039,-12.382316534925696,50.93751668485977,-8.604250342815693,-0.5045126942092143
-4.420159513214285,-123.76446637,9.070938784121324,-0.2582561582142852,9.625e-06,2.57298802332904e-07,0.0,62,28,435.95373324263016,2381.4614,mp-1208378,TbCu5Sn,https://materialsproject.org/materials/mp-1208378,3.100675109115063,42.20860409467805,-8.604250342815693,-0.5045126942092143
-4.5168307741666665,-54.20196929,3.09667353681005,0.2339003824999999,0.6132456166666667,0.030777845954265658,0.0,5,12,232.2061182820084,433.032,mp-1094349,MgTi,https://materialsproject.org/materials/mp-1094349,-18.022610894039463,38.942055218804576,-8.604250342815693,-0.5045126942092143
-4.8995380567391305,-225.37875061,1.4459260801966316,-0.4853551908243472,0.0,0.0,1.0626,87,46,465.85737767963167,405.64859712,mp-722891,Na2Ni(H7N3)2,https://materialsproject.org/materials/mp-722891,16.411229704804725,-14.323011991339055,2.868238958191519,0.05920669168458791
-4.8612338,-19.4449352,12.612232584115493,-0.4489990075000003,0.0004803,6.547942705159073e-05,0.0,225,4,85.48406060196945,649.274018,mp-1185917,MgPaAu2,https://materialsproject.org/materials/mp-1185917,-9.289852304135733,51.79510072636393,-8.604250342815693,-0.5045126942092143
-2.9921743475,-11.96869739,5.07206655366221,-0.3378311575000001,3.71e-05,5.41185331648449e-06,0.0,225,4,79.89237286697694,244.02885,mp-865515,YMgZn2,https://materialsproject.org/materials/mp-865515,-0.7211011605894871,96.85054825267902,-8.604250342815693,-0.5045126942092143
-6.1011975750000005,-134.22634665,4.400926136263895,-1.8039131215909092,1.99999985,0.11041203941007098,0.0,64,22,211.10132483327422,559.48178,mp-757009,Li2Cr(CoO3)2,https://materialsproject.org/materials/mp-757009,-73.3599241281017,-23.49522596164216,1.129611082563544,-1.8083016864324792
-6.815359025714287,-190.83005272,3.91985309821786,-2.7598376737085704,2.999999525,0.10363496098309316,0.375,142,28,337.3590191026557,796.3665800000001,mp-19050,Ca2MnO4,https://materialsproject.org/materials/mp-19050,-33.14365114221976,-8.664695667763187,2.351300808217479,-1.3246268678347637
-4.30515087875,-68.88241406,2.8276427838514677,-1.3040417516871554,0.0,0.0,0.4394,12,16,462.8561564404328,788.1728999999998,mp-1189158,Rb3Ru2N(Cl4O)2,https://materialsproject.org/materials/mp-1189158,-21.44706697715491,-5.016409739497844,2.7422669601368765,1.034417607552889
-3.22344859375,-25.78758875,10.79447189247974,-0.4278868762500001,2.44e-05,1.8941062278560581e-06,0.0,194,8,150.1284227191012,975.922276,mp-1079175,MgGaAu2,https://materialsproject.org/materials/mp-1079175,29.614513473670765,32.71289697056211,-8.604250342815693,-0.5045126942092143
-7.769703971,-310.78815884,6.883948161081539,-3.025772127625,6.14493775,0.13827482278537045,0.0,25,40,517.9070283315812,2147.0408399999997,mp-1173242,Sr3LaTa2(CoO6)2,https://materialsproject.org/materials/mp-1173242,-32.85849005115713,21.74670793292698,-8.604250342815693,-0.5045126942092143
-7.4895994025,-29.95839761,7.576941166038142,-0.4814288279166661,13.7409087,1.5083464909073219,0.0,225,4,106.16754239756996,484.4362,mp-1183896,Eu2AgGe,https://materialsproject.org/materials/mp-1183896,2.431583907117039,47.35945495570289,-8.604250342815693,-0.5045126942092143
-5.837885432,-29.18942716,4.509721886785902,-0.407339115952,0.0,0.0,1.1617999999999995,164,5,78.56616186413555,213.3714,mp-1246570,Ca(GeN)2,https://materialsproject.org/materials/mp-1246570,11.396699042860096,33.13138324156846,-8.604250342815693,-0.5045126942092143
-6.40894747,-25.63578988,12.187458734356575,-0.29092077875000033,0.0006004,8.79912789650529e-05,0.0,225,4,79.52038624445777,583.6366399999998,mp-1184585,Ho2CuOs,https://materialsproject.org/materials/mp-1184585,-9.710444082623768,55.172396549980895,-8.604250342815693,-0.5045126942092143
-2.96569747,-11.86278988,7.699085086754279,0.4507322600000001,3.9414699,0.37359749827325467,0.0,225,4,122.95089160393006,570.0615,mp-979942,Yb3V,https://materialsproject.org/materials/mp-979942,-7.254838489647843,40.14752237803236,-8.604250342815693,-0.5045126942092143
-5.284426770526316,-100.40410864,6.755921061607644,-1.7921223335526315,0.00046669999999999996,2.0438902401115804e-05,0.0,1,19,266.1078331220313,1082.6626,mvc-2622,Ba2Mg2Tl2Cu3O10,https://materialsproject.org/materials/mvc-2622,-47.5864205221343,-4.801980027842837,-8.604250342815693,-0.5045126942092143
-7.237866815714287,-101.33013542,9.635496216593344,-2.9576797335714287,0.88794535,0.0645091127064572,0.0,14,14,160.41412118752268,930.8240400000001,mp-676104,Tm2CuO4,https://materialsproject.org/materials/mp-676104,-46.86083002286273,-7.489756242027547,0.7056171284162074,-2.397231032101933
-5.566307305555557,-50.09676575,5.570512581735617,-1.8182252344907408,0.0,0.0,0.0,1,9,123.92375845398605,415.7197386,mp-1268088,BaAlCuAgO5,https://materialsproject.org/materials/mp-1268088,-49.380301452821904,-5.391092951136015,-8.604250342815693,-0.5045126942092143
-6.730020776428572,-94.22029087,3.2417375970700597,-1.0870200895914286,0.96732835,0.051360456993090116,0.0,63,14,219.49390459570813,428.5004,mp-8670,Ca3CrN3,https://materialsproject.org/materials/mp-8670,4.6712602642896535,8.26806898377645,-8.604250342815693,-0.5045126942092143
-2.819352705,-11.27741082,5.369279561026159,-0.11874293854166673,3.8e-06,4.761736387846778e-07,0.0,225,4,93.00272532674241,300.7202,mp-644504,NdMg2Ag,https://materialsproject.org/materials/mp-644504,-6.210330495044256,51.88181971132824,-8.604250342815693,-0.5045126942092143
-4.7149528075,-132.01867861,9.825133645335068,-0.14271602321428492,6.25e-07,1.7567255134826512e-08,0.0,62,28,414.6231398671914,2453.2562399999997,mp-12834,ThCu6,https://materialsproject.org/materials/mp-12834,3.275103146200528,44.65196845150621,-8.604250342815693,-0.5045126942092143
-5.370696612000001,-26.85348306,7.1797988442561245,-0.5345023839999989,0.026197700000000004,0.003587851394617583,0.0,107,5,85.0954120201595,367.9335,mp-1226656,CeCu2SiGe,https://materialsproject.org/materials/mp-1226656,-3.168278972633503,58.46029329821905,-8.604250342815693,-0.5045126942092143
-9.34240675,-28.02722025,8.718287776389841,0.7468856720833337,13.400650699999998,1.6005042430819618,0.0,225,3,97.57678052231805,512.305,mp-21152,Pu2Mg,https://materialsproject.org/materials/mp-21152,-8.691279039242692,53.03800819976858,-8.604250342815693,-0.5045126942092143
-5.71291799,-154.24878573,7.5414848412333715,-1.8745670513888888,5.7000000000000005e-06,9.97104931761518e-08,1.6761,81,27,666.2104166533012,3025.6535,mp-1173113,Tb10YbSe16,https://materialsproject.org/materials/mp-1173113,33.214881947568266,11.705729864239952,2.904777582569657,-4.96503128265258
-6.1396324356818175,-270.14382717,5.2510144577459466,-1.5942495253977271,2.8848534,0.060205896882611236,0.017900000000000027,2,44,558.4215188836313,1765.86,mp-21728,TlV3Cu5O13,https://materialsproject.org/materials/mp-21728,-56.024142772107325,-10.76629023911103,-8.139285405853142,2.2241420301358668
-7.852248531944443,-282.68094715,2.9886147994503633,-2.9948148694578838,5.999999900000001,0.15288230997845276,0.0,148,36,457.3739596151237,823.175217,mp-704600,LiTi4Mn(PO4)6,https://materialsproject.org/materials/mp-704600,-42.907913617589024,24.62274548388632,-8.604250342815693,-0.5045126942092143
-3.5485318125,-14.19412725,11.228737410201044,-0.8100209237499993,3.86e-05,4.940681837500176e-06,0.0,225,4,91.04955854603504,615.6865690000001,mp-1187891,Yb2GeAu,https://materialsproject.org/materials/mp-1187891,-5.540634686525923,46.74680811630394,-8.604250342815693,-0.5045126942092143
-5.108209615,-71.51493461,4.774677957833356,-1.4312798028571438,1.9999993999999999,0.16291474015148982,0.2858000000000005,141,14,143.0694517328939,411.3788,mp-755557,Mg(NiO2)2,https://materialsproject.org/materials/mp-755557,-62.981959041484004,-22.65513453113769,-1.1190241471852558,0.41435588740222856