energy_per_atom,energy,density,formation_energy_per_atom,total_magnetization_uB,total_magnetization_T,band_gap,sgr,num_sites,cell_volume,weight,mp_id,formula,URL,tsne_cry_lin1_0,tsne_cry_lin1_1,tsne_cry_lin2_0,tsne_cry_lin2_1
-9.1441399025,-36.57655961,13.05348273178998,-0.4027506112499992,4e-05,6.686821735342682e-06,0.0,225,4,69.71362619681054,548.0182,mp-866116,HoTaRu2,https://materialsproject.org/materials/mp-866116,41.19681480080838,59.60366112657113,-8.604250342815693,-0.5045126942092143
-7.6415786875,-30.56631475,9.198579668012787,-1.124368455,2.01e-05,3.345214007045145e-06,0.0,225,4,70.02442935941244,387.90132400000005,mp-1186956,Sc2PtRh,https://materialsproject.org/materials/mp-1186956,20.58389464998844,52.70614702253498,-8.604250342815693,-0.5045126942092143
-8.494524341666667,-101.9342921,7.996371714854512,-0.17099067833333356,2.25e-06,1.5585842665150188e-07,0.0,38,12,168.24015423234502,810.16512,mp-1220599,NbVNi,https://materialsproject.org/materials/mp-1220599,56.48463184918157,56.3663056819539,-8.604250342815693,-0.5045126942092143
-4.377936745,-17.51174698,0.534512671190246,3.4178185774999994,2.432241,0.031521299708771135,0.0,71,4,899.2489021189673,289.4601820000001,mp-1096366,Zr2BeTc,https://materialsproject.org/materials/mp-1096366,-61.50505546729212,40.16965671508831,-8.604250342815693,-0.5045126942092143
-6.91165437375,-165.87970497,8.410440334248271,-0.3003434316666673,3.645888,0.14670680593047325,0.0,191,24,289.6212935454033,1466.8987300000001,mp-582394,Nd2Co7B3,https://materialsproject.org/materials/mp-582394,42.19418505039365,83.61078147408196,-8.604250342815693,-0.5045126942092143
-6.193076721875,-99.08922755,3.738737891757825,-2.081427840180001,9.999999,0.8011669027717331,0.0,2,16,145.46361771604123,327.514335,mp-1174766,Li5Mn3O8,https://materialsproject.org/materials/mp-1174766,-70.47605560397294,-42.36755484288563,-8.604250342815693,-0.5045126942092143
-10.227971546666668,-30.68391464,9.340611262226588,-0.33558544412666674,3.16e-05,1.0061492897014523e-05,0.0,166,3,36.60176979523188,205.8867,mp-1221525,Mo2N,https://materialsproject.org/materials/mp-1221525,57.693796049450995,49.3423337552301,-8.604250342815693,-0.5045126942092143
-6.992364365,-223.75565968,12.973091628836393,-0.8695678625000003,5.485e-05,8.784073671430599e-07,0.0,130,32,727.7095760864596,5685.288200000001,mp-1198195,Tm5Ir3,https://materialsproject.org/materials/mp-1198195,17.94220971281803,49.61413686549846,-8.604250342815693,-0.5045126942092143
-6.95293233,-27.81172932,13.385251950042194,-0.8831311900000012,1.05e-05,1.5557491448679525e-06,0.0,225,4,78.65514856012534,634.02242,mp-866119,Tm2RuPt,https://materialsproject.org/materials/mp-866119,18.280965250424206,54.202386715567705,-8.604250342815693,-0.5045126942092143
-6.623933645,-26.49573458,10.948472332913965,-0.7967543487500004,0.3556223,0.056107789713374184,0.0,225,4,73.86577407412577,487.021,mp-866290,DySnRh2,https://materialsproject.org/materials/mp-866290,31.66748602293732,56.437834913618246,-8.604250342815693,-0.5045126942092143
-7.1980707738888885,-129.56527393,8.573373158411814,-0.3799033403703697,3.8139017999999996,0.20639566877964904,0.0,191,18,215.35073325998303,1111.857145,mp-13765,Ce3Co11B4,https://materialsproject.org/materials/mp-13765,42.05355418400236,83.77470677802845,-8.604250342815693,-0.5045126942092143
-7.785380496842105,-591.68891776,8.721435545063141,-2.8422534113815785,0.999999975,0.012148321589745712,0.4055999999999997,10,76,959.3147823025334,5038.485600000001,mp-558119,Lu4Mo4O11,https://materialsproject.org/materials/mp-558119,-20.91995753571837,-14.614212202510442,-2.9388432237803133,-0.4399700238897231
-5.6451795469117645,-383.87220919,7.8903880062662575,-0.4080817163970586,0.027919,0.00016239093431612037,0.0,186,68,2003.620680891636,9520.61,mp-1210411,Nd23Mg4Ir7,https://materialsproject.org/materials/mp-1210411,-30.97638869072424,67.87374454497075,-8.604250342815693,-0.5045126942092143
-7.0931227,-28.3724908,10.386679490499358,-0.3512713768750011,0.0007314,0.00011911011097336585,0.0,221,4,71.56221167954548,447.62197,mp-1065783,LaRh3,https://materialsproject.org/materials/mp-1065783,30.42520246727009,56.84254328730134,-8.604250342815693,-0.5045126942092143
-7.9424574025,-127.07931844,7.188256700842719,-0.3782638455649989,1.4999999999999999e-05,8.554090726660216e-07,0.0,33,16,204.35950140623197,884.6456,mp-1245540,LiReN2,https://materialsproject.org/materials/mp-1245540,7.723203310963619,36.98150624411465,-8.604250342815693,-0.5045126942092143
-6.930418340555555,-374.24259039,4.0284037706330516,-1.9980570856548143,27.00000075,0.5328308875845579,0.0,59,54,590.5433880270788,1432.6355199999998,mp-531365,Li3Mn8O16,https://materialsproject.org/materials/mp-531365,-67.96613557346005,-36.362943092587344,-8.604250342815693,-0.5045126942092143
-10.300130546666667,-61.80078328,13.826255563902507,-0.19201335333333228,3e-07,3.847327158501666e-08,0.0,42,6,90.87398309868463,756.65003,mp-1217987,Ta3Co2Mo,https://materialsproject.org/materials/mp-1217987,55.02008514503146,60.23031932009755,-8.604250342815693,-0.5045126942092143
-6.936486080714286,-97.11080513,5.288810924961973,-0.5944962321830362,2.45e-06,8.302097673606129e-08,0.9213,176,14,343.9186072640976,1095.37953856,mp-1103846,Na(MoSe)3,https://materialsproject.org/materials/mp-1103846,64.08602454934007,31.808803152411066,-8.604250342815693,-0.5045126942092143
-5.63910758375,-135.33858201,9.106271811362893,-0.4436625359375004,3.843333333333333e-05,9.304869885418756e-07,0.0,6,24,481.36573816463056,2639.7736800000002,mp-1219116,SmHo3Ni4,https://materialsproject.org/materials/mp-1219116,2.1660150350054352,58.914022594295474,-8.604250342815693,-0.5045126942092143
-8.9135777225,-35.65431089,8.487638429090714,0.11584077500000055,0.028468200000000003,0.005025901774678485,0.0,221,4,66.01208332994287,337.41254,mp-999437,Nb3Ni,https://materialsproject.org/materials/mp-999437,54.1314517057962,57.10827305917954,-8.604250342815693,-0.5045126942092143
-6.6995751993333315,-200.98725598,4.151492297829941,-2.069652804922667,14.999800599999999,0.5928811372239622,0.0,12,30,294.8460269564039,737.14076,mp-1080207,Li3Mn4O8,https://materialsproject.org/materials/mp-1080207,-72.43686068676546,-42.023256272072075,-4.929292701246283,-2.945751580958187
-7.678952813333333,-46.07371688,14.861002407767627,0.7291967254766677,8.296666666666666e-05,1.3986860847215604e-05,0.0,221,6,69.12908606574041,618.6711,mp-1018734,IrN,https://materialsproject.org/materials/mp-1018734,57.28965591625578,46.8223677331719,-8.604250342815693,-0.5045126942092143
-7.213524792499999,-173.12459502,8.554140135395311,-0.4073425741666661,1.9750033,0.081749726851176,0.0,191,24,281.55221149693716,1450.39473,mp-504616,Ce2Co7B3,https://materialsproject.org/materials/mp-504616,41.9742807209565,83.82997430922127,-8.604250342815693,-0.5045126942092143
-6.6381209775,-26.55248391,11.856738548428517,-0.4910318649999992,0.00013230000000000002,1.9859405293513313e-05,0.0,225,4,77.63740890636119,554.354,mp-865413,Lu2TcPd,https://materialsproject.org/materials/mp-865413,18.008638607131925,54.62774043287535,-8.604250342815693,-0.5045126942092143
-4.87427386375,-116.98257273,7.940342804804049,-0.5232256845833335,0.015157975,0.00024241975497445986,0.0,216,24,728.7030815184665,3484.5024000000008,mp-1209686,Pr4CdPt,https://materialsproject.org/materials/mp-1209686,-29.078116623093504,67.10284424283432,-8.604250342815693,-0.5045126942092143
-8.404286114166666,-100.85143337,12.840984444674207,-0.2910629733333335,1.5e-06,1.1819770947251553e-07,0.0,194,12,147.89708901173262,1143.6914,mp-1219226,SiNi3W2,https://materialsproject.org/materials/mp-1219226,53.588185897264154,57.46772194593033,-8.604250342815693,-0.5045126942092143
-6.88836291,-13.77672582,11.160587528517423,-0.9258630574999992,4e-07,1.1697868303047306e-07,0.0,221,2,39.85021705031094,267.83582,mp-2163,HoRh,https://materialsproject.org/materials/mp-2163,17.515094812184252,51.29153082117993,-8.604250342815693,-0.5045126942092143
-5.039137555,-20.15655022,0.7736794146934076,3.141297057500001,0.3387524,0.0047458058152727006,0.0,71,4,831.8592384785981,387.58039,mp-1093916,HfZrCo2,https://materialsproject.org/materials/mp-1093916,-62.87964188846786,35.05263930052853,-8.604250342815693,-0.5045126942092143
-7.08023021,-28.32092084,11.114228409176626,-0.624269,1.6e-06,2.3593484148348967e-07,0.0,225,4,79.03242911836047,528.9755,mp-865222,Dy2RuRh,https://materialsproject.org/materials/mp-865222,16.670273717670426,52.160353729315155,-8.604250342815693,-0.5045126942092143
-5.70423172,-22.81692688,10.70949688895942,-0.3968529491666671,0.0008577,0.00011862282659507286,0.0,225,4,84.26448468932061,543.4562,mp-862978,Er2AgRu,https://materialsproject.org/materials/mp-862978,18.421853652996518,55.28212154721375,-8.604250342815693,-0.5045126942092143
-5.498725383571428,-76.98215537,6.015385634348184,-1.0713102514285728,1.9999995,0.17549833464382714,0.0,227,14,132.8110820275913,481.11478,mp-1096547,Co2NiO4,https://materialsproject.org/materials/mp-1096547,-72.26949752101321,-20.65327244589821,-11.331140582729097,-0.28783110224764635
-5.486293195714286,-76.80810474,4.7416163134811224,-1.418471315,0.9999299,0.08817728356460414,0.0,12,14,132.15702901622328,377.370185,mp-755696,Li2Co3NiO8,https://materialsproject.org/materials/mp-755696,-74.93724215958919,-24.36099169865677,-1.7768025677228871,-2.065422664418512
-3.7025205725,-14.81008229,0.6350420257445001,1.2610636024999993,0.0007622999999999999,9.146065819387438e-06,0.22820000000000015,71,4,971.3349708560544,371.46885,mp-1095719,YGaPd2,https://materialsproject.org/materials/mp-1095719,-68.43563142892293,42.33097232102619,-8.604250342815693,-0.5045126942092143
-6.6757480042857145,-186.92094412,4.4943115773449644,-2.2069663107142863,1.0000001,0.04368592171303445,0.3290000000000002,8,28,266.76937285471024,722.021375,mp-756331,Li4Ti3Co5O16,https://materialsproject.org/materials/mp-756331,-73.3495364482321,-24.855398976146173,-3.988073106026913,-1.4547025253655828
-8.5212706675,-34.08508267,10.934483821637142,-0.5768950750000004,0.00023740000000000002,3.959140462537489e-05,0.0,225,4,69.8806976712429,460.1574186,mp-865149,PaAlRu2,https://materialsproject.org/materials/mp-865149,20.93523726895786,54.92996342270861,-8.604250342815693,-0.5045126942092143
-5.9747779075,-23.89911163,0.9755233873887518,3.1210704433333323,1e-07,1.5977846224707285e-09,0.0697000000000001,71,4,729.3889682414436,428.497,mp-1097076,HfTiRu2,https://materialsproject.org/materials/mp-1097076,-60.438799448387975,35.362245856013644,-8.604250342815693,-0.5045126942092143
-5.55927788,-27.796389399999995,4.830907328959751,-1.855076485428571,5.5700000000000005e-05,4.03010831176041e-06,0.0,164,5,161.07046203629815,468.592702,mp-570988,La2PBr2,https://materialsproject.org/materials/mp-570988,-31.384805504153327,39.435289631380655,-8.604250342815693,-0.5045126942092143
-9.17452329,-36.69809316,13.17567345849668,-0.4357966462500009,1e-07,1.6802142017014433e-08,0.0,225,4,69.36058962457514,550.3468799999998,mp-863679,ErTaRu2,https://materialsproject.org/materials/mp-863679,41.216246977137736,59.60572058916359,-8.604250342815693,-0.5045126942092143
-6.628666182999999,-66.28666183,7.4687271092049805,0.6163118100000006,17.989151100000004,1.608449273454044,0.0,123,10,130.3409038648513,586.243755,mp-1096987,FeCo9,https://materialsproject.org/materials/mp-1096987,43.584952080737885,80.75565442117173,-8.604250342815693,-0.5045126942092143
-6.640726742857143,-92.9701744,6.0635135135280525,-0.4800683297142864,9.725e-05,2.9155889632378345e-06,0.4964000000000004,176,14,388.7234495059988,1419.4366,mp-1103956,K(TeMo)3,https://materialsproject.org/materials/mp-1103956,59.298711795493496,32.90057040514428,-8.604250342815693,-0.5045126942092143
-9.971650136666666,-59.82990082,9.178820651949822,-0.35012663825333235,5e-08,7.601858676207699e-09,0.1666000000000003,12,6,76.65273237079894,423.7068,mvc-15427,WN2,https://materialsproject.org/materials/mvc-15427,6.193790251641398,18.981871307144445,-8.604250342815693,-0.5045126942092143
-5.6442515957142865,-79.01952234,4.55360795281485,-1.460591296428571,3.00000015,0.2538994654036416,0.0,227,14,137.70094399453328,377.60998,mp-25383,Li(CoO2)2,https://materialsproject.org/materials/mp-25383,-72.35329773360672,-22.257265017452113,-8.604250342815693,-0.5045126942092143
-8.117416454999999,-48.70449873,8.060751280768523,-0.30327348666666626,3.03572,0.4137334116617597,0.0,166,6,85.51032262358822,415.092585,mp-1215554,Zr2FeCo3,https://materialsproject.org/materials/mp-1215554,61.654966170486965,64.35434776266166,-8.604250342815693,-0.5045126942092143
-6.3189946133333335,-37.91396768,8.884833366445617,-0.37400372583333424,1e-06,1.402177753901724e-07,0.0,216,6,83.11403272609974,444.7076,mp-30807,ZrNi4Sn,https://materialsproject.org/materials/mp-30807,29.11220135813174,73.30329252986894,-8.604250342815693,-0.5045126942092143
-9.357246036666666,-168.43042866,10.044932986099838,-0.14037490930555427,0.009632,0.0003822695198629807,0.0,14,18,293.6460953767126,1776.3239999999998,mp-1105772,Pu2Si4Mo3,https://materialsproject.org/materials/mp-1105772,51.992473493544864,58.69161353267678,-8.604250342815693,-0.5045126942092143
-6.28432163,-25.13728652,9.689054078222524,-1.5419643418749995,0.0,0.0,0.0,166,4,38.18066781718873,222.7798,mp-25467,LiWO2,https://materialsproject.org/materials/mp-25467,25.90306231951101,44.746150214766224,-8.604250342815693,-0.5045126942092143
-5.69184688,-22.76738752,1.0158452965211495,3.7792982775000006,5.0000004,0.09139381420912876,0.0,71,4,637.5740965475989,390.04,mp-1097094,V2MoIr,https://materialsproject.org/materials/mp-1097094,-57.1375574705619,35.62132338345037,-8.604250342815693,-0.5045126942092143
-5.0384572930000004,-50.38457293,3.3235634824605573,-2.7608072263509995,3.0000004000000002,0.3916091894159288,0.042400000000000215,139,10,89.27829051062328,178.69020780000002,mp-759652,Li4CoOF4,https://materialsproject.org/materials/mp-759652,-6.563045985833922,11.82792459232933,-4.3235526567373705,-0.888585204606387
-5.744251699166668,-68.93102039,9.699553667421883,-0.7524396858333342,2.1000000000000002e-06,9.416911733360742e-08,0.0,11,12,259.8891942002004,1518.0668,mp-1225399,Dy3NiPd2,https://materialsproject.org/materials/mp-1225399,15.992379155049267,53.780150810665425,-8.604250342815693,-0.5045126942092143
-5.643786021,-112.87572042,4.47346735693948,-1.7200448513750004,19.9042289,1.285092635772592,0.0,166,20,180.5046316439267,486.27678,mp-1222680,Li5Fe(Co2O5)2,https://materialsproject.org/materials/mp-1222680,-35.20049365844047,-41.27997452455392,-4.471497231944296,-0.8493104960365893
-7.356492073333331,-22.06947622,9.955343189384116,-1.0617627366666664,0.0,0.0,0.7531000000000008,216,3,76.1775939473061,456.70356,mp-10623,ThSbRh,https://materialsproject.org/materials/mp-10623,10.999084474899538,46.664038318251094,-8.604250342815693,-0.5045126942092143
-8.71046829,-17.42093658,6.530567339692133,0.6969393338100005,0.0049516000000000004,0.002064156419609101,0.0,191,2,27.95634409272853,109.9467,mp-1059462,MoN,https://materialsproject.org/materials/mp-1059462,6.743079751255528,18.35951719016007,-8.604250342815693,-0.5045126942092143
-6.767418484375,-108.27869575,5.124471055159987,-0.13938178687500002,7.5e-08,2.0707447905617883e-09,0.0,4,16,422.09685226582087,1302.60298,mp-1189329,Y3Co,https://materialsproject.org/materials/mp-1189329,-29.27247179718293,70.59437894988301,-8.604250342815693,-0.5045126942092143
-6.8499023175,-27.39960927,10.994966043815786,-0.8777143862500001,0.00010959999999999998,1.5897357741053652e-05,0.0,225,4,80.3457731704719,531.99535,mp-1187337,TbErRh2,https://materialsproject.org/materials/mp-1187337,17.445826617495403,51.197770962783565,-8.604250342815693,-0.5045126942092143
-9.1711405425,-36.68456217,10.990346097316317,-0.8572748775000001,6.9272898000000005,1.0043737198972376,0.0,225,4,80.37952649313851,531.9952099999999,mp-1184489,GdTmRh2,https://materialsproject.org/materials/mp-1184489,17.556571171905826,51.16913102141101,-8.604250342815693,-0.5045126942092143
-6.858595355,-27.43438142,11.095849670059154,-0.8919126212500004,7.759999999999999e-05,1.1283254408104235e-05,0.0,225,4,80.15022914852258,535.57,mp-1183794,DyErRh2,https://materialsproject.org/materials/mp-1183794,17.405732166435428,51.2644967932965,-8.604250342815693,-0.5045126942092143
-5.5513053175,-22.20522127,0.9509972352739872,2.8262821025,0.2170652,0.00304661830318528,0.0,71,4,830.3278090411909,475.532,mp-1097159,Zr2TcPt,https://materialsproject.org/materials/mp-1097159,-62.81911843716632,37.94182588194477,-8.604250342815693,-0.5045126942092143
-10.4102757,-41.6411028,13.245593215452516,-0.3681400799999999,0.0026753,0.0004107140222440215,0.0,225,4,75.91199179341578,605.52588,mp-864926,HfPaTc2,https://materialsproject.org/materials/mp-864926,20.785940977831913,56.572391244508026,-8.604250342815693,-0.5045126942092143
-6.9189347279166675,-166.05443347,8.736614636323706,-0.3157481966666656,0.00254005,0.00010443069474155286,0.0,191,24,283.45983236824793,1491.37073,mp-505207,Sm2Co7B3,https://materialsproject.org/materials/mp-505207,42.15323290114493,83.66950678072452,-8.604250342815693,-0.5045126942092143
-5.7950584765625,-185.44187125,4.252491835911942,-1.859709513184999,22.0000016,0.9081453439397464,0.3839000000000001,2,32,282.32203727493624,723.001465,mp-1175611,Li9Mn2Co5O16,https://materialsproject.org/materials/mp-1175611,-72.55627994671256,-51.53579016795625,3.8503723799473284,4.299813615489911
-5.3197026725,-21.27881069,0.8338326415715287,3.3731025191666664,1.9999996,0.030730863428227964,0.1596000000000002,71,4,758.4598115158623,380.85738,mp-1096375,Ti2NbIr,https://materialsproject.org/materials/mp-1096375,-59.33243824590944,36.30417855969669,-8.604250342815693,-0.5045126942092143
-7.6414890075,-30.56595603,13.728463249765987,-0.28172236124999994,0.0005649,8.650773105563693e-05,0.0,225,4,76.10165137477605,629.16842,mp-865383,Tm2OsRu,https://materialsproject.org/materials/mp-865383,18.745880156976565,53.56344580161623,-8.604250342815693,-0.5045126942092143
-6.3558629375,-25.42345175,4.519936018124599,-0.1229820325000004,0.0001016,1.6540461691690762e-05,0.0,225,4,71.58524368681219,194.852824,mp-865936,LiSc2Tc,https://materialsproject.org/materials/mp-865936,7.9155409554240235,43.498789970809476,-8.604250342815693,-0.5045126942092143
-6.03227604725,-241.29104189,11.886825357908318,-1.0279559444166666,7e-07,8.439955583867633e-09,0.0,140,40,966.5744398447923,6919.139679999999,mp-31109,Ho12InPt7,https://materialsproject.org/materials/mp-31109,14.973492076780555,56.642479973771636,-8.604250342815693,-0.5045126942092143
-6.0930573275,-97.48891724,7.534780239308258,-0.20273086812500016,1.725e-06,4.272211258406453e-08,0.032500000000000195,62,16,470.55869938800834,2135.1839999999997,mp-1106300,Nd3Ru,https://materialsproject.org/materials/mp-1106300,-31.022170202417122,68.07186537008103,-8.604250342815693,-0.5045126942092143
-6.728198443809523,-282.58433464,3.956580800220187,-2.036480269060952,36.0000005,0.9640903555365954,0.7835000000000001,2,42,435.1732544878217,1036.891095,mp-34461,Li7Mn11O24,https://materialsproject.org/materials/mp-34461,-67.25985863460657,-38.20638999000633,3.6211010283120393,1.1158543180866125
-4.758348492794118,-323.56769751,7.193476337509222,-0.23764464139705915,0.00672785,4.0647926199110434e-05,0.0,186,68,1928.9249664545398,8356.1276,mp-1210583,Nd23Cd4Ni7,https://materialsproject.org/materials/mp-1210583,-30.484342657686792,68.59236067462706,-8.604250342815693,-0.5045126942092143
-7.3145184925,-29.25807397,11.818311739352502,-0.4055262812500002,0.0002275,3.481256233521106e-05,0.0,225,4,76.15928153256564,542.03732,mp-973114,HoLuRu2,https://materialsproject.org/materials/mp-973114,19.684574963949412,53.184019892351074,-8.604250342815693,-0.5045126942092143