energy_per_atom,energy,density,formation_energy_per_atom,total_magnetization_uB,total_magnetization_T,band_gap,sgr,num_sites,cell_volume,weight,mp_id,formula,URL,tsne_cry_lin1_0,tsne_cry_lin1_1,tsne_cry_lin2_0,tsne_cry_lin2_1
-6.211334840769231,-80.74735293,6.1982843456385535,-2.1959998700961547,1e-07,6.5297919450706176e-09,0.0,47,13,178.47528482676114,666.1936499999998,mp-20674,Ba2YCu3O7,https://materialsproject.org/materials/mp-20674,-47.90361924439856,0.3629188335430383,-8.604250342815693,-0.5045126942092143
-5.58954895142857,-195.63421330000003,5.917505546200478,-1.9183210636071435,0.49531320000000006,0.010764465064132277,0.0,1,35,536.2470016961431,1910.9726,mp-766404,Ba8Cu8O19,https://materialsproject.org/materials/mp-766404,-50.68351799664754,-1.4066935777854943,-8.604250342815693,-0.5045126942092143
-5.969580274666668,-89.54370412,6.575196254137528,-2.0605309603333333,6e-07,3.3693137122253394e-08,0.0,65,15,207.53303078203132,821.76352,mp-6205,Ba2Ho(CuO2)4,https://materialsproject.org/materials/mp-6205,-49.71289210225758,0.005776604613077163,-8.604250342815693,-0.5045126942092143
-6.048722982692307,-157.26679755,6.522089469936181,-2.1636184455769243,2.71e-05,8.615981517350935e-07,0.0,47,26,366.5573732956093,1439.72525,mp-1228202,Ba4PrNd(Cu3O7)2,https://materialsproject.org/materials/mp-1228202,-47.072159935175726,0.7060594142079727,-8.604250342815693,-0.5045126942092143
-6.036343305,-96.58149288,7.001788085721189,-2.077116238125,3.1e-06,1.5276569757911052e-07,0.0,10,16,236.49026821761598,997.17905,mp-1218582,Sr2YCu3(PbO4)2,https://materialsproject.org/materials/mp-1218582,-46.83770991046929,-4.0376591795891175,-8.604250342815693,-0.5045126942092143
-6.6502794196153845,-172.90726491,5.300569440802125,-2.4120193536315395,3.9319437000000006,0.1310268652708205,0.0,46,26,349.72313858799737,1116.34339,mvc-824,Sr2YMnCu2O7,https://materialsproject.org/materials/mvc-824,-47.696082589803716,-3.055570945218853,-8.604250342815693,-0.5045126942092143
-6.685351855769231,-173.81914825,5.205251378433755,-2.4359145012500005,2.5278512,0.08316083225014319,0.0,8,26,354.2502019650245,1110.4595,mp-1239310,Sr2YCrCu2O7,https://materialsproject.org/materials/mp-1239310,-46.60877499080343,-3.8372683854785214,-8.604250342815693,-0.5045126942092143
-6.217253806923077,-80.82429949,6.8252659934567,-2.2577063885576933,2.4417872000000003,0.15909810391627335,0.0,47,13,178.8628870434732,735.1749950000002,mp-1214693,Ba2DyCoCu2O7,https://materialsproject.org/materials/mp-1214693,-48.95208477162407,-2.9844540006541758,-8.604250342815693,-0.5045126942092143
-6.107843622307692,-79.40196709,6.067421383775819,-2.3083444252838468,1.4599999999999999e-05,9.290395149567364e-07,0.0,47,13,183.14543454838417,669.1926532000001,mp-1214572,Ba2YCu3O6F,https://materialsproject.org/materials/mp-1214572,-48.36361919921395,-0.5098687557272634,-8.604250342815693,-0.5045126942092143
-6.370354928888888,-114.66638872,3.8163323500854216,-2.7054592626388896,4.5e-07,2.4040108574100903e-08,0.0,46,18,218.1491456865435,501.3610772,mp-1264781,Ca2AlCuO5,https://materialsproject.org/materials/mp-1264781,-45.400877450236365,-2.804336521272252,-8.604250342815693,-0.5045126942092143
-5.419017898,-54.19017898,3.5877768437315685,-0.6172526509519998,0.0,0.0,0.1858,12,10,158.95087007287106,343.4308,mvc-13711,Ca2CuN2,https://materialsproject.org/materials/mvc-13711,5.34872787284465,4.5600596471160735,-8.604250342815693,-0.5045126942092143
-6.0541469856666685,-363.24881914,6.127702876526858,-2.051501435833333,0.0024538,3.4384748675972605e-05,0.0,47,60,831.6694243831952,3069.01735,mp-1229138,Ba8Y3Lu(CuO2)16,https://materialsproject.org/materials/mp-1229138,-49.23571066797623,0.16292045466620966,-8.604250342815693,-0.5045126942092143
-5.971066685384615,-77.62386691,7.058400300560836,-2.2075113852884627,0.0003584,2.0716019416384407e-05,0.0,25,13,201.6225574292486,857.0305699999999,mp-1228434,Ba2LaTlCu2O7,https://materialsproject.org/materials/mp-1228434,-46.929843885275176,-2.296347149994338,-8.604250342815693,-0.5045126942092143
-6.21656824,-80.81538712,6.86774048325611,-2.2599464143269232,2.4221601,0.1577800458294963,0.0,47,13,178.9073551506889,739.9339950000002,mp-1214699,Ba2ErCoCu2O7,https://materialsproject.org/materials/mp-1214699,-48.9638216787205,-3.0083900860652832,-8.604250342815693,-0.5045126942092143
-6.0985267975,-73.18232157,6.806468571992168,-2.2625747893750003,4.2000000000000004e-06,2.725028055371361e-07,0.11359999999999992,123,12,179.62043344203408,736.2554,mp-21868,Ba2Lu(CuO2)3,https://materialsproject.org/materials/mp-21868,-48.39308009002382,-2.4834920257702797,-8.604250342815693,-0.5045126942092143
-6.216322506923077,-80.81219259,6.8783393206164325,-2.258881405096154,2.4239224999999998,0.1586377808983513,0.0,47,13,178.06949680395093,737.605315,mp-1214661,Ba2HoCoCu2O7,https://materialsproject.org/materials/mp-1214661,-48.95367778468892,-3.02210448508524,-8.604250342815693,-0.5045126942092143
-5.6751305485714285,-39.72591384,4.931293709552565,-2.9949405999828573,2.6e-06,2.914144835587561e-07,0.0,139,7,103.97756500852124,308.7816064,mp-1025280,Sr2Cu(OF)2,https://materialsproject.org/materials/mp-1025280,-45.5040911920445,-0.7697212712855401,-6.19151966201527,-1.4986762471151376
-6.438745223692307,-418.51843954,6.44931478027292,-2.1890710407115384,13.7589978,0.17959433610979292,0.0,10,65,892.8357933775778,3467.65655,mp-1229059,Ba10Gd2Y3(Cu3O7)5,https://materialsproject.org/materials/mp-1229059,-47.6077662070852,0.554462686067519,-8.604250342815693,-0.5045126942092143
-5.970038211333335,-89.55057317,6.61162331403192,-2.061698936333334,1e-06,5.6306772700191166e-08,0.0,65,15,206.97447595891288,824.0922,mp-6583,Ba2Er(CuO2)4,https://materialsproject.org/materials/mp-6583,-49.77956351662612,-0.03049607298750476,-8.604250342815693,-0.5045126942092143
-6.478980756176472,-220.28534571,6.587851990729262,-2.7514869846323533,1.295e-05,2.670311553404862e-07,0.0,118,34,565.1780168205943,2242.2292,mp-636383,Ba4Sm2Cu2O9,https://materialsproject.org/materials/mp-636383,-45.732607646848344,-4.473390509388773,-8.604250342815693,-0.5045126942092143
-5.381235702666666,-161.43707108,6.7961249728235,-1.8748832676666671,0.0,0.0,0.0,139,30,478.20778204863467,1957.1716,mp-573069,Ba2CaTl2(CuO4)2,https://materialsproject.org/materials/mp-573069,-46.768131018053744,-2.3672252261945737,-8.604250342815693,-0.5045126942092143
-6.207907458076923,-161.40559391,5.878626375318987,-2.27685401125,9.2e-06,2.9751951041966163e-07,0.0,8,26,360.37097451631087,1275.7823,mp-757073,Ba4LiY2Cu5O14,https://materialsproject.org/materials/mp-757073,-49.24274177690816,-1.837500891791202,-8.604250342815693,-0.5045126942092143
-5.3508152621428575,-74.91141367,5.944472890390973,-1.9948325923214287,1.53e-05,6.969642082783886e-07,0.0,229,14,255.83407139458438,915.8464,mp-1147529,Ba4Cu3BrO6,https://materialsproject.org/materials/mp-1147529,-46.8632611802619,-0.6209251436702967,-8.604250342815693,-0.5045126942092143
-6.142007126428572,-171.97619954,6.024347114512483,-2.1161351014732146,0.0003125,9.357812725813657e-06,0.0,65,28,389.182317292874,1411.9326999999996,mp-1228315,Ba4Y2Cu7O15,https://materialsproject.org/materials/mp-1228315,-48.47884974436984,0.2460913256317897,-8.604250342815693,-0.5045126942092143
-6.927406526923077,-90.05628485,6.726318185467727,-2.2387849047115393,9.4104791,0.6086102236937226,0.0,47,13,180.19798009080083,729.9249950000002,mp-1214814,Ba2GdCoCu2O7,https://materialsproject.org/materials/mp-1214814,-48.85602225613592,-2.9309710911439866,-8.604250342815693,-0.5045126942092143
-6.0114335510000005,-180.34300653,6.044734213769604,-2.0325528355,6.3e-06,1.7315901949802876e-07,0.0,10,30,424.0068364903272,1543.4798999999996,mp-1228147,Ba4PrY(CuO2)8,https://materialsproject.org/materials/mp-1228147,-49.1187036568736,0.3318303924922493,-8.604250342815693,-0.5045126942092143
-6.680351459444443,-120.24632627,4.2954766114895,-2.7133134631944436,0.00086055,4.149445810051919e-05,0.0743999999999998,46,18,241.6926476237259,625.2097,mvc-5240,Ca2YCuO5,https://materialsproject.org/materials/mvc-5240,-44.89872482915426,-2.4349358073779093,-8.604250342815693,-0.5045126942092143
-7.213395665769231,-187.54828731,6.0708771214506605,-2.6384388281730784,1.25e-06,3.892139978645661e-08,0.0,8,26,374.282041386617,1368.36306,mvc-16147,Sr2YTaCu2O7,https://materialsproject.org/materials/mvc-16147,-45.12120236658518,-3.2886991579945963,-8.604250342815693,-0.5045126942092143
-5.129625550909091,-56.42588106,4.474477163047332,-1.8968594737745457,0.695593,0.03639427132360922,0.0,139,11,222.74071117561792,600.1956,mp-23085,Ba2Cu3(ClO2)2,https://materialsproject.org/materials/mp-23085,-51.01718802241254,-0.3723457128183074,-8.604250342815693,-0.5045126942092143
-6.0924917088235295,-207.14471809999998,6.448513438548575,-2.4094299466911764,0.2524933,0.00544735607207605,0.0,223,34,540.1837577538596,2097.74184,mp-1214501,Ba4Ho(CuO3)3,https://materialsproject.org/materials/mp-1214501,-50.02348454612994,-1.957891450666916,-8.604250342815693,-0.5045126942092143
-6.141617034285715,-171.96527696,6.061730040493907,-2.1157450093303574,7.950000000000001e-05,2.395400083345276e-06,0.0,65,28,386.7822147374239,1411.9326999999996,mp-1228264,Ba4Y2Cu7O15,https://materialsproject.org/materials/mp-1228264,-48.39065847614474,0.2587401394801616,-8.604250342815693,-0.5045126942092143
-5.62631639607595,-444.47899529,5.56171883256294,-2.041929183275316,0.0141976,0.00015707526382847443,0.0,65,79,1053.378781496588,3528.129400000001,mp-1173436,Sr19Cu19O41,https://materialsproject.org/materials/mp-1173436,-46.111395998277224,0.2447362261316189,-8.604250342815693,-0.5045126942092143
-3.7569339966666666,-33.81240597,3.3926022325587164,-1.0627915501805552,0.0003787,2.44565917549132e-05,0.0,139,9,180.45827372825684,368.6894,mp-1232329,K2Zn2Cu(SO)2,https://materialsproject.org/materials/mp-1232329,-50.88083106015621,-3.633486631061517,-8.604250342815693,-0.5045126942092143
-4.960311273636363,-54.56342401,4.694063960923667,-1.7030681959090903,0.8046621,0.04495436182348062,0.0,139,11,208.60232139978447,589.6836000000002,mp-23133,Sr2Cu3(BrO2)2,https://materialsproject.org/materials/mp-23133,-50.876875617724934,-0.165479291534102,-8.604250342815693,-0.5045126942092143
-5.6548330641666675,-203.57399031,6.3449143593023125,-2.0680983098611114,1.0465478000000001,0.02401868415659677,0.0,65,36,507.7936730114355,1940.2779999999998,mp-559339,Sr8Tl3Cr(CuO5)4,https://materialsproject.org/materials/mp-559339,-46.861092249984324,-3.0021625550623066,-8.604250342815693,-0.5045126942092143
-5.003450296363637,-55.03795326,4.865548238511623,-1.7024726186363637,0.4375964,0.021684685250951758,0.0,139,11,235.1787324012511,689.0976,mp-23129,Ba2Cu3(BrO2)2,https://materialsproject.org/materials/mp-23129,-51.02385434461478,-0.33912377826485546,-8.604250342815693,-0.5045126942092143
-5.063449287272726,-55.69794216,4.670163184920575,-1.7965774098418181,0.2909454,0.01479279339590208,0.0,119,11,229.21272853155537,644.6466,mp-1228431,Ba2Cu3BrClO4,https://materialsproject.org/materials/mp-1228431,-51.02300357608754,-0.3625651807784764,-8.604250342815693,-0.5045126942092143
-6.015676500333332,-180.47029501,6.054424798947502,-2.03741531425,0.00019690000000000002,5.408897830739228e-06,0.0,47,30,424.2426877941954,1546.81425,mp-1228248,Ba4NdY(CuO2)8,https://materialsproject.org/materials/mp-1228248,-49.08654868063192,0.379803928004856,-8.604250342815693,-0.5045126942092143
-5.690650504615384,-73.97845656,7.531944196176861,-2.110511077788462,0.6370262,0.03840399755744923,0.0,123,13,193.31176619079704,876.8318,mp-1214696,Ba2DyCu2HgO7,https://materialsproject.org/materials/mp-1214696,-47.78814358917697,-3.323683024529631,-8.604250342815693,-0.5045126942092143
-6.676066963636364,-73.43673659999999,6.858533571154137,-2.6059469461363642,9.4e-06,7.551290241686174e-07,0.0,139,11,145.07217357016782,599.1923999999998,mp-1218190,SrNd2(CuO3)2,https://materialsproject.org/materials/mp-1218190,-44.44654923212972,-1.9014631858243305,-8.604250342815693,-0.5045126942092143
-6.189202442058822,-210.43288303,5.935704684000263,-2.3950040702205877,0.5585705,0.011959260444570869,0.0,223,34,544.3159982351765,1945.6929,mp-643409,Ba4Y(CuO3)3,https://materialsproject.org/materials/mp-643409,-50.022071601687706,-1.9689405546151888,-8.604250342815693,-0.5045126942092143
-6.0224863888461515,-156.58464611,5.047761449904461,-2.165894456634616,4.0,0.14163694148322709,0.0,46,26,329.12500511569687,1000.4850672,mp-1265397,Sr2AlCoCu2O7,https://materialsproject.org/materials/mp-1265397,-48.904848824955884,-4.8918829677588365,-8.604250342815693,-0.5045126942092143
-7.937789177142856,-111.12904848,5.6041404046062695,-3.089257557857142,1.8000000000000001e-06,1.1592427582315867e-07,0.0,64,14,180.95706392514484,610.7106,mp-755924,Y2CuO4,https://materialsproject.org/materials/mp-755924,-45.57675865517528,-6.978470312650793,-8.604250342815693,-0.5045126942092143
-6.080415774615385,-79.04540507,6.420496886630108,-2.18360331298077,1.17e-05,7.361267551598442e-07,0.0,47,13,185.2297269229679,716.1932700000001,mp-622210,Ba2LaCu3O7,https://materialsproject.org/materials/mp-622210,-46.952780974835576,0.6710300764810737,-8.604250342815693,-0.5045126942092143
-6.296375763846153,-163.70576986,6.528984286177504,-2.2841018455769238,0.0053675,0.00017151711348684508,0.0,42,26,364.70525532434306,1433.96501,mp-1228365,Ba3La3(Cu3O7)2,https://materialsproject.org/materials/mp-1228365,-46.5832027416228,0.5738701219908082,-8.604250342815693,-0.5045126942092143
-6.017898895625,-192.57276466,7.476708652630168,-2.05867182875,0.00135505,3.5652580887815886e-05,0.0,26,32,442.9368106546756,1994.3581,mp-578628,Sr2YCu3(PbO4)2,https://materialsproject.org/materials/mp-578628,-46.65132335100483,-4.430401340146751,-8.604250342815693,-0.5045126942092143
-5.966636112000001,-89.49954168,6.645829307185367,-2.0642456986666664,1.3e-06,7.342824241966538e-08,0.0,65,15,206.32775217114673,825.7674099999999,mp-6710,Ba2Tm(CuO2)4,https://materialsproject.org/materials/mp-6710,-49.82178010543706,-0.059824471013134775,-8.604250342815693,-0.5045126942092143
-6.267480171153847,-162.95448445,6.283137463500749,-2.517504983173078,4e-07,1.3540892217125028e-08,0.0,46,26,344.2628324836945,1302.6196,mp-541324,Sr2ErGaCu2O7,https://materialsproject.org/materials/mp-541324,-46.68712064828253,-4.408523273883096,-8.604250342815693,-0.5045126942092143
-6.096305358461539,-79.25196966,6.9552250493325225,-2.2142275493269237,1.2e-06,7.258227552262121e-08,0.0,123,13,192.67620953428315,807.03095,mp-654374,Ba2YTlCu2O7,https://materialsproject.org/materials/mp-654374,-47.0583514295069,-2.539431005948109,-8.604250342815693,-0.5045126942092143
-5.194967531052631,-98.70438309,7.176260580685724,-1.8687201688157888,5e-07,1.7418195485579163e-08,0.0,139,19,334.53708744422755,1445.7505999999996,mp-561182,Ba4Tl2Cu2HgO10,https://materialsproject.org/materials/mp-561182,-50.63509392537336,-2.128854317955013,-8.604250342815693,-0.5045126942092143
-6.625261997058822,-225.2589079,6.277195424553491,-2.3830621899264703,6.68823705,0.14149640622077855,0.0,223,34,550.8630916979955,2082.3812,mp-1214933,Ba4Gd(CuO3)3,https://materialsproject.org/materials/mp-1214933,-49.99191171681012,-1.97551670027038,-8.604250342815693,-0.5045126942092143
-6.292099413529412,-213.93138006,6.104063638055632,-2.413798500318628,1e-07,2.298746842829073e-09,0.2826999999999997,223,34,506.9746940127173,1863.6152,mp-1147699,Ba4Ti(CuO3)3,https://materialsproject.org/materials/mp-1147699,-49.02576834622492,-1.6300565796730846,-8.604250342815693,-0.5045126942092143
-7.056012740555556,-127.00822933,7.020636574446869,-2.9797735148611117,1.0,0.043270554187090166,0.5786000000000002,127,18,269.3301482151274,1138.708,mp-6704,BaNd2CuO5,https://materialsproject.org/materials/mp-6704,-46.3654092939736,-8.164968573395631,1.8412777325356635,-1.6807281822543252
-5.67550969125,-90.80815506,5.365825336935148,-2.0965755984375,0.00025529999999999997,1.4033009298308145e-05,0.0,47,16,212.02029252508208,685.1171999999998,mp-1218445,Sr3Ca(CuO2)4,https://materialsproject.org/materials/mp-1218445,-45.77511816170353,-0.2339296947559813,-8.604250342815693,-0.5045126942092143
-6.112347086153847,-158.92102424,5.396414120703097,-2.1713287608653853,2.96468465,0.09990843993367267,0.0,46,26,345.8229050944141,1123.8541,mvc-789,Sr2YCu2NiO7,https://materialsproject.org/materials/mvc-789,-47.96990058854883,-1.9476869367006229,-8.604250342815693,-0.5045126942092143
-5.716842321333332,-85.75263482,6.5854205102048216,-2.0383891576666664,1.7e-06,8.84440948577879e-08,0.0,139,15,224.00489422394662,888.3660000000001,mp-555855,Sr2CaCu2(BiO4)2,https://materialsproject.org/materials/mp-555855,-45.12366240171739,-5.563398118951694,-8.604250342815693,-0.5045126942092143
-5.91392619736842,-112.36459775,7.2631908786991595,-2.1122737398684213,0.0019971,8.368737608360542e-05,0.0,139,19,278.11043727822727,1216.4538999999995,mp-1208789,Sr2Pr2Tl2Cu3O10,https://materialsproject.org/materials/mp-1208789,-46.70943876646743,-2.3333504568772017,-8.604250342815693,-0.5045126942092143
-6.0884897388235295,-207.00865112,6.360105802730696,-2.4038172640441178,0.24554155,0.0052368856819148615,0.0,223,34,546.4234474196845,2092.8812,mp-1214524,Ba4Dy(CuO3)3,https://materialsproject.org/materials/mp-1214524,-50.065888996372564,-1.9516424386980449,-8.604250342815693,-0.5045126942092143
-5.525089365763888,-795.61286867,5.671531088065485,-1.8518029584027775,0.000594,3.2343270942508652e-06,0.0,1,144,2140.326031713206,7310.232,mp-1076189,Ba3Sr(Cu2O5)2,https://materialsproject.org/materials/mp-1076189,-49.04760214159514,1.3186218056724237,-8.604250342815693,-0.5045126942092143
-6.3265165157692325,-164.48942941,6.135682241275204,-2.2485839066346163,3.3716322,0.1096019661462386,0.0,12,26,358.50835007485335,1324.6863,mp-1228213,Ba4Y2FeCu5O14,https://materialsproject.org/materials/mp-1228213,-48.96891707475094,-2.8063955076291167,-8.604250342815693,-0.5045126942092143
-5.766745247272728,-63.43419772,3.7445594975398704,-2.1700216043181824,0.0,0.0,0.03699999999999992,8,11,152.24761387315246,343.3224,mvc-11334,Ca3(CuO3)2,https://materialsproject.org/materials/mvc-11334,-47.22765322671916,-4.6329575524885565,-8.604250342815693,-0.5045126942092143
-5.323197617575758,-175.66552138,5.182655548085736,-1.931672809932424,5.0000003,0.0913135181379534,0.0,191,33,638.1347312780682,1991.662,mp-559813,Ba9Cu7Cl2O15,https://materialsproject.org/materials/mp-559813,-51.28245252994687,-1.1094691307622495,-8.604250342815693,-0.5045126942092143
-5.89521980125,-47.16175841,5.359782230965113,-2.0025734063125,7.13e-05,7.266558385863756e-06,0.0,123,8,114.35053214462476,369.09337,mp-1147752,KLa(CuO2)2,https://materialsproject.org/materials/mp-1147752,-47.44118263258934,-0.2572290857282835,-8.604250342815693,-0.5045126942092143
-6.720447773636362,-73.92492551,6.587585007377363,-2.6356463052272727,3.21e-05,2.499070731985325e-06,0.0,107,11,149.69383395642237,593.85587,mp-1218164,SrLaNd(CuO3)2,https://materialsproject.org/materials/mp-1218164,-44.40519774312064,-1.893388350347026,-8.604250342815693,-0.5045126942092143
-6.0367453634375,-193.17585163,7.270630148042646,-2.0775182965625003,0.00035275,9.02535453715545e-06,0.0,2,32,455.49139721840766,1994.3581,mp-554200,Sr2YCu3(PbO4)2,https://materialsproject.org/materials/mp-554200,-46.72645652778732,-4.3788932929438635,-8.604250342815693,-0.5045126942092143
-6.297450118461539,-163.73370308,6.3705894274169825,-2.3345865274038466,0.00073465,2.305939474916721e-05,0.0,46,26,371.2872249376876,1424.4281,mvc-280,Sr2YCu2BiO7,https://materialsproject.org/materials/mvc-280,-46.62568107737279,-4.130458155356698,-8.604250342815693,-0.5045126942092143
-5.69603672,-45.56829376,5.159616416273217,-2.0972125375000004,4.6e-06,5.225190931579026e-07,0.0,139,8,102.59662978013763,318.7876,mp-1218363,SrCa(CuO2)2,https://materialsproject.org/materials/mp-1218363,-45.74449806636969,-0.2963353086536349,-8.604250342815693,-0.5045126942092143