energy_per_atom,energy,density,formation_energy_per_atom,total_magnetization_uB,total_magnetization_T,band_gap,sgr,num_sites,cell_volume,weight,mp_id,formula,URL,tsne_cry_lin1_0,tsne_cry_lin1_1,tsne_cry_lin2_0,tsne_cry_lin2_1
-7.702662612857143,-161.75591487,7.061053744367586,-0.13526482273809529,26.930041100000004,1.1188079727837716,0.0,12,21,280.5168098026688,1192.8321,mp-1216379,Y2Ga3(Fe7C)2,https://materialsproject.org/materials/mp-1216379,55.805747519898866,74.45994273108538,-8.604250342815693,-0.5045126942092143
-5.8973422275,-70.76810673,8.467190300481176,-0.2729390785416672,2.3075718999999997,0.158208747452229,0.0,47,12,169.98170343304713,866.7471199999999,mp-1222862,LaPrNi10,https://materialsproject.org/materials/mp-1222862,29.32586806285181,80.71699723506207,-8.604250342815693,-0.5045126942092143
-7.704867080588236,-523.93096148,7.389535475875679,0.2176930184313736,31.540107075,0.38059220648908937,0.0,136,68,965.785542947148,4297.825199999998,mp-683944,Pr2Fe14B,https://materialsproject.org/materials/mp-683944,56.19764595026615,77.98484265249533,-8.604250342815693,-0.5045126942092143
-5.902485109166666,-70.82982131,8.577437162483733,-0.2796307837500009,2.3375347,0.16172755803970176,0.0,47,12,168.4424171866766,870.08147,mp-1222868,LaNdNi10,https://materialsproject.org/materials/mp-1222868,29.565887320736746,80.79553016435106,-8.604250342815693,-0.5045126942092143
-7.9218223625,-31.68728945,7.335738708475088,-0.22061991875000064,4.9662914,1.3070434488506852,0.0,123,4,44.2812224076401,195.6205,mp-1225210,Fe3Si,https://materialsproject.org/materials/mp-1225210,49.416704267842604,67.99993742142212,-8.604250342815693,-0.5045126942092143
-7.246156743333334,-43.47694046,9.268756656388312,-0.06378126666666735,3.51371615,0.4223126292189833,0.0,227,6,96.96389066133185,541.2307000000002,mp-589,TbFe2,https://materialsproject.org/materials/mp-589,43.110619821960704,70.11170990360061,-8.604250342815693,-0.5045126942092143
-8.108294075714285,-170.27417559,8.206235329783715,-0.13180429957761844,35.093179299999996,1.546913620297896,0.0,2,21,264.383336775128,1306.5587899999996,mp-1225868,Dy2Fe15Co2CN,https://materialsproject.org/materials/mp-1225868,60.57376467345878,75.23849598970669,-8.604250342815693,-0.5045126942092143
-5.759874952916667,-138.23699887,8.531681447956164,-0.41627475770833416,1.0199999999999999e-05,3.222582821610888e-07,0.0,194,24,368.87014938125947,1895.2174772,mp-1191453,Sm3AlNi8,https://materialsproject.org/materials/mp-1191453,28.073860776042753,80.93653838249733,-8.604250342815693,-0.5045126942092143
-8.182431712413793,-237.29051966,8.39849398803184,0.039206946896552484,13.1810459,0.3504201150111482,0.0,225,29,438.36742272570564,2217.127135,mp-1192517,Tb6Mn23,https://materialsproject.org/materials/mp-1192517,56.14021069145785,68.14586711499102,-8.604250342815693,-0.5045126942092143
-5.913560726666668,-35.48136436,9.360104408114443,-0.3307730100000003,1.511744,0.21779799200796687,0.0,191,6,80.89129901107644,455.967,mp-1179,DyNi5,https://materialsproject.org/materials/mp-1179,29.782933122310077,80.93115560733189,-8.604250342815693,-0.5045126942092143
-8.463104049318183,-372.37657817,7.151036733205983,-0.07999887505681871,35.35003785,0.7626048348573491,0.0,194,44,540.2163899123445,2326.4176,mp-1207759,Y2Fe17C3,https://materialsproject.org/materials/mp-1207759,57.67200097821593,74.89687823458691,-8.604250342815693,-0.5045126942092143
-6.146021995000001,-36.87613197,8.791109883092261,-0.3417543900000008,0.011354399999999999,0.0016157121442956484,0.0,191,6,81.89881689057758,433.583,mp-1910,CeNi5,https://materialsproject.org/materials/mp-1910,29.426152250249487,80.72557522419315,-8.604250342815693,-0.5045126942092143
-8.94060579,-35.76242316,7.540173653394962,-0.03171305500000088,3.70436,0.9133501443839508,0.0,35,4,47.26648552729764,214.6276,mp-1216349,VCrFe2,https://materialsproject.org/materials/mp-1216349,54.47119707562681,65.42496242685294,-8.604250342815693,-0.5045126942092143
-8.20158155875,-196.83795741,8.515408876281509,-0.13890329062499993,11.270671933333333,0.3668306204944126,0.0,160,24,358.06482175426214,1836.191916,mp-1217496,ThScFe6,https://materialsproject.org/materials/mp-1217496,52.042353609050124,70.82529233159555,-8.604250342815693,-0.5045126942092143
-7.725043222068965,-224.02625344,8.916302616792542,-0.08900254517241453,50.7775719,1.3826983155347246,0.0,225,29,427.9784717080937,2298.04026,mp-1193308,Tm6Fe23,https://materialsproject.org/materials/mp-1193308,51.56631452653494,74.29410887336951,-8.604250342815693,-0.5045126942092143
-8.299944374318182,-365.19755247,8.185805983321108,-0.08956401414772844,35.0774473,0.7633817477489414,0.0,194,44,535.5051310772135,2639.8302,mp-1212962,Er2Fe17C3,https://materialsproject.org/materials/mp-1212962,57.724307453582284,74.88912813132964,-8.604250342815693,-0.5045126942092143
-5.941193074285715,-166.35340608,9.039850341636587,-0.3933354921428582,0.0,0.0,0.0,194,28,405.8049871886202,2209.172,mp-574423,CeNi5Sn,https://materialsproject.org/materials/mp-574423,28.67129627859992,80.71001212709511,-8.604250342815693,-0.5045126942092143
-7.45673561,-22.37020683,13.676928664628553,0.2020946033333324,0.011470999999999999,0.0035892164493797657,0.0,164,3,37.24595016528843,306.774,mp-1224692,Fe2Pt,https://materialsproject.org/materials/mp-1224692,56.199564239162825,58.33662431374583,-8.604250342815693,-0.5045126942092143
-5.647486670555555,-101.65476007,8.28506171685258,-0.28808402180555565,2.6702209,0.11239114487259247,0.0,191,18,276.8805973185815,1381.462755,mp-1220259,NdGa2Co3,https://materialsproject.org/materials/mp-1220259,40.37203132615626,77.5732913058369,-8.604250342815693,-0.5045126942092143
-7.59062015,-30.362480600000005,8.642108026219956,-0.6903130800000001,4.1120402,0.8668008986038767,0.0,225,4,55.286032715650656,287.7305836000001,mp-10894,MnAlRh2,https://materialsproject.org/materials/mp-10894,36.31557082107773,53.866557582741464,-8.604250342815693,-0.5045126942092143
-5.793603868333333,-34.76162321,9.272419413188157,-0.10916564416666692,3.8335702000000005,0.5321290024449792,0.0,191,6,83.95835448862623,468.821905,mp-1018723,HoCo3Cu2,https://materialsproject.org/materials/mp-1018723,39.96786926763405,75.4752516215088,-8.604250342815693,-0.5045126942092143
-5.13909987,-15.41729961,8.574799665766164,0.02517196499999959,2.9607256,0.9721792020011001,0.0,164,3,35.49190092233285,183.27539,mp-1215431,ZnCo2,https://materialsproject.org/materials/mp-1215431,47.676765147663296,79.46680223454464,-8.604250342815693,-0.5045126942092143
-6.92879131,-13.85758262,8.194590145395406,-0.5426637674999997,5e-07,2.1952506825700212e-07,0.0,221,2,26.543813116860214,130.991,mp-10110,SiRh,https://materialsproject.org/materials/mp-10110,35.24101088371008,52.62132400026419,-8.604250342815693,-0.5045126942092143
-8.128508887931035,-235.72675775,7.964498370734169,0.09384670362069084,16.856377,0.4296278676961788,0.0,160,29,457.24526772924855,2193.1006150000007,mp-1220060,Pr3Tm3Mn23,https://materialsproject.org/materials/mp-1220060,56.09630027528286,68.18179248266647,-8.604250342815693,-0.5045126942092143
-7.223167708333331,-43.33900625,9.081921833327707,-0.029648293750000217,7.540158,0.8962462193752008,0.0,216,6,98.04614828790385,536.24,mp-1219091,SmDyFe4,https://materialsproject.org/materials/mp-1219091,43.10878880747303,69.94222322824929,-8.604250342815693,-0.5045126942092143
-8.557143796,-256.71431388,8.128458013241808,0.06887625600000054,0.9450745,0.03281188007816712,0.0,35,30,335.6698674887303,1643.1281399999998,mp-1226444,Cr3Co2,https://materialsproject.org/materials/mp-1226444,45.84241892303563,76.42314160985053,-8.604250342815693,-0.5045126942092143
-7.398783653333332,-44.39270192,9.713717702848292,-0.2215883483333331,7.1905289,0.9463452975337128,0.0,191,6,88.55001421569078,517.9943499999998,mp-1217327,ThMn2Ni3,https://materialsproject.org/materials/mp-1217327,30.316667796414823,81.57016712449987,-8.604250342815693,-0.5045126942092143
-7.59325661375,-60.74605291,8.274267657360651,-0.0926969100000008,6.4306717,0.7774213187806208,0.0,194,8,96.40006353365095,480.35,mp-21078,Fe3Ge,https://materialsproject.org/materials/mp-21078,50.595537448724826,75.77809816419699,-8.604250342815693,-0.5045126942092143
-6.2508585925,-25.00343437,7.676941942606131,-0.4433122625000001,1.0360525999999999,0.19844503361962784,0.0,216,4,60.844173764118025,281.292507,mp-1219300,ScCoNiSn,https://materialsproject.org/materials/mp-1219300,44.736662545126066,45.695771376281435,-8.604250342815693,-0.5045126942092143
-8.052822791666667,-48.31693675,7.942087669914128,-0.013909861666667448,9.8641647,1.3111609379466929,0.0,191,6,87.67620435750854,419.341,mp-11317,CeFe5,https://materialsproject.org/materials/mp-11317,51.49196226118103,70.50481718821979,-8.604250342815693,-0.5045126942092143
-6.036585606666668,-72.43902728,8.655814399954227,-0.3162956431250012,1.7633254,0.12370099022528624,0.0,47,12,166.1256582447231,865.9554699999999,mp-1223428,LaCeNi10,https://materialsproject.org/materials/mp-1223428,29.38398159339487,80.6698683474649,-8.604250342815693,-0.5045126942092143
-7.228592474,-289.14369896,8.047405050764825,-0.1198854295000004,26.10111425,0.4012124938072233,0.0,140,40,758.1620233681874,3674.2508,mp-1204028,Sm6Fe13Bi,https://materialsproject.org/materials/mp-1204028,53.78294772085664,81.03834149705298,-8.604250342815693,-0.5045126942092143
-5.7253718607142865,-160.3104121,9.916709112372613,-0.3787220514285719,5.0875e-05,1.5076332776297515e-06,0.0,62,28,393.2657590552207,2348.576,mp-865201,LuNi5Sn,https://materialsproject.org/materials/mp-865201,29.48415386293324,80.8406869997055,-8.604250342815693,-0.5045126942092143
-5.850974285833334,-70.21169143,8.90369775069676,-0.3260080327083337,0.27581130000000004,0.017935046533011808,0.0,166,12,179.2202071674311,960.9666,mp-1095561,NdNi3,https://materialsproject.org/materials/mp-1095561,28.70647396562089,81.52405347197976,-8.604250342815693,-0.5045126942092143
-5.902781281666668,-70.83337538,9.960378059427097,-0.4245734754166672,0.3573766333333333,0.0244197538273942,0.006699999999999484,166,12,170.55415310508934,1023.03156,mp-2042,HoNi3,https://materialsproject.org/materials/mp-2042,28.78940941466105,81.6735034110785,-8.604250342815693,-0.5045126942092143
-8.5164426075,-34.06577043,8.764977914728926,-0.5788794941666664,4.8466097999999995,0.9660480271615832,0.0,225,4,58.467801753582144,308.61604500000004,mp-865523,TiMnRh2,https://materialsproject.org/materials/mp-865523,62.75893522548565,55.35600285060799,-8.604250342815693,-0.5045126942092143
-8.555526074814813,-230.99920402,8.349472850351571,-0.032242631384445136,38.939855200000004,1.2654637275755014,0.0,12,27,358.6097213583072,1803.1507,mp-1220727,Nd2Fe20Mo4N,https://materialsproject.org/materials/mp-1220727,56.544379430117246,76.24616626264834,-8.604250342815693,-0.5045126942092143
-7.83349113,-47.00094678,8.063458535581322,0.002426112916666057,10.2273372,1.3472964350172956,0.0,191,6,88.4660918575645,429.585,mp-1566,SmFe5,https://materialsproject.org/materials/mp-1566,51.58854592235846,70.5115676560436,-8.604250342815693,-0.5045126942092143
-6.40616598,-38.43699588,9.330874430213514,-0.10074304291666654,3.7601055,0.4569223734677378,0.0,216,6,95.90362738442705,538.90013,mp-1217492,TbNdCo4,https://materialsproject.org/materials/mp-1217492,42.67298607653682,74.36278914421099,-8.604250342815693,-0.5045126942092143
-6.659257346666666,-259.71103652,8.477362159119675,-0.2766695989743587,10.9576382,0.2312218681665795,0.0,71,39,552.2878365686181,2819.53263,mp-1197758,Tm(FeGe)6,https://materialsproject.org/materials/mp-1197758,49.07380399577031,66.72794589691657,-8.604250342815693,-0.5045126942092143
-7.441542615,-29.76617046,5.538624210966186,-0.3591510620833347,3.0000002,0.6380985098286939,0.0,216,4,54.7912212769124,182.752695,mp-999060,Ti2CoSi,https://materialsproject.org/materials/mp-999060,35.599825936680716,57.438368591771116,-8.604250342815693,-0.5045126942092143
-6.0782413734615375,-158.03427571,8.645682532060796,-0.4466059184615388,9.800000000000001e-06,3.6795385448388855e-07,0.0,129,26,310.3917335810538,1616.0706400000001,mp-542390,Ho(SiNi5)2,https://materialsproject.org/materials/mp-542390,27.23224865982376,77.79925547190261,-8.604250342815693,-0.5045126942092143
-7.902486505,-31.60994602,8.891689782784463,-0.5828759387499991,4.6903377,1.013369007607166,0.0,225,4,53.94037014221404,288.834545,mp-865015,MnSiRh2,https://materialsproject.org/materials/mp-865015,36.491713802959545,53.889671118152926,-8.604250342815693,-0.5045126942092143
-5.906923918333334,-35.44154351,9.25116278474122,-0.3204660700000008,0.0317336,0.0045543746216915705,0.0,191,6,81.20224192913253,452.39235,mp-30808,TbNi5,https://materialsproject.org/materials/mp-30808,29.72516837673708,80.88406193583502,-8.604250342815693,-0.5045126942092143
-8.648365135,-34.59346054,7.479174897314236,-0.5732546633333335,0.00011079999999999998,2.2935646885175563e-05,0.0,225,4,56.299714730707066,253.57754500000001,mp-866218,Ti2MnRh,https://materialsproject.org/materials/mp-866218,62.779595092633905,55.43009636103967,-8.604250342815693,-0.5045126942092143
-8.416875695714285,-176.75438961,7.208329376042057,-0.13450241672047775,37.218745899999995,1.6327597415519042,0.0,2,21,265.6543179217357,1153.1941,mp-1216203,Y2Fe17CN,https://materialsproject.org/materials/mp-1216203,60.65567591386598,75.23720631638187,-8.604250342815693,-0.5045126942092143
-7.06273789,-21.18821367,9.749872105884831,-0.8705037372222222,0.0,0.0,0.8915999999999995,216,3,53.749543633124475,315.591,mp-1008680,TiGePt,https://materialsproject.org/materials/mp-1008680,30.57268212918788,53.39313074522157,-8.604250342815693,-0.5045126942092143
-5.909491925833334,-70.91390311,10.089407821250235,-0.4339467670833344,0.3947211666666666,0.027135622201461082,0.009199999999999877,166,12,169.5227774502984,1030.0176,mp-1051,ErNi3,https://materialsproject.org/materials/mp-1051,28.788597252,81.69182403086955,-8.604250342815693,-0.5045126942092143
-7.9536573925,-31.81462957,14.06001010308785,-0.4697604350000004,4.3502446,0.9186890524533134,0.0,225,4,55.18519264977792,467.2605386,mp-1183163,AlFeIr2,https://materialsproject.org/materials/mp-1183163,41.71991591489866,52.58031081835643,-8.604250342815693,-0.5045126942092143
-7.054804665,-56.43843732,13.69347505007123,-0.3115181174999995,0.0,0.0,0.0,62,8,128.47152002222904,1059.428,mp-208,GeIr,https://materialsproject.org/materials/mp-208,35.41401607067785,51.82831169583265,-8.604250342815693,-0.5045126942092143
-7.893170615,-15.78634123,6.714492914549838,-0.3896097683333339,0.6908914,0.3048451556918536,0.0,221,2,26.412403071096644,106.800195,mp-823,TiCo,https://materialsproject.org/materials/mp-823,46.01070111480704,75.71604361310456,-8.604250342815693,-0.5045126942092143
-6.433642305,-12.86728461,9.009946707741552,0.010483104999999604,2.2338603,1.2008839591049014,0.0,166,2,21.678657984951485,117.626595,mp-1226076,CoNi,https://materialsproject.org/materials/mp-1226076,47.267287728051755,79.75106068527067,-8.604250342815693,-0.5045126942092143
-6.5841883075,-26.33675323,5.881791610234084,-0.5090310787499996,7e-07,1.5224078500368947e-07,0.0,225,4,53.585150264392574,189.8038406,mp-862602,ScAlCo2,https://materialsproject.org/materials/mp-862602,44.079562608728224,47.684093922819955,-8.604250342815693,-0.5045126942092143
-5.919593493333332,-35.51756096,8.403054089515509,-0.28328117124999963,1.3866962999999999,0.18914236674344287,0.0,191,6,85.44171661968015,432.37247,mp-2317,LaNi5,https://materialsproject.org/materials/mp-2317,29.217857761872352,80.60374695832192,-8.604250342815693,-0.5045126942092143
-7.575020686428571,-106.05028961,7.984491743742355,-0.3199811939285705,14.090549900000001,0.8613225851990137,0.0,38,14,190.65119623868014,916.7221400000001,mp-1224041,Ho2(Fe3Si)3,https://materialsproject.org/materials/mp-1224041,48.266360830006505,67.83261318069242,-8.604250342815693,-0.5045126942092143
-9.14325508,-36.57302032,10.07359195632406,-0.6889223658333332,1.5e-06,3.092789350753091e-07,0.0,225,4,56.522107315788936,342.889045,mp-865569,Ti2MnIr,https://materialsproject.org/materials/mp-865569,62.87158550002822,55.46883310531931,-8.604250342815693,-0.5045126942092143
-8.261179400000001,-99.1341528,10.393312035964913,-0.06383028000000006,5.7547579,0.3501804582808204,0.0,166,12,191.5193144878949,1198.71918,mp-30638,ThFe3,https://materialsproject.org/materials/mp-30638,52.00441759685278,70.73066234429189,-8.604250342815693,-0.5045126942092143
-6.0804510534615375,-158.09172739,8.69608046077791,-0.4496348746153842,1.5e-07,5.648498403909796e-09,0.0,129,26,309.4822005568668,1620.7279999999998,mp-21548,Er(SiNi5)2,https://materialsproject.org/materials/mp-21548,27.21830162090826,77.79393856064429,-8.604250342815693,-0.5045126942092143
-5.9164106115384625,-76.91333795,8.354463548239309,-0.2809749330769237,1.55e-05,1.1331510374642149e-06,0.0,71,13,159.41211542188597,802.03035,mp-1217855,Tb(SiNi5)2,https://materialsproject.org/materials/mp-1217855,29.984502688965932,80.13333747978749,-8.604250342815693,-0.5045126942092143
-6.4424791983333325,-38.65487519,8.398588715975286,-0.4031303233333337,0.8221394000000001,0.10470949977946924,0.0,65,6,91.50331001344342,462.8007222,mp-1217301,ThAl2Co3,https://materialsproject.org/materials/mp-1217301,40.972727542218365,78.05666505327004,-8.604250342815693,-0.5045126942092143
-6.80361342,-27.21445368,7.864806333318927,-0.5166672491666668,1.0144015,0.2378021470486397,0.0,225,4,49.71317935141972,235.45639,mp-20145,TiGaCo2,https://materialsproject.org/materials/mp-20145,44.570824226311785,47.51555925271018,-8.604250342815693,-0.5045126942092143
-7.17778598,-57.42228784,8.224433915063807,-0.7916584374999998,0.0,0.0,0.0,198,8,105.78997734554838,523.964,mp-1483,SiRh,https://materialsproject.org/materials/mp-1483,35.166497392197215,52.622189549003046,-8.604250342815693,-0.5045126942092143
-8.933065065,-35.73226026,9.950051795292703,-0.6535869483333325,0.8723135000000001,0.17718438796864416,0.0,225,4,57.37524703800258,343.79600000000005,mp-861672,Ti2FeIr,https://materialsproject.org/materials/mp-861672,62.876783411717994,55.35701228063729,-8.604250342815693,-0.5045126942092143
-6.89803026,-27.59212104,7.2378678473494364,-0.36276041374999934,3.7890159,0.9603848011303944,0.0,225,4,45.97889998975856,200.410345,mp-999508,MnSiNi2,https://materialsproject.org/materials/mp-999508,35.7417438940857,73.3038923333635,-8.604250342815693,-0.5045126942092143
-6.4483904658333335,-154.76137118,7.6146318306635505,-0.3313848358333331,0.08143116666666668,0.002735880869058309,0.0,160,24,346.87332389771944,1590.635685,mp-1216367,Y2CoNi5,https://materialsproject.org/materials/mp-1216367,29.34900575201765,81.64946604827827,-8.604250342815693,-0.5045126942092143
-5.519273122857144,-154.53964744,8.607623492099483,-0.2950256558333341,0.68340295,0.018862095180683398,0.0,194,28,422.24483381966553,2188.76188,mp-1212410,LaInNi5,https://materialsproject.org/materials/mp-1212410,31.50359383878651,76.42361961872723,-8.604250342815693,-0.5045126942092143
-8.191950376206897,-237.56656091,8.619562387167738,0.02513225758620714,13.3014279,0.3594513863823889,0.0,225,29,431.2563762077829,2238.5750350000003,mp-1192635,Dy6Mn23,https://materialsproject.org/materials/mp-1192635,56.141017375492275,68.1485289586298,-8.604250342815693,-0.5045126942092143
-8.208008997931032,-238.03226094,8.903663294725893,-0.017257184137929864,13.1998582,0.3622170705620291,0.0,225,29,424.69561750005835,2277.180295,mp-1192498,Tm6Mn23,https://materialsproject.org/materials/mp-1192498,56.096607290550004,68.00870287016281,-8.604250342815693,-0.5045126942092143
-6.065757493,-242.63029972,7.512473729570925,-0.22268284875000005,10.92585395,0.17034416402231706,0.0,108,40,747.4902962460479,3381.7339299999994,mp-1223645,La6Ga3Co11,https://materialsproject.org/materials/mp-1223645,42.77958514574117,80.88592414857135,-8.604250342815693,-0.5045126942092143