energy_per_atom,energy,density,formation_energy_per_atom,total_magnetization_uB,total_magnetization_T,band_gap,sgr,num_sites,cell_volume,weight,mp_id,formula,URL,tsne_cry_lin1_0,tsne_cry_lin1_1,tsne_cry_lin2_0,tsne_cry_lin2_1
-8.439170185833332,-101.27004223,9.410314601977515,-0.19868955250000064,5.44178855,0.4166344762336211,0.0,164,12,152.2172548310969,862.6188371999998,mp-1218027,TaAlFe4,https://materialsproject.org/materials/mp-1218027,54.78943545462247,62.32268615574329,-8.604250342815693,-0.5045126942092143
-5.684568893333334,-34.10741336,8.201023441460006,0.27914447365111056,1.0587968,0.1685237615336144,0.0,63,6,73.21986155476176,361.61619,mp-1247213,CoAgN,https://materialsproject.org/materials/mp-1247213,5.024409526389039,14.777916971417248,-8.604250342815693,-0.5045126942092143
-7.052095027777778,-253.875421,8.795349518179167,-0.9474700301587302,0.657668,0.016596483893029233,0.0,59,36,461.81501577325025,2446.087914,mp-1204407,TmCo3P2,https://materialsproject.org/materials/mp-1204407,11.730591185410075,26.978435399475888,-8.604250342815693,-0.5045126942092143
-7.4783900325,-29.91356013,14.684051049884765,-1.0243928350000004,6e-07,1.0381066056969682e-07,0.0,225,4,67.35761842919015,595.6395386,mp-1206362,HfAlPt2,https://materialsproject.org/materials/mp-1206362,28.86881706224554,55.61462516443971,-8.604250342815693,-0.5045126942092143
-7.994169991111112,-71.94752992,11.042573236646097,-0.2521237688888884,7.5037473,0.7557205338093995,0.0,12,9,115.7162643580828,769.512365,mp-1079776,Hf2Co7,https://materialsproject.org/materials/mp-1079776,60.45050788346675,65.09906709951933,-8.604250342815693,-0.5045126942092143
-8.7879147625,-35.15165905,13.614475984791605,-0.3085647587500002,1.3699999999999998e-05,1.8150903478440116e-06,0.0,221,4,87.96294221591494,721.1931400000001,mp-862861,Pa3Si,https://materialsproject.org/materials/mp-862861,6.34744368465088,73.18001228856808,-8.604250342815693,-0.5045126942092143
-3.996989605,-47.96387526,11.026362132765453,-0.7458502841666673,6e-07,2.9849788978066156e-08,0.0,164,12,234.25421428184669,1555.5020000000002,mp-1215869,Yb2CdPd3,https://materialsproject.org/materials/mp-1215869,25.097918298567123,31.77782042851266,-8.604250342815693,-0.5045126942092143
-6.952424800625,-222.47759362,10.960634952004984,-0.6807715246874988,0.0001244,1.8008556371193028e-06,0.0,130,32,805.0426851679848,5313.804,mp-1199558,Sm5Ir3,https://materialsproject.org/materials/mp-1199558,15.997576949186984,48.00420239045484,-8.604250342815693,-0.5045126942092143
-5.16833563,-20.67334252,0.5728994813905589,3.7656151466666663,5.7509953000000005,0.09530841245245154,0.0,71,4,703.2167466468213,242.6155,mp-1096187,Ti2VMo,https://materialsproject.org/materials/mp-1096187,-59.477924764255704,37.08530807059138,-8.604250342815693,-0.5045126942092143
-3.1984560010000003,-63.96912002,4.356524150871425,-1.3377101359999999,0.7999378,0.010991724255137985,0.0,189,20,848.1405390843179,2225.14777,mp-1211616,K5(TmI4)3,https://materialsproject.org/materials/mp-1211616,-34.917661199765675,35.58255465640111,-8.604250342815693,-0.5045126942092143
-9.716538005,-116.59845606,15.61034682028141,-0.26063631166666684,4.275e-06,2.2492248587781282e-07,0.0,194,12,221.50354024522733,2082.304,mp-1102302,CeOs2,https://materialsproject.org/materials/mp-1102302,29.604249580702422,63.956772998390214,-8.604250342815693,-0.5045126942092143
-7.16991819,-28.67967276,11.48741020837349,-0.4150147012500005,9.93e-05,1.6345376753922365e-05,0.0,225,4,70.79975269688875,489.78421,mp-865249,TmSnRu2,https://materialsproject.org/materials/mp-865249,42.39047256996803,58.576854782800076,-8.604250342815693,-0.5045126942092143
-8.76800132,-105.21601584,11.147874250636463,-0.1327936036111114,0.07799185,0.0064609343856656285,0.0,191,12,140.67966293672848,944.43982,mp-1207921,UFe4B,https://materialsproject.org/materials/mp-1207921,42.749519438115115,84.1364263754103,-8.604250342815693,-0.5045126942092143
-5.835171248125,-93.36273997,8.067873590696287,-0.461174937500001,5.225e-06,1.3351047093068411e-07,0.0,62,16,456.0877361314868,2215.942,mp-1205407,Sm3Rh,https://materialsproject.org/materials/mp-1205407,-32.26470279288832,68.73000541423461,-8.604250342815693,-0.5045126942092143
-8.164174313235295,-277.58192665,13.707534466193426,-1.0817659179411776,0.0003089,5.738192464287755e-06,0.0,64,34,627.3649116247492,5178.816000000002,mp-1207440,Zr7Pt10,https://materialsproject.org/materials/mp-1207440,26.66604267646971,57.18809842942024,-8.604250342815693,-0.5045126942092143
-9.561468257142858,-133.8605556,12.834543294437434,-0.4603423629464284,16.1577792,0.6285964141771496,0.0016999999999995907,148,14,299.56232827705946,2315.36,mp-17717,Pu3Pd4,https://materialsproject.org/materials/mp-17717,21.860670192872192,55.60335043045529,-8.604250342815693,-0.5045126942092143
-5.420062636111112,-97.56112745,9.23535203115742,-0.34253409888888897,0.00093745,2.477726486546276e-05,0.0,71,18,440.9325678341793,2452.31662,mp-1212234,Ho6Co2Sn,https://materialsproject.org/materials/mp-1212234,-29.622156479920605,71.21213413897588,-8.604250342815693,-0.5045126942092143
-6.522418224375,-104.35869159,10.581086904801172,-0.26416256812500016,0.0,0.0,0.0036000000000000476,62,16,425.4372480651492,2710.92,mp-1189887,Dy3Os,https://materialsproject.org/materials/mp-1189887,-32.38637294473916,69.18703575421151,-8.604250342815693,-0.5045126942092143
-6.860105822,-205.80317466,8.278283677720523,-0.2241238455000001,14.222837599999998,0.43741322427186585,0.003099999999999881,191,30,378.9411509355197,1889.134955,mp-542034,Pr5Co19B6,https://materialsproject.org/materials/mp-542034,42.221810473493655,83.54920149151809,-8.604250342815693,-0.5045126942092143
-7.152407775714287,-100.13370886,10.615216684141506,-1.1972370414285711,2.5e-07,1.2733592866674782e-08,0.0,55,14,228.80550867657445,1462.6696479999996,mp-1104406,Sc2Si2Pt3,https://materialsproject.org/materials/mp-1104406,23.703633930450486,56.302015319538576,-8.604250342815693,-0.5045126942092143
-10.339533808333334,-62.03720285,14.756957613103122,-0.14136911327333246,0.00023319999999999998,4.021042530614414e-05,0.0,221,6,67.58764385776473,600.6410999999998,mp-1019052,ReN,https://materialsproject.org/materials/mp-1019052,3.2970526001432097,18.726172681265915,-8.604250342815693,-0.5045126942092143
-8.250320045,-49.50192027,8.612603780302074,-0.276516711666666,0.0869793,0.009736911679731954,0.0,166,6,104.10512382297856,539.954895,mp-1216066,Y2CoRu3,https://materialsproject.org/materials/mp-1216066,30.88294586422092,63.0574934926577,-8.604250342815693,-0.5045126942092143
-4.529066722857143,-221.92426942,6.8137608720628045,-0.14962030183673508,9.93e-05,1.3026439761319617e-06,0.0,148,49,888.3844343651613,3645.34585,mp-1197144,Y(Ga5Mo)8,https://materialsproject.org/materials/mp-1197144,11.720701984308318,91.59354385327192,-8.604250342815693,-0.5045126942092143
-7.608818815,-91.30582578,11.743953782368909,-0.3773525116666683,1.995540425,0.11132446879848117,0.0,62,12,208.9042743272321,1477.4492400000001,mp-1102933,UNiGe,https://materialsproject.org/materials/mp-1102933,23.553426854470143,65.08791339058472,-8.604250342815693,-0.5045126942092143
-5.6428960525,-22.57158421,11.233475978878793,-0.6211989362499999,1e-07,1.618356717877984e-08,0.0,225,4,72.0117180830237,487.15621,mp-865206,TmCdRh2,https://materialsproject.org/materials/mp-865206,24.26734047366756,33.50928419184413,-8.604250342815693,-0.5045126942092143
-7.345421942000001,-73.45421942,6.463899550194577,-0.7892480596249996,2.3e-06,1.3809988281675511e-07,0.0,11,10,194.09392991632018,755.54,mp-11609,Sb(MoS)2,https://materialsproject.org/materials/mp-11609,66.75227039556084,33.388885487781515,-8.604250342815693,-0.5045126942092143
-6.530560525,-26.1222421,8.25177211013309,-0.1829354900000002,0.0001274,1.880754373583477e-05,0.0,225,4,78.94320879313939,392.29512400000004,mp-972861,Sc2TlTc,https://materialsproject.org/materials/mp-972861,21.548889577573412,52.233438057080996,-8.604250342815693,-0.5045126942092143
-6.800164081666666,-40.80098449,7.954637747420211,-0.6457608083333332,6.1e-06,6.84214156138965e-07,0.0,129,6,103.89991857779637,497.72164000000004,mp-1018725,HoFeSi,https://materialsproject.org/materials/mp-1018725,15.973680026033016,73.69215101357841,-8.604250342815693,-0.5045126942092143
-5.690816545,-22.76326618,1.1710014255830767,3.68303417375,0.04254840000000001,0.0007592767978132694,0.0,71,4,653.0712001168342,460.5416,mp-1097121,CrSiOs2,https://materialsproject.org/materials/mp-1097121,7.160144265008353,25.03426879843741,-8.604250342815693,-0.5045126942092143
-5.6873984525,-22.74959381,10.247893485481235,-0.36100332916666733,1.5399999999999998e-05,2.0744007825218613e-06,0.0,225,4,86.51780263948483,533.9382,mp-865161,Dy2AgRu,https://materialsproject.org/materials/mp-865161,15.653309764359472,53.579170920261184,-8.604250342815693,-0.5045126942092143
-4.6622871325,-18.64914853,11.71369913470308,-0.5799695224999999,1.86e-05,2.5553921659750056e-06,0.0,225,4,84.82674700808741,598.380989,mp-979044,Tm2CuAu,https://materialsproject.org/materials/mp-979044,-12.261709901888088,58.047386994596884,-8.604250342815693,-0.5045126942092143
-7.982750581,-159.65501162,11.676181609842534,-0.591736496,1e-07,2.119684217066329e-09,0.0,186,20,549.8019317560929,3865.96584,mp-1107,Th7Rh3,https://materialsproject.org/materials/mp-1107,-31.720592377705497,67.95925404109009,-8.604250342815693,-0.5045126942092143
-8.324901889,-83.24901889,5.953021528068838,-0.058214441951999166,1.2890944,0.13681866994851452,0.0,36,10,109.80365209804529,393.64537,mp-1246667,Mn2CoN2,https://materialsproject.org/materials/mp-1246667,3.7938600001287694,15.851566103988748,-8.604250342815693,-0.5045126942092143
-7.3275843075,-29.31033723,9.865713847896169,-0.9058021049999994,0.00010549999999999999,1.5552624410695386e-05,0.0,225,4,79.05442843842677,469.68385,mp-1187868,YLuRh2,https://materialsproject.org/materials/mp-1187868,17.328419211534406,51.31408015114982,-8.604250342815693,-0.5045126942092143
-10.940839230588235,-371.98853384,15.966894125975735,0.29529574617646903,3e-07,7.683486097377374e-09,0.0,38,34,455.0303582850605,4375.3392,mp-1220415,Ni2W11C4,https://materialsproject.org/materials/mp-1220415,67.79440135566342,43.999346393323066,-8.604250342815693,-0.5045126942092143
-6.883090898333332,-41.29854539,9.540523181319914,-0.15498474999999934,5.831144200000001,0.7083089420741671,0.0,166,6,95.94193743472471,551.2284,mp-1225304,Dy2Fe3Ni,https://materialsproject.org/materials/mp-1225304,42.783698695558144,69.94371939614203,-8.604250342815693,-0.5045126942092143
-10.775901757352939,-366.38065975,15.453226136109292,0.27281227470588226,0.1557291,0.0040929555116609615,0.0,194,34,443.4147923674672,4126.48477,mp-1199098,Co3(W5C2)2,https://materialsproject.org/materials/mp-1199098,67.76461686650322,43.951601127044924,-8.604250342815693,-0.5045126942092143
-6.3280601137499985,-303.74688546,3.2301307483287505,-2.0782776720666667,10.0,0.2674852660567786,0.2645999999999997,2,48,435.6899706799517,847.5173044000002,mp-758339,LiMn3Al2(HO2)6,https://materialsproject.org/materials/mp-758339,-44.19548154386371,-17.320565445610928,-0.5692527723214518,-1.6023056941832303
-6.3924776475,-25.56991059,13.202123019898524,-0.7018167749999993,0.0,0.0,0.0,123,4,69.53684558895866,552.8530000000002,mp-1216945,TiInPt2,https://materialsproject.org/materials/mp-1216945,31.828773995242944,42.39462151951806,-8.604250342815693,-0.5045126942092143
-10.10039253,-40.40157012,20.343102103385476,-0.6291733062499993,4e-06,7.01000778820068e-07,0.0,221,4,66.49958245225311,814.6799100000002,mp-1044,UIr3,https://materialsproject.org/materials/mp-1044,59.92974421360982,50.61941415682291,-8.604250342815693,-0.5045126942092143
-8.833625644404762,-742.02455413,8.217246201569267,-0.4590260993361899,0.00028509166666666665,2.421696347399017e-06,0.4685999999999994,205,84,1371.9625720288102,6789.2136,mp-1029619,Ba(ReN2)2,https://materialsproject.org/materials/mp-1029619,34.54230822668631,-8.035136283914733,3.215781387806602,-0.9418482326997912
-7.664602616190477,-160.95665494,8.93600037150469,-0.8490378830952379,2.27e-05,8.71185584640531e-07,0.0,147,21,303.66350752493526,1634.130334,mp-1215726,Zr2P7Rh12,https://materialsproject.org/materials/mp-1215726,33.40018680773877,51.6647366435009,-8.604250342815693,-0.5045126942092143
-7.942159691666667,-47.65295815,9.75020308663292,-0.0990954566666673,7.770593400000001,1.0251051982550636,0.0,191,6,88.34117606561219,518.7137349999999,mp-1217304,ThMn2Co3,https://materialsproject.org/materials/mp-1217304,44.38283832839056,76.62442372700829,-8.604250342815693,-0.5045126942092143
-7.09973703875,-56.79789631,10.750440843847509,-0.6579316224999996,1.4330119,0.10936811672077816,0.0,129,8,152.69910466764054,988.58422,mp-4206,UAs2Pd,https://materialsproject.org/materials/mp-4206,32.479217548121305,44.453846886909616,-8.604250342815693,-0.5045126942092143
-6.563215008095237,-137.82751517,9.173923315848516,-0.3589829440476197,2e-07,8.700103788779282e-09,0.0,65,21,267.906338947133,1480.0929999999996,mp-28147,Er4Ni13C4,https://materialsproject.org/materials/mp-28147,32.196606538245895,84.86654025629366,-8.604250342815693,-0.5045126942092143
-7.166127443000001,-71.66127443,6.2973986934588675,-2.8886484400000016,1.0,0.0917422201533612,0.0,225,10,127.0305509620122,481.7484,mp-11734,Sr2MgReO6,https://materialsproject.org/materials/mp-11734,-25.40469771489096,-6.508414915553372,-8.604250342815693,-0.5045126942092143
-5.573588491333334,-83.60382737,3.087940290017752,-2.3818856885277784,1.8000000000000001e-06,1.4155509559746305e-07,0.0,99,15,148.1918860078351,275.5778,mp-1031185,LiMg6BO7,https://materialsproject.org/materials/mp-1031185,-17.370541333870985,-4.5772751036468415,-5.569565222851341,-3.961291379638692
-6.7627828091666675,-81.15339371,4.053310070395639,0.08554581194444448,0.00206135,0.00011121121966224478,0.0,8,12,216.01333473255264,527.28,mp-1094387,MgTi5,https://materialsproject.org/materials/mp-1094387,59.419835618946934,54.22472502155888,-8.604250342815693,-0.5045126942092143
-8.486253706666666,-305.50513344,12.464978215120757,0.029762814444445163,0.0554932,0.0009268445866474477,0.0,62,36,697.7667632239285,5237.84584,mp-1208236,U2Ta3Ge4,https://materialsproject.org/materials/mp-1208236,25.030298656348524,62.98939959877521,-8.604250342815693,-0.5045126942092143
-7.093861933333333,-42.563171600000004,11.523429152502985,-0.3488525833333327,8.1457659,1.118494755264371,0.0,216,6,84.87414265815646,588.9901689999998,mp-1071438,GdNi4Au,https://materialsproject.org/materials/mp-1071438,30.35074185083385,72.42603870161794,-8.604250342815693,-0.5045126942092143
-8.48785052,-101.85420624,12.601012057569045,-0.546136765,0.0,0.0,0.0,62,12,187.91226364583176,1425.97352,mp-972224,TaGeRh,https://materialsproject.org/materials/mp-972224,50.32360292749104,58.193012417917615,-8.604250342815693,-0.5045126942092143
-5.3845190525,-21.53807621,4.530393022231335,-0.4467218749999997,4.4e-06,6.882362959006025e-07,0.0,225,4,74.50622018148893,203.27282399999999,mp-1185433,LiSc2Pd,https://materialsproject.org/materials/mp-1185433,7.74483451189066,43.47726803030369,-8.604250342815693,-0.5045126942092143
-6.103369411666668,-36.62021647,7.680964248984012,-0.6040907058333337,0.34143525,0.03336600823800912,0.0,129,6,119.25635487322944,551.63039,mp-20531,NdCoGe,https://materialsproject.org/materials/mp-20531,17.706531240461022,68.10750411266541,-8.604250342815693,-0.5045126942092143
-6.9712527,-13.9425054,12.193308688340403,-1.0348493299999992,1.3e-06,4.0035724270506013e-07,0.0,221,2,37.84191364183384,277.8725,mp-377,LuRh,https://materialsproject.org/materials/mp-377,17.58935153855015,51.30742196260452,-8.604250342815693,-0.5045126942092143
-6.63102758375,-53.04822067,14.580498765796811,-1.3396787237499996,6.725e-06,4.6491272434700545e-07,0.0,62,8,168.57698550957878,1480.2040000000004,mp-1025438,LuPt,https://materialsproject.org/materials/mp-1025438,15.92274791023345,56.57435759517786,-8.604250342815693,-0.5045126942092143
-9.899355331666666,-356.37679194,13.133873994410848,-0.6326877138888878,0.0007004416666666666,1.837375845179266e-05,0.0,55,36,444.27451107242376,3513.9465600000008,mp-1195237,TaBRu,https://materialsproject.org/materials/mp-1195237,40.80761768241314,57.82934887297782,-8.604250342815693,-0.5045126942092143
-7.089572765,-42.53743659,4.089557095168394,-1.779162934486666,0.0,0.0,1.4741,166,6,70.60032261561294,173.87368999999998,mp-25424,MnO2,https://materialsproject.org/materials/mp-25424,-76.89562631995426,-14.997770982540686,-8.604250342815693,-0.5045126942092143
-7.1097728475,-28.43909139,9.462043498886354,-0.09887379625000037,0.022822400000000003,0.00308429099920631,0.0,225,4,86.23496548597721,491.382,mp-1186615,PmNdRu2,https://materialsproject.org/materials/mp-1186615,19.947745624157697,53.845023068454,-8.604250342815693,-0.5045126942092143
-5.00887193,-20.03548772,10.633937506903065,-0.8807253174999996,0.000993,0.00013602863045132928,0.0,225,4,85.07390158053809,544.80535,mp-1187378,TbYbPd2,https://materialsproject.org/materials/mp-1187378,16.412631284553072,54.279455291465226,-8.604250342815693,-0.5045126942092143
-4.788125617333334,-574.57507408,5.9903576071090106,-1.693774361666667,0.0002707125,8.19499206250137e-07,0.7545999999999999,88,120,3849.7914161232147,13888.036799999998,mp-1202615,Ho5IrBr9,https://materialsproject.org/materials/mp-1202615,-33.076542288932465,37.51282020533064,-5.108426219900222,-1.1251283451956815
-7.895157336666667,-47.37094402,9.665955129222382,-0.7781465640476194,1.4440583999999999,0.1424180537787723,0.0,129,6,118.1672525528314,687.8485440000002,mp-1077201,UAsP,https://materialsproject.org/materials/mp-1077201,32.86307690982359,44.55855725542142,-8.604250342815693,-0.5045126942092143
-10.34762514125,-165.56200226,16.01590629338666,-0.8022976762500011,4.5e-06,1.7215146383497745e-07,0.0,193,16,304.6345950725705,2938.202,mp-1189573,Hf5Ir3,https://materialsproject.org/materials/mp-1189573,39.444380297071426,61.05764566464251,-8.604250342815693,-0.5045126942092143
-7.401038406666667,-44.40623044,5.033084832712731,-0.0058392466666674645,14.80578965,0.796676349438793,0.0,63,6,216.58435286994842,656.466,mp-1183936,Eu2Mg,https://materialsproject.org/materials/mp-1183936,-27.19879613746951,55.383566949722365,-8.604250342815693,-0.5045126942092143
-7.2055016602564095,-562.0291295,4.893376690533146,-2.1555392274748706,14.0007005,0.1652065126110619,0.3571999999999997,2,78,987.6430893032705,2910.44628,mp-766233,BaMn4O8,https://materialsproject.org/materials/mp-766233,-80.474959263625,-15.062720549962227,-6.374302652759748,-3.636891309230696
-9.148325713,-182.96651426,9.180941604696507,-0.5237292948333334,0.0008725,3.709628361887008e-05,0.0,65,20,274.1021612441524,1515.4813439999998,mp-1219294,ScNb2B2Ru5,https://materialsproject.org/materials/mp-1219294,41.049513033969504,58.094973165080496,-8.604250342815693,-0.5045126942092143
-6.786868788,-33.93434394,14.496802341916807,-0.8603298383333324,0.0,0.0,0.0,99,5,84.41644624764649,736.97065,mp-11596,PrBPt3,https://materialsproject.org/materials/mp-11596,22.91263157216578,50.87701562887649,-8.604250342815693,-0.5045126942092143
-5.7755482453125,-184.81754385,4.181856081018287,-1.8401992819349988,18.0000001,0.7306859384180748,0.14620000000000033,1,32,287.09074041528294,723.001465,mp-1175995,Li9Mn2Co5O16,https://materialsproject.org/materials/mp-1175995,-89.13295612120945,-35.983293120578814,-5.010330675867972,-2.429704449496417
-4.91053459590909,-108.03176111,9.906399403966367,-0.8306704127272729,0.6970081,0.013433860898205134,0.0,12,22,604.6644077938946,3607.290756,mp-1190610,Ho7(TeAu)2,https://materialsproject.org/materials/mp-1190610,-31.905326149905967,41.49140936347845,-8.604250342815693,-0.5045126942092143
-4.597667945,-18.39067178,4.39295587304541,-2.101401130595,2.0214096,0.5999916179027599,0.0,166,4,39.263279198163644,103.87100140000001,mp-1097040,LiCoF2,https://materialsproject.org/materials/mp-1097040,23.59011988423079,66.64046469577407,-8.604250342815693,-0.5045126942092143