energy_per_atom,energy,density,formation_energy_per_atom,total_magnetization_uB,total_magnetization_T,band_gap,sgr,num_sites,cell_volume,weight,mp_id,formula,URL,tsne_cry_lin1_0,tsne_cry_lin1_1,tsne_cry_lin2_0,tsne_cry_lin2_1
-3.8288116866666666,-22.97287012,4.740198192687049,-0.13751596666666666,4.1000000000000006e-06,5.477945650038013e-07,0.0,166,6,87.225519601793,248.9952,mp-978288,MgNi,https://materialsproject.org/materials/mp-978288,-19.853527995851554,41.2761487297645,-8.604250342815693,-0.5045126942092143
-6.736392364183674,-660.16645169,4.1373087702635765,-2.011038929501226,77.06704930000001,0.8781056607627149,0.0,8,98,1022.8204013536715,2548.4036899999996,mp-735790,Li14Mn22Cr3Cu3O56,https://materialsproject.org/materials/mp-735790,-67.69319121353595,-36.97701529544918,-8.604250342815693,-0.5045126942092143
-5.2525711681818175,-115.55656570000001,2.486282191150599,-0.5509752117745447,1.98102395,0.11258479686198188,0.0,137,22,205.06304645728028,307.0356,mp-1029739,Li6FeN4,https://materialsproject.org/materials/mp-1029739,2.195091484872979,4.720469350691512,0.8800195075654232,-2.2933310714822195
-3.28094204,-13.12376816,7.991841888764503,-0.323668714583333,4.8e-05,6.610002458261343e-06,0.0,225,4,84.62857807015176,407.3004,mp-1184233,ErMgAg2,https://materialsproject.org/materials/mp-1184233,20.69445260567205,61.256813310388594,-8.604250342815693,-0.5045126942092143
-4.003906078333333,-24.02343647,8.320631062031863,-0.4022733016666666,1.3e-06,1.0458771026475648e-07,0.0,156,6,144.85721282142725,725.8507000000002,mp-1217750,Tb2In3Cu,https://materialsproject.org/materials/mp-1217750,-6.6045921585592025,53.86694360112566,-8.604250342815693,-0.5045126942092143
-9.379889412,-93.79889412,6.553860487977,-0.16237236229166568,0.00032739999999999993,4.1968932771154657e-05,0.0,38,10,90.91345799382522,358.8196999999999,mp-1226023,Cr6BC3,https://materialsproject.org/materials/mp-1226023,-0.4677558363999874,17.113492827317536,-8.604250342815693,-0.5045126942092143
-3.970718665,-15.88287466,10.048172728965307,-0.8014290629166667,2.58e-05,2.75249385219227e-06,0.0,225,4,109.23725438753023,661.011138,mp-1183474,CaAcAu2,https://materialsproject.org/materials/mp-1183474,-24.2085302861942,53.69887134774631,-8.604250342815693,-0.5045126942092143
-6.279820026666666,-37.67892016,7.652316313798813,-0.7658495274999986,0.7662868,0.06846940824919626,0.0,44,6,130.4284092693663,601.0575,mp-1226876,Ce2Ge3Rh,https://materialsproject.org/materials/mp-1226876,10.740585181622414,64.67539145091261,-8.604250342815693,-0.5045126942092143
-5.705551550789473,-216.81095893,9.39610157188399,-0.17737854131578956,1e-07,1.3956235123389325e-09,0.0,14,38,835.0435966092737,4725.06473,mp-573622,Dy12Co7,https://materialsproject.org/materials/mp-573622,-27.691920386549192,68.11850042821969,-8.604250342815693,-0.5045126942092143
-5.2431918556521735,-241.18682536,4.012140546619872,-0.5782004971217387,3.56042835,0.040128805019450216,0.0,136,46,1034.0069331455588,2498.3340000000007,mp-1245458,Sr11(GeN5)2,https://materialsproject.org/materials/mp-1245458,7.565632412102392,4.808773061897499,-8.604250342815693,-0.5045126942092143
-3.39263607,-40.71163284,2.08708129253634,-0.9929483928660716,0.9999849000000001,0.055716892436373115,0.0,221,12,209.16257685207398,262.89011624,mp-1020638,Na8PO3,https://materialsproject.org/materials/mp-1020638,5.1462454492601735,1.7583462587108636,-8.604250342815693,-0.5045126942092143
-5.2757624675,-21.10304987,12.347830869428954,-0.9237324375,8.7e-06,1.1757297430781378e-06,0.0,225,4,86.23611345905283,641.254989,mp-1187605,Tm2PdAu,https://materialsproject.org/materials/mp-1187605,-11.191694912907169,54.61395150504611,-8.604250342815693,-0.5045126942092143
-4.8060646025,-19.22425841,4.700646083009904,-1.5421869814100004,0.0,0.0,1.1229,166,4,114.4956337372728,324.1137,mp-1018099,Ba2NCl,https://materialsproject.org/materials/mp-1018099,26.790439284859424,-7.092600956340184,7.360985215607385,-6.1617954416344105
-5.914582863571428,-82.80416009,4.383651443938992,-1.6422558629942858,4.0000005,0.3333751190547227,0.19600000000000015,74,14,139.83126590085809,369.14009,mp-756366,LiMnNiO4,https://materialsproject.org/materials/mp-756366,-62.61796688695088,-24.511614364511576,1.71144886099712,-1.5860886002041072
-5.34883931,-16.04651793,7.278001838683868,-0.6314812683333338,9.14e-05,1.8632898287963572e-05,0.0,187,3,57.166711466462466,250.55685,mp-1217586,TbCuSi,https://materialsproject.org/materials/mp-1217586,-4.456197626423072,56.81949874344168,-8.604250342815693,-0.5045126942092143
-3.164876618333333,-18.98925971,12.759183924926198,-0.4476838783333328,5.5e-07,5.887898250812981e-08,0.0,12,6,108.86288029897251,836.476276,mp-1185854,MgAu2,https://materialsproject.org/materials/mp-1185854,29.68932540228629,32.29356818074049,-8.604250342815693,-0.5045126942092143
-1.9759600626086955,-45.44708144,5.971485497096817,-0.11570131286956532,0.0003131,4.398079938343203e-06,0.0,204,23,829.6546973775583,2983.53177712,mp-1211780,K6Na4Tl13,https://materialsproject.org/materials/mp-1211780,-38.93820058926328,49.71686085627921,-8.604250342815693,-0.5045126942092143
-7.0767553894117645,-120.30484162,8.060093592258513,-0.9299794547058824,2.2e-06,9.315023314891825e-08,0.0,229,17,275.2429235323827,1336.002148,mp-541558,Sc4Ge6Rh7,https://materialsproject.org/materials/mp-541558,30.14519371747725,51.49302612408447,-8.604250342815693,-0.5045126942092143
-5.832770432,-29.16385216,3.733659613941864,-0.9689924568571436,7.0,0.6987087506774134,0.0,164,5,116.75602077235436,262.521524,mp-1206478,Eu(MgP)2,https://materialsproject.org/materials/mp-1206478,0.15917372100922944,42.20403680647721,-8.604250342815693,-0.5045126942092143
-5.4632118335,-109.26423667,2.6671621060502844,-0.7032499129519998,1.99999965,0.0594039346880989,0.5539999999999998,59,20,392.36669403426424,630.2203999999998,mp-1246733,Ca5NiN4,https://materialsproject.org/materials/mp-1246733,5.736948407399617,5.070821873903334,-8.604250342815693,-0.5045126942092143
-4.3708714075,-17.48348563,11.930615726421927,-0.6703189491666666,1.07e-05,1.2063284243982077e-06,0.0,225,4,103.37026844791136,742.693138,mp-862894,AcSbAu2,https://materialsproject.org/materials/mp-862894,2.934785083339813,31.68452255238647,-8.604250342815693,-0.5045126942092143
-4.602114378333334,-27.61268627,9.717061574250069,-0.8255390400000001,5e-08,4.8421392574783515e-09,0.0,12,6,120.34004138316335,704.2,mp-1215631,YbGePd,https://materialsproject.org/materials/mp-1215631,6.402577181704697,48.83010032632435,-8.604250342815693,-0.5045126942092143
-4.2982922440000015,-42.98292244,3.7922043421705327,-2.0549731638640467,5.999999900000001,0.21627309782036655,0.0,225,10,323.315235110887,738.3611038000001,mp-1113566,Cs2EuAgCl6,https://materialsproject.org/materials/mp-1113566,-19.54804034869783,10.05723577950172,-8.139285405269323,2.2241420300122687
-6.118769802105264,-116.25662624,3.4011375159187147,-0.6486537515284209,4.9999995,0.25323161363835595,0.0,12,19,230.1068069604565,471.307735,mp-1246692,Mg8Mn3N8,https://materialsproject.org/materials/mp-1246692,-0.8131875568827066,8.300712244173793,-8.604250342815693,-0.5045126942092143
-4.840765591666666,-29.04459355,8.795969862043453,-0.6027210533333326,0.0,0.0,0.0,186,6,130.1688855812525,689.512,mp-22188,DyCuSn,https://materialsproject.org/materials/mp-22188,-6.06720140484864,54.664263381902046,-8.604250342815693,-0.5045126942092143
-6.319859420714287,-88.47803189,6.9699823540978825,-2.059774504642857,0.9068881,0.06496166011296438,0.0,88,14,162.6949286776979,682.8992000000002,mp-9417,Sm(CuO2)2,https://materialsproject.org/materials/mp-9417,-59.926412100210406,-1.8717360350646024,-8.604250342815693,-0.5045126942092143
-4.6106606275,-18.44264251,8.620023016900081,-0.11707974499999985,1.4499999999999998e-05,2.17270204514209e-06,0.0,225,4,77.77593783737814,403.742615,mp-867136,LiTm2Co,https://materialsproject.org/materials/mp-867136,8.784823471683161,42.52593102782625,-8.604250342815693,-0.5045126942092143
-5.379916533333333,-32.2794992,7.583693362447879,-0.6698987549999996,0.0,0.0,0.0,194,6,111.29017402875252,508.263,mp-5365,DyCuSi,https://materialsproject.org/materials/mp-5365,-4.6018372030988886,56.93359518558363,-8.604250342815693,-0.5045126942092143
-5.929338125,-35.57602875,11.096700990515089,-0.30363824833333314,7.680917900000001,0.9832087441858036,0.0,216,6,91.04263489177951,608.4005689999998,mp-1072041,GdCu4Au,https://materialsproject.org/materials/mp-1072041,4.4101548683318965,41.83783289211353,-8.604250342815693,-0.5045126942092143
-6.3701811333333325,-191.105434,6.6754329718072425,-0.6282245323333332,1.1e-05,2.78856886083735e-07,0.0,139,30,459.71506853756654,1848.0728559999998,mp-1192696,Sc4Co4Ge7,https://materialsproject.org/materials/mp-1192696,21.753736799853865,68.76486806920353,-8.604250342815693,-0.5045126942092143
-8.620126847604167,-827.53217737,1.5347258418986554,-0.10624410252416537,0.059310190625,0.0002495151545521035,0.08190000000000007,131,96,2770.191672154631,2560.304,mp-1097032,CrN2,https://materialsproject.org/materials/mp-1097032,-4.875812437952245,9.69050034484836,-8.604250342815693,-0.5045126942092143
-3.4545866725,-13.81834669,9.98407788298717,-0.2572387002083336,5.9e-06,7.325390414603501e-07,0.0,225,4,93.86391477651216,564.3616999999998,mp-974782,NdTlAg2,https://materialsproject.org/materials/mp-974782,-6.193720141375634,50.398253927381184,-8.604250342815693,-0.5045126942092143
-7.20771613,-28.83086452,9.069334933802628,-0.5368266991666664,14.4514307,1.51100721720626,0.0,225,4,111.460691594412,608.7627689999998,mp-1183891,Eu2AgAu,https://materialsproject.org/materials/mp-1183891,-5.328139927229024,52.089478365020504,-8.604250342815693,-0.5045126942092143
-6.804692197083334,-163.31261273,6.477031293729872,-0.8894362179166665,0.424645925,0.01032495503320376,0.0,194,24,479.3097015375506,1869.576,mp-1191035,Ce2Si3Rh,https://materialsproject.org/materials/mp-1191035,11.952391659388047,72.20832546784405,-8.604250342815693,-0.5045126942092143
-3.64640403,-14.58561612,7.648831091831402,-0.2423571483333333,5.870000000000001e-05,6.855759582147643e-06,0.0,225,4,99.78377945612762,459.62742000000003,mp-976339,LiTm2In,https://materialsproject.org/materials/mp-976339,-30.77279927581437,54.38170564080326,-8.604250342815693,-0.5045126942092143
-3.961223489,-39.61223489,9.211575917307126,-0.31159523199999983,0.0020112000000000003,0.00011325561858760578,0.0,127,10,206.95357424975543,1148.042,mp-1206454,Er2CdCu2,https://materialsproject.org/materials/mp-1206454,-16.575485172693984,55.58332104487193,-8.604250342815693,-0.5045126942092143
-4.944640381666667,-59.33568458,8.5073995056734,-0.921800001666666,2.25e-07,9.490770919620369e-09,0.0,62,12,276.285730214508,1415.4879999999998,mp-1102040,CaSnPt,https://materialsproject.org/materials/mp-1102040,3.7585654665663712,49.919798161109455,-8.604250342815693,-0.5045126942092143
-7.334723513793103,-425.41396380000003,5.4492852123191975,-2.448848997944138,9.9923565,0.17800780172094824,0.0,7,58,654.1936294683406,2146.82557,mvc-12300,Y5Mn3(NiO6)3,https://materialsproject.org/materials/mvc-12300,-39.944330686164726,-19.55957690812874,-8.604250342815693,-0.5045126942092143
-4.840994913333334,-43.56895422,3.8331555859424022,-1.4841892958055558,0.0,0.0,0.23839999999999995,12,9,205.19348681032184,473.6646,mp-1206020,K2Ce(CuS2)2,https://materialsproject.org/materials/mp-1206020,-9.851264549593552,12.665430847697198,-1.3098722162359608,-0.27092579098474523
-4.07011599368421,-77.33220388,8.69013645539533,-0.25900813789473665,3.41e-05,1.4324648483033284e-06,0.0,166,19,277.42642984572154,1451.862,mp-1225618,Er2Ga6Cu11,https://materialsproject.org/materials/mp-1225618,4.697502803433795,43.766373001250926,-8.604250342815693,-0.5045126942092143
-6.539844552000001,-130.79689104,7.195284198156124,-0.7730988874999994,0.0014458000000000001,5.6841547987801586e-05,0.0,15,20,296.4283599697665,1284.45417,mp-15898,Dy2Co3Si5,https://materialsproject.org/materials/mp-15898,20.72894222842552,68.21453877523773,-8.604250342815693,-0.5045126942092143
-7.007460547777778,-504.53715944,6.470138985142472,-0.4869230091652194,0.0017242000000000002,1.2353233254605025e-05,0.0,167,72,1626.6137023970487,6337.951999999998,mp-1199774,In2Mo15Se19,https://materialsproject.org/materials/mp-1199774,63.62113530864296,33.476999241876264,-8.604250342815693,-0.5045126942092143
-7.072483530714287,-99.01476943,5.644371472035562,-2.8878138592442864,7.000000999999999,0.4299325211931809,0.0,38,14,189.74713714510347,644.9732899999998,mp-1218352,Sr3NdMn2O8,https://materialsproject.org/materials/mp-1218352,-32.84925926486987,5.455654986607543,-8.604250342815693,-0.5045126942092143
-5.8696882772727275,-64.56657105,5.6518438869898135,-0.6423618963636359,1.5e-06,9.395912821890237e-08,0.0,71,11,186.05001440746395,633.24355,mp-1101887,Y3(CuSi)4,https://materialsproject.org/materials/mp-1101887,-4.707266035159743,57.357285813828575,-8.604250342815693,-0.5045126942092143
-6.97926427375,-279.17057095,4.5886538923004485,-0.5619425518020691,1.25e-07,1.5233702269632602e-09,1.5430000000000001,80,40,956.2731834886353,2642.5194228,mp-1247239,Cs3Mo2N5,https://materialsproject.org/materials/mp-1247239,34.48239828298253,-11.809406197214056,-5.501829159808222,-3.7037607125017797
-3.9322735444444437,-35.3904619,7.771958095964399,-0.6640908369444445,1.4566666666666666e-05,7.353289956088409e-07,0.0,189,9,230.8638417189848,1080.531117,mp-1206060,LaMgAu,https://materialsproject.org/materials/mp-1206060,-13.793728788166234,45.77364171752758,-8.604250342815693,-0.5045126942092143
-2.2522170983333334,-13.51330259,5.194739641398762,-0.2687422046666669,5e-07,3.751648884899612e-08,0.0,140,6,155.31923602268998,485.89221512,mp-1363,Na2Au,https://materialsproject.org/materials/mp-1363,-16.72970691287207,46.19613494917346,-8.604250342815693,-0.5045126942092143
-6.214233563333334,-74.57080276,6.804582515065925,-0.6241987024133344,7.000004275,0.542755407422661,0.0,194,12,150.30435830465518,615.91952,mp-1181447,EuH2,https://materialsproject.org/materials/mp-1181447,-17.720150909999386,14.21872801737633,-8.604250342815693,-0.5045126942092143
-5.841796288888888,-105.15233319999999,3.439036531931364,-0.977023842764445,5.00000015,0.26480060172265074,0.07510000000000001,4,18,220.05359969664983,455.73898,mp-1213868,Co2NO6,https://materialsproject.org/materials/mp-1213868,-49.26791110851632,-8.735894904142688,-8.604250342815693,-0.5045126942092143
-4.626765056666667,-13.88029517,3.1755523350589416,0.1202177632066667,5.7000000000000005e-06,7.963311677458992e-07,0.0,187,3,83.4177687552056,159.525,mp-1245665,KPdN,https://materialsproject.org/materials/mp-1245665,8.437287052629069,10.082431753731774,-8.604250342815693,-0.5045126942092143
-6.8437582107692325,-177.93771348,5.982742269470411,0.2724184996707689,0.05641685,0.0022604121914899817,0.0,15,26,290.86979208442233,1047.97235,mp-1247510,Co5(GeN3)2,https://materialsproject.org/materials/mp-1247510,4.417726212886025,14.568717963109483,-8.604250342815693,-0.5045126942092143
-6.070535511666668,-36.42321307,8.503024210452544,-0.8254650500000006,1.25e-06,1.1685614153802125e-07,0.0,12,6,124.66251900812414,638.3520000000002,mp-1226615,CeGePd,https://materialsproject.org/materials/mp-1226615,8.112606954775515,64.13059432483891,-8.604250342815693,-0.5045126942092143
-7.565086629545454,-332.8638117,2.6972802594438243,-0.1444603566024447,5.000000175,0.0753820372422013,1.5952000000000002,14,44,773.0001474361612,1255.6151876,mp-1204958,CsMnN9,https://materialsproject.org/materials/mp-1204958,-17.85276631874024,-39.761717777858905,7.414465046541472,-0.609638741526572
-9.042781303695653,-415.96793997,7.896172884062301,-3.458116323315217,0.0,0.0,0.0,127,46,654.7425168287791,3113.4228,mp-15021,Ba3Ta5O15,https://materialsproject.org/materials/mp-15021,-41.50661840525543,28.489524614631453,-8.604250342815693,-0.5045126942092143
-4.347233783888889,-156.50041622,8.882665497459989,-0.6363037800000002,0.0,0.0,0.03440000000000065,189,36,616.9285703333546,3300.1152,mp-16668,Yb2Cu4As3,https://materialsproject.org/materials/mp-16668,21.507537717402887,33.07278536560133,-8.604250342815693,-0.5045126942092143
-4.7691357666666665,-28.614814600000003,9.745761745060674,-0.2587704600000003,9.32e-05,1.3386268199423685e-05,0.0,191,6,81.13977851193249,476.2122,mp-1215563,YbCu2Ni3,https://materialsproject.org/materials/mp-1215563,29.917857681243614,77.44825910921583,-8.604250342815693,-0.5045126942092143
-3.9644014989999996,-39.64401499,9.060882012136524,-0.31051300600000004,0.00102525,5.725439965625199e-05,0.0,127,10,208.6884148607452,1138.72728,mp-1205581,Ho2CdCu2,https://materialsproject.org/materials/mp-1205581,-16.58360500157444,55.5816279840287,-8.604250342815693,-0.5045126942092143
-4.599775785833333,-110.39461886,3.0372207067151864,0.15095537083333355,0.025411716666666667,0.0006254443981186866,0.0,57,24,473.50298908436224,866.064,mp-1094417,MgTi,https://materialsproject.org/materials/mp-1094417,-17.423336961879414,38.808677257866,-8.604250342815693,-0.5045126942092143
-6.834163534,-34.17081767,8.906356002174308,-0.8594252379999994,0.6495523,0.08265668153545291,0.0,139,5,91.5827303582016,491.207,mp-5577,Ce(GeRh)2,https://materialsproject.org/materials/mp-5577,10.996442877567883,64.90539063598872,-8.604250342815693,-0.5045126942092143
-6.6859334000000015,-93.6030676,4.09475845923315,-1.9866980409200008,15.0,1.1890396716645324,0.0,160,14,147.01861994535315,362.536335,mp-1177938,Li2Mn3FeO8,https://materialsproject.org/materials/mp-1177938,-68.29839935727188,-37.05822664180346,-6.084364326014932,0.5605468742701131
-8.503060180476192,-714.25705516,3.737498219993165,-1.0786895768361913,8.333333333333334e-09,9.200436019453658e-11,1.4901999999999995,205,84,1055.571781953052,2375.853600000001,mp-1246211,Ca(VN2)2,https://materialsproject.org/materials/mp-1246211,33.82755232735633,-8.170538962073524,6.789039104783559,-2.9868280239149434
-7.39806571,-29.59226284,6.921041659173214,0.03739882749999968,4e-07,5.761678795740221e-08,0.0,221,4,80.90742428179708,337.218,mp-580287,Zr3Cu,https://materialsproject.org/materials/mp-580287,-10.52142770654195,53.312657350938174,-8.604250342815693,-0.5045126942092143
-4.594235689583333,-441.0466262,2.435354001991058,-0.3489062078766665,0.9959086625,0.013029106269038415,0.0,218,96,890.80431310235,1306.4576,mp-568989,Li7NiN4,https://materialsproject.org/materials/mp-568989,2.1697537046741115,4.688724882911148,1.1199097367068047,-1.82877058203621
-6.262749875909091,-275.56099454,4.293471918003719,-2.4481977536363644,24.9999991,0.5650012579750334,0.6025000000000005,3,44,515.6654161612653,1333.298965,mp-1227684,Ca12FeCo7O24,https://materialsproject.org/materials/mp-1227684,-24.02898896187633,-11.186051896963189,-5.990056967142942,-2.110174087849474
-6.0834842925,-73.00181151,8.529138348701219,-0.6004544083333331,0.0,0.0,0.0,62,12,219.55843970603308,1127.73278,mp-20777,SmCoGe,https://materialsproject.org/materials/mp-20777,19.737913876441773,68.01495832112418,-8.604250342815693,-0.5045126942092143
-5.249222574210528,-99.73522891,3.91675188853502,-0.5324036078442103,2.0574876,0.054216006528852674,0.0,12,19,442.26964127978925,1043.1916449999999,mp-1247367,Sr10MnN8,https://materialsproject.org/materials/mp-1247367,7.41808153567777,4.967886354250377,-8.604250342815693,-0.5045126942092143
-7.51571901,-60.12575208,8.422252352559086,-1.0023399512499995,0.52807765,0.0417290272733052,0.0,63,8,147.48129875479006,748.0250000000002,mp-31078,CeSiRh2,https://materialsproject.org/materials/mp-31078,13.182063637611499,64.48735724962499,-8.604250342815693,-0.5045126942092143
-6.956838499375,-111.30941599,7.490084219929029,-0.2834972680650001,0.661251925,0.02430391431806366,0.0,64,16,317.07949032729124,1430.2296,mp-1247077,BaIrN2,https://materialsproject.org/materials/mp-1247077,8.112135176999567,9.412779644987811,-8.604250342815693,-0.5045126942092143