energy_per_atom,energy,density,formation_energy_per_atom,total_magnetization_uB,total_magnetization_T,band_gap,sgr,num_sites,cell_volume,weight,mp_id,formula,URL,tsne_cry_lin1_0,tsne_cry_lin1_1,tsne_cry_lin2_0,tsne_cry_lin2_1
-6.42189859,-25.68759436,8.160248402810703,-0.7214666337499995,5.31e-05,8.750324516495869e-06,0.0,225,4,70.72090163699838,347.537824,mp-867233,Sc2ZnIr,https://materialsproject.org/materials/mp-867233,17.782797185834703,57.552082334764265,-8.604250342815693,-0.5045126942092143
-7.246657688666668,-108.69986533,7.002294831406672,-0.4353737559166661,1.9206458,0.07501447987140357,0.0,148,15,298.3867994114763,1258.2615,mp-1105074,V(Mo3Se4)2,https://materialsproject.org/materials/mp-1105074,62.852371065204856,33.02957570526557,-8.604250342815693,-0.5045126942092143
-7.8543955866666675,-94.25274704,8.681660701734188,-0.1340048037500002,2.9751745,0.2329234355206289,0.0,160,12,148.8595437173049,778.2702,mp-1220858,Nb3Co8Si,https://materialsproject.org/materials/mp-1220858,60.24932006064758,65.17133942102461,-8.604250342815693,-0.5045126942092143
-5.608236535263157,-106.55649417,7.465477658981513,-0.15862680684210548,0.0080949,0.00018507129325712537,0.0,204,19,509.74133949734716,2291.70317,mp-1210632,Nd12Co6Pb,https://materialsproject.org/materials/mp-1210632,-29.90047796303065,67.84944431799532,-8.604250342815693,-0.5045126942092143
-6.965355763,-69.65355763,4.207522195985772,-0.8402152069999993,1.5e-07,1.0802598127062435e-08,0.0,12,10,161.82308138489637,410.032038,mp-9902,Sc2CoSi2,https://materialsproject.org/materials/mp-9902,23.63285500148186,66.87567557495133,-8.604250342815693,-0.5045126942092143
-6.8044092166666665,-40.82645529999999,7.770465545358385,-0.6408785716666673,0.00141965,0.00015708409309657587,0.0,129,6,105.32379649792185,492.861,mp-22698,DyFeSi,https://materialsproject.org/materials/mp-22698,15.971559346605954,73.593059975204,-8.604250342815693,-0.5045126942092143
-6.847232766904763,-287.58377621,4.339068902703567,-2.022885390750476,7.001110700000001,0.19652005038098755,0.0,9,42,415.18103328124505,1084.88814,mp-1016095,LiMn2O4,https://materialsproject.org/materials/mp-1016095,-71.1232739195822,-37.13098746347533,-8.604250342815693,-0.5045126942092143
-4.33824174625,-34.70593397,12.472207331651942,0.8942277343750007,0.403619,0.03465002499290268,0.0,194,8,135.75176267258811,1019.6232,mp-974525,ReAg3,https://materialsproject.org/materials/mp-974525,43.322363381962106,34.608657456084075,-8.604250342815693,-0.5045126942092143
-5.8174733875,-23.26989355,11.179745205113466,-0.95508240875,1.17e-05,1.6538704157620648e-06,0.0,225,4,82.44452318600808,555.066,mp-1184303,ErLuPd2,https://materialsproject.org/materials/mp-1184303,16.804271959269222,54.19535870476083,-8.604250342815693,-0.5045126942092143
-6.44700172,-25.78800688,1.1581185211700742,4.237765672083333,2.8897702,0.03922689149478308,0.0,71,4,858.5327005350824,598.771,mp-1097439,HfTiRe2,https://materialsproject.org/materials/mp-1097439,-60.909921862543,35.187642225688016,-8.604250342815693,-0.5045126942092143
-6.427271696428571,-89.98180375,8.67842123947106,-0.4778344028571421,0.00223215,6.242314286539388e-05,0.0,15,14,416.7303901721767,2177.9445,mp-1104160,Pr5Ir2,https://materialsproject.org/materials/mp-1104160,-29.87389583877648,65.53230133340742,-8.604250342815693,-0.5045126942092143
-5.847227180416668,-140.33345233,4.112255278742722,-1.8998283436216676,11.999999699999998,0.6568535340189084,0.0,1,24,212.90708891956902,527.2554749999998,mp-1175060,Li7Mn2(CoO4)3,https://materialsproject.org/materials/mp-1175060,-85.3274930360582,-34.270266051736066,-4.785823706261944,-2.1494922714998164
-4.797480730833334,-57.56976877,10.91772219614977,-0.6359775875000006,7.000000000000001e-06,2.568950505142666e-07,0.0,62,12,317.55556693135827,2087.866276,mp-1103411,Dy2Au,https://materialsproject.org/materials/mp-1103411,-31.518680777115087,41.64822494459556,-8.604250342815693,-0.5045126942092143
-6.993015017,-69.93015017,10.500148088793305,-0.6979742130000005,4.9000000000000005e-06,2.1458054398756735e-07,0.0,127,10,266.1234626604875,1682.7883600000002,mp-314,Th3Ge2,https://materialsproject.org/materials/mp-314,1.721292899416493,71.44507354360742,-8.604250342815693,-0.5045126942092143
-4.466577034285715,-125.06415696,11.12558893220036,-0.6105767683928575,0.0008947000000000001,1.5819213456282573e-05,0.0,59,28,659.1283302943319,4416.150828,mp-1192602,Nd3Sn5Au6,https://materialsproject.org/materials/mp-1192602,-3.882328464964659,44.8229525901685,-8.604250342815693,-0.5045126942092143
-9.296182651,-92.96182651,11.36241478339275,-0.4354625062499992,3.595e-05,2.5745772857389985e-06,0.0,63,10,162.73103584585652,1113.5044,mp-1205793,NdRe2SiC,https://materialsproject.org/materials/mp-1205793,19.00630286119965,44.80607296701304,-8.604250342815693,-0.5045126942092143
-9.835599905,-78.68479924,7.275531584247184,-0.4640473456249996,1.47e-05,1.7899752741903477e-06,0.0,160,8,95.70788749253401,419.33718,mp-1215534,Zr2NbMoC4,https://materialsproject.org/materials/mp-1215534,2.1611289551430297,25.554023588256868,-8.604250342815693,-0.5045126942092143
-5.785005664375,-185.12018126,4.263735409157127,-1.8496567009975,13.9999994,0.5794386002011878,0.0230999999999999,2,32,281.57754724443083,723.001465,mp-1175801,Li9Mn2Co5O16,https://materialsproject.org/materials/mp-1175801,-76.76369577633405,-53.654063919456966,3.7012067932974886,1.9789931137219336
-5.79805050375,-185.53761612,4.241321127133838,-1.8627015403724991,21.9999874,0.9057591869105897,0.22109999999999985,2,32,283.0656115447229,723.001465,mp-1175732,Li9Mn2Co5O16,https://materialsproject.org/materials/mp-1175732,-72.60112658553216,-51.754905602936056,3.9631308031588857,4.506038503414316
-9.8126879225,-39.25075169,7.522068718172706,-0.34748487687500074,0.0013203,0.0003300459184460044,0.0,166,4,46.620366619464356,211.1854,mp-1215218,ZrMoC2,https://materialsproject.org/materials/mp-1215218,2.325460852538099,25.39264543869425,-8.604250342815693,-0.5045126942092143
-8.2635311175,-33.05412447,8.904910163918311,-0.6681262799999992,7.136932300000001,1.1514576185455931,0.0,225,4,72.23389724637099,387.366,mp-866059,GdMgRh2,https://materialsproject.org/materials/mp-866059,38.44035554660564,56.050377495801236,-8.604250342815693,-0.5045126942092143
-4.3126218455,-86.25243691,5.008556913341298,-1.321379548125,2e-07,2.7525091830256378e-09,0.036599999999999966,146,20,846.7957051281627,2554.125125,mp-1223204,La7CoI12,https://materialsproject.org/materials/mp-1223204,-30.011833186782297,38.72837500351638,-8.604250342815693,-0.5045126942092143
-5.9643905275,-23.85756211,0.5498962354067017,3.3409148475,12.931928599999999,0.1898069479477392,0.0,71,4,794.0148407002101,262.94219,mp-1095759,Mn2CrRu,https://materialsproject.org/materials/mp-1095759,7.068552753718499,23.856933022134584,-8.604250342815693,-0.5045126942092143
-6.896250986666666,-41.37750592,6.138143540674046,-0.3640193584288885,0.0008197000000000001,0.00016860130505542463,0.0,51,6,56.65932948103134,209.43988000000002,mp-1077746,TiFeH,https://materialsproject.org/materials/mp-1077746,-59.885942281589216,38.85655618482054,-8.604250342815693,-0.5045126942092143
-8.556428649999999,-42.78214325,9.112383947593713,-0.4141982977499993,2.889847,0.4564878828403066,0.0,139,5,73.77734521941092,404.861,mp-569597,Np(FeSi)2,https://materialsproject.org/materials/mp-569597,10.902756718883603,71.27296010023802,-8.604250342815693,-0.5045126942092143
-6.98186521,-41.89119126,8.624572242019696,-0.17491775333333234,0.880551,0.11468237833485438,0.0,216,6,89.48191115795315,464.75462999999996,mp-1226470,CeYCo4,https://materialsproject.org/materials/mp-1226470,42.659700383646545,74.1545715388237,-8.604250342815693,-0.5045126942092143
-6.320401583333332,-18.96120475,6.845132469223144,-0.7920860750000003,0.0,0.0,0.8689000000000009,216,3,56.15621045122922,231.489107,mp-961678,ScCoTe,https://materialsproject.org/materials/mp-961678,32.957230949661195,48.84640259475602,-8.604250342815693,-0.5045126942092143
-6.6279468549999985,-92.79125597,13.3490266771991,-1.1456092946428569,7.85e-06,2.9861581654893e-07,0.0,148,14,306.3615635697694,2462.832000000001,mp-1104800,Sm3Pt4,https://materialsproject.org/materials/mp-1104800,22.444324688114467,53.890257902253246,-8.604250342815693,-0.5045126942092143
-5.880303171774193,-364.57879665,10.077012353803589,-0.8511266548387103,3.785e-05,3.580205247331369e-07,0.0,2,62,1232.070010427973,7476.84,mp-648832,Sm10Pd21,https://materialsproject.org/materials/mp-648832,28.189078090081328,55.961341268591404,-8.604250342815693,-0.5045126942092143
-6.608511862045455,-290.77452193,8.638771113640287,-0.13315912458454512,21.69686185,0.5118037980578327,0.0,194,44,494.04993538677695,2570.24027,mp-1213920,Ce2Co17H3,https://materialsproject.org/materials/mp-1213920,62.263247480910685,74.91583679795936,-8.604250342815693,-0.5045126942092143
-7.948548791499999,-158.97097583,8.337190332570453,-0.7569421758333321,4.0454784,0.17379658350129512,0.0,127,20,271.27269339698967,1361.998738,mp-542022,Sc2MnB2Rh5,https://materialsproject.org/materials/mp-542022,29.77396739164889,50.606026217060176,-8.604250342815693,-0.5045126942092143
-7.483581243181818,-329.2775747,8.11654372049548,-0.08397832708454639,37.6619653,0.8444750680146372,0.0,194,44,519.7488945410615,2540.47904,mp-1208578,Tb2Fe17H3,https://materialsproject.org/materials/mp-1208578,61.70980496868386,74.73487444299306,-8.604250342815693,-0.5045126942092143
-11.57752042631579,-219.9728881,8.546720451137782,-0.2426603963157905,84.53216809999999,2.0714481212048548,0.0,204,19,475.5819623565069,2447.79917,mp-1213266,Gd12Co6Pb,https://materialsproject.org/materials/mp-1213266,-31.33733318296225,69.56398224468086,-8.604250342815693,-0.5045126942092143
-7.9056356775,-94.86762813,5.9434757832374325,-0.8976778974999995,0.00073495,4.401892171548854e-05,0.0,62,12,194.57893493967626,696.4456479999999,mp-1102525,ScSiRu,https://materialsproject.org/materials/mp-1102525,30.35935494668477,50.586742407926884,-8.604250342815693,-0.5045126942092143
-5.138481257727271,-113.04658767,14.778786001668761,-0.43368577,0.0,0.0,0.0,12,22,401.06255803520554,3569.454,mp-571060,In9Pt13,https://materialsproject.org/materials/mp-571060,33.8209664204474,40.91122008826037,-8.604250342815693,-0.5045126942092143
-9.195270769166667,-110.34324923,14.823314701007734,-0.07527964166666598,0.0006007,3.008141313773101e-05,0.0,194,12,232.7216702494532,2077.4618800000003,mp-1102043,LaOs2,https://materialsproject.org/materials/mp-1102043,29.57716352142341,63.93852279499736,-8.604250342815693,-0.5045126942092143
-5.4591203283333325,-32.75472197,12.907234212967888,-0.8598832749999996,5e-08,4.739868560228974e-09,0.0,227,6,122.9365817266113,955.576,mp-1349,SrPt2,https://materialsproject.org/materials/mp-1349,24.41268006800499,50.011784222011954,-8.604250342815693,-0.5045126942092143
-8.5058796025,-170.11759205,13.138034478849015,-0.6597988265000012,8.1e-06,1.696719338222125e-07,0.0,186,20,556.3555653031372,4401.83484,mp-571094,Th7Ir3,https://materialsproject.org/materials/mp-571094,-31.791214316178884,67.83006824057354,-8.604250342815693,-0.5045126942092143
-5.2433477225,-41.94678178,11.285987135816445,0.08482285999999918,0.00499445,0.0005233440674886554,0.0,194,8,111.21869419982002,755.9068,mp-973983,NiPd3,https://materialsproject.org/materials/mp-973983,63.875165677979275,47.60306841357542,-8.604250342815693,-0.5045126942092143
-5.30587702375,-42.44701619,10.099451874330935,-0.5227172397916666,5e-08,3.130234190055925e-09,0.0,63,8,186.15324069972343,1132.19,mp-20914,NdIn2Ir,https://materialsproject.org/materials/mp-20914,7.203870531408125,53.59811780011297,-8.604250342815693,-0.5045126942092143
-6.060778902666668,-181.82336708,4.505583890369495,-1.81727077116,20.999982199999998,0.8872798209182892,0.2602000000000002,8,30,275.82634813909357,748.406825,mp-760956,Li6Mn5Ni3O16,https://materialsproject.org/materials/mp-760956,-69.38434837858965,-42.52414208133679,-8.604250342815693,-0.5045126942092143
-9.61768006875,-76.94144055,14.396250332570979,0.2209264087499996,0.01264955,0.0008098779633751997,0.0,194,8,182.02578871186844,1578.09528,mp-1006127,Pa3Mo,https://materialsproject.org/materials/mp-1006127,7.558824467015156,74.78421038839807,-5.239164801727406,-3.039652353812612
-4.8220713025,-57.86485563,9.257207115759243,-0.5541337108333332,0.00033539999999999997,1.122189937207224e-05,0.0,62,12,348.3165545437185,1941.8022760000001,mp-1102098,Nd2Au,https://materialsproject.org/materials/mp-1102098,-31.4521633271765,41.69424480444243,-8.604250342815693,-0.5045126942092143
-5.99053991375,-95.84863862,3.9005165242806448,-2.0190413301200003,8.0000003,0.6606090266548936,0.37239999999999984,2,16,141.13116520492574,331.5094850000001,mp-1174361,Li5Mn2CoO8,https://materialsproject.org/materials/mp-1174361,-71.84663479514069,-50.33981021317565,3.7733851497050246,4.316037751540786
-5.9212318225,-23.68492729,0.9154379961671509,4.174782157499998,4.0000004,0.06644138856866716,0.0,71,4,701.614833104922,386.793,mp-1097681,V2RuW,https://materialsproject.org/materials/mp-1097681,-57.15040346636067,35.673522579334104,-8.604250342815693,-0.5045126942092143
-5.87957824,-23.51831296,7.639839443361978,-0.514261688125,9.25e-05,1.2712876865111279e-05,0.0,225,4,84.79599093893493,390.131,mp-866227,CaNdRh2,https://materialsproject.org/materials/mp-866227,13.48784490016842,46.27131035662959,-8.604250342815693,-0.5045126942092143
-7.313048517692307,-95.06963073,7.2782669852605295,-0.4927305492307688,0.0,0.0,0.0,87,13,189.60613704403943,831.0579,mp-13967,Nb5(CuSi)4,https://materialsproject.org/materials/mp-13967,47.210863376455976,56.800243010915295,-8.604250342815693,-0.5045126942092143
-7.935137315833334,-285.66494337,8.169311910606286,-0.7644117825000004,1.545e-05,2.6476847178421785e-07,0.0,76,36,680.0481172198988,3345.6155200000007,mp-1215385,Zr4TaGe4,https://materialsproject.org/materials/mp-1215385,3.7916621915034447,78.8037967937631,-8.604250342815693,-0.5045126942092143
-7.227605125384616,-187.91773326,6.4502437234747205,-2.229609017442308,0.00135915,4.187774665566343e-05,0.0,186,26,378.2348239952972,1469.2258,mp-775277,K(WO3)3,https://materialsproject.org/materials/mp-775277,-17.103462707258014,0.902481015773284,-8.604250342815693,-0.5045126942092143
-7.394400036,-258.80400126,5.901644952551881,-2.306435669072449,2.9999999,0.07013057444863402,0.8933,1,35,498.5299696622345,1771.80229328,mp-1220992,NaP2W7O25,https://materialsproject.org/materials/mp-1220992,-19.07649338433844,0.2382060270577085,2.801193038959869,0.6961366733087578
-6.682168962857142,-93.55036548,15.040369170220838,-1.2636619364285713,6.5e-07,2.6757398738271935e-08,0.0,148,14,283.1045788964845,2564.226,mp-1104136,Er3Pt4,https://materialsproject.org/materials/mp-1104136,15.857136587383602,56.55560881421493,-8.604250342815693,-0.5045126942092143
-7.2455801175,-28.98232047,12.063309239277224,-0.04172979921875086,0.0110871,0.001622311823493851,0.0,225,4,79.64546622213305,578.6,mp-861728,PuSbPd2,https://materialsproject.org/materials/mp-861728,29.07221137177822,40.901601141324704,-8.604250342815693,-0.5045126942092143
-8.734507636666667,-104.81409164,5.97110886548184,-0.33221060952333303,0.95582205,0.09736054453845416,0.0,36,12,114.41197391147678,411.4124000000001,mp-1245504,CrFe2N3,https://materialsproject.org/materials/mp-1245504,1.1029708232404942,13.584282078162248,-8.604250342815693,-0.5045126942092143
-8.66004937,-34.64019748,11.012185203325595,-0.3569022187499993,0.0006582999999999999,0.00011005169893114329,0.0,225,4,69.71151662616451,462.30538,mp-867919,ErNbRu2,https://materialsproject.org/materials/mp-867919,41.010779350708695,59.566494362730936,-8.604250342815693,-0.5045126942092143
-5.231086336666666,-31.38651802,9.098690923438014,-0.6925676266666662,0.0,0.0,0.0,186,6,131.63307091791617,721.264962,mp-6919,ScSnAu,https://materialsproject.org/materials/mp-6919,-5.038697950537694,45.190469982703235,-8.604250342815693,-0.5045126942092143
-7.032694456666667,-21.09808337,8.004090162988218,1.0393818083333326,0.0001403,2.4704272258578532e-05,0.0,216,3,66.18552736449665,319.0258800000001,mp-631395,CaTaTc,https://materialsproject.org/materials/mp-631395,52.37761686538435,53.09124597054223,-8.604250342815693,-0.5045126942092143
-6.569380435909091,-144.52636959,9.456737774042463,-0.4968582637878789,1e-07,3.008368985662471e-09,0.0,194,22,387.3881438115332,2206.1679999999997,mp-30061,Sn4BRh6,https://materialsproject.org/materials/mp-30061,33.727797022895714,54.85738443851887,-8.604250342815693,-0.5045126942092143
-9.095562445,-36.38224978,14.065650467743527,-0.35014508218750073,0.0001079,1.9518323760932846e-05,0.0,221,4,64.42528591907586,545.7165,mp-11536,NpRh3,https://materialsproject.org/materials/mp-11536,66.99106070865736,52.8941369994822,-8.604250342815693,-0.5045126942092143
-4.9305539975,-19.72221599,0.8052140436297368,3.087281963333335,1.4607775,0.023981888052886032,0.0,71,4,709.8688629417196,344.22339,mp-1097648,HfTiCo2,https://materialsproject.org/materials/mp-1097648,-62.87633649925546,35.0257197014705,-8.604250342815693,-0.5045126942092143
-6.649019009324324,-492.02740669,14.115051615729088,-0.8886243920945944,0.0008457000000000001,7.983438975956321e-06,0.0,225,74,1234.5359697539516,10493.905,mp-1194935,Sm3Si11Pt23,https://materialsproject.org/materials/mp-1194935,60.4879084763001,43.70360413660594,-8.604250342815693,-0.5045126942092143
-8.200908755,-32.80363502,13.177842280072452,-0.530844965,2.3800000000000003e-05,3.9579201549722844e-06,0.0,225,4,70.07891284478498,556.138,mp-976598,LiHf2Ir,https://materialsproject.org/materials/mp-976598,28.03360393972732,44.53329540318925,-8.604250342815693,-0.5045126942092143
-5.3792641225,-21.51705649,11.661342830596947,-0.6356211133333334,2.5e-05,4.144585015692054e-06,0.0,225,4,70.29693400205062,493.66900000000004,mp-865774,YbInRh2,https://materialsproject.org/materials/mp-865774,30.401748406860193,57.06804348326556,-8.604250342815693,-0.5045126942092143
-5.7872563625,-23.14902545,10.790968454328363,-0.9341253737500006,0.0017026,0.00023585697087221303,0.0,225,4,84.12815024454211,546.70453,mp-1184830,HoTmPd2,https://materialsproject.org/materials/mp-1184830,16.836642351373523,54.1532709605488,-8.604250342815693,-0.5045126942092143
-10.06336794,-70.44357558,8.638873034889416,0.09745962910714312,0.000171,2.469717489654981e-05,0.0,166,7,80.69121607856889,419.7921,mp-1221488,Mo4C3,https://materialsproject.org/materials/mp-1221488,4.338178476443194,22.10018942259325,-8.604250342815693,-0.5045126942092143
-6.1692919325,-24.67716773,8.086556797928933,-0.3130020775000002,0.42483235,0.06063768991985511,0.0,63,4,81.64928002571541,397.6188,mp-21188,CeNi,https://materialsproject.org/materials/mp-21188,2.2091489855572326,58.566689843755455,-8.604250342815693,-0.5045126942092143
-10.0496026325,-80.39682106,7.869099296616701,0.9082773425000016,23.0891015,0.9966262566574494,0.0,194,8,269.99277073400583,1279.464,mp-1184504,Eu3W,https://materialsproject.org/materials/mp-1184504,-29.011233781574145,70.57013461673336,-8.604250342815693,-0.5045126942092143
-9.9609539425,-39.84381577,13.455107625094035,-0.8306007774999989,0.0014807,0.00024926091153094947,0.0,225,4,69.22936132561854,560.9555,mp-975897,Hf2RuRh,https://materialsproject.org/materials/mp-975897,39.69798640995503,60.39156100074603,-8.604250342815693,-0.5045126942092143
-8.948437076111112,-161.07186737,9.737967010155671,-0.4067603772222223,0.018179900000000002,0.0007089980776766951,0.0,14,18,298.8297695431426,1752.4396399999998,mp-9236,U2Si4Mo3,https://materialsproject.org/materials/mp-9236,46.609346604706715,59.735622881771576,-8.604250342815693,-0.5045126942092143
-6.7898011575,-27.15920463,13.757145870430346,-1.0163745375,2.5e-06,3.721681143847743e-07,0.0,225,4,78.28494920786576,648.571,mp-865589,Lu2IrPd,https://materialsproject.org/materials/mp-865589,17.626396895841708,54.481742677640774,-8.604250342815693,-0.5045126942092143