energy_per_atom,energy,density,formation_energy_per_atom,total_magnetization_uB,total_magnetization_T,band_gap,sgr,num_sites,cell_volume,weight,mp_id,formula,URL,tsne_cry_lin1_0,tsne_cry_lin1_1,tsne_cry_lin2_0,tsne_cry_lin2_1
-7.052926062758621,-204.53485582,8.416280616037783,-0.20373526586206772,20.1689748,0.8228882582736301,0.0,225,29,285.6408951665516,1447.7430949999996,mp-1193515,Co21(GeB3)2,https://materialsproject.org/materials/mp-1193515,39.32777369609856,89.50287356869671,-8.604250342815693,-0.5045126942092143
-5.132080176666666,-61.58496212,9.896419944027047,-0.9030838866666664,2.55e-06,1.2831291280868524e-07,0.0,62,12,231.6046336999348,1380.30884,mp-1103022,TmGaPd,https://materialsproject.org/materials/mp-1103022,3.748540917060944,68.22230569944902,-8.604250342815693,-0.5045126942092143
-6.334047430769231,-82.3426166,5.589178445955781,-0.3316408342307693,10.8174037,0.6652261245279223,0.0,71,13,189.50957988937992,637.8668815999998,mp-1219887,Pr(AlFe)6,https://materialsproject.org/materials/mp-1219887,23.534364667868786,89.40675666725004,-8.604250342815693,-0.5045126942092143
-7.971742874166666,-95.66091449,12.874454082750313,-0.9372077787499992,1.2e-06,6.976725255633403e-08,0.0,74,12,200.45045798212345,1554.1280000000004,mp-1209840,NdSi2Ir3,https://materialsproject.org/materials/mp-1209840,11.794538576960447,66.64530198766836,-8.604250342815693,-0.5045126942092143
-7.43544018,-29.74176072,11.277759060119017,-0.38953669624999865,2.0354804,0.3881508182973701,0.0,225,4,61.11444136310464,415.06639,mp-20730,HfCo2Sn,https://materialsproject.org/materials/mp-20730,45.02051880164712,45.36397436030241,-8.604250342815693,-0.5045126942092143
-6.8777043475,-27.51081739,8.241285939374603,-0.4281595249999999,1.0010819,0.20767264869736515,0.0,225,4,56.17818898356039,278.81338999999997,mp-1188052,ZrGaCo2,https://materialsproject.org/materials/mp-1188052,44.2214897547849,46.09491402488256,-8.604250342815693,-0.5045126942092143
-6.5523055038461555,-85.17997155,5.822837580759919,-0.24290731730769285,7.002246799999999,0.4359133961470521,0.0,71,13,187.20378515993144,656.4478216,mp-1224066,Ho(MnAl)6,https://materialsproject.org/materials/mp-1224066,12.968777757179165,89.04518028280935,-8.604250342815693,-0.5045126942092143
-4.167462425714286,-58.34447396,2.816126906276121,0.13378355999999972,0.9964809000000001,0.040890760400268726,0.0,176,14,284.0018830547905,481.642,mp-1094481,Mg4Ti3,https://materialsproject.org/materials/mp-1094481,33.17507435706671,60.91660435666378,-8.604250342815693,-0.5045126942092143
-6.5181757075,-26.07270283,6.919546533739762,-0.6924319199999998,0.0011207,0.0002558586665053052,0.0,225,4,51.0465819626119,212.71357719999997,mp-1183147,Al2FeRh,https://materialsproject.org/materials/mp-1183147,35.595759948628654,77.61182910137495,-8.604250342815693,-0.5045126942092143
-6.945953177000001,-138.91906354,8.991918663164766,-0.07492160074999958,24.092909699999996,1.0452432002052543,0.0,166,20,268.62679436526815,1454.63023,mp-1221808,Mn4Cr(Co2Sn)5,https://materialsproject.org/materials/mp-1221808,45.35297769123066,45.460299136358394,-8.604250342815693,-0.5045126942092143
-6.294434530384616,-327.31059558,7.266797988842397,-0.02864479403846058,7.2229791,0.11597757416271287,0.0,1,52,725.8046815511691,3176.2433,mp-1227222,Cr23Ga26Fe3,https://materialsproject.org/materials/mp-1227222,45.82216871379115,65.35924936514903,-8.604250342815693,-0.5045126942092143
-5.91917482975,-236.76699319,14.609707629994451,-0.4359790077499994,0.0,0.0,0.0,62,40,664.2580052615278,5844.2559999999985,mp-21673,Ge2Pt3,https://materialsproject.org/materials/mp-21673,61.686165920135956,45.56472991126842,-8.604250342815693,-0.5045126942092143
-8.363053395,-83.63053395,12.917763515442509,-0.1998176799999996,1.65257135,0.10511851657389727,0.0,127,10,183.2139016215797,1425.26842,mp-22360,U2Co2Sn,https://materialsproject.org/materials/mp-22360,26.328985871606807,65.2578603247525,-8.604250342815693,-0.5045126942092143
-7.0911769025,-340.37649132,4.604506054732784,-0.6804263387500006,2.525e-06,4.331811736094934e-08,0.0,55,48,679.3119217420285,1883.662944,mp-1199097,ScFeSi2,https://materialsproject.org/materials/mp-1199097,19.132088303922657,73.58943384521393,-8.604250342815693,-0.5045126942092143
-8.09713988625,-64.77711909,9.264735869877057,-0.4461745300000004,0.39038995,0.03625820046204788,0.0,63,8,125.47864223483785,700.08982,mp-1206113,UFeSi2,https://materialsproject.org/materials/mp-1206113,22.74057559666593,64.58546963875895,-8.604250342815693,-0.5045126942092143
-4.4678178075,-17.87127123,7.042758418698714,-0.2945302793750004,1.59e-05,2.627787627679111e-06,0.0,225,4,70.51545107066269,299.07353860000006,mp-862838,PmAlCu2,https://materialsproject.org/materials/mp-862838,32.714723530370776,67.58489742318153,-8.604250342815693,-0.5045126942092143
-9.1352408375,-109.62289005,8.649454917102227,-0.12430720083333333,2.0207817,0.14989202956793574,0.0,194,12,157.11523081572227,818.38552,mp-568901,NbFe2,https://materialsproject.org/materials/mp-568901,54.79664946515536,62.38374326050012,-8.604250342815693,-0.5045126942092143
-6.72327144875,-53.78617159,10.499664719862318,-0.7584355408593755,4.9995433,0.4438364914253713,0.0,139,8,131.27582471711608,830.0630772000001,mp-1091385,PuAl2Pd5,https://materialsproject.org/materials/mp-1091385,42.43101412258872,55.442045348245976,-8.604250342815693,-0.5045126942092143
-3.1300628492857143,-43.82087989,2.064057069510489,0.11183591285714302,5e-08,1.9955823399034373e-09,0.0,2,14,291.99659015632517,362.95300000000003,mp-1078478,Mg4Si3,https://materialsproject.org/materials/mp-1078478,-13.039355323263605,96.95283283731716,-8.604250342815693,-0.5045126942092143
-9.5162046625,-38.06481865,8.137759838126494,-0.2509212475000009,1.12e-05,2.50898315369666e-06,0.0,225,4,52.02327694403056,254.9491,mp-865494,V2CrRu,https://materialsproject.org/materials/mp-865494,56.53413178847217,55.67660828997017,-8.604250342815693,-0.5045126942092143
-7.570889935555557,-68.13800942,8.9017893959861,-0.7260974938888896,2.387168266666667,0.15106618484172904,0.0,189,9,184.15910636704982,987.237,mp-1080178,GdZnPd,https://materialsproject.org/materials/mp-1080178,8.655899945656099,56.01899370496232,-8.604250342815693,-0.5045126942092143
-9.140576246666667,-54.84345748,8.554042525723897,-0.12964261000000002,2.5004671000000003,0.3668537355581072,0.0,227,6,79.43385256994013,409.19276,mp-1077790,NbFe2,https://materialsproject.org/materials/mp-1077790,54.74535177870672,62.40761468431453,-8.604250342815693,-0.5045126942092143
-5.83150644,-23.32602576,10.897651261942023,-0.6979779749999997,6.7e-06,1.168657490356621e-06,0.0,225,4,66.81361700965336,438.479,mp-977538,ErZnRh2,https://materialsproject.org/materials/mp-977538,40.41132545906019,51.312066302810095,-8.604250342815693,-0.5045126942092143
-5.999408806206897,-173.98285538,9.942659231211412,-0.8322044149999999,4.7799999999999996e-05,1.1947840766484143e-06,0.0,225,29,466.2468365757096,2791.7039600000003,mp-1212354,Ho3(Si3Pd10)2,https://materialsproject.org/materials/mp-1212354,28.252777350320894,54.43982500089303,-8.604250342815693,-0.5045126942092143
-8.90686837,-35.62747348,11.773136030998206,-0.3776193975000002,5.2900000000000005e-05,1.1147545666566789e-05,0.0,225,4,55.30365561249833,392.10006200000004,mp-867114,TaBeRu2,https://materialsproject.org/materials/mp-867114,40.69358059521159,52.407079498175136,-8.604250342815693,-0.5045126942092143
-6.943279113928571,-194.41181519,10.885558897653349,-0.7845044910714277,0.000227925,5.9975297505178475e-06,0.0,62,28,442.89112747732804,2903.34484,mp-1192459,Tm(GeRh2)2,https://materialsproject.org/materials/mp-1192459,34.24788569222485,53.32716797623638,-8.604250342815693,-0.5045126942092143
-6.2170591433333335,-55.95353229,8.280650127887041,-0.3652107177777771,7.121417500000001,0.4961686420433459,0.0,189,9,167.2686538102295,834.122635,mp-570867,Er3Mn3Ga2Si,https://materialsproject.org/materials/mp-570867,24.682812885869414,70.17416025757953,-8.604250342815693,-0.5045126942092143
-1.4280104141666667,-17.13612497,5.007279105125231,-0.044680877499999966,2e-06,1.1327235915548212e-07,0.0,63,12,205.77067272983803,620.4920000000002,mp-1094198,MgZn2,https://materialsproject.org/materials/mp-1094198,2.4808646348586443,98.19886246216451,-8.604250342815693,-0.5045126942092143
-8.490509735909091,-373.58242838,7.150127424245257,-0.28099566077909155,39.5431251,0.8485852791386763,0.0,194,44,543.0663865540855,2338.3936,mp-1207754,Y2Fe17N3,https://materialsproject.org/materials/mp-1207754,61.49838041236321,75.28274905008806,-8.604250342815693,-0.5045126942092143
-6.60985558,-26.43942232,10.463839632745069,-0.9050919850000004,6e-07,1.2585120211304539e-07,0.0,225,4,55.56116068923111,350.1170772,mp-867125,Al2RuPt,https://materialsproject.org/materials/mp-867125,42.34647373234881,52.62500344298842,-8.604250342815693,-0.5045126942092143
-8.6982866925,-34.79314677,7.259942103376423,-0.25663866583333395,0.13871370000000002,0.02820248097245076,0.0,225,4,57.320433837737454,250.60719500000002,mp-1187432,Ti2CoMo,https://materialsproject.org/materials/mp-1187432,62.56111666140511,55.992988572044354,-8.604250342815693,-0.5045126942092143
-8.816672925,-35.2666917,10.97775627721033,-0.758080617500001,1.2e-06,2.268175725380829e-07,0.0,225,4,61.656941173389704,407.6115386,mp-864909,HfAlRu2,https://materialsproject.org/materials/mp-864909,41.73805643377342,57.009335048249156,-8.604250342815693,-0.5045126942092143
-5.997548191818183,-65.97303011,7.750872551023357,-0.34578744606060624,1e-07,5.147123619727093e-09,0.0,10,11,226.41897948387737,1056.85239,mp-607475,Zr4In5Co2,https://materialsproject.org/materials/mp-607475,5.835125235073973,54.79769993567025,-8.604250342815693,-0.5045126942092143
-5.473464280000001,-32.84078568,9.849805341478033,-0.39963993972222295,7.6e-06,1.0210939323383345e-06,0.0,216,6,86.74117969599898,514.5219199999998,mp-1206024,HoInNi4,https://materialsproject.org/materials/mp-1206024,31.153543357056638,74.7488928112274,-8.604250342815693,-0.5045126942092143
-9.40727117,-18.81454234,6.919500679536608,-0.04931657000000023,2e-06,9.435372504429407e-07,0.0,65,2,24.702924589545837,102.9376,mp-1216394,VCr,https://materialsproject.org/materials/mp-1216394,56.23062778874314,56.343509809410016,-8.604250342815693,-0.5045126942092143
-5.003351665714286,-35.02346166,6.470367327137367,-0.12716397194571474,1.2873954,0.1747448462122258,0.0,8,7,85.85883764076186,334.55294,mp-1078183,CaNi5H,https://materialsproject.org/materials/mp-1078183,31.51416786462291,78.71566961495348,-8.604250342815693,-0.5045126942092143
-6.214334134166666,-149.14401922,8.19026408422723,-0.4818953108333339,7.95e-06,3.153613319563163e-07,0.0,141,24,293.78939506344864,1449.0552,mp-1191823,CeSi2Ni9,https://materialsproject.org/materials/mp-1191823,26.60535255319046,77.88857710134815,-8.604250342815693,-0.5045126942092143
-8.059718053333333,-96.71661664,6.547647280039652,-0.3403953200000001,2.875e-06,1.5423482314851801e-07,0.0,38,12,217.2365198541809,856.5821543999999,mp-1215307,ZrAlMo,https://materialsproject.org/materials/mp-1215307,33.248328880403555,59.336511581437314,-8.604250342815693,-0.5045126942092143
-7.983733895,-15.96746779,8.440175683266599,-0.6380657525000011,0.0,0.0,0.0,221,2,25.410341920479368,129.1555,mp-381,SiRu,https://materialsproject.org/materials/mp-381,43.08820673269813,54.198517797259385,-8.604250342815693,-0.5045126942092143
-6.001636081034483,-174.04744635,9.973316157358417,-0.8355334749999995,1.77e-05,4.426764249287306e-07,0.0,225,29,465.97680576171723,2798.69,mp-1212872,Er3(Si3Pd10)2,https://materialsproject.org/materials/mp-1212872,28.247436882498203,54.430405854497096,-8.604250342815693,-0.5045126942092143
-1.3827605766666669,-53.92766249,6.120909765434983,-0.05893250012820499,0.0,0.0,0.0,200,39,625.1399042073863,2304.327,mp-30784,Mg2Zn11,https://materialsproject.org/materials/mp-30784,1.4118711114826776,97.34562886548893,-8.604250342815693,-0.5045126942092143
-5.52048921,-22.08195684,10.076431628787429,-0.5094670412499998,7.8e-06,1.3618881066319777e-06,0.0,225,4,66.7468236070953,405.03101000000004,mp-865974,TmNi2Sn,https://materialsproject.org/materials/mp-865974,32.07646649065356,69.72246407908767,-8.604250342815693,-0.5045126942092143
-7.632793849,-152.65587698,7.411075294847145,-0.4077823427499993,24.0026111,1.2465616031813442,0.0,166,20,224.3996476035101,1001.50773,mp-1221846,Mn4Cr(Co2Si)5,https://materialsproject.org/materials/mp-1221846,47.25724617293199,48.94012409152525,-8.604250342815693,-0.5045126942092143
-5.4075605625,-64.89072675,9.229269657027695,-0.5013189708333332,1.2625e-05,6.963554260510379e-07,0.0,62,12,211.28946835086828,1174.3460599999999,mp-1103576,HoGaCo,https://materialsproject.org/materials/mp-1103576,23.60423769568195,72.51068093555756,-8.604250342815693,-0.5045126942092143
-6.47195899375,-51.77567195,7.427317128083883,-0.20243744375000008,3.61307805,0.4621082263570119,0.0,194,8,91.11944609807257,407.5622472,mp-1080667,AlCo3,https://materialsproject.org/materials/mp-1080667,38.15276685513197,78.06747808753346,-8.604250342815693,-0.5045126942092143
-1.17427102,-2.34854204,8.713422390812287,-0.22025831499999995,1.1e-06,2.9910935030035784e-07,0.0,221,2,42.85881145789219,224.895,mp-1408,MgHg,https://materialsproject.org/materials/mp-1408,-17.30212194220716,63.29401525652536,-8.604250342815693,-0.5045126942092143
-6.5469380325,-104.75100852,7.661845938454291,-0.9846917287500006,0.0,0.0,0.0,62,16,285.93518464893435,1319.3254,mp-28024,YSiPd2,https://materialsproject.org/materials/mp-28024,27.71017456160091,53.681384924154145,-8.604250342815693,-0.5045126942092143
-2.410769893125,-38.57231829,8.360186702866955,-0.33660520687499984,7.7125e-05,3.0980959330821508e-06,0.0,62,16,290.12004953941914,1460.6448400000004,mp-1189726,TmZn3,https://materialsproject.org/materials/mp-1189726,0.13964581494058653,93.55565795205564,-8.604250342815693,-0.5045126942092143
-6.526653134166667,-78.31983761,7.449817837611174,-0.4834970236111111,5.5e-07,4.2985596887143764e-08,0.0,191,12,149.11356568425066,668.9809,mp-7559,YNi4B,https://materialsproject.org/materials/mp-7559,30.434560095784224,85.03709581553619,-8.604250342815693,-0.5045126942092143
-6.876054773703704,-371.30695778,9.95041416287595,-0.7294684045370372,4.02e-05,5.300029455517114e-07,0.0,176,54,883.9449059461681,5296.845,mp-1209148,SmGe3Rh5,https://materialsproject.org/materials/mp-1209148,34.20086785374731,53.29973279033539,-8.604250342815693,-0.5045126942092143
-7.012207235,-56.09765788,7.505999592975197,-0.3165951875000008,6.371213,0.8395202944702351,0.0,47,8,88.4439953040431,399.7862,mp-1225224,Fe3Si2Ni3,https://materialsproject.org/materials/mp-1225224,36.16404634250085,79.78775757160132,-8.604250342815693,-0.5045126942092143
-5.9973551855172405,-173.92330038,9.609132730380711,-0.8158452092241382,2.1e-05,5.153665201422961e-07,0.0,225,29,474.8763271548576,2747.9930000000004,mp-1208981,Sm3(Si3Pd10)2,https://materialsproject.org/materials/mp-1208981,28.206941216193414,54.38837334568813,-8.604250342815693,-0.5045126942092143
-5.884631225,-23.5385249,7.927679878063984,-0.3332565624999999,0.0,0.0,0.0,123,4,58.66409404218357,280.0718,mp-1216917,TiInNi2,https://materialsproject.org/materials/mp-1216917,31.89704491088356,74.61571656986875,-8.604250342815693,-0.5045126942092143
-3.1562047425,-25.24963794,9.246298084061326,-0.4188847456250002,0.00015069999999999998,1.5131150947531211e-05,0.0,123,8,116.0696610135462,646.3050000000002,mp-1215488,Zn5Pd3,https://materialsproject.org/materials/mp-1215488,5.258665791746809,94.69964692672797,-8.604250342815693,-0.5045126942092143
-10.496199858214286,-293.89359603,15.15377594974659,-0.41524695940476253,2.36e-05,5.277079122124579e-07,0.0,194,28,521.1897003387696,4756.282,mp-1193665,Hf9BOs4,https://materialsproject.org/materials/mp-1193665,29.7165457118215,60.941292661548225,-8.604250342815693,-0.5045126942092143
-7.1242566605,-284.97026642,7.150001778529644,-0.03872872599999937,27.92014955,0.42684767701451615,0.0,140,40,762.2935506901863,3282.3078,mp-1210591,Pr6GaFe13,https://materialsproject.org/materials/mp-1210591,53.71549218373178,81.4646366111851,-8.604250342815693,-0.5045126942092143
-1.4767185408333334,-17.72062249,4.087282241769687,-0.03813764833333325,1.8333333333333333e-07,9.769963228966673e-09,0.0,8,12,218.68849365791527,538.2840000000001,mp-1094435,MgZn,https://materialsproject.org/materials/mp-1094435,2.0985598236714504,98.75770849765318,-8.604250342815693,-0.5045126942092143
-6.3725781525,-25.49031261,5.659700620396046,-0.4312156624999997,1.9463881999999997,0.4606493821772105,0.0,123,4,49.2420809252701,167.8343172,mp-1221642,MnAl2Co,https://materialsproject.org/materials/mp-1221642,44.43345253609586,47.226953798729674,-8.604250342815693,-0.5045126942092143
-8.837664827500003,-106.05197793,7.9361268001861385,-0.19606649361111173,1.29348485,0.09891996194068188,0.0,164,12,152.3894260418753,728.3067599999998,mp-1216848,TiNbFe4,https://materialsproject.org/materials/mp-1216848,54.79094582484191,62.38307778287387,-8.604250342815693,-0.5045126942092143
-2.1583702421830986,-306.48857439,8.176239104198977,-0.29864808218309835,5.555e-05,2.660840414533302e-07,0.021300000000000097,194,142,2433.003101500316,11979.73346,mp-1202379,Tm13Zn58,https://materialsproject.org/materials/mp-1202379,0.3704159311699578,93.40140484272824,-8.604250342815693,-0.5045126942092143
-7.53820534,-30.15282136,14.712591781322615,-0.8075729237500004,0.25715309999999997,0.03736567812483331,0.0,225,4,80.20405447620628,710.61835,mp-1187345,TbErIr2,https://materialsproject.org/materials/mp-1187345,16.63219894731506,48.98352393033577,-8.604250342815693,-0.5045126942092143
-5.6551187068181825,-124.41261155,8.408928270252982,-0.5658389849999998,3e-07,9.906167657872191e-09,0.0,229,22,352.93360182426835,1787.2469544,mp-16807,Dy3(AlNi3)2,https://materialsproject.org/materials/mp-16807,25.060309234344288,79.61570011143087,-8.604250342815693,-0.5045126942092143
-5.813849215,-23.25539686,10.79128331533103,-0.6776581024999997,7.219999999999999e-05,1.253725426716649e-05,0.0,225,4,67.11385592476921,436.15032,mp-864624,HoZnRh2,https://materialsproject.org/materials/mp-864624,40.406141201697956,51.30623211119179,-8.604250342815693,-0.5045126942092143
-7.34827701,-29.39310804,5.601244470759102,-0.2697449437500001,1.6529326000000002,0.3004899623600531,0.0,225,4,64.1065792473751,216.241,mp-998987,Ti3Ge,https://materialsproject.org/materials/mp-998987,42.455453803583396,64.18931851052959,-8.604250342815693,-0.5045126942092143
-6.31240138375,-50.49921107,8.487151140287526,-0.28887670583333325,3.6172775,0.3747186243180184,0.0,166,8,112.500376414559,574.998645,mp-1217085,TiMn(Ni2Sn)2,https://materialsproject.org/materials/mp-1217085,33.800168906686224,72.35491443871568,-8.604250342815693,-0.5045126942092143
-8.323153372272728,-366.21874838,8.10024138838962,-0.28539587577909165,39.4945554,0.8496693096277141,0.0,194,44,541.7073461164758,2642.49148,mp-1212403,Ho2Fe17N3,https://materialsproject.org/materials/mp-1212403,61.48606825884047,75.28457266437199,-8.604250342815693,-0.5045126942092143
-7.83874873,-31.35499492,7.820546288544309,0.18637476625000016,0.940574,0.2174095718081397,0.0,166,4,50.41871076890261,237.454135,mp-1222005,Mn3Ge,https://materialsproject.org/materials/mp-1222005,57.053013824226035,67.29280372988539,-8.604250342815693,-0.5045126942092143
-6.0695624225,-24.27824969,13.614160649256842,-0.7486594279166665,2.8699999999999996e-05,5.4469066894378766e-06,0.0,225,4,61.40579929908452,503.444,mp-861619,TiZnPt2,https://materialsproject.org/materials/mp-861619,38.26532705958324,57.750938574484564,-8.604250342815693,-0.5045126942092143
-7.98717567,-31.94870268,9.306975679697182,-0.6222171091666668,1.52e-05,3.105253903236228e-06,0.0,225,4,57.04582944354214,319.73,mp-865448,TiGaRu2,https://materialsproject.org/materials/mp-865448,42.844187131652006,53.46750102590166,-8.604250342815693,-0.5045126942092143