energy_per_atom,energy,density,formation_energy_per_atom,total_magnetization_uB,total_magnetization_T,band_gap,sgr,num_sites,cell_volume,weight,mp_id,formula,URL,tsne_cry_lin1_0,tsne_cry_lin1_1,tsne_cry_lin2_0,tsne_cry_lin2_1
-7.118465174444443,-64.06618657,5.897798136381281,-2.551604602745554,3.850117,0.375228397508603,0.0,99,9,119.57920348740255,424.71389500000004,mvc-7669,BaYMnCuO5,https://materialsproject.org/materials/mvc-7669,-48.088637835365546,-2.9282832186234327,-8.604250342815693,-0.5045126942092143
-5.367384511249999,-128.81722827,5.420245366707936,-1.7970547776666663,2.00000015,0.06510699584244806,0.0,69,24,357.9973394814941,1168.55633856,mp-6496,Ba2Na(CuO2)3,https://materialsproject.org/materials/mp-6496,-51.7769314526301,-1.3733914045496307,-8.604250342815693,-0.5045126942092143
-5.682541161304347,-130.69844671,6.306670392472214,-1.9664031088586964,0.0005239,1.5240842179724026e-05,0.007600000000000051,5,23,400.6054562041649,1521.4858,mp-1218715,Sr4Cu2Bi4O13,https://materialsproject.org/materials/mp-1218715,-45.58351223300738,-4.611000621666687,-8.604250342815693,-0.5045126942092143
-5.863765655789473,-222.82309492,4.5513696872936285,-0.683650529423157,7.6667031,0.12370745279161033,0.0,12,38,722.2544196257486,1979.62637,mp-1030752,Sr8Co3N8,https://materialsproject.org/materials/mp-1030752,5.306886583171744,7.501848525579388,-8.604250342815693,-0.5045126942092143
-7.444197359999999,-104.21876304,8.40010779394134,-3.127648669285714,6.65e-06,4.331560837072026e-07,0.0,64,14,178.91825522623563,905.0872,mp-752673,Dy2CuO4,https://materialsproject.org/materials/mp-752673,-45.64812912526939,-7.058525217721491,-8.604250342815693,-0.5045126942092143
-6.095938887857143,-85.34314443,3.323601968523668,-0.8138967038771422,1.14268365,0.060252238258706764,0.0,176,14,221.01932901589038,442.37459,mp-1029610,Ca3CoN3,https://materialsproject.org/materials/mp-1029610,5.128066445394273,7.1212841882780324,-8.604250342815693,-0.5045126942092143
-7.273360363571428,-101.82704509,7.209720411623149,-2.7989930733928565,4.0799999999999996e-05,2.4299380726829134e-06,0.0,123,14,195.6781730636649,849.59455,mp-615682,Ba2LaTa(CuO4)2,https://materialsproject.org/materials/mp-615682,-47.535589634844065,-6.388871752159681,-8.604250342815693,-0.5045126942092143
-3.4373463344444444,-61.87223402,4.549555150550369,-0.3943574946355557,7.1e-06,3.292718869434646e-07,0.0,64,18,251.2934239641928,688.49528,mp-1022726,Ba2CuH6,https://materialsproject.org/materials/mp-1022726,-43.748302611215315,-1.4534299003831217,-8.604250342815693,-0.5045126942092143
-5.548987735,-66.58785282,4.6897810824098345,-1.7356335835416663,0.0,0.0,0.0,59,12,152.37180157796732,430.3364,mp-7466,CaCu2O3,https://materialsproject.org/materials/mp-7466,-51.6614838953664,-0.14566573754451712,-5.832848307128322,-0.18606175814292308
-5.730596265625,-825.20586225,5.378594012448376,-1.989311385763889,10.00000035,0.05843778597061379,0.0,1,144,1994.268774370124,6459.566339999999,mp-1099742,Ba2Sr6Co3(CuO4)5,https://materialsproject.org/materials/mp-1099742,-49.37843896397696,1.6008033626095863,-8.604250342815693,-0.5045126942092143
-5.6702860875,-90.72457740000002,4.215429335478594,-2.031681725625,0.0,0.0,0.038000000000000256,2,16,213.69776237849646,542.4911999999998,mvc-4867,CaCuO2,https://materialsproject.org/materials/mvc-4867,-52.86527709929629,-3.107301850243656,-8.604250342815693,-0.5045126942092143
-5.749275243181819,-126.48405535,6.928456410174293,-2.056331606136364,1e-07,3.229891915341967e-09,0.0,66,22,360.8190328971368,1505.4864,mp-555827,Sr2Cu(BiO3)2,https://materialsproject.org/materials/mp-555827,-45.02877082753672,-5.621445709900985,-8.604250342815693,-0.5045126942092143
-5.949876516923077,-77.34839472,6.882076678258402,-2.2357501829807704,3.6000000000000003e-06,2.279042913932525e-07,0.0,25,13,184.0888248515755,762.9531,mp-1218759,Sr2NdTlCu2O7,https://materialsproject.org/materials/mp-1218759,-46.67901486317884,-2.377759916754688,-8.604250342815693,-0.5045126942092143
-7.013410447142857,-98.18774626,6.656525151721021,-2.8367151594642857,3.4899999999999995e-05,2.146926844777324e-06,0.0,38,14,189.44607337308616,759.4236099999998,mp-1218244,SrLa3(CuO4)2,https://materialsproject.org/materials/mp-1218244,-42.66395878952073,-4.044316813324973,-8.604250342815693,-0.5045126942092143
-6.909914327857143,-96.73880059,6.106685036109085,-2.9253545243542853,3.3464847,0.20448486071452265,0.0,123,14,190.72389671246785,701.393185,mp-1218735,Sr2La2MnZnO8,https://materialsproject.org/materials/mp-1218735,-34.12256905770977,-10.16415883341759,-8.604250342815693,-0.5045126942092143
-7.178332646904763,-602.97994234,6.714343624801217,-2.9531292208035715,0.3529163,0.003527789064649005,0.059399999999999224,6,84,1165.8603573287394,4714.12407,mp-532700,Sr3La21Zn2(Cu5O24)2,https://materialsproject.org/materials/mp-532700,-42.66534286643774,-4.0190189336622915,-8.604250342815693,-0.5045126942092143
-6.004787872307693,-156.12448468,5.837248172416525,-2.124199001378206,0.00054455,1.8252849088784404e-05,0.0,46,26,347.68385697095704,1222.2037,mvc-288,Sr2YCu2AgO7,https://materialsproject.org/materials/mvc-288,-46.678344571011905,-3.840894051477898,-8.604250342815693,-0.5045126942092143
-5.650260754444443,-101.70469358,4.314598920557407,-1.9463440781944443,1.7e-06,8.960561304789416e-08,0.0,46,18,221.10121720569023,574.49,mp-1076548,Ca2Cu2O5,https://materialsproject.org/materials/mp-1076548,-47.46166301520407,1.5942831299879363,-8.604250342815693,-0.5045126942092143
-6.988271749558824,-475.20247897,6.932359055976566,-2.623281550036765,0.9746799,0.012747228281317935,0.0,2,68,891.0943176376221,3720.10872,mp-680389,La8Cu7O19,https://materialsproject.org/materials/mp-680389,-42.74184720347564,-4.044057571715101,-8.604250342815693,-0.5045126942092143
-8.188010637222222,-147.38419147,6.505210582177324,-2.8637998561574065,6.989750099999999,0.3554199115074297,0.0,100,18,229.19087471469012,897.862,mp-1214529,BaGdCuBO5,https://materialsproject.org/materials/mp-1214529,-47.95263925903645,-5.5690167076065,-8.604250342815693,-0.5045126942092143
-6.950728805789473,-264.12769462,4.084694550366987,-2.500273675743684,13.0000007,0.33688786539750043,0.0,25,38,449.7129928451423,1106.2312700000002,mp-1247657,Ca4Mn3CrO11,https://materialsproject.org/materials/mp-1247657,-36.10768831168123,6.059103814930327,-8.604250342815693,-0.5045126942092143
-6.90394644736842,-131.1749825,3.872126766445208,-2.8538016651668423,6.189622099999999,0.3363151897454854,0.0,123,19,214.48408835074108,500.14456720000004,mp-1247637,Ca4Mn2Al2O11,https://materialsproject.org/materials/mp-1247637,-36.066780641913155,5.943063044546993,-8.604250342815693,-0.5045126942092143
-6.94172311,-124.95101598,4.27697241572536,-2.8483848837500005,3.00000015,0.1461896302498076,0.6448,5,18,239.15647098939704,615.98409,mvc-6196,Ca2YCoO5,https://materialsproject.org/materials/mvc-6196,-34.924628235626194,-18.27420773982246,1.9286867270195949,-0.6993130710936541
-6.858291090540542,-253.75677035,3.8778202654820615,-2.6112727556624318,22.000002300000002,0.57559994368208,0.0,123,37,445.42994594570916,1040.2027472000002,mp-1247686,Ca8Mn6Al2O21,https://materialsproject.org/materials/mp-1247686,-36.094718079039566,6.070029837613172,-8.604250342815693,-0.5045126942092143
-2.682249033,-26.82249033,2.5640919760145,-0.06495552375200013,0.0,0.0,0.6302,53,10,176.756718999033,272.93576,mp-1213134,Cu(HCl)2,https://materialsproject.org/materials/mp-1213134,-48.15973171053207,-0.9267487464691936,-8.604250342815693,-0.5045126942092143
-5.866598597083333,-140.79836633,4.8822160314950604,-1.9952927313541668,6.162913099999999,0.22236561253193549,0.0,5,24,322.995033437293,949.65038,mvc-429,Sr2GaCo2O7,https://materialsproject.org/materials/mvc-429,-36.028679029605534,-15.745360417876961,-5.0667130552016815,-2.4930244851970498
-5.4096117785714295,-189.33641225,7.194004331586453,-2.0202243764642858,1.56e-05,3.3280845240042595e-07,0.0,6,35,546.2704121264035,2366.6241,mp-1228463,Ba3Sr5Tl5Cu3O19,https://materialsproject.org/materials/mp-1228463,-47.019191689027004,-2.645961083708213,-8.604250342815693,-0.5045126942092143
-6.188806278518518,-167.09776952,6.669671464596423,-2.1844800994907407,4.0833333333333334e-05,1.3127889213862177e-06,0.0,25,27,362.4911086572058,1455.97095,mp-1227911,BaPrCu2O5,https://materialsproject.org/materials/mp-1227911,-46.470698540077905,1.059103980068994,-8.604250342815693,-0.5045126942092143
-7.284473663611112,-262.24105189,5.2476698832106345,-2.588314908472221,2.000000125,0.04784275436078439,0.3348999999999997,33,36,487.1820469638894,1539.6028,mp-2882,Y2Cu2O5,https://materialsproject.org/materials/mp-2882,-48.701080644638026,-8.375118443732822,0.7497469409842905,0.04884503708664754
-7.346521382040818,-359.97954772,6.962908140654888,-3.029078736326532,1.21e-05,2.0706600013931922e-07,0.0,12,49,681.0108064727882,2855.5882,mp-766561,LiNd14(Cu3O14)2,https://materialsproject.org/materials/mp-766561,-43.11500236072447,-2.788052584830353,-8.604250342815693,-0.5045126942092143
-4.3560678,-26.1364068,9.420411133113324,-0.1787557091666662,0.00012509999999999998,1.70538961985814e-05,0.0,216,6,85.48917420809049,484.989,mp-30579,ErCu5,https://materialsproject.org/materials/mp-30579,4.268718382878676,44.970746519437505,-8.604250342815693,-0.5045126942092143
-5.980952087692307,-77.75237714,5.901590919707661,-2.0242322443509613,0.08840869999999999,0.00536714108104611,0.0,47,13,191.96825660058454,682.2592500000002,mp-1214650,Ba2YCu3SO6,https://materialsproject.org/materials/mp-1214650,-48.49136316000509,-0.23953178820301416,-8.604250342815693,-0.5045126942092143
-7.066620161428572,-197.86536452,6.575933538766787,-2.7946099046607142,0.9829663000000001,0.02981403415703248,0.0,107,28,384.2335750038452,1521.6109900000001,mp-1223525,KLa7(CuO4)4,https://materialsproject.org/materials/mp-1223525,-42.67154060247131,-4.0225729894087445,-8.604250342815693,-0.5045126942092143
-6.170924596333332,-185.12773789,6.881972198935322,-2.1947988089999995,0.0005824,1.5007321674140604e-05,0.0,66,30,452.2677311058199,1874.3877,mp-1208863,Sr2YCu2(BiO4)2,https://materialsproject.org/materials/mp-1208863,-44.96018457449875,-5.677764643610423,-8.604250342815693,-0.5045126942092143
-6.215516552,-93.23274828,6.3768176288503575,-1.9256292726666664,5.9248224,0.32784459745718525,0.0,65,15,210.61278590851242,808.7972,mp-1214709,Ba2Eu(CuO2)4,https://materialsproject.org/materials/mp-1214709,-49.51010048979521,-0.4405483319463353,-8.604250342815693,-0.5045126942092143
-7.161972452222222,-128.91550414,6.5883653182418005,-2.8884221000462955,1e-07,5.130724627755395e-09,0.0,100,18,227.14266732452077,901.2127,mp-1214316,BaTbCuBO5,https://materialsproject.org/materials/mp-1214316,-47.811883607291314,-5.557023661427807,-8.604250342815693,-0.5045126942092143
-4.372270961666667,-26.23362577,9.296585276620917,-0.1931837725,1.36e-05,1.8384385000134131e-06,0.0,216,6,86.21190260411508,482.66032,mp-580364,HoCu5,https://materialsproject.org/materials/mp-580364,4.2560419624945185,44.93090562484989,-8.604250342815693,-0.5045126942092143
-5.0862362888888875,-45.7761266,5.381647774297093,-1.6364972906249993,0.0,0.0,0.0,139,9,142.55491260679443,462.0068,mp-7112,Sr2Cu3(SO)2,https://materialsproject.org/materials/mp-7112,-49.99576683930185,-4.5768781043053135,-8.604250342815693,-0.5045126942092143
-6.255424651923077,-162.64104095,3.577477839166388,-0.7210942072523068,2.35e-06,7.333255294518072e-08,0.0,15,26,373.4637772121241,804.5931800000002,mp-1246702,Ca5(CoN3)2,https://materialsproject.org/materials/mp-1246702,4.891489026436392,7.029165643771032,-8.604250342815693,-0.5045126942092143
-6.7092430192452825,-355.58988002,5.011607222302636,-2.759467789460944,30.000000399999994,0.4576980098270993,0.3805000000000001,1,53,763.8703693959482,2305.4069600000003,mp-767781,Sr16Mn8O29,https://materialsproject.org/materials/mp-767781,-33.98954453526411,4.9597158804768435,-0.7465420035871583,0.5548699781495503
-6.98089068875,-279.23562755,6.790975319100792,-2.7299177503125,0.8995612,0.01973049111333155,0.0,6,40,531.3372298471566,2172.96789,mp-694970,SrLa7Cu4(SnO6)4,https://materialsproject.org/materials/mp-694970,-44.351846689039775,-4.207399949006592,-8.604250342815693,-0.5045126942092143
-5.476028568125,-262.84937127,4.892124867570513,-1.6189869692708332,0.000154,3.0303832280913084e-06,0.0,25,48,592.2438978467433,1744.8136,mp-765523,Ca7Cu17O24,https://materialsproject.org/materials/mp-765523,-51.68185759770096,-0.1369993956983746,-8.604250342815693,-0.5045126942092143
-7.393958360363637,-406.66770982,6.811833562115514,-2.982346112931819,0.0,0.0,0.2525999999999993,1,55,786.6147392640141,3226.8369199999997,mp-758138,La16Cu8O31,https://materialsproject.org/materials/mp-758138,-42.6479700383495,-3.9453144815059047,-8.604250342815693,-0.5045126942092143
-5.725847419027778,-824.52202834,5.617309165801046,-1.971199189166667,9.981062699999999,0.057383259923940076,0.008500000000000174,1,144,2027.0711590620408,6857.22234,mp-1076896,Ba4Sr4Co3(CuO4)5,https://materialsproject.org/materials/mp-1076896,-49.37941457945197,1.5886020855563308,-8.604250342815693,-0.5045126942092143
-6.679909970909091,-146.95801936,6.769933831967868,-2.459709814772728,3e-07,1.1851871420879089e-08,0.0,83,22,294.9930274816112,1202.6716800000002,mp-558557,BaLa4Cu5O12,https://materialsproject.org/materials/mp-558557,-44.645436846169005,0.3922684439545786,-8.604250342815693,-0.5045126942092143
-8.340558065714285,-58.38390646,9.741266709516717,-2.158147384608572,1.7e-06,1.9778144264490143e-07,0.0,139,7,100.17072303857121,587.63432,mp-1147743,Th2Cu(NO)2,https://materialsproject.org/materials/mp-1147743,-43.10132530954036,-2.6280123177964665,-8.604250342815693,-0.5045126942092143
-6.693019239024391,-274.4137888,5.0908165920239785,-2.734809864073415,20.000000699999998,0.4085474123070657,0.0,2,41,570.5122504456214,1749.0544700000007,mp-764995,Sr12Mn6O23,https://materialsproject.org/materials/mp-764995,-33.91100923102968,5.082865168099696,-4.709996708689297,-0.9568788833799262
-6.728229243461537,-349.86792066,4.998215710298191,-2.6859908655803846,12.000100400000001,0.1961393937737131,1.4169,7,52,713.0130497913386,2146.16636,mp-1218641,Sr7Mn4O15,https://materialsproject.org/materials/mp-1218641,-33.608272014280445,-9.70185370138428,-8.604250342815693,-0.5045126942092143
-5.730239092013888,-825.15442925,5.425462802294941,-1.9822725371527776,10.497596975,0.060032372905503575,0.011699999999999822,1,144,2037.8950419876041,6658.39434,mp-1076881,Ba3Sr5Co3(CuO4)5,https://materialsproject.org/materials/mp-1076881,-49.38115240864618,1.5990858808913386,-8.604250342815693,-0.5045126942092143
-6.931902806052631,-263.41230663,4.077849215841547,-2.4852714852426314,27.000001300000005,0.6966648706588642,0.0,99,38,451.66589742326096,1109.173215,mp-1247622,Ca8Mn7CrO22,https://materialsproject.org/materials/mp-1247622,-36.093522385329116,6.120138384998187,-8.604250342815693,-0.5045126942092143
-7.360759229069767,-316.51264685,7.050853156724037,-2.9566840711337217,2.65e-05,5.356511000712009e-07,0.0,5,43,576.5557401670238,2448.12664,mp-757399,La12Cu6O25,https://materialsproject.org/materials/mp-757399,-42.69055812158106,-3.9870921815469513,-8.604250342815693,-0.5045126942092143
-6.856075874864866,-253.67480737,4.028157870036768,-2.617658659851621,22.0000003,0.5717820428573358,0.0,38,37,448.4041282781311,1087.7447472,mp-1247646,SrCa7Mn6Al2O21,https://materialsproject.org/materials/mp-1247646,-36.08045663218943,6.068694967319138,-8.604250342815693,-0.5045126942092143
-6.9111026525,-248.79969549,7.779468732282245,-2.6569896484722224,2.000000175,0.050094004305867856,0.30969999999999986,33,36,465.28785046338317,2179.8296800000003,mp-3120,Tm2Cu2O5,https://materialsproject.org/materials/mp-3120,-48.660029978919106,-8.361004371040375,-4.760625591090181,-2.5853049973826296
-5.989165567333332,-89.83748351,7.267492326288633,-2.1252866263333328,4.5e-06,2.32029516367174e-07,0.0,139,15,226.0199146109066,989.19565,mp-1208752,Sr2PrCu2(BiO4)2,https://materialsproject.org/materials/mp-1208752,-44.94078763523115,-5.7038595351964005,-8.604250342815693,-0.5045126942092143
-5.438022226666668,-97.88440008,4.412101717326187,-1.8418912815277784,0.0009354,5.218142707182208e-05,0.0,55,18,208.90981331821376,555.0796,mvc-3992,Ca2Ni2O5,https://materialsproject.org/materials/mvc-3992,-40.69777971454525,-17.821685601055375,-8.604250342815693,-0.5045126942092143
-6.729153342884616,-349.91597383,5.0016579037451185,-2.686914965003462,12.0000898,0.19627429855027734,1.3746,14,52,712.5223467295142,2146.16636,mp-28761,Sr7Mn4O15,https://materialsproject.org/materials/mp-28761,-33.607882882366525,-9.708331754847217,-8.604250342815693,-0.5045126942092143
-5.8223999026923074,-151.38239747,5.14630248720795,-2.0532465912500006,1.195e-05,4.274591353875408e-07,0.013399999999999856,46,26,325.7997373382315,1009.7106772,mp-1251156,Sr2AlCu3O7,https://materialsproject.org/materials/mp-1251156,-49.20322560534754,-4.842050128853472,-8.604250342815693,-0.5045126942092143
-6.95291051875,-1056.84239885,4.083676669673944,-2.7148091464673687,19.99999935,0.12983185509850312,0.042400000000000215,1,152,1795.255006556084,4414.9765888,mp-1247617,SrCa7Mn6Al2O22,https://materialsproject.org/materials/mp-1247617,-32.50759636610037,-9.514619889139624,-8.604250342815693,-0.5045126942092143
-7.422129764285714,-103.90981670000001,6.4551144020618425,-3.0040697023899985,3.1200588,0.18826159764790926,0.0,38,14,193.14277475430043,750.815655,mp-1218246,SrLa3MnCuO8,https://materialsproject.org/materials/mp-1218246,-42.735610865279604,-3.817207662986638,-8.604250342815693,-0.5045126942092143
-7.41403707,-103.79651898,6.919929211618222,-3.0057319128571427,7.5e-07,4.4928944403924324e-08,0.0,64,14,194.5415966340025,810.70908,mp-36480,La2CuO4,https://materialsproject.org/materials/mp-36480,-42.65889536229768,-3.99375486336734,-8.604250342815693,-0.5045126942092143
-7.059878644285715,-98.83830102,5.916132533485228,-2.886612663708572,7.000000599999999,0.43822717135297856,0.0,38,14,186.15564194363418,663.2312900000001,mp-1218420,Sr3DyMn2O8,https://materialsproject.org/materials/mp-1218420,-34.08178677346153,5.10261265280238,-8.604250342815693,-0.5045126942092143
-6.109108367692307,-79.41840878,6.534198174461827,-2.2640367585576935,3.9200000000000004e-05,2.540437288808469e-06,0.0,25,13,179.82704831836628,707.61695,mp-1218486,Sr2YTlCu2O7,https://materialsproject.org/materials/mp-1218486,-46.69034186946183,-2.482093498395157,-8.604250342815693,-0.5045126942092143
-5.6915922815,-113.83184563,4.674817288269115,-0.6813307664519996,1.84308235,0.05771180133507356,0.0,62,20,372.1838617261756,1047.7872,mp-669418,Sr2NiN2,https://materialsproject.org/materials/mp-669418,5.36223054442898,7.408805146100707,-8.604250342815693,-0.5045126942092143
-5.891944486,-58.91944486,3.613811974363718,-0.7543863969519997,3e-07,2.2799515691947435e-08,0.0,12,10,153.34621484976267,333.7256,mvc-15358,Ca2NiN2,https://materialsproject.org/materials/mvc-15358,5.546290120319623,7.771237804625303,-8.604250342815693,-0.5045126942092143
-6.977200481931818,-613.99364241,4.076797500906422,-2.7787510888257576,0.4888112,0.004905187144189525,0.022199999999999772,62,88,1161.349652704,2851.2352,mp-560425,Sr2Cu(BO3)2,https://materialsproject.org/materials/mp-560425,-48.180482905418025,-5.806426373324128,-8.604250342815693,-0.5045126942092143
-6.555431353529412,-222.88466602,4.051748685748847,-2.4795977173188244,6.0009679,0.16112209447783088,0.26139999999999985,7,34,434.0538697147717,1059.10018,mvc-11930,Ca3Mn2(GaO5)2,https://materialsproject.org/materials/mvc-11930,-32.67353064706783,-10.686520504810108,0.6590888760490338,-2.2840916763810744
-7.0956616005,-141.91323201,3.7151021240857,-0.7260624278389998,5e-08,1.630222953171064e-09,1.1048,176,20,357.43775874000954,799.6907900000001,mp-862670,Sr3Co(CN)3,https://materialsproject.org/materials/mp-862670,4.098238958517923,7.337170511884631,-8.604250342815693,-0.5045126942092143