energy_per_atom,energy,density,formation_energy_per_atom,total_magnetization_uB,total_magnetization_T,band_gap,sgr,num_sites,cell_volume,weight,mp_id,formula,URL,tsne_cry_lin1_0,tsne_cry_lin1_1,tsne_cry_lin2_0,tsne_cry_lin2_1
-5.95835247,-23.83340988,8.844270885133431,-0.6647652437499998,4.8e-06,7.182383037355745e-07,0.0,225,4,77.88433256391895,414.82321,mp-1183550,CaTmRh2,https://materialsproject.org/materials/mp-1183550,13.517895744822395,46.311467999634935,-8.604250342815693,-0.5045126942092143
-6.371401513333333,-38.22840908,7.846462735598379,-0.4573845005555554,6.95705495,0.5761590054383029,0.0,12,6,140.7215165401752,664.9444,mp-1225254,EuAgGe,https://materialsproject.org/materials/mp-1225254,-6.181866734682169,48.91216117701256,-8.604250342815693,-0.5045126942092143
-4.14038135875,-231.86135609,8.09990658552732,-0.21163932267857127,0.01556015,0.0001851794233529751,0.0,58,56,979.2610468663677,4776.71576,mp-1224933,La2(InCu3)3,https://materialsproject.org/materials/mp-1224933,2.755286760756752,42.94976669388579,-8.604250342815693,-0.5045126942092143
-5.85412129673913,-269.28957965,4.93144654051126,-0.6738517620130438,0.000742,7.667315636752581e-06,0.3765000000000001,136,46,1127.8153229781185,3349.3708,mp-1246400,Ba11(CN5)2,https://materialsproject.org/materials/mp-1246400,7.20725889418796,2.588734526786271,3.634707440107936,-5.586873268191249
-6.198030401666667,-37.18818241,8.88545181669826,-0.03354827833333355,0.24584055,0.029538082510192888,0.0,74,6,96.99484360344114,519.014,mp-1226680,CeFeCu,https://materialsproject.org/materials/mp-1226680,39.49188804860754,74.3538662618609,-8.604250342815693,-0.5045126942092143
-6.150264485555557,-110.70476074,5.4147806948901325,-0.4744825399466658,1.80439295,0.07850083008882253,0.0,15,18,267.876305137877,873.50638,mp-1246907,Sr3(CoN2)2,https://materialsproject.org/materials/mp-1246907,3.6369373425128897,7.963917266247577,-8.604250342815693,-0.5045126942092143
-7.333056415238095,-153.99418472,6.7536707863382315,-3.075241514285714,1.0,0.03978160207462522,0.0,12,21,292.95111721991873,1191.4778,mp-756531,LiNd6(CuO6)2,https://materialsproject.org/materials/mp-756531,-43.16750197733858,-3.0386551544770284,-8.139285411294113,2.224142031287778
-6.062888392222222,-218.26398212,2.2579940246938035,-0.2810259682799996,5.225e-06,7.037886439632388e-08,0.4351,33,36,865.2098745686072,1176.50876,mvc-10858,Ca3(CoN2)2,https://materialsproject.org/materials/mvc-10858,4.821731404818,5.358886049807479,3.6095838502454938,-0.4686436088972886
-5.4219704425,-21.68788177,13.860054354448204,-0.4084700287500001,0.7760482,0.10150710407204047,0.0,225,4,89.09835495858171,743.6790179999999,mp-862821,PaSnAu2,https://materialsproject.org/materials/mp-862821,-8.265687322981078,49.71127142588315,-8.604250342815693,-0.5045126942092143
-9.664659237142855,-270.61045864,10.3946139739511,-1.111771550339999,4.2999999999999995e-06,1.0273750716473608e-07,0.0,227,28,487.7719919917176,3053.3468000000007,mp-1193886,Zr4Ir2N,https://materialsproject.org/materials/mp-1193886,-4.837551779238568,20.67362471989784,-8.604250342815693,-0.5045126942092143
-4.1267776666666665,-12.380333,3.739488301467607,0.18894050380436767,0.0047133999999999995,0.0005877722267166356,0.0,187,3,93.45502628769955,210.4581519,mp-1245622,CsCuN,https://materialsproject.org/materials/mp-1245622,3.833242909118765,4.590541638187418,-5.994288443651388,0.28400184921382915
-5.3870279725,-21.54811189,8.798480078929462,-0.30449913750000057,0.0008644999999999999,0.000121914165963676,0.0,225,4,82.63960891041701,437.87164,mp-865959,LiHo2Ru,https://materialsproject.org/materials/mp-865959,9.044355052640698,42.80541690839311,-8.604250342815693,-0.5045126942092143
-7.6028148625,-30.41125945,8.331824941182145,-0.3025580462499997,14.062808800000003,1.7413075227411885,0.0,225,4,94.11828898627078,472.2425,mp-1184339,Eu2ZnRh,https://materialsproject.org/materials/mp-1184339,5.980430110899347,47.379942900944265,-8.604250342815693,-0.5045126942092143
-3.823563811666667,-22.94138287,7.986173846173951,-0.7284591883333338,9.000000000000001e-07,7.089720662664085e-08,0.0,44,6,147.941770830819,711.509138,mp-1071278,CaSnAu,https://materialsproject.org/materials/mp-1071278,-10.731580768800312,49.28769692269147,-8.604250342815693,-0.5045126942092143
-3.2069314233333333,-9.62079427,3.2264832852765117,-1.1204380464798849,0.0,0.0,0.4581,166,3,96.20780211659994,186.935,mp-753746,Rb2O,https://materialsproject.org/materials/mp-753746,7.2411815526943135,0.9978982655758096,2.640977734402952,-0.6852707948645168
-6.097132716875,-97.55412347,3.775663024825171,0.2267965381249999,3.545106425,0.13987001914510502,0.0,225,16,295.3806695322342,671.6239999999999,mp-1094328,MgTi3,https://materialsproject.org/materials/mp-1094328,33.66449836953257,61.50505474671298,-8.604250342815693,-0.5045126942092143
-3.9325184999999996,-15.730073999999998,8.912329354328852,-0.3004578337499999,0.00017649999999999998,2.4061686307253736e-05,0.0,225,4,85.48621264905658,458.81564000000003,mp-1184642,Ho2ZnCu,https://materialsproject.org/materials/mp-1184642,-8.769840473808822,55.66545297744432,-8.604250342815693,-0.5045126942092143
-4.231977931666667,-25.39186759,8.875295935747143,-0.2544151776388889,0.0,0.0,0.2088000000000001,216,6,97.1709431590778,519.362,mp-1206095,SmInCu4,https://materialsproject.org/materials/mp-1206095,2.8216892010076444,41.601808491661785,-6.6481852754295305,1.4096520508175108
-4.782699523,-47.82699523,5.752048260259934,0.06307137804800007,0.0,0.0,0.10630000000000006,12,10,125.59297357211986,435.0496,mvc-15400,Zn2NiN2,https://materialsproject.org/materials/mvc-15400,0.6871678944692502,8.28626427493594,-8.604250342815693,-0.5045126942092143
-3.241746995,-12.96698798,8.097224518053972,-0.3067819008333337,0.000286,3.974048314896276e-05,0.0,225,4,83.87070968559844,408.97561,mp-971868,TmMgAg2,https://materialsproject.org/materials/mp-971868,20.695003180987875,61.24651541997406,-8.604250342815693,-0.5045126942092143
-5.013974324482758,-145.40525541,5.803070818089867,-1.478579599827586,2.4126362,0.06036265854112206,0.0,25,29,465.80152741727835,1627.8324,mvc-15237,Ba4CaCu6(HgO8)2,https://materialsproject.org/materials/mvc-15237,-52.38029601320643,-1.4290247355088768,-8.604250342815693,-0.5045126942092143
-7.028514505833333,-84.34217407,9.556443077853515,-0.6056652791666662,0.00066455,3.159655812450794e-05,0.0,194,12,245.1124174375608,1410.628,mp-609413,Eu2Ga3Ir,https://materialsproject.org/materials/mp-609413,6.543114530825437,46.68451711505896,-8.604250342815693,-0.5045126942092143
-6.192147295,-24.76858918,13.177016157405056,-0.6884330949999988,2.55e-05,3.893410298574358e-06,0.0,225,4,76.32862424211736,605.697,mp-865829,Lu2CuIr,https://materialsproject.org/materials/mp-865829,-9.790029880953954,55.6394365061321,-8.604250342815693,-0.5045126942092143
-7.962943609,-79.62943609,11.88003108461331,-0.16497288516666658,8.084313,0.42040696956268697,0.0,127,10,224.1045324287801,1603.316,mp-1080543,Np2InPd2,https://materialsproject.org/materials/mp-1080543,22.295723178927588,55.12030632617237,-8.604250342815693,-0.5045126942092143
-6.424910122857143,-89.94874172,4.275128332233938,-1.8419275209200003,8.0000008,0.6483168546148884,0.0,160,14,143.8070394747197,370.237335,mp-849420,Li2Mn3CuO8,https://materialsproject.org/materials/mp-849420,-65.97209259925889,-37.73908841753949,-8.604250342815693,-0.5045126942092143
-4.977939451999999,-24.88969726,7.792053750754496,-0.5361049474999987,0.0,0.0,0.0,139,5,88.78324428185232,416.614,mp-3177,Nd(CuGe)2,https://materialsproject.org/materials/mp-3177,-2.897060843441285,58.24460944441985,-8.604250342815693,-0.5045126942092143
-8.35462284142857,-233.92943956,5.32547285911905,-0.8480222123469393,0.00291555,9.182228146975808e-05,0.0,63,28,370.0409966270241,1186.749144,mp-1192783,V4P3,https://materialsproject.org/materials/mp-1192783,53.087619492632115,50.5718303658897,-8.604250342815693,-0.5045126942092143
-6.884880170833332,-82.61856205,5.876978879190519,-2.668713667475833,5.0,0.3818991136755708,0.0,107,12,152.58041136042016,540.0125099999999,mp-1218748,Sr2LaMnCoO7,https://materialsproject.org/materials/mp-1218748,-34.554569004891896,5.0353033142014505,-8.604250342815693,-0.5045126942092143
-6.965793957569443,-1003.07432989,4.015817167491987,-2.5684593635894446,33.00141185,0.206038366976224,0.0,1,144,1866.645503602736,4514.26126,mp-1076449,SrCa7Mn7FeO20,https://materialsproject.org/materials/mp-1076449,-29.640142144382736,-11.436129711714196,-8.604250342815693,-0.5045126942092143
-4.366024399285714,-61.12434159,3.464613175207433,-2.5365418422785715,1.7120810000000002,0.11384108472832988,0.0,15,14,175.2680319015218,365.686032,mvc-14156,MgCuF5,https://materialsproject.org/materials/mvc-14156,-52.04990818303124,-12.052275593294524,-8.604250342815693,-0.5045126942092143
-7.9776793940625,-510.57148122,4.0935975028908,-0.7746051902524993,2.50000009375,0.04083433651038136,0.1103999999999994,61,64,713.4966676037641,1758.9277376000002,mp-1247192,MnAlN2,https://materialsproject.org/materials/mp-1247192,-0.3171744821888192,10.509444234922624,-8.604250342815693,-0.5045126942092143
-6.809024631944443,-245.12488675,7.430349652094916,-0.47146805361111105,6.848787125,0.1032883609137254,0.0,62,36,772.7512380111413,3457.8,mp-1198564,EuCuGe,https://materialsproject.org/materials/mp-1198564,-4.892045604212613,47.102061335650546,-8.604250342815693,-0.5045126942092143
-5.4470134182191785,-397.63197953,5.3335904927424975,-1.9564965311986309,4.3143555000000005,0.053615144623262084,0.006299999999999972,146,73,937.7905963352413,3012.1490000000003,mp-685197,Sr18Ni13O42,https://materialsproject.org/materials/mp-685197,-37.89205121907909,-20.850325332296237,-5.556898655554859,-2.3725590532835827
-6.739456944705883,-114.57076806,5.363983611251074,-2.821823414632353,0.0,0.0,0.5118999999999998,69,17,281.80536425282503,910.306424,mp-1228084,Ba4Sc2Cu2O9,https://materialsproject.org/materials/mp-1228084,13.880279983949716,-17.16340221741535,7.985979016185169,-4.078668697244688
-3.897771649583333,-93.54651959,7.046887301979097,-0.15727316583333342,0.0,0.0,0.0,194,24,358.8497806007247,1522.8633,mp-13220,PrMg2Cu9,https://materialsproject.org/materials/mp-13220,3.5692089477658104,41.188150711756904,-8.604250342815693,-0.5045126942092143
-3.0353474825,-12.14138993,3.5761382837945064,-0.3098325074999999,0.0,0.0,0.0,225,4,59.08383633379131,127.243,mp-11489,Li3Pd,https://materialsproject.org/materials/mp-11489,-4.291004987769717,4.508156925652821,-5.944255080700732,-3.0791245282514312
-6.834057627999999,-34.17028814,8.20691053567297,-0.5285605279999984,6.9731321,0.934866109804356,0.006199999999999761,12,5,86.92724263800939,429.62199999999996,mp-20806,Gd(CuGe)2,https://materialsproject.org/materials/mp-20806,-2.9687360758276555,58.180147410934886,-8.604250342815693,-0.5045126942092143
-7.2304253455,-144.60850691,5.2225035019424,-2.6696491004419993,13.0000014,0.6837135956259038,0.0,6,20,221.58819033030016,696.9093,mp-1227754,Ca3HoMn4O12,https://materialsproject.org/materials/mp-1227754,-33.16640998056962,6.010603546195942,-8.604250342815693,-0.5045126942092143
-7.178607232272728,-315.85871822,5.281555369406076,-2.9004804911363635,3.0000004000000002,0.05705955978586943,0.4394999999999998,140,44,612.731663379626,1948.8708960000001,mp-16435,Ba3Sc4(CuO4)3,https://materialsproject.org/materials/mp-16435,-48.65530082167104,-8.475792062382501,1.6233687430135548,1.0422403991963662
-5.424685292142856,-379.72797045,2.9371066285953047,-0.5083330549588571,8.8500849,0.1593986721832355,0.0,13,70,647.0534619553749,1144.4868,mp-532423,Li18Fe5N12,https://materialsproject.org/materials/mp-532423,0.07901394071372071,11.199027432579298,-8.604250342815693,-0.5045126942092143
-4.570904774166666,-54.85085729,3.0834160757082163,0.17982638249999994,0.12795188333333332,0.006394213913969881,0.0,38,12,233.2045121105236,433.032,mp-1094345,MgTi,https://materialsproject.org/materials/mp-1094345,-17.490137763496787,38.836792686383006,-8.604250342815693,-0.5045126942092143
-4.311032845,-25.86619707,6.473156782792673,-0.2328848133333329,2e-07,2.4730983882499596e-08,0.0,216,6,94.24667314434237,367.39485,mp-13172,YMgCu4,https://materialsproject.org/materials/mp-13172,2.5221362095273614,40.94092695692819,-8.604250342815693,-0.5045126942092143
-4.908442886,-24.54221443,8.5230636766776,-0.4985387159999995,0.0,0.0,0.0,139,5,84.72562928033555,434.87199999999996,mp-22066,Dy(CuGe)2,https://materialsproject.org/materials/mp-22066,-3.127198504605866,57.956059376213524,-8.604250342815693,-0.5045126942092143
-6.039357547391304,-138.90522359,2.772618221457781,-0.88850422733913,3.9999998999999997,0.11237934531669064,0.5556999999999999,8,23,414.8116167919055,692.615,mvc-11164,Ca11(FeN5)2,https://materialsproject.org/materials/mvc-11164,6.008249448984472,6.071672019567129,-6.8178442918095294,-3.34963940636824
-5.6588026639999995,-28.29401332,5.459670864910534,-0.552325028952,2.0000009999999997,0.2120723129330276,0.07799999999999985,139,5,109.90657326656721,361.3608,mp-1245840,Ba2NiN2,https://materialsproject.org/materials/mp-1245840,4.400465758649833,6.627096940155416,-6.195502318213508,-3.7495514941879495
-0.880316095,-3.52126438,8.978625128291984,-0.16518689987500002,6.7e-05,7.868245017819054e-06,0.0,225,4,99.23716635579943,536.58076928,mp-976220,NaCdHg2,https://materialsproject.org/materials/mp-976220,-14.524430655618694,47.460412731476346,-8.604250342815693,-0.5045126942092143
-5.901221585,-23.60488634,10.626534431793694,-0.6542692668749996,4.7799999999999996e-05,6.815048941705167e-06,0.0,225,4,81.74032217426341,523.0930000000001,mp-865151,YbNdRh2,https://materialsproject.org/materials/mp-865151,13.765465447519762,48.237648970239256,-8.604250342815693,-0.5045126942092143
-7.024117172692307,-365.25409298,9.503644409990537,-0.8374940294230774,1.49099935,0.019484356608048932,0.0018000000000002456,59,52,891.8027600442468,5103.991,mp-29776,Ce4Ge9Rh13,https://materialsproject.org/materials/mp-29776,12.69248525262283,65.83268907969422,-8.604250342815693,-0.5045126942092143
-7.54251403,-30.17005612,8.535318990774213,-0.34069767312500066,2e-07,4.8378045093655575e-08,0.0,38,4,48.17914717305531,247.64512000000002,mp-5154,HoNiC2,https://materialsproject.org/materials/mp-5154,-21.54295459682849,11.214846730556523,-8.604250342815693,-0.5045126942092143
-4.476590005,-17.90636002,12.925851461270296,-0.6929143825000001,1.01e-05,1.3522359766173549e-06,0.0,225,4,87.04549815136328,677.573458,mp-1184832,HoSnAu2,https://materialsproject.org/materials/mp-1184832,-7.948407873331793,48.33053233334964,-8.604250342815693,-0.5045126942092143
-3.161141125,-12.6445645,4.89257300931358,0.14943023000000055,0.0245565,0.003342435762758817,0.0,225,4,85.62110445801031,252.272,mp-30504,CeMg2Cu,https://materialsproject.org/materials/mp-30504,-23.991961333559534,19.6858815471935,-8.604250342815693,-0.5045126942092143
-6.890671957142858,-144.7041111,5.815659470282596,-0.14788344000000042,0.10776500000000001,0.002753765715017137,0.0,147,21,456.0664995449983,1597.268955,mp-1216292,Y4Co3,https://materialsproject.org/materials/mp-1216292,-27.65330653134357,66.46820941665035,-8.604250342815693,-0.5045126942092143
-6.817274701604937,-552.19925083,3.980032957932375,-1.9536841437293824,74.999153,0.997135913685601,0.0,8,81,876.5555176109151,2100.956235,mp-531323,Li10Mn23O48,https://materialsproject.org/materials/mp-531323,-67.1156148602991,-36.962898105199756,-8.604250342815693,-0.5045126942092143
-5.352073933333333,-16.0562218,6.419252046163707,-0.5888389308333329,0.197233,0.037671524393426484,0.0,187,3,61.01601127899554,235.8735,mp-1220165,NdCuSi,https://materialsproject.org/materials/mp-1220165,-3.7617503043469993,58.81087689381175,-8.604250342815693,-0.5045126942092143
-6.920339963611112,-996.52895476,4.479200632678476,-2.5583655290755547,33.00000235,0.196664446651333,0.0,1,144,1955.5347772815921,5274.933260000002,mp-1099672,Sr5Ca3Mn7FeO20,https://materialsproject.org/materials/mp-1099672,-31.066638554852624,-11.373017551261235,-8.604250342815693,-0.5045126942092143
-5.098221489285714,-71.37510085,7.061491502010722,-1.4844363657142854,0.37308995,0.01970155212053241,0.0,139,14,220.6940050555548,938.5078,mvc-11834,BaTlCuO4,https://materialsproject.org/materials/mvc-11834,-51.9697628065591,-2.0927456921550234,-8.604250342815693,-0.5045126942092143
-6.2509285158333325,-75.01114219,5.123141717438512,-1.493638867322917,3.0000001,0.12374555042926798,0.0,63,12,282.53295057319804,871.6786,mp-867312,KNpCuS3,https://materialsproject.org/materials/mp-867312,46.11531228056552,-4.328281793259095,-2.2532264220641083,-0.9731141937980152
-4.8312527625,-57.97503315,6.080591482787024,-1.1394766060416668,3.85e-06,3.415790777755199e-07,0.0,59,12,131.35508669486313,480.9984,mp-754010,ZnCu2O3,https://materialsproject.org/materials/mp-754010,-59.5405054863687,1.0155664430504958,-8.604250342815693,-0.5045126942092143
-4.800192149090909,-105.60422728,2.2423200770635425,-1.5233374287045456,5.99999975,0.1332690313938873,0.8341999999999999,136,22,524.6859303357195,708.51318,mp-770883,K4Co2O5,https://materialsproject.org/materials/mp-770883,-38.5026422169904,-26.700996635725808,5.513911290225131,-0.9958938558850184
-9.59162639,-38.36650556,13.940792389603413,0.479053741875001,2.4299999999999998e-05,3.4297402938075133e-06,0.0,225,4,82.57003437972092,693.2036400000002,mp-972514,SmTa3,https://materialsproject.org/materials/mp-972514,9.57492318456388,74.31542138589852,-8.604250342815693,-0.5045126942092143
-5.051907435,-10.10381487,12.51302965527058,-0.6140195450000006,4.02e-05,1.279362296775826e-05,0.0,221,2,36.6192911138283,275.9455,mp-567089,YbRh,https://materialsproject.org/materials/mp-567089,30.190863387930037,57.26822670649553,-8.604250342815693,-0.5045126942092143
-6.290559512857143,-88.06783318,6.494132963454333,-2.02085569,0.9472053,0.06501733298497557,0.0,88,14,169.78229361796056,663.9944999999999,mp-1101476,Pr(CuO2)2,https://materialsproject.org/materials/mp-1101476,-60.14418740747187,-1.72224735638441,-8.604250342815693,-0.5045126942092143
-6.53590803,-26.14363212,8.546034131888227,-0.7631856624999998,2.4e-06,3.2982074095631064e-07,0.0,225,4,84.80290042719976,436.4417,mp-1187771,Y2CuPt,https://materialsproject.org/materials/mp-1187771,-9.752767110946797,55.35328173899699,-8.604250342815693,-0.5045126942092143
-2.934089844,-29.34089844,3.3305766113324475,-0.30251936586337924,0.0,0.0,2.1454000000000004,225,10,160.45600966922373,321.8298516800001,mp-989642,Cs2NaAlH6,https://materialsproject.org/materials/mp-989642,24.75481896376574,-17.334077880471238,7.5634717239044384,-1.8904136771425335
-3.87349352,-7.74698704,4.0773080361995095,0.016782117500000027,1e-07,2.897147793569325e-08,0.0,221,2,40.2259932973655,98.7714,mp-1059707,CaNi,https://materialsproject.org/materials/mp-1059707,30.19026563532995,77.2547726417355,-8.604250342815693,-0.5045126942092143
-7.115880325,-99.62232455,3.739369385338436,-2.5848303694228583,4.00000015,0.34091237325065443,0.91,74,14,136.73971523490022,307.92429,mp-753095,LiMnSiO4,https://materialsproject.org/materials/mp-753095,13.19801516899287,-18.32440640006497,-5.302941991921327,-3.1941953385498283
-5.1333735591666665,-123.20096542,6.737338523805932,-1.3962329616666669,0.0,0.0,0.0,100,24,777.0754181345328,3152.84376,mp-1180758,LaTe2,https://materialsproject.org/materials/mp-1180758,-10.345152941121153,23.959524387014167,-8.604250342815693,-0.5045126942092143
-5.326235210535714,-298.26917179,4.840713485302373,-0.5512248844128566,0.013596,0.00014429252160237408,0.0,60,56,1098.1072538489384,3201.1428,mp-1247499,Sr7RhN6,https://materialsproject.org/materials/mp-1247499,7.4943529125425545,5.450525230211246,-8.604250342815693,-0.5045126942092143
-6.988552313333333,-41.93131388,8.63747283724889,-0.421321427638888,1e-06,1.7380468732310036e-07,0.0,191,6,67.05264945412524,348.781585,mp-5410,SmCo3B2,https://materialsproject.org/materials/mp-5410,7.773590995877902,39.55341331701805,-8.604250342815693,-0.5045126942092143