energy_per_atom,energy,density,formation_energy_per_atom,total_magnetization_uB,total_magnetization_T,band_gap,sgr,num_sites,cell_volume,weight,mp_id,formula,URL,tsne_cry_lin1_0,tsne_cry_lin1_1,tsne_cry_lin2_0,tsne_cry_lin2_1
-6.500684822692307,-169.01780539,4.850502788000176,-1.7649654661538468,8.9999999,0.3557092847530163,1.956,12,26,294.8660220113677,861.3157699999998,mp-1216438,VCo3AsO8,https://materialsproject.org/materials/mp-1216438,-11.028968457838152,-37.059702248122036,4.766810614395762,-3.673828329687222
-8.22446109095238,-172.71368291,7.7003442634599875,-0.16482964760761898,39.026686700000006,1.666148324328971,0.0,12,21,272.9766179991023,1265.8624,mp-1220542,Nd2Fe17N2,https://materialsproject.org/materials/mp-1220542,61.23372001690144,75.27424126121502,-8.604250342815693,-0.5045126942092143
-8.736571228333334,-104.83885474,12.06498598950168,-0.7146874583333336,1.1413114,0.06547108290051235,0.0,62,12,203.15712513068416,1476.07964,mp-20184,USiRh,https://materialsproject.org/materials/mp-20184,23.20815872552598,62.86528326605843,-8.604250342815693,-0.5045126942092143
-7.7525709,-31.0102836,4.308812116479067,-2.1649091131562503,7.000000200000001,0.8662364773382263,1.7619999999999998,166,4,94.17573361653541,244.36976928,mp-8260,NaGdS2,https://materialsproject.org/materials/mp-8260,82.07164867295259,4.766203140268276,8.25119901690543,-4.225937110215229
-6.153085062142857,-172.28638174,4.763098906005865,-1.8150525485714288,0.0,0.0,0.38180000000000014,186,28,257.7169209593526,739.2365699999998,mp-757835,Li2VCo3O8,https://materialsproject.org/materials/mp-757835,-72.83166257477058,-23.773228182984496,-4.7876183114198625,-0.5325284643685876
-9.08211334,-90.82113340000001,5.704556547746623,-0.7075365501785711,1e-06,1.02232190339071e-07,0.0,63,10,113.99603915270659,391.617924,mp-1080573,V3PC,https://materialsproject.org/materials/mp-1080573,53.265843075238635,50.48423824634058,-8.604250342815693,-0.5045126942092143
-3.897271281666667,-93.53451076,3.290606649066885,-0.6126004682699998,5.425e-05,1.5802746178824375e-06,1.4668,62,24,400.07794009787557,792.8143200000002,mp-1192182,Sr2LiH2N,https://materialsproject.org/materials/mp-1192182,25.960327803490614,-10.096106623842507,7.329037791331715,-1.85823762560612
-6.698600845,-53.58880676,8.111217486492567,-0.4725622424999987,0.0,0.0,0.0,129,8,122.09865321103756,596.414,mp-20401,HfCuSi2,https://materialsproject.org/materials/mp-20401,21.849788391441397,39.48032589148741,-8.604250342815693,-0.5045126942092143
-7.066805848333334,-127.20250527,1.6265697109108106,-0.35202445456185205,0.0,0.0,2.4597,43,18,341.09736343148114,334.1196,mp-1205404,K2B(CN)3,https://materialsproject.org/materials/mp-1205404,27.37804463479931,-17.732917539930124,5.051540501361412,-0.07058755629007729
-6.074763694444443,-164.01861975,5.267039281459764,-1.5023887679629642,23.0000223,0.892864397142604,0.0,12,27,300.20656049488184,952.2207599999999,mp-699375,Co8As3O16,https://materialsproject.org/materials/mp-699375,-10.899357836822839,-36.83777930729357,-5.423936779644982,-3.5195572845401006
-7.964294641666666,-47.78576785,11.830702161929144,-0.2889157183333329,0.99936065,0.11225266786977707,0.0,194,6,103.75355853242122,739.20421,mp-1072004,UCoGe,https://materialsproject.org/materials/mp-1072004,21.693373923510308,66.19610259467699,-8.604250342815693,-0.5045126942092143
-5.933111966666668,-106.79601540000002,3.8313151998968618,-0.6924446499466662,0.40428515,0.017025930704186,0.0,2,18,276.7287971826189,638.4886,mp-1246957,Ca4RhN4,https://materialsproject.org/materials/mp-1246957,7.974009655035199,6.8646086803808535,-8.604250342815693,-0.5045126942092143
-5.13069920125,-164.18237444,6.859395358842539,-1.33236256125,0.0,0.0,1.5066000000000002,14,32,591.8738975038405,2444.9272,mp-558338,Tl2CuAsO4,https://materialsproject.org/materials/mp-558338,13.840691850738502,-17.400948314550543,7.813637779800673,-4.1872171955216935
-9.927729199999998,-89.3495628,7.546776495760429,-2.7559180026388903,5.9999998,0.6375075134170076,0.012299999999999756,123,9,109.68401914160052,498.4892,mp-1184487,Gd2Cr2O5,https://materialsproject.org/materials/mp-1184487,-13.893695422076574,23.178271304075537,-8.604250342815693,-0.5045126942092143
-7.37619598,-29.50478392,7.548871156443352,-0.5213625954166671,13.784690099999999,1.3766289332891353,0.0,225,4,116.69642226045042,530.5062,mp-1183890,Eu2AgSn,https://materialsproject.org/materials/mp-1183890,2.4552744376949667,47.447917143741826,-8.604250342815693,-0.5045126942092143
-5.116983345,-71.63776683,4.76656689831999,-0.5939212050676191,7.55e-06,3.0089431510240694e-07,0.34450000000000003,176,14,292.42223803025195,839.3962,mp-1245417,Sr3InN3,https://materialsproject.org/materials/mp-1245417,25.64258501719168,-9.04114698574058,3.5912879062758063,-5.563148855730188
-6.010668248571428,-84.14935548,4.2894169884452245,-0.8735603289880954,5.0001430000000004,0.2212821348441377,0.0,10,14,263.337979973419,680.2408,mp-1238831,Cr2AgS4,https://materialsproject.org/materials/mp-1238831,14.14248824504786,6.527895096021877,-8.604250342815693,-0.5045126942092143
-4.909722777000001,-196.38891108,11.332755207538245,-0.7822078125000005,0.0001349,1.759055594094171e-06,0.0,62,40,893.7371525360318,6099.527999999998,mp-21820,Yb2Sn5Pt3,https://materialsproject.org/materials/mp-21820,3.7034958888263465,49.2132556164621,-8.604250342815693,-0.5045126942092143
-4.531091345,-27.18654807,9.861348965478859,-0.2896068916666661,3.7000000000000006e-06,4.238816465775377e-07,0.0,74,6,101.72660224056955,604.118,mp-1025122,LuCu2,https://materialsproject.org/materials/mp-1025122,1.4618905963046624,41.322360893491286,-8.604250342815693,-0.5045126942092143
-6.528776589411764,-221.97840404,6.8311846475613045,-0.6151317572268908,6.80417135,0.1763801451175384,0.008999999999998566,64,34,449.5758498421264,1849.481144,mp-21672,Eu(Ni5P3)2,https://materialsproject.org/materials/mp-21672,17.20482364034661,26.86840216699736,-8.604250342815693,-0.5045126942092143
-5.526003797142856,-38.68202658,10.049627256907131,-0.3227528767410713,1.1599999999999999e-05,9.286292934411269e-07,0.0,166,7,145.5770912209147,881.0364999999998,mp-1077854,Rh3(PbSe)2,https://materialsproject.org/materials/mp-1077854,25.073094671887155,39.144290442694476,-8.604250342815693,-0.5045126942092143
-5.57075758375,-802.18909206,2.365272485593928,-0.9824901208396292,0.0,0.0,1.5392,1,144,1399.517712302027,1993.4736,mp-686129,Li5TiN3,https://materialsproject.org/materials/mp-686129,29.231082214677468,-15.516267770011547,9.658766657352178,-1.3436690989449278
-2.5882901725,-10.35316069,2.620071309430119,1.0051301866250002,3.2115339,0.3536855463362356,0.0,139,4,105.82118629832388,166.96930784,mp-1186087,Na3Tc,https://materialsproject.org/materials/mp-1186087,-18.104414092303763,21.17957055955189,-8.604250342815693,-0.5045126942092143
-6.9243925395,-138.48785079,5.546446776547838,-0.5144871964520007,0.0,0.0,0.1227999999999998,140,20,339.1547418621663,1132.82716,mp-1029457,Ba(CoN)2,https://materialsproject.org/materials/mp-1029457,20.55363552293434,22.40174202383566,-8.604250342815693,-0.5045126942092143
-5.824720515,-23.29888206,12.667317199228814,-0.6625062641666668,2e-06,2.787108477654093e-07,0.0,225,4,83.62835437513299,637.95362,mp-865300,Tm2AgIr,https://materialsproject.org/materials/mp-865300,16.316764735731613,53.10072689013761,-8.604250342815693,-0.5045126942092143
-3.1416408725,-12.56656349,3.911004825527861,0.8369849125000002,3.2571325,0.24917225379550986,0.0,225,4,152.33972703462103,358.8,mp-1187122,Sr3Mo,https://materialsproject.org/materials/mp-1187122,-36.87843102223994,49.01842521460144,-8.604250342815693,-0.5045126942092143
-6.4578461525,-25.83138461,10.562019858588176,-0.4077463600000009,0.3339979,0.05056573448609477,0.0,225,4,76.97768459329524,489.62404000000004,mp-1184689,Ho2NiRu,https://materialsproject.org/materials/mp-1184689,16.623244545864228,52.1224883598976,-8.604250342815693,-0.5045126942092143
-4.55387884375,-36.43103075,6.477737249959817,-1.0011471325,1.2e-06,5.208515941617618e-08,0.0,63,8,268.5002385291409,1047.4153,mp-12351,PrTe3,https://materialsproject.org/materials/mp-12351,-9.977064301683516,24.050593395837765,-8.604250342815693,-0.5045126942092143
-7.71170919,-30.84683676,6.726754365144986,0.2742289275000003,5.5e-06,8.568787414096219e-07,0.0,225,4,74.80329847328683,303.02414,mp-1185897,MgNb3,https://materialsproject.org/materials/mp-1185897,36.440627862019724,55.420829675646836,-8.604250342815693,-0.5045126942092143
-8.539962608452381,-717.35685911,4.514333823221038,-1.1266921669552379,4.916666666666667e-07,4.396843806224949e-09,1.6105,205,84,1303.1882487455134,3542.8416,mp-1029918,Ba(VN2)2,https://materialsproject.org/materials/mp-1029918,33.768540237651294,-8.174331653192963,7.422750940631298,-4.355925217264557
-6.6722209460975614,-547.12211758,4.395601320899556,-0.4561480970175605,1.55e-06,1.1088922429377488e-08,0.1907000000000001,2,82,1628.9951086330752,4312.1016,mp-1029863,K15Re7N19,https://materialsproject.org/materials/mp-1029863,3.1856895825659746,2.899166105263113,-8.604250342815693,-0.5045126942092143
-5.546849737142856,-38.82794816,5.1693508029969655,-2.5351127503485715,0.9999992,0.12055868580752803,0.0,107,7,96.66707438992474,300.9300032,mp-1218709,Sr2NiO3F,https://materialsproject.org/materials/mp-1218709,-39.96850985423936,-17.722490657970535,-4.672990056045308,-1.6204725033855405
-4.191548197727273,-92.21406035,4.176838089770107,-2.0479000820754543,0.9999995999999999,0.04228598591987322,0.0,15,22,275.60100249327996,693.23318336,mp-29343,NaCu3F7,https://materialsproject.org/materials/mp-29343,-60.415281811310514,-2.3053726639194383,-8.604250342815693,-0.5045126942092143
-7.105332705714285,-149.21198682,8.287426893051112,-0.8032081302380943,4.9947445,0.23168983086473185,0.0,174,21,251.2370772084972,1253.8753140000001,mp-3706,Ho2Co12P7,https://materialsproject.org/materials/mp-3706,11.779876425567956,26.498900149401376,-8.604250342815693,-0.5045126942092143
-7.2239025025,-144.47805005,5.051547257782297,-2.656211891317,13.000000199999999,0.6754542432529458,0.0,6,20,224.29771651808812,682.33898,mp-1227761,Ca3SmMn4O12,https://materialsproject.org/materials/mp-1227761,-33.098688886608755,6.11871086906147,-8.604250342815693,-0.5045126942092143
-3.990232958,-39.90232958,3.2286093783276435,-2.1320274977749656,0.0,0.0,2.1242,225,10,301.4456802392916,586.1050700000002,mp-1113343,Rb2LaCuCl6,https://materialsproject.org/materials/mp-1113343,12.471942988480349,-11.24053846734407,2.750637545583225,1.1615291122481308
-7.924299062758621,-459.60934564,6.403839611148468,-2.9923329185275866,16.99999985,0.2736323050188609,0.049900000000000055,2,58,724.0340257768507,2792.22449,mp-531111,La6Mn5O18,https://materialsproject.org/materials/mp-531111,-30.56365363971332,9.450108085546852,-8.604250342815693,-0.5045126942092143
-1.1069992625,-4.42799705,0.5420456335406888,0.8521841450000001,9.000000000000001e-07,1.1593912377553617e-08,1.0587,71,4,904.6694466667076,295.309,mp-1096051,LiCd2Cu,https://materialsproject.org/materials/mp-1096051,-0.034644972187773064,-5.5749316552473775,8.688999004241769,-5.167650108313781
-5.413219989230769,-140.74371972,4.615240845408605,-0.40327760763692205,4.5e-07,1.0428781296092928e-08,0.5408000000000004,15,26,502.87075725872324,1397.6604,mp-1246781,Ca5(PbN3)2,https://materialsproject.org/materials/mp-1246781,26.66274248687238,-8.474968767609186,5.117173991755365,-6.483445777611125
-1.830128705,-29.28205928,2.802619250196382,0.22680613474137926,0.688197775,0.009327181369582832,0.0,204,16,859.8847956722191,1451.2936,mp-1179774,Rb3Pd,https://materialsproject.org/materials/mp-1179774,8.298701266501768,1.398021407274982,-4.6227756986278745,-3.479204877800945
-6.2675726240000005,-31.33786312,7.7156367323229516,-0.5891580994999999,0.7803498000000001,0.10510112308401467,0.0,139,5,86.52854363111166,402.05186,mp-19939,La(CoGe)2,https://materialsproject.org/materials/mp-19939,18.64423381568562,68.05655055273915,-8.604250342815693,-0.5045126942092143
-4.252826331363637,-93.56217929,3.3149477968845957,-2.256609897120909,2.99999985,0.12738099480713755,0.007199999999999873,2,22,274.46945772800893,547.9256448,mp-753090,Li2Cu2F7,https://materialsproject.org/materials/mp-753090,-62.04412105963358,-12.84999793481544,-5.199834225620378,-2.3980998905101774
-8.0836470425,-32.33458817,8.896050340997496,-0.2453815275000011,13.992677800000003,1.7365375194316348,0.0,225,4,93.906161887093,503.086,mp-1185339,LiEu2Ir,https://materialsproject.org/materials/mp-1185339,-2.7913514526539083,50.77350301505121,-8.604250342815693,-0.5045126942092143
-9.436066596111113,-169.84919873,5.973163050815713,-0.7411964245762969,2.13477185,0.14347266310918033,0.0,2,18,173.40424911193534,623.7564,mp-1247130,Ti(CrN)4,https://materialsproject.org/materials/mp-1247130,-0.8217612701672371,13.2447102315389,-8.604250342815693,-0.5045126942092143
-4.813466708333333,-28.88080025,8.42026831468801,-0.5680819066666665,2.4e-06,2.0785009648416496e-07,0.0,194,6,134.56695920405377,682.3627,mp-1019275,TbCuSn,https://materialsproject.org/materials/mp-1019275,-5.646783399978148,55.33868610995322,-8.604250342815693,-0.5045126942092143
-3.459421294,-17.29710647,5.1699495980296835,-1.3015041396379308,0.0,0.0,2.0173,139,5,129.60823061949094,403.5244,mp-5072,Rb2HgO2,https://materialsproject.org/materials/mp-5072,17.055909574090425,-19.017520041568925,6.388934999249119,-1.0857842521958911
-2.765706427,-27.65706427,5.197183866002568,-0.10302463741337924,0.0,0.0,0.44200000000000017,225,10,174.4398429941854,545.9648437999998,mp-989553,Cs2TlGaH6,https://materialsproject.org/materials/mp-989553,37.82767173602975,-6.045191758312867,7.209572213737933,-5.355506184296499
-7.482100435,-29.92840174,7.94975698429082,-0.4596757429166667,1.0000002000000001,0.2371306414984961,0.0,216,4,49.146188066321905,235.28519500000002,mp-1018012,TiFeCoGe,https://materialsproject.org/materials/mp-1018012,47.070813095899666,48.64772407652614,-8.604250342815693,-0.5045126942092143
-8.629897283181817,-189.85774023,6.831382387152994,0.26325141858818313,0.0,0.0,0.02430000000000021,15,22,243.33388992952518,1001.0646,mp-1246344,Os2(CN2)3,https://materialsproject.org/materials/mp-1246344,1.7819544941434295,-1.7637091905336169,-5.748393701272137,-2.7283589662559184
-5.3459058175,-21.38362327,11.846538290249484,-0.4098986468749999,1.4e-06,2.1109613695149386e-07,0.0,225,4,77.29033281804027,551.4010000000002,mp-862913,PmHgRh2,https://materialsproject.org/materials/mp-862913,10.399886638354854,35.24005793342087,-8.604250342815693,-0.5045126942092143
-1.668284272,-8.34142136,2.098676053802114,0.9900364199741378,1.9355006000000001,0.08055800531223345,0.0,139,5,280.0025804052865,353.8819,mp-1207162,Rb4C,https://materialsproject.org/materials/mp-1207162,-20.06498343479155,21.814101759171432,-8.604250342815693,-0.5045126942092143
-5.9084297467499995,-236.33718987,2.8647515142294218,-0.7981399844700008,0.0,0.0,1.9354,14,40,569.201782869859,981.9833380000001,mp-560745,AuN5O14,https://materialsproject.org/materials/mp-560745,-5.63947113518898,-16.864679866052597,6.501071850281545,-2.692765767515603
-6.5125102765,-130.25020553,8.511866599054352,-0.8101911519999995,0.01136625,0.0003565625003207888,0.0,72,20,371.50012578982233,1904.297,mp-1106369,Ce2Ge5Rh3,https://materialsproject.org/materials/mp-1106369,10.532931881310576,63.22536038295291,-8.604250342815693,-0.5045126942092143
-4.240092183125,-67.84147493,3.6345097771806474,-1.0352684082825006,0.008142425,0.0004475960333870897,0.0,14,16,212.00444435941768,464.02536,mp-643743,CuHClO,https://materialsproject.org/materials/mp-643743,-56.07119085477239,1.6967429599296515,-8.604250342815693,-0.5045126942092143
-3.9869817163235295,-271.11475671,3.3941525400461514,-1.7000097508045642,3e-07,1.617846607611313e-09,0.6547,61,68,2161.0327056468836,4417.1648304,mp-679984,Cs4Ru2Cl10O,https://materialsproject.org/materials/mp-679984,-21.632857513732795,-4.606631586822719,-8.604250342815693,-0.5045126942092143
-7.3028480275,-87.63417633,8.595219683408876,-0.8101244758333337,7.052112625,0.28202976408056946,0.0,62,12,291.40816957056126,1508.376,mp-22031,EuSnPd,https://materialsproject.org/materials/mp-22031,3.6619452380750483,48.56029271992149,-8.604250342815693,-0.5045126942092143
-1.1383133025,-4.55325321,11.895279611467064,-0.5554079315475,0.0018259,0.0002455559021678952,0.0,225,4,86.65707759558326,620.7684032000001,mp-973778,Hg3F,https://materialsproject.org/materials/mp-973778,-16.878637107664638,60.48281507323489,-8.604250342815693,-0.5045126942092143
-4.294418215,-8.58883643,2.618786895740039,-1.7600414670312508,5e-07,1.6302359486561383e-07,2.7919,225,2,35.743490941193365,56.37,mp-1315,MgS,https://materialsproject.org/materials/mp-1315,54.441696353915674,4.539603641413426,9.25539020352176,-0.8217881542148336
-6.133618564,-30.66809282,7.665495493290456,-0.439461756,1.55e-05,1.5636695229553042e-06,0.0,139,5,115.52185504854825,533.28,mp-1070613,Sr(SbRu)2,https://materialsproject.org/materials/mp-1070613,8.234531926875647,35.313599620010436,-8.604250342815693,-0.5045126942092143
-5.841401433888889,-105.14522581,5.533241909809114,-2.5076348394907404,0.0,0.0,0.9985,46,18,291.02307799504683,969.7460000000001,mp-22512,Sr2In2O5,https://materialsproject.org/materials/mp-22512,4.811228543660922,-27.5245340401686,6.171493592286304,-2.0980325049795923
-4.892173865,-19.56869546,6.255827276785878,-0.43050676749999983,2.8999999999999998e-06,4.333418440491556e-07,0.0,225,4,77.99105557087493,293.819393,mp-864772,LiSc2Au,https://materialsproject.org/materials/mp-864772,-11.200384864976776,57.94287474749119,-8.604250342815693,-0.5045126942092143
-6.1718415185,-123.43683037,5.24071013594489,-1.93922152875,2.02429745,0.08619143667187906,0.0,5,20,273.70809110697127,863.8308,mvc-11828,Ca2CuIrO6,https://materialsproject.org/materials/mvc-11828,-28.45411041678378,-1.133561607124728,-4.785311164335587,-2.873915527037315
-5.620809420625,-269.79885219,3.139914533937772,-0.9381016747516664,2.1000000000000002e-06,4.199603596769192e-08,2.2289,206,48,582.7582403539981,1101.938,mp-1029592,Li3YN2,https://materialsproject.org/materials/mp-1029592,26.48146108732643,-15.799210498092403,9.125890487935855,-1.6579822386985807
-4.8607313521428575,-68.05023893,6.1508350538375565,-0.9725883181696438,0.00027115,1.2673252924480824e-05,0.0,164,14,249.344006776304,923.6,mp-1222508,Lu(CuS)3,https://materialsproject.org/materials/mp-1222508,45.731460808073905,-6.471512877550517,-8.604250342815693,-0.5045126942092143
-8.361640439999999,-41.808202200000004,7.856786369831539,-0.18724419747599935,2.4104718,0.4603848580321802,0.0,221,5,61.01806781765394,288.705,mp-10376,Cr3SnN,https://materialsproject.org/materials/mp-10376,-3.4834057460230863,16.378345683303014,-8.604250342815693,-0.5045126942092143
-7.6700504765,-153.40100953,4.9190963316670855,-2.7915536454420002,7.00000095,0.360847118616758,0.0,31,20,226.0748673620996,669.7126800000002,mp-1227126,CaYMn2O6,https://materialsproject.org/materials/mp-1227126,-32.319879279292245,6.003064085131737,-8.604250342815693,-0.5045126942092143
-5.9601283215,-119.20256643,8.723858479200121,-0.5902639790000002,0.58450555,0.02085854892662525,0.0,15,20,326.5742772223962,1715.70057,mp-1005831,Tb2Co3Ge5,https://materialsproject.org/materials/mp-1005831,20.43776850283104,67.68915459776105,-8.604250342815693,-0.5045126942092143
-3.4345697625,-27.476558100000002,5.737025368685428,-0.09292129737499977,6.685e-05,3.5498507330433884e-06,0.0,194,8,219.46675751565843,758.23953856,mp-1186190,NaSn3,https://materialsproject.org/materials/mp-1186190,2.995570872361496,31.023951112140427,-8.604250342815693,-0.5045126942092143
-7.101222424,-35.50611212,8.419747956597156,-0.965969935999999,0.45559170000000004,0.060274478640620126,0.0,107,5,88.08861231795728,446.6525,mp-1226517,CeSiGeRh2,https://materialsproject.org/materials/mp-1226517,11.856083214950518,66.69074209671207,-8.604250342815693,-0.5045126942092143