energy_per_atom,energy,density,formation_energy_per_atom,total_magnetization_uB,total_magnetization_T,band_gap,sgr,num_sites,cell_volume,weight,mp_id,formula,URL,tsne_cry_lin1_0,tsne_cry_lin1_1,tsne_cry_lin2_0,tsne_cry_lin2_1
-7.936019581666668,-142.84835247,8.04130844879534,-0.6740553555555571,4.4666666666666665e-06,1.8961062658353422e-07,0.0,46,18,274.5353653890993,1329.4620000000002,mp-1188712,TiGeRu,https://materialsproject.org/materials/mp-1188712,35.705690307483,57.718240751985256,-8.604250342815693,-0.5045126942092143
-6.949051829999998,-20.84715549,10.652479519586253,0.06886310333333512,4.0779878,0.9621279188689662,0.0,216,3,49.39585790086685,316.8780450000001,mp-1206694,MnGaIr,https://materialsproject.org/materials/mp-1206694,36.056804603741654,51.451122391043995,-8.604250342815693,-0.5045126942092143
-6.634834241875,-106.15734787,8.587331056835227,-0.13167858718749947,20.309963399999997,1.1123922607656027,0.0,166,16,212.77892461155082,1100.367425,mp-1221389,Mn5Ni8Sn3,https://materialsproject.org/materials/mp-1221389,34.69976283843386,72.85955734774382,-8.604250342815693,-0.5045126942092143
-8.03893164,-16.07786328,10.658950566379199,0.1490750900000002,1.0672221000000002,0.4989636870415631,0.0,187,2,24.92661450746245,160.003195,mp-1225997,CoRu,https://materialsproject.org/materials/mp-1225997,49.65634630547168,77.67523129021208,-8.604250342815693,-0.5045126942092143
-7.1249274133333325,-21.37478224,5.9627612346997605,-0.4193762633333324,0.0,0.0,0.0,123,3,43.78924610785414,157.241,mp-7754,Si2Ru,https://materialsproject.org/materials/mp-7754,42.71689009653613,53.4749376507989,-8.604250342815693,-0.5045126942092143
-7.1400998675,-57.12079894,9.5094863686533,-0.0908217425000002,0.0,0.0,0.0,59,8,94.99990730468363,544.0404,mp-11506,Ni3Mo,https://materialsproject.org/materials/mp-11506,37.446350541953386,81.85675753546529,-8.604250342815693,-0.5045126942092143
-5.236297426666667,-62.83556912,7.218356026249125,-0.2839600608333335,0.0003015,1.3685622267400987e-05,0.0,62,12,256.74393610119915,1116.0647800000004,mp-623295,SmGaCo,https://materialsproject.org/materials/mp-623295,24.25450145550405,72.81469633505974,-8.604250342815693,-0.5045126942092143
-5.5345617925,-22.13824717,7.496637300159423,-0.3529450079166665,1.4e-06,3.193341114352908e-07,0.0,123,4,51.09285258706147,230.6628,mp-1216672,TiZnNi2,https://materialsproject.org/materials/mp-1216672,34.99102962722615,75.65080513266496,-8.604250342815693,-0.5045126942092143
-5.514399570399999,-137.85998926,8.079548624215287,-0.2872258653749998,0.0055352,0.00019565616843666444,0.0,99,25,329.6986741818675,1604.1878,mp-1220298,Ni17(GeSe)4,https://materialsproject.org/materials/mp-1220298,34.70228515171995,72.92348154773362,-8.604250342815693,-0.5045126942092143
-7.6565922575,-30.62636903,10.052932045311998,-0.15095781750000015,3.1223741,0.6722316812251308,0.0,225,4,54.130668074503156,327.708,mp-1184055,GaFeRu2,https://materialsproject.org/materials/mp-1184055,42.81973778159527,53.38597655423528,-8.604250342815693,-0.5045126942092143
-6.010734207222222,-108.19321573,7.4812440200398465,-0.3676167955555556,0.6685068000000001,0.028878148855602755,0.0,191,18,269.7825815308477,1215.454305,mp-30557,YGa2Co3,https://materialsproject.org/materials/mp-30557,39.90222061557164,77.40224930892596,-8.604250342815693,-0.5045126942092143
-7.099829976666666,-21.29948993,7.67896291591218,-0.08353348833333267,1.05e-05,2.498486039430702e-06,0.0,216,3,48.97673158092135,226.487,mp-1100423,VGeRh,https://materialsproject.org/materials/mp-1100423,52.3735823471305,53.03967145518107,-8.604250342815693,-0.5045126942092143
-9.450191435,-37.80076574,10.320706628847542,-0.2821298766666676,0.7366421999999999,0.15670073171707966,0.0,225,4,54.7851680010066,340.50488,mp-979751,TaTiFe2,https://materialsproject.org/materials/mp-979751,51.14236667172524,67.95444326467538,-8.604250342815693,-0.5045126942092143
-7.56128121875,-60.49024975,7.518412869715216,-0.3662674737499998,10.6778498,1.4067915111538047,0.0,160,8,88.45685534369028,400.505585,mp-1225227,Fe3Co3Si2,https://materialsproject.org/materials/mp-1225227,47.091016975910044,48.70348064833049,-8.604250342815693,-0.5045126942092143
-6.1440956416666666,-36.86457385,8.750748792576031,-0.6246948300000005,4.1e-06,5.886096406761605e-07,0.0,65,6,81.17717119380842,427.78942,mp-1071731,HoSiNi4,https://materialsproject.org/materials/mp-1071731,26.077049119818092,78.37664476865315,-8.604250342815693,-0.5045126942092143
-8.301036236875,-132.81657979,11.041873985407817,-0.21078218229166626,20.493706600000003,1.4148333494186585,0.0,6,16,168.8078558823688,1122.5,mp-1225266,Fe9B4Ir3,https://materialsproject.org/materials/mp-1225266,54.680356647303704,74.54869300080156,-8.604250342815693,-0.5045126942092143
-7.02887263,-42.17323578,12.882436825476606,-0.4522231049999992,0.00292435,0.0003114122850707523,0.0,227,6,109.43872785844624,849.0240000000001,mp-570436,CaIr2,https://materialsproject.org/materials/mp-570436,40.746534968290895,73.23276641013966,-8.604250342815693,-0.5045126942092143
-6.951111328461537,-90.36444727,7.989338181903431,-0.25549714307692284,10.948075900000001,0.7120363557554928,0.0,191,13,179.18970659598298,862.1339999999999,mp-981356,Zr(FeGe)6,https://materialsproject.org/materials/mp-981356,49.018343493672745,66.57456667221065,-8.604250342815693,-0.5045126942092143
-5.6986141450000005,-34.19168487,8.49689832415804,-0.4753962500000005,5.2e-06,7.199924970855865e-07,0.0,187,6,84.16912268199188,430.6893486000001,mp-1216638,TmAlNi4,https://materialsproject.org/materials/mp-1216638,24.64302905543604,79.89805353742004,-8.604250342815693,-0.5045126942092143
-7.264553603333333,-43.58732162,7.948233809364767,-0.0753857749999997,3.3076480999999998,0.4943671875285999,0.0,129,6,77.97351073184637,373.2232,mp-20426,Fe2As,https://materialsproject.org/materials/mp-20426,46.70763146550529,65.90528763584837,-8.604250342815693,-0.5045126942092143
-9.0822490225,-36.32899609,10.049783237783156,-0.5520140295833329,0.9831989,0.20106512737239454,0.0,225,4,56.98782187966134,344.897195,mp-1187422,Ti2CoOs,https://materialsproject.org/materials/mp-1187422,62.94258069615771,55.300176578314655,-8.604250342815693,-0.5045126942092143
-8.5096561575,-34.03862463,7.462201426462387,0.16243585750000022,3.4731440000000005,0.8472724187503486,0.0,225,4,47.77240972876931,214.6817,mp-1008275,Cr3Ni,https://materialsproject.org/materials/mp-1008275,54.74720925203187,65.98024247996531,-8.604250342815693,-0.5045126942092143
-7.376192018703704,-398.31436901,9.31593866481308,-0.9786306531481486,8.333333333333333e-08,1.1854119820005895e-09,0.0,176,54,819.2696540328129,4596.258,mp-15307,ErSi3Rh5,https://materialsproject.org/materials/mp-15307,34.020650675154336,53.07034621334838,-8.604250342815693,-0.5045126942092143
-5.71435223,-34.28611338,8.326220542239255,-0.4699233966666678,2.4e-06,3.305676707638081e-07,0.0,187,6,84.61128515537071,424.2551386,mp-1225335,DyAlNi4,https://materialsproject.org/materials/mp-1225335,24.703548095061088,79.86518286180073,-8.604250342815693,-0.5045126942092143
-7.701397515833331,-184.83354038,9.378646561103476,-0.5743480383333323,5.88e-05,1.622272456235453e-06,0.0,194,24,422.4068565009606,2385.7341,mp-1191413,YRh3,https://materialsproject.org/materials/mp-1191413,32.13177941963898,65.38502619381691,-8.604250342815693,-0.5045126942092143
-9.097106602857142,-127.35949244,7.937644534332772,-0.18334945159857136,11.161668400000002,0.7477217225304624,0.0,71,14,173.96686840020652,831.5897000000001,mp-1224690,GdV2Fe10N,https://materialsproject.org/materials/mp-1224690,61.141805017497674,75.26473498055233,-8.604250342815693,-0.5045126942092143
-6.59677378,-26.38709512,6.959687301494207,-0.6287188250000009,7.6e-06,1.734947495097116e-06,0.0,123,4,51.05105054864832,213.96627220000002,mp-1228908,Al2CoRu,https://materialsproject.org/materials/mp-1228908,43.78416453985425,47.85809320671999,-8.604250342815693,-0.5045126942092143
-7.197129095,-115.15406552,7.793659711861974,-0.3205104484375001,21.5382563,1.3879126192257598,0.0,166,16,180.8530526570294,848.8250599999999,mp-1225114,GaFe4Co8Si3,https://materialsproject.org/materials/mp-1225114,46.871626080866534,48.52995483376478,-8.604250342815693,-0.5045126942092143
-7.761111211428571,-108.65555696,6.484083658096013,-0.4529195028571432,3.964257,0.2448060337494296,0.0,136,14,188.71964528603382,736.9137,mp-1104575,Y(Fe2Si)2,https://materialsproject.org/materials/mp-1104575,48.148775722849706,67.73542389370026,-8.604250342815693,-0.5045126942092143
-7.036642680769233,-91.47635485,8.791406363197348,-0.23282035307692275,10.973911099999999,0.7131795837659936,0.0,191,13,179.32463811201148,949.4,mp-19725,Hf(FeGe)6,https://materialsproject.org/materials/mp-19725,49.04059874933524,66.60785798839834,-8.604250342815693,-0.5045126942092143
-7.379190224814813,-398.47627214,9.256272378610037,-0.9804454603703704,1.3333333333333334e-07,1.890257697207928e-09,0.0,176,54,822.0441611231979,4582.285919999998,mp-21793,HoSi3Rh5,https://materialsproject.org/materials/mp-21793,34.01903337591202,53.057779805959214,-8.604250342815693,-0.5045126942092143
-5.99072081,-35.94432486,8.660129529873782,-0.08023901166666647,2.9093734,0.3982555157833591,0.0,191,6,85.13636273051958,444.007585,mp-1226659,CeCo3Cu2,https://materialsproject.org/materials/mp-1226659,39.77267732955917,75.38110999203509,-8.604250342815693,-0.5045126942092143
-7.995845745,-143.92522341,5.624877964466333,-0.7350872822222227,0.15793333333333334,0.007884185256914084,0.0,46,18,233.45028515138358,790.7850000000002,mp-8648,TiFeSi,https://materialsproject.org/materials/mp-8648,42.71584771918944,64.14769906239461,-8.604250342815693,-0.5045126942092143
-8.154693345,-179.40325359,7.870508606612558,-0.053485586420455374,33.36142460000001,1.4259837164561633,0.0,8,22,272.6512222450182,1292.2934899999998,mp-1219242,Sm2Fe15Co2C3,https://materialsproject.org/materials/mp-1219242,57.932952413479214,74.75114762786363,-8.604250342815693,-0.5045126942092143
-7.020068026666666,-21.06020408,6.061800751704861,-0.13081305333333285,4.4858454000000005,1.3762171388133502,0.0,191,3,37.986979944433905,138.6715386,mp-985579,AlFe2,https://materialsproject.org/materials/mp-985579,47.585976508122094,72.10989847639932,-8.604250342815693,-0.5045126942092143
-5.962221825,-47.6977746,6.704244961352599,-0.5104636349999998,3e-07,3.1894711051494176e-08,0.0,26,8,109.61752956856209,442.5688,mp-1219266,Si2NiPd,https://materialsproject.org/materials/mp-1219266,37.00658615860307,72.10642545133831,-8.604250342815693,-0.5045126942092143
-5.807861083055554,-418.16599798,9.120222797884164,-0.616582242222222,1.5e-07,1.6374696889875923e-09,0.0,175,72,1067.567679353361,5863.430399999998,mp-570035,ErNi3Ge2,https://materialsproject.org/materials/mp-570035,18.60294109652776,75.31419208274245,-8.604250342815693,-0.5045126942092143
-6.079642214,-30.39821107,8.545935264405736,-0.6141426539999998,3.47e-05,5.603335533968359e-06,0.0,107,5,72.17059288281145,371.4247,mp-1225459,ErSiNi3,https://materialsproject.org/materials/mp-1225459,18.47771755816087,75.59930042253806,-8.604250342815693,-0.5045126942092143
-7.370475572142857,-103.18665801,7.2385361480427575,-0.2915898521428569,8.10360265,0.449856109345849,0.0,136,14,209.933594792154,915.1317,mp-1207910,Y(Fe2Ge)2,https://materialsproject.org/materials/mp-1207910,48.061215904755194,67.79003155025353,-8.604250342815693,-0.5045126942092143
-7.346282811818183,-242.42733279,8.880338401379111,-0.7563470074242423,6.4e-06,1.6460564053238628e-07,0.0,147,33,453.11943322930773,2423.2215,mp-1219339,Si13Rh20,https://materialsproject.org/materials/mp-1219339,34.29567165324618,53.03728479796567,-8.604250342815693,-0.5045126942092143
-9.2771947775,-37.10877911,9.912987361371195,-0.4401682152083346,0.0085818,0.0017515282776307199,0.0,225,4,57.100335942300326,340.87419500000004,mp-861641,Ti2CoRe,https://materialsproject.org/materials/mp-861641,62.96502000414751,55.60674395804179,-8.604250342815693,-0.5045126942092143
-4.4312528744444455,-39.88127587,9.505499454968994,-0.7549093544444447,5.25e-05,3.466743445380339e-06,0.0,189,9,176.48793751227777,1010.27796,mp-1079329,HoZnPd,https://materialsproject.org/materials/mp-1079329,17.961662189526795,59.70783944674904,-8.604250342815693,-0.5045126942092143
-7.044077285,-56.35261828,7.137034441041185,-0.2899874787500005,7.999998,1.007995280529528,0.0,166,8,92.49298749034851,397.5369572,mp-1228949,Al2CrFeCo4,https://materialsproject.org/materials/mp-1228949,44.65939906006069,47.2059314272867,-8.604250342815693,-0.5045126942092143
-8.495750876666667,-50.97450526,10.016687627384004,-0.6103577583333338,0.0,0.0,0.0,139,6,100.15317184296784,604.143,mp-10312,HfVGe,https://materialsproject.org/materials/mp-10312,50.07101783780412,60.322625534803116,-8.604250342815693,-0.5045126942092143
-6.848090512727272,-75.32899564,10.24721362302901,-0.7434837740909098,6.3e-06,4.2228532729257814e-07,0.0,187,11,173.86492809932986,1072.92332,mp-1095528,Ho(Ge2Rh3)2,https://materialsproject.org/materials/mp-1095528,34.2510287706254,53.25514174339016,-8.604250342815693,-0.5045126942092143
-8.892191642,-177.84383284,8.256018973754415,0.05723210100000103,0.24209560000000002,0.012703902107706428,0.0,4,20,222.0890699275925,1104.20263,mp-1221991,Mn7Fe3,https://materialsproject.org/materials/mp-1221991,56.81631708995936,67.72670522882856,-8.604250342815693,-0.5045126942092143
-5.815552838333333,-34.89331703,8.56924495221722,-0.3211846741666673,1.1400000000000001e-05,1.337550667288053e-06,0.050100000000000484,227,6,99.32807904507496,512.5845400000002,mp-2708,LaNi2,https://materialsproject.org/materials/mp-2708,28.110581204860363,81.6404347552845,-8.604250342815693,-0.5045126942092143
-6.6936041216666675,-80.32324946,8.897330553174305,-0.08639765166666652,7.24177255,0.3973274781823879,0.0,194,12,212.4093877219936,1138.11027,mp-1225596,Er2Mn3Ga,https://materialsproject.org/materials/mp-1225596,24.359740392085797,70.28674756149647,-8.604250342815693,-0.5045126942092143
-6.32953714,-18.98861142,5.184208779299074,0.2716802438888877,3.8745540999999997,0.6573832740469011,0.0,216,3,68.68794237525,214.44400000000002,mp-1008688,Ti2Sn,https://materialsproject.org/materials/mp-1008688,30.783473570200467,53.314334840910256,-8.604250342815693,-0.5045126942092143
-5.353209840833333,-128.47703618,7.0309768307968845,-0.44350474166666665,9.000000000000001e-07,3.729973554952246e-08,0.0,1,24,281.1992669861705,1190.6408,mp-1215806,ZnSi2Ni3,https://materialsproject.org/materials/mp-1215806,36.45773891082249,72.74269416026341,-8.604250342815693,-0.5045126942092143
-7.6538139675,-30.61525587,7.196626132976509,-0.27329592624999943,3.7727552,0.9689713451603336,0.0,216,4,45.37588618220296,196.65499,mp-999558,Mn2SiNi,https://materialsproject.org/materials/mp-999558,51.18955689315674,46.56310032795659,-8.604250342815693,-0.5045126942092143
-8.815363448461538,-114.59972483,8.641308734036484,-0.01619657230769178,0.3319844,0.024310571014565012,0.0,139,13,159.14754526997243,828.1907500000002,mp-980811,TmMn12,https://materialsproject.org/materials/mp-980811,56.75321295976136,67.80662026603571,-8.604250342815693,-0.5045126942092143
-5.7221161125,-22.88846445,9.017767600607591,-0.79341465125,2.51e-05,5.327104513776878e-06,0.0,225,4,54.91107317957535,298.20153860000005,mp-866033,AlZnRh2,https://materialsproject.org/materials/mp-866033,36.95267671097496,52.62915559889957,-8.604250342815693,-0.5045126942092143
-7.4695672875,-29.87826915,8.777691829467143,-0.2955410149999995,1.7726495999999998,0.38655033592293697,0.0,216,4,53.443423372345855,282.50459,mp-1221872,Mn2GaRh,https://materialsproject.org/materials/mp-1221872,36.828897319321605,51.86953782706994,-8.604250342815693,-0.5045126942092143
-8.8389130825,-35.35565233,8.179463061450305,0.034244862499999584,5.7062864,1.2577569038305147,0.0,139,4,52.87304018276146,260.44138,mp-999391,NbFe3,https://materialsproject.org/materials/mp-999391,50.69057447320129,76.76713648139435,-8.604250342815693,-0.5045126942092143
-6.070819205,-36.42491523,7.945443922808568,-0.3434706175000007,2e-06,2.4005422431100324e-07,0.0,216,6,97.09526925434332,464.5871,mp-1219745,PrYNi4,https://materialsproject.org/materials/mp-1219745,28.314439063451424,81.93149506495814,-8.604250342815693,-0.5045126942092143
-6.0294858125,-24.11794325,7.617876221114268,-0.5548739475,3e-07,5.706840348985572e-08,0.0,225,4,61.26366286713075,281.052712,mp-4536,ScNi2Sn,https://materialsproject.org/materials/mp-4536,32.16407919850234,69.72678736371324,-8.604250342815693,-0.5045126942092143
-6.005401817777778,-216.19446544,7.903090580318833,-0.5357456883333332,0.0,0.0,0.01529999999999987,62,36,504.5164054377572,2401.1714,mp-21806,YNi5Ge3,https://materialsproject.org/materials/mp-21806,36.725458895060775,71.8566997427457,-8.604250342815693,-0.5045126942092143
-6.425062893829787,-301.97795601,7.163936122159894,-0.42687205106383097,0.2350219,0.0036791123640724423,0.0,216,47,744.4622981121097,3211.77655,mp-1200338,Y15Ni32,https://materialsproject.org/materials/mp-1200338,28.8989508315157,81.82877827446522,-8.604250342815693,-0.5045126942092143
-5.1828506972,-129.57126743,6.7844286319743885,-0.1102888795448007,0.0089706,0.0003199047630066515,0.0,35,25,326.7971144479343,1335.1879399999998,mp-1190866,Ca4Ni20H,https://materialsproject.org/materials/mp-1190866,31.400687882234827,79.1348782205927,-8.604250342815693,-0.5045126942092143
-7.970037822727273,-175.3408321,5.242390172379212,-0.5638872798484855,0.035209,0.0014583296819726784,0.0,72,22,281.3684529975449,888.2918,mp-1208248,Ti2Cr4Si5,https://materialsproject.org/materials/mp-1208248,47.256471824063254,62.45023252195722,-8.604250342815693,-0.5045126942092143
-7.330526853333333,-43.98316112,8.116012949451818,-0.5064372449999995,7.016927900000001,0.953890960720609,0.0,65,6,85.72859542478993,419.00513860000007,mp-1224779,GdAlNi4,https://materialsproject.org/materials/mp-1224779,25.478121531937386,79.50444098910812,-8.604250342815693,-0.5045126942092143
-5.711683835384616,-74.25188986,8.352970423254236,-0.29077345230769297,11.044601,0.6988730019209598,0.0,71,13,184.17437086178174,926.448,mp-1104436,Yb(GaFe)6,https://materialsproject.org/materials/mp-1104436,46.83432917076986,71.35244378245842,-8.604250342815693,-0.5045126942092143
-9.132999745,-18.26599949,13.104850879945808,-0.7525226233333324,0.0008502000000000001,0.00032570040826658287,0.0,221,2,30.421472058826552,240.084,mp-12594,TiIr,https://materialsproject.org/materials/mp-12594,63.027226180850974,55.6499244780898,-8.604250342815693,-0.5045126942092143
-5.215923390555556,-93.88662103,8.052409265204405,-0.5223896718055564,5.400000000000001e-05,2.212522786530594e-06,0.0,189,18,284.43526166121205,1379.3046,mp-1220258,NdGa2Ni3,https://materialsproject.org/materials/mp-1220258,24.817046060871444,79.91729221297223,-8.604250342815693,-0.5045126942092143
-7.0265872725,-56.21269818,8.082652727846737,-0.2996341581249995,10.8287504,1.3796690814307322,0.0,166,8,91.47045495620729,445.23127999999997,mp-1225089,GaFe2Co4Si,https://materialsproject.org/materials/mp-1225089,45.130447494257524,47.42454438618104,-8.604250342815693,-0.5045126942092143
-5.618574991666668,-33.71144995,9.204225694721153,-0.3119445116666674,1.3e-06,1.8365807630219687e-07,0.0,187,6,82.4917940412206,457.24495,mp-1217589,TbCuNi4,https://materialsproject.org/materials/mp-1217589,29.798841207973904,78.0000826053697,-8.604250342815693,-0.5045126942092143
-5.739067648,-545.21142656,8.508208194333273,-0.2853567024736836,6.3e-06,4.6303046201884224e-08,0.0,160,95,1585.653949137764,8124.5147499999985,mp-1222239,Pr31Ni64,https://materialsproject.org/materials/mp-1222239,28.16152456909171,81.76828836889376,-8.604250342815693,-0.5045126942092143
-6.94891017,-27.79564068,8.628533943184781,0.07762794125000028,3.9975799,0.8426706747568607,0.0,216,4,55.286194813323654,287.27949,mp-1221821,Mn2NiSn,https://materialsproject.org/materials/mp-1221821,46.325150793446475,44.81687308705195,-8.604250342815693,-0.5045126942092143