energy_per_atom,energy,density,formation_energy_per_atom,total_magnetization_uB,total_magnetization_T,band_gap,sgr,num_sites,cell_volume,weight,mp_id,formula,URL,tsne_cry_lin1_0,tsne_cry_lin1_1,tsne_cry_lin2_0,tsne_cry_lin2_1
-3.13287172125,-25.06297377,9.237152739970933,0.02047001375000024,5e-08,3.639073075348401e-09,0.0,59,8,160.12408285376281,890.7292,mp-16240,Ag3Sb,https://materialsproject.org/materials/mp-16240,40.01008896984345,34.246987495457816,-8.604250342815693,-0.5045126942092143
-6.049012912777778,-108.88223243,4.066806168915731,-2.5252971017129635,1.465e-05,7.087015653935351e-07,0.0,9,18,240.908242982635,590.0054772000001,mp-1258227,Ca2AlAgO5,https://materialsproject.org/materials/mp-1258227,-35.216776243349464,-4.683031312597191,-1.0199691097867536,0.10186518394804243
-5.939094926666668,-71.26913912,7.899042532333884,-0.3870243683333333,6.75e-07,3.420747353191812e-08,0.0,62,12,229.9641835325186,1093.92,mp-1101867,ZrCuSn,https://materialsproject.org/materials/mp-1101867,23.287481971991664,39.429815573602326,-8.604250342815693,-0.5045126942092143
-6.35824900642857,-89.01548609,5.1355713388663435,-0.8167566060199992,0.9255761,0.032774296910754216,0.0,176,14,329.1214408262025,1017.87829,mp-9324,Ba3MnN3,https://materialsproject.org/materials/mp-9324,4.275313058559869,6.477486047120582,-8.604250342815693,-0.5045126942092143
-6.5300116145,-130.60023229,5.190860145879223,-2.197342995750001,0.0,0.0,1.1284,62,20,171.3532231302782,535.6517344,mvc-15871,AlCoO3,https://materialsproject.org/materials/mvc-15871,-42.28093412927941,-19.791131881236478,-8.604250342815693,-0.5045126942092143
-5.747491846538463,-149.43478801,3.7513118192411663,-0.6901763087907693,1.535e-05,3.872077421158668e-07,1.2664000000000004,15,26,461.99978668107536,1043.7004,mp-1247524,Ca5(SnN3)2,https://materialsproject.org/materials/mp-1247524,27.02875407525013,-9.090409723228934,5.961969617702809,-5.351727592761161
-6.099482966607143,-341.57104613,3.089880401861689,-1.001797212984286,1.949585,0.025371805695968738,0.0,60,56,895.5054339400369,1666.3292,mp-1245851,Ca7CrN6,https://materialsproject.org/materials/mp-1245851,3.5274590417340304,5.748414895501423,-5.345090646202166,-3.5550935759953277
-4.4910450275,-17.96418011,11.771631782021231,-0.6357820593750003,3.6000000000000003e-06,4.501608378219135e-07,0.0,225,4,93.19920716384577,660.693138,mp-862953,PmSbAu2,https://materialsproject.org/materials/mp-862953,32.705236284437696,-7.43169239606856,2.919266316366606,-4.844018439851447
-6.2719498116666665,-112.89509661,3.6108381494362183,-2.0444436304861107,0.2801352333333333,0.018301937922556424,0.0,174,18,178.3807905019259,387.8886,mp-1176747,LiCuBO3,https://materialsproject.org/materials/mp-1176747,-57.064395996424,-14.05175284351259,-8.604250342815693,-0.5045126942092143
-5.02753895625,-40.22031165,1.5725147228591343,-1.44493927703125,0.0,0.0,1.8951,215,8,211.2212282518857,200.0245,mp-760375,Li3VS4,https://materialsproject.org/materials/mp-760375,35.82098184824924,-10.466543450916383,7.68879006229832,-4.185356575618578
-7.580283394999999,-45.48170037,8.069278973581422,-0.8116097836111109,3.1e-06,4.021811936724273e-07,0.0,187,6,89.82916497174809,436.51885,mp-1215922,YSiBRh3,https://materialsproject.org/materials/mp-1215922,15.802805588411276,39.648591413639885,-8.604250342815693,-0.5045126942092143
-5.809481055,-34.85688633,4.023990320096599,0.300127488206666,4e-07,3.663543080943583e-08,0.0,105,6,127.24364927689692,308.35,mp-1245750,KRuN,https://materialsproject.org/materials/mp-1245750,7.2094814602501724,24.659671002632727,-8.604250342815693,-0.5045126942092143
-5.947140243,-118.94280486,8.83213121193366,-0.5816800584999996,0.0009757999999999999,3.4963006299240254e-05,0.0,15,20,325.25911266706095,1729.9991699999998,mp-865105,Dy2Co3Ge5,https://materialsproject.org/materials/mp-865105,20.45706936290883,67.55948694663509,-8.604250342815693,-0.5045126942092143
-6.2254352740000005,-622.5435274,4.296917895179119,-1.6980392737866656,2.89699795,0.022347106270841532,0.3977,14,100,1510.7907639623568,3909.4196,mp-699550,KCu3Ag(MoO4)4,https://materialsproject.org/materials/mp-699550,-54.14192045909593,-11.164050740327623,2.507048826511312,1.2042139195599175
-5.172187969166667,-62.06625563,7.375735151720652,-0.16427167249999994,2.5e-08,1.5861349431309246e-09,0.018199999999999328,64,12,183.68652716198508,815.8936,mp-29900,NiGe2,https://materialsproject.org/materials/mp-29900,46.525591423604105,45.920746180595074,-8.604250342815693,-0.5045126942092143
-7.391834546875,-354.80805825,9.07433872558208,-0.5960001799305559,0.9617934000000001,0.01668907116792043,0.0,15,48,671.6253090804637,3670.2272,mp-1196249,Ti11Ni9Pt4,https://materialsproject.org/materials/mp-1196249,32.63740070241745,71.59612813296344,-8.604250342815693,-0.5045126942092143
-5.380416363333333,-32.28249818,6.424992412502017,-0.6171813608333329,0.0,0.0,0.0,194,6,121.92299386666923,471.747,mp-8120,NdCuSi,https://materialsproject.org/materials/mp-8120,-3.916673283761656,58.3239494142755,-8.604250342815693,-0.5045126942092143
-6.354815049230769,-82.61259564,4.129045374515997,-1.669922047692307,1.0328405,0.07117517120071419,0.0,2,13,169.11501417789574,420.5162,mp-504747,V2Cu3O8,https://materialsproject.org/materials/mp-504747,-56.21432726556088,-10.363776644507343,-1.2569315107727237,0.3588503301715667
-5.935696838333333,-284.91344824,3.520155622046391,-0.9062994574599994,4e-07,8.819517831128576e-09,0.017900000000000027,206,48,528.5579096592585,1120.4832,mp-1247372,Li3ZrN2,https://materialsproject.org/materials/mp-1247372,-28.290023915509,26.217608986824033,-8.604250342815693,-0.5045126942092143
-5.801921632391305,-266.88839509,2.6733234095292686,-0.6999990529188409,0.70338355,0.009751517117745764,0.0,136,46,840.615603979776,1353.3180000000002,mp-1245957,Ca11(TiN5)2,https://materialsproject.org/materials/mp-1245957,8.824260456613569,5.5240643163077605,-8.604250342815693,-0.5045126942092143
-5.510832943333334,-132.25999064,3.595652095467655,-0.030870431376667305,0.00029805,6.6958067864207045e-06,0.0,141,24,518.7566063742707,1123.29083136,mp-1247511,Na3WN2,https://materialsproject.org/materials/mp-1247511,3.0835505662391154,1.821348510054949,-8.604250342815693,-0.5045126942092143
-5.792456718695653,-266.45300906,3.8663407185875047,-0.606473309947826,1.5904406,0.022352549662279102,0.0,136,46,829.2162661241051,1930.7180000000005,mp-1246379,Ca11(IrN5)2,https://materialsproject.org/materials/mp-1246379,8.698805434688726,5.816010370381641,-8.604250342815693,-0.5045126942092143
-4.067374731666667,-24.40424839,7.228242818590624,-0.4136696999999998,0.0,0.0,0.0,156,6,158.47077426525308,689.8153,mp-1219982,Pr2In3Cu,https://materialsproject.org/materials/mp-1219982,-6.610259822099798,53.8351552810376,-8.604250342815693,-0.5045126942092143
-4.127834566000001,-41.27834566,5.784069209968807,-0.1966140529999997,1.5e-07,7.0934144267922774e-09,0.0,127,10,246.4412214914769,858.4158800000001,mp-11086,La2MgCu2,https://materialsproject.org/materials/mp-11086,-8.677749257580588,52.789118529610775,-8.604250342815693,-0.5045126942092143
-8.570196287894738,-162.83372947,5.6784264613400675,-0.8428792081578954,0.0008398999999999999,4.041974991357009e-05,0.0,174,19,242.16500654762055,828.114334,mp-684675,V12P7,https://materialsproject.org/materials/mp-684675,53.151936023748505,50.678447060863675,-8.604250342815693,-0.5045126942092143
-3.9947428475,-15.97897139,8.765585496232084,-0.3914411014583332,3.9899999999999994e-05,5.119671559899179e-06,0.0,225,4,90.82558890443528,479.4464,mp-862877,PmAg2Sn,https://materialsproject.org/materials/mp-862877,-5.147801702196671,49.89837055869597,-8.604250342815693,-0.5045126942092143
-4.574262256666667,-54.89114708,7.50287713372152,-0.3588455316666668,5e-08,2.2515060270280134e-09,0.0,140,12,258.8059865854112,1169.373,mp-16648,LiSn4Rh,https://materialsproject.org/materials/mp-16648,33.51806842152616,35.46854935036756,-8.604250342815693,-0.5045126942092143
-6.00213150375,-240.08526015,7.648128921572571,-0.42659042825000026,0.0005502999999999999,8.337873554511167e-06,0.0,223,40,769.1687577667509,3542.6459,mp-1201264,Pr3Ge13Ru4,https://materialsproject.org/materials/mp-1201264,12.327372045995562,59.95496586440245,-8.604250342815693,-0.5045126942092143
-5.110854318333334,-91.99537773,4.4550662889586725,-2.2626080570466667,18.9999999,1.0267670765921444,0.6426,8,18,215.65478146041457,578.5810051999998,mp-752797,Co6OF11,https://materialsproject.org/materials/mp-752797,-41.52886928519585,-26.002331328032554,4.115184549753976,1.2935001451731645
-7.231915322000001,-36.15957661,8.453041567860101,-0.6910908855000002,0.0,0.0,0.0,139,5,95.53513047325336,486.32547,mp-19900,La(GeRu)2,https://materialsproject.org/materials/mp-19900,15.733465305035214,65.59739398245421,-8.604250342815693,-0.5045126942092143
-4.582142342647058,-311.5856793,2.4643510702657485,-1.779310098682353,15.000025599999999,0.1185467769431976,1.2928000000000002,8,68,1474.61849609134,2188.43254,mp-531376,Li4Mn3Cl10,https://materialsproject.org/materials/mp-531376,17.610251854865393,-7.331626519316813,6.765430865673585,-3.3078472223923714
-7.243857075454545,-159.36485566,1.7711725340361972,-0.27015633004727263,0.0,0.0,3.0351,14,22,451.8168785634599,481.9192000000001,mp-7827,K2Ni(CN)4,https://materialsproject.org/materials/mp-7827,13.01152526564239,-18.95761153083291,7.84913465806673,-0.7055832458279996
-6.936170988333332,-166.46810372,8.463539203729171,-0.3138336483333326,9.31292205,0.3710150469646201,0.0,141,24,292.5309840677408,1490.99021,mp-1191366,TbCo9Si2,https://materialsproject.org/materials/mp-1191366,48.899133267263686,50.46525552736042,-8.604250342815693,-0.5045126942092143
-6.0655032745,-242.62013098,4.576567990342265,-2.0654105421249995,26.4293683,0.6972799819031014,0.0,38,40,441.73011998046854,1217.44077,mp-1076829,SrCa7Fe2(CoO4)6,https://materialsproject.org/materials/mp-1076829,-52.83559081468377,3.2575056238187328,-8.604250342815693,-0.5045126942092143
-1.81710783,-7.26843132,7.497789783581463,-0.2318493441666667,4.1e-06,6.042188631186606e-07,0.0,225,4,79.08006267939213,357.0682000000001,mp-1185750,Mg2AgHg,https://materialsproject.org/materials/mp-1185750,26.534494828481545,42.67990595210795,-8.604250342815693,-0.5045126942092143
-8.616815910185185,-465.30805915,1.8666065379326997,-0.10293316510518584,4.941111111111112e-05,4.4946065275655907e-07,0.05289999999999995,71,54,1281.1806458282447,1440.171,mp-1096922,CrN2,https://materialsproject.org/materials/mp-1096922,-4.899257397049742,9.70026626477372,-8.604250342815693,-0.5045126942092143
-6.90556317,-303.84477948,6.941399949289541,-0.5019504697514208,0.62948,0.00716232408156004,0.0,148,44,1024.2486390580927,4281.5732,mp-1198146,Tl2Mo9Se11,https://materialsproject.org/materials/mp-1198146,63.69858913720254,33.27019275027573,-8.604250342815693,-0.5045126942092143
-7.6782829725,-30.71313189,6.894920654976341,0.15594409999999925,7e-07,1.565516326534135e-07,0.0,225,4,52.10961522740725,216.3705,mp-979283,V3Cu,https://materialsproject.org/materials/mp-979283,55.7072824740183,55.29959296204647,-8.604250342815693,-0.5045126942092143
-4.4908540175,-17.96341607,12.631925262842374,-0.6948276687499999,5.5700000000000005e-05,7.352969595177814e-06,0.0,225,4,88.28153026190736,671.568488,mp-864599,TbSnAu2,https://materialsproject.org/materials/mp-864599,-7.893262784658463,48.09083050778387,-8.604250342815693,-0.5045126942092143
-3.26059178625,-78.25420287,4.7438629829515655,-0.14152631441666644,6.25e-08,9.988338027584349e-10,0.0,12,24,729.2294736856612,2083.27815424,mp-583168,NaSn2,https://materialsproject.org/materials/mp-583168,33.60028817882577,14.003189936025429,-8.604250342815693,-0.5045126942092143
-4.046376668333333,-24.27826001,7.927345867499772,-0.4151157525000002,1e-07,7.850213261439393e-09,0.0,156,6,148.45539075740768,708.72,mp-1219253,Sm2In3Cu,https://materialsproject.org/materials/mp-1219253,-6.604983063011526,53.845935958444024,-8.604250342815693,-0.5045126942092143
-5.86245862,-23.44983448,8.058804858232659,-0.1292900450000003,1e-07,1.2669058471418628e-08,0.0,225,4,91.98840465415199,446.4313,mp-861588,Pr2CuRu,https://materialsproject.org/materials/mp-861588,10.6354436076858,49.87092475417797,-8.604250342815693,-0.5045126942092143
-4.417059428125,-70.67295085,3.1019308955664235,-1.6617782880312504,0.0,0.0,1.894,9,16,276.941767234196,517.33455424,mp-28261,Na4SnO3,https://materialsproject.org/materials/mp-28261,16.105821092271633,-21.614032896966986,8.113330151482856,-0.6683890882958307
-6.568550754444446,-236.46782716,6.3092428646630125,-2.1238356280555557,0.0,0.0,2.1215,60,36,430.09427061345497,1634.1496000000004,mp-17290,LiSbWO6,https://materialsproject.org/materials/mp-17290,-0.2663209584837977,-29.279416353799895,7.9562479757009505,-0.9138566192104716
-5.311560642413792,-308.07051726,5.146534477142299,-1.0090903936153008,0.0,0.0,0.0,221,58,1018.6287725446301,3157.052,mp-9415,Ba6Ni25S27,https://materialsproject.org/materials/mp-9415,22.92890884937205,21.260063688103994,-8.604250342815693,-0.5045126942092143
-6.162347982000001,-30.81173991,2.1583779414486184,-0.600903780502,1.6899999999999997e-05,2.9766358648571445e-06,3.0424,12,5,66.16653954268978,86.00363856,mp-541989,Na2CN2,https://materialsproject.org/materials/mp-541989,26.98840479960973,-13.799747515133062,8.341296382646691,-4.2786368853473284
-6.2238161383333335,-74.68579366,5.540191424571952,-1.5023505345240669,3.00000005,0.11011799791252246,0.0,63,12,317.4975531988533,1059.2929038,mp-862802,CsNpCuS3,https://materialsproject.org/materials/mp-862802,46.06440084671196,-4.229287628651897,-6.725796109289021,1.4793125674583671
-6.2412260416250005,-499.29808333,4.972480638350108,-2.500556225875,0.0,0.0,1.9330000000000005,230,80,1079.0494190572779,3231.2112,mp-1214317,Ca3Ga2(SnO4)3,https://materialsproject.org/materials/mp-1214317,1.6378488212018558,-27.03525914488357,7.055238728149318,-0.7238392806489388
-5.793214865,-92.69143784,5.324086738816078,-1.8045346464062504,0.0,0.0,1.2325,14,16,332.57830684706335,1066.32588,mp-4841,LaCuS2,https://materialsproject.org/materials/mp-4841,47.20309899810693,-3.615784558729628,6.780091847172833,-1.4927933354560758
-6.123771946818183,-134.72298283,2.7089683319674025,-1.3078267693309094,2.0000003,0.0759662929140484,2.1817,202,22,306.82204102957434,500.543,mp-19374,K2SrNi(NO2)6,https://materialsproject.org/materials/mp-19374,-2.8424702172633856,-24.22982472848902,8.466377549283798,-0.7142290941672991
-1.2116154420454546,-53.31107945,3.977037665360693,-0.1554078462272728,1.075e-06,9.547426169989827e-09,0.0,167,44,1312.19863944913,3142.75261696,mp-541787,Na8Hg3,https://materialsproject.org/materials/mp-541787,-36.172247600501095,46.43790874606169,-8.604250342815693,-0.5045126942092143
-6.652907376,-33.26453688,7.392184339575428,-0.7024442980000003,2.3e-06,2.438623150877902e-07,0.0,139,5,109.91591286762676,489.3102,mp-4109,Ba(AsRu)2,https://materialsproject.org/materials/mp-4109,8.28383508774089,35.21191750591983,-8.604250342815693,-0.5045126942092143
-4.64149414625,-37.13195317,3.967260766519895,-1.2724638918449998,1e-07,6.297451582643667e-09,2.3576,194,8,185.0600138741729,442.13434000000007,mp-28553,Ca2IN,https://materialsproject.org/materials/mp-28553,24.73575036631601,-12.760195858921113,9.341323182044224,-1.642928076096677
-4.107905355,-16.43162142,12.528415825186407,-0.5848388697916662,1.7899999999999998e-05,2.4133620458212314e-06,0.0,225,4,86.43865092269337,652.161338,mp-867254,SmAgAu2,https://materialsproject.org/materials/mp-867254,-5.673792234569451,49.97785648767921,-8.604250342815693,-0.5045126942092143
-6.630736866666667,-99.461053,7.259205389550189,-0.6666772319999997,0.00013130000000000002,5.158056177625766e-06,0.0,160,15,296.65801455877585,1296.868912,mp-1215369,Zr4Sc(NiSn)5,https://materialsproject.org/materials/mp-1215369,30.22117018769824,68.84161219276729,-8.604250342815693,-0.5045126942092143
-8.619906285,-620.63325252,2.0138260947972992,-0.1060235399199993,1.555833333333333e-05,1.1451452470853064e-07,0.10729999999999996,74,72,1583.3609306875474,1920.228,mp-1096931,CrN2,https://materialsproject.org/materials/mp-1096931,-4.904651770648505,9.70900045054583,-8.604250342815693,-0.5045126942092143
-2.035334010833333,-73.27202439,2.700776950301941,-0.15501031506944407,0.0,0.0,0.032499999999999966,1,36,1153.3308006914015,1875.83017776,mp-1223881,K7Na17(ZnSn2)4,https://materialsproject.org/materials/mp-1223881,-11.472912234712867,36.28088020956963,-8.604250342815693,-0.5045126942092143
-6.690935233333334,-40.1456114,7.964178227318407,-0.2494392366666661,3.2099322999999997,0.443306552476098,0.0,65,6,84.38575683301794,404.72593,mp-1219690,PrCo4Si,https://materialsproject.org/materials/mp-1219690,48.8178645747851,50.63701897069464,-8.604250342815693,-0.5045126942092143
-5.46949154,-65.63389848,5.503181507119055,-2.019079863697917,0.0,0.0,1.3513000000000002,63,12,254.86789079295696,844.6560000000001,mp-13189,SrLuCuS3,https://materialsproject.org/materials/mp-13189,47.568029921450005,-6.518583428123561,9.160586991331714,-4.801641989271854
-6.415216769285713,-89.81303477,9.639615725356453,-0.3850255421428577,0.51875165,0.03156156694492287,0.0,136,14,191.5483264985591,1111.95956,mp-1210890,Lu(Co2Ge)2,https://materialsproject.org/materials/mp-1210890,48.575171447421454,49.784684262122184,-8.604250342815693,-0.5045126942092143
-6.115667583333334,-128.42901925,4.381328448098653,-2.1337191714285715,0.0007499,3.179276701050543e-05,0.005199999999999871,1,21,274.8858937020084,725.2858,mvc-13039,Ca5Cu2(RhO6)2,https://materialsproject.org/materials/mvc-13039,-28.44620064107626,-1.1850005580439462,1.831544684072616,-1.126568238079195
-3.5587684825,-42.70522179,8.919805238949394,-0.7304825980555562,0.0,0.0,0.0,62,12,299.8479219464586,1610.6727999999996,mp-9440,YbAgSb,https://materialsproject.org/materials/mp-9440,-4.51797985572412,47.472665840719344,-8.604250342815693,-0.5045126942092143
-6.686192953529411,-113.66528021,10.053726054951037,-0.9457918788235292,0.000669,2.6134899467101506e-05,0.0,229,17,298.32023431567893,1806.1785,mp-1181515,Dy4Ge6Rh7,https://materialsproject.org/materials/mp-1181515,32.44419691714879,54.14015438913832,-8.604250342815693,-0.5045126942092143
-7.533269185555557,-135.59884534,3.958079875393327,-3.19979640375,1.9999995,0.0925957430772456,1.5820999999999996,46,18,251.71917135156846,600.0006999999998,mvc-6127,Ca2YVO5,https://materialsproject.org/materials/mvc-6127,-14.631061083008607,-28.96540685389905,6.397745165802448,-1.4382941604975965
-7.052631693333333,-275.05263604,4.155658435018953,-2.6046360811445295,23.0000005,0.5983751595219109,0.0,99,39,447.95224422428635,1121.043515,mp-1247653,Ca8TiMn7O23,https://materialsproject.org/materials/mp-1247653,-36.30128076901994,6.0091627607435045,-8.604250342815693,-0.5045126942092143
-6.8530252508333325,-82.23630301,8.159700381628326,-0.7283538266666673,2.2e-05,1.5739322916553786e-06,0.0,74,12,162.8973662689495,800.45917,mp-1103425,ErCo3Si2,https://materialsproject.org/materials/mp-1103425,19.812433449559787,68.86910506772911,-8.604250342815693,-0.5045126942092143
-7.14795395263889,-1029.30536918,4.20269299893948,-2.7080134249551864,29.000000225,0.17590486233067285,0.0,1,144,1921.3106252348525,4862.68526,mp-1077695,Sr3Ca5TiMn7O20,https://materialsproject.org/materials/mp-1077695,-29.679331744430318,-11.433726302595522,-8.604250342815693,-0.5045126942092143
-8.575493230000001,-102.90591876,2.1583635580611937,-0.061610484919999216,1.5e-07,7.099743325328446e-09,0.11250000000000004,1,12,246.22153728396702,320.038,mp-1096886,CrN2,https://materialsproject.org/materials/mp-1096886,-4.49684296136688,9.61573117808885,-8.604250342815693,-0.5045126942092143
-5.5736238700000005,-100.32522966,3.5753289731777707,0.22590601888888845,0.4277642,0.01490305009670699,0.0,155,18,334.5081484550412,720.2339999999998,mp-1094329,MgTi2,https://materialsproject.org/materials/mp-1094329,33.48868114996683,61.445600520477065,-8.604250342815693,-0.5045126942092143