energy_per_atom,energy,density,formation_energy_per_atom,total_magnetization_uB,total_magnetization_T,band_gap,sgr,num_sites,cell_volume,weight,mp_id,formula,URL,tsne_cry_lin1_0,tsne_cry_lin1_1,tsne_cry_lin2_0,tsne_cry_lin2_1
-5.476778655714287,-153.34980236,6.1895182990616595,-0.8350193571428568,2.44e-05,6.046000138018427e-07,0.0,63,28,470.3261229889006,1753.1006948,mp-1213083,Dy2(Al3Rh)3,https://materialsproject.org/materials/mp-1213083,10.678313483405805,83.87760881120084,-8.604250342815693,-0.5045126942092143
-1.4368051116666667,-17.24166134,5.055190465166183,-0.05347557499999992,3.5475e-05,2.028392882012727e-06,0.0,63,12,203.82044892423417,620.4920000000002,mp-1094483,MgZn2,https://materialsproject.org/materials/mp-1094483,2.673522796240232,98.17735301204675,-8.604250342815693,-0.5045126942092143
-7.47873094,-29.91492376,13.727373281929744,-0.7108640456249997,0.0,0.0,0.0,225,4,83.91613164587066,693.7193500000002,mp-981213,TbSmIr2,https://materialsproject.org/materials/mp-981213,16.030683209360134,49.13121821052866,-8.604250342815693,-0.5045126942092143
-6.543237555999999,-32.71618778,5.203450769321697,-0.7953006869999996,1e-07,1.6712487381233622e-08,0.0,139,5,69.73267657120859,218.513712,mp-3587,Sc(SiNi)2,https://materialsproject.org/materials/mp-3587,14.83432264398421,73.41955185994787,-8.604250342815693,-0.5045126942092143
-3.4290966026923075,-89.15651167,7.46874253856898,0.05511608230769182,9.7501159,0.31467841553440523,0.0,8,26,361.09398239340203,1624.122,mp-1215884,Zn9Fe4,https://materialsproject.org/materials/mp-1215884,5.335920109363634,96.17670895840858,-8.604250342815693,-0.5045126942092143
-9.636366394166666,-115.63639673,10.793922085106333,-0.6690479448809512,1.289549725,0.0925373654347187,0.0,62,12,162.40462381856466,1055.670968,mp-1095419,TaCrP,https://materialsproject.org/materials/mp-1095419,45.478382987908496,62.30077289919391,-8.604250342815693,-0.5045126942092143
-7.915178955,-126.64286328,6.354541867576875,-0.37472247749999976,19.6980799,1.2160229510569298,0.0,38,16,188.78155124467617,722.428225,mp-1221407,Mn5Fe5Si6,https://materialsproject.org/materials/mp-1221407,51.17452353525945,46.529375138188456,-8.604250342815693,-0.5045126942092143
-6.054757452727273,-133.20466396,9.002124103977614,-0.6679975831818187,0.0004112,1.4383012182601862e-05,0.0,229,22,333.18135128003865,1806.24472,mp-1191275,Ho3(SiNi3)2,https://materialsproject.org/materials/mp-1191275,18.481143274877414,76.23878076992915,-8.604250342815693,-0.5045126942092143
-5.4556409891666675,-65.46769187,9.469828273798012,-0.667069085833333,7.75e-06,3.761512179416342e-07,0.0,62,12,240.1135439134801,1369.33488,mp-31176,HoNiSn,https://materialsproject.org/materials/mp-31176,3.2787089677042114,55.759965369234756,-8.604250342815693,-0.5045126942092143
-9.6144052725,-38.45762109,9.661760160934028,-0.16329860500000135,4.1282627,0.7998401436282413,0.0,225,4,60.150820494830974,349.984425,mp-864992,MnNbRu2,https://materialsproject.org/materials/mp-864992,57.301848779057615,58.644444329741546,-8.604250342815693,-0.5045126942092143
-8.483501026999999,-84.83501027,7.876626488428174,0.1294583852499997,7.513167200000001,0.8822107519207391,0.0,11,10,99.24945598910308,470.7814,mp-1078579,Fe4C,https://materialsproject.org/materials/mp-1078579,42.479359453757,87.88719503978109,-8.604250342815693,-0.5045126942092143
-7.33463696515625,-469.41676577,9.86915498510194,-0.6198786532812495,0.0,0.0,0.9339000000000012,14,64,965.2188831097503,5736.6280000000015,mp-2084,Si5Ir3,https://materialsproject.org/materials/mp-2084,35.121631496496285,50.56488833341089,-8.604250342815693,-0.5045126942092143
-5.5324728683333335,-66.38967442,8.982676311340342,-0.8310105083333342,0.0,0.0,0.0,62,12,177.3337983805162,959.2861544,mp-2824,AlPd2,https://materialsproject.org/materials/mp-2824,64.18712727842842,49.35503951916197,-8.604250342815693,-0.5045126942092143
-5.280849966666667,-95.05529940000001,5.766675133330909,-0.5389834416666667,0.0006727,2.562895518245894e-05,0.0,156,18,305.8918834844494,1062.2930720000002,mp-1219410,Sc3(Ga2Ni)2,https://materialsproject.org/materials/mp-1219410,21.93098167606801,81.00474786749858,-8.604250342815693,-0.5045126942092143
-6.32741868,-177.16772304,15.935037412795117,-0.7852339289285715,8e-07,1.9460932860557532e-08,0.0,15,28,479.0752778837065,4597.352000000001,mp-641314,Dy2(GePt3)3,https://materialsproject.org/materials/mp-641314,61.97022174063082,44.72679287983489,-8.604250342815693,-0.5045126942092143
-6.001558222500001,-144.03739734,4.7255785063672935,-0.4033434816666671,0.44724105,0.016800533437200768,0.0,227,24,310.23873052188264,882.8804632000001,mp-1190708,Al3Fe2Si,https://materialsproject.org/materials/mp-1190708,23.47679930112215,88.82297465668269,-8.604250342815693,-0.5045126942092143
-9.531656483333334,-114.37987779999999,11.881826385092777,-0.25682174500000104,5.35646055,0.3832009592151796,0.0,164,12,162.90287563269732,1165.63576,mp-1224427,HfTaFe4,https://materialsproject.org/materials/mp-1224427,52.591075372061475,62.70620119649885,-8.604250342815693,-0.5045126942092143
-7.015532186666667,-84.18638624,6.737346679019615,-0.8486700305555566,6.5e-07,4.2131919519770386e-08,0.0,62,12,179.7957982571663,729.49,mp-1103162,TiSiPd,https://materialsproject.org/materials/mp-1103162,42.87670577678122,56.49698454467707,-8.604250342815693,-0.5045126942092143
-6.3798337343243245,-472.10769634,14.339667215608687,-0.8778859749999997,0.0012897,1.221021912407038e-05,0.0,225,74,1230.9563968054142,10629.985,mp-1195477,Yb3Si11Pt23,https://materialsproject.org/materials/mp-1195477,60.508835540841275,43.72384436690936,-8.604250342815693,-0.5045126942092143
-7.7541080328,-775.41080328,4.556795952435569,0.14301932053333302,0.018554293,0.00012396415370718157,0.0,1,100,1744.3182239748064,4786.7,mp-1245006,Ti,https://materialsproject.org/materials/mp-1245006,59.71692363264406,55.24564428903263,-8.604250342815693,-0.5045126942092143
-4.258263014545455,-46.84089316,7.622242407274964,-0.44370761000000025,4.1e-06,2.3546239410985347e-07,0.0,123,11,202.9269503868313,931.4797,mp-1102177,Tb2Ga8Fe,https://materialsproject.org/materials/mp-1102177,16.587070759376918,82.98403289957213,-8.604250342815693,-0.5045126942092143
-7.1669099525,-114.67055924,11.869771933210025,-1.1653201737499996,8e-07,3.285158066349016e-08,0.0,62,16,283.7991849935311,2028.6374,mp-1188158,YSiPt2,https://materialsproject.org/materials/mp-1188158,24.20367873322157,56.051707158409634,-8.604250342815693,-0.5045126942092143
-9.9197765,-39.679106,11.815730944922025,0.060624745625000635,3.7664644999999997,0.8897941424809829,0.0,225,4,49.33120949094672,351.021135,mp-1185924,Mn3Re,https://materialsproject.org/materials/mp-1185924,56.95561203848194,67.73518419083713,-8.604250342815693,-0.5045126942092143
-3.790006349583333,-90.96015239,7.358452472382728,-0.32328791625000025,0.0,0.0,0.0,227,24,308.43715018624914,1366.7972,mp-17260,Zn3SiNi2,https://materialsproject.org/materials/mp-17260,4.615513513750075,95.07324218306631,-8.604250342815693,-0.5045126942092143
-7.269301873125,-116.30882997,6.508589277373908,-0.4415075922916678,0.07162919999999999,0.0028714674327281115,0.0,97,16,290.7124513731771,1139.4661,mp-1217253,Ti10CrSb5,https://materialsproject.org/materials/mp-1217253,36.72613141330789,62.03013523368844,-8.604250342815693,-0.5045126942092143
-6.714637564375,-107.43420103,6.8844827973384835,-0.1480557519791672,1.6241683999999998,0.0720364855762976,0.0,160,16,262.7580119118503,1089.376985,mp-1217480,Ti8InCo3NiSn3,https://materialsproject.org/materials/mp-1217480,34.76462014483455,59.06284850356063,-8.604250342815693,-0.5045126942092143
-10.591508965833333,-127.09810759,12.218229201241801,-0.36778178916666704,2.75e-07,1.5742332537219218e-08,0.0,194,12,203.58277941828027,1497.96,mp-1095669,HfTc2,https://materialsproject.org/materials/mp-1095669,68.72835485583954,46.017421809971076,-8.604250342815693,-0.5045126942092143
-8.3787119625,-33.51484785,8.467485077189107,-0.6717961175000013,1e-07,1.8550862095273536e-08,0.0,225,4,62.82222741297271,320.34553860000005,mp-977436,ZrAlRu2,https://materialsproject.org/materials/mp-977436,41.78151165998603,57.114645736366064,-8.604250342815693,-0.5045126942092143
-4.1691001475,-16.67640059,12.829597453561512,-0.4815561016666665,0.0,0.0,0.0,225,4,83.6333754642899,646.1652,mp-865616,Yb2AgIr,https://materialsproject.org/materials/mp-865616,13.34878974417512,48.448321470637524,-8.604250342815693,-0.5045126942092143
-6.480957020000001,-38.88574212,11.14746887092068,-0.8194153855555559,0.0,0.0,0.0,194,6,93.15251557191891,625.3480000000001,mp-22662,TiGaPt,https://materialsproject.org/materials/mp-22662,38.25369679451696,58.056864014556645,-8.604250342815693,-0.5045126942092143
-7.3797337091666675,-88.55680451,12.62227312686474,-1.1080627508333336,1.5e-07,8.404345035513745e-09,0.0,62,12,208.0007077883012,1581.078,mp-22440,LuSiIr,https://materialsproject.org/materials/mp-22440,15.964051534423316,62.017783172235355,-8.604250342815693,-0.5045126942092143
-7.7281655625,-30.91266225,6.491812891550666,-0.4678936700000005,2.3899999999999998e-05,4.357123556254932e-06,0.0,225,4,63.925694203536146,249.915019,mp-867761,Sc2CoRu,https://materialsproject.org/materials/mp-867761,29.780983595904218,59.31505167927972,-8.604250342815693,-0.5045126942092143
-4.838892114375,-77.42227383,8.103492539561714,-0.054345445624999655,2.35e-06,8.049969220431795e-08,0.0,64,16,340.21312958568376,1660.25278,mp-1183777,CoSn3,https://materialsproject.org/materials/mp-1183777,44.39591951597515,41.747003577259534,-8.604250342815693,-0.5045126942092143
-8.2209150875,-65.7673207,5.5647916319707615,-0.8102964642708343,1.385e-05,1.4993303200672388e-06,0.0,194,8,107.6539271831128,360.7694,mp-9958,Ti2GeC,https://materialsproject.org/materials/mp-9958,18.790571467087386,42.06120959210293,-8.604250342815693,-0.5045126942092143
-6.28675737625,-50.29405901,10.457740994072797,-0.7017183343750002,2.2575272,0.20105900025676385,0.0,139,8,130.85396913849542,824.0919872000001,mp-569698,UAl2Pd5,https://materialsproject.org/materials/mp-569698,42.39792286386725,55.466770396981666,-8.604250342815693,-0.5045126942092143
-8.53237784,-34.12951136,7.839810943118023,0.13971417499999994,7.699999999999999e-06,1.9734658991948158e-06,0.0,221,4,45.47142100875546,214.6817,mp-1008278,Cr3Ni,https://materialsproject.org/materials/mp-1008278,54.53165463367186,66.15765875593704,-8.604250342815693,-0.5045126942092143
-7.130767765357143,-199.66149743,8.021830413430726,-0.38533163589285785,8.6536933,0.22389292816709333,0.0,71,28,450.4416600635106,2176.0202688,mp-1193401,U6Al8Fe5Si9,https://materialsproject.org/materials/mp-1193401,25.311438205390697,62.69458905014763,-8.604250342815693,-0.5045126942092143
-6.5910047875,-26.36401915,5.024297294727493,-0.26085119583333416,3.0,0.5831311463992183,0.0,216,4,59.95597136864913,181.4089386,mp-1018016,Ti2AlNi,https://materialsproject.org/materials/mp-1018016,35.897632350995266,59.03734354720187,-8.604250342815693,-0.5045126942092143
-8.61509432,-77.53584888,11.933868381996266,-0.4730496399999993,0.0012762000000000001,8.097643288007665e-05,0.0,189,9,183.66970405780862,1319.9870772000004,mp-1079155,Hf6Al2Pt,https://materialsproject.org/materials/mp-1079155,2.2791184446900363,82.15607861634156,-8.604250342815693,-0.5045126942092143
-5.569925691,-55.69925691,7.768796268694043,-0.6577698590000004,6.9319039,0.4041790131909649,0.0,63,10,199.87395290509613,935.1060000000001,mp-1078429,EuGa3Pd,https://materialsproject.org/materials/mp-1078429,10.120956623813765,79.77484010807264,-8.604250342815693,-0.5045126942092143
-9.22557464,-36.90229856,13.190235693384507,-0.8450975183333327,5e-08,9.639570489055922e-09,0.0,123,4,60.44908736229942,480.168,mp-1235,TiIr,https://materialsproject.org/materials/mp-1235,63.12731051238867,55.98313857831171,-8.604250342815693,-0.5045126942092143
-7.586460465,-60.69168372,8.618077931381057,-0.4973086337500003,8.1e-05,7.2126105581236115e-06,0.0,200,8,130.87899852212664,679.252569,mp-1217024,Ti6PtAu,https://materialsproject.org/materials/mp-1217024,60.22507059899147,53.93988030114368,-8.604250342815693,-0.5045126942092143
-4.340729513333333,-39.06656562,9.218431797493476,-0.4678980133333334,0.00013843333333333333,1.0246435023148646e-05,0.0,189,9,157.4509602318501,874.0841999999999,mp-1078524,ErZnNi,https://materialsproject.org/materials/mp-1078524,20.187740571733347,78.61861235420649,-8.604250342815693,-0.5045126942092143
-5.849022819375,-93.58436511,9.657921206866693,-0.6090870656250003,1.6325e-05,7.964224924269299e-07,0.0,62,16,238.8840210078475,1389.382,mp-20622,SiPd3,https://materialsproject.org/materials/mp-20622,45.3015310642608,53.638670348498145,-8.604250342815693,-0.5045126942092143
-2.474478175,-9.8979127,7.084082777460685,-0.3055138174999996,6.8e-05,1.024208815012536e-05,0.0,225,4,77.37449560267252,330.0900000000001,mp-865256,LuMgZn2,https://materialsproject.org/materials/mp-865256,-0.6363059897445036,96.86869745681648,-8.604250342815693,-0.5045126942092143
-6.093849684285713,-127.97084337,9.327928300466917,-0.6055707254761911,13.8812044,0.4316205426124671,0.0,143,21,374.8024925310121,2105.4192,mp-1226033,Eu2As7Pd12,https://materialsproject.org/materials/mp-1226033,28.341560273984012,53.91257160054562,-8.604250342815693,-0.5045126942092143
-8.0490319275,-32.19612771,10.845461160592103,-0.1296525224999998,1.2924612,0.2727297798489793,0.0,221,4,55.22838961392796,360.7126,mp-12585,CrRh3,https://materialsproject.org/materials/mp-12585,65.23898754917256,50.92101438312459,-8.604250342815693,-0.5045126942092143
-6.816517553333332,-20.44955266,8.34504659762643,0.3399739583333338,0.37817059999999997,0.07041967279290677,0.0,216,3,62.58513413487053,314.52187999999995,mp-30796,NbSnRh,https://materialsproject.org/materials/mp-30796,46.93417834187353,43.9195164928004,-8.604250342815693,-0.5045126942092143
-8.497902599655173,-492.87835078,7.7408085222775815,-0.011401530150862982,94.6264568,1.89737959717282,0.0,1,58,581.2136160777827,2709.3993,mp-1226402,Fe46(BC3)3,https://materialsproject.org/materials/mp-1226402,41.93994480652554,87.94743614380369,-8.604250342815693,-0.5045126942092143
-3.88090913,-46.57090956,12.243054716864247,-0.9280779349999992,2.45e-06,1.2139535221054252e-07,0.0,62,12,235.20223940082298,1734.132,mp-13026,YbZnPt,https://materialsproject.org/materials/mp-13026,17.682961610155687,59.68844003817904,-8.604250342815693,-0.5045126942092143
-8.152216063333332,-97.82659276,12.897273581097824,-0.9228096916666656,0.47582545,0.02786116431754317,0.0,74,12,199.03334087300462,1545.8760000000002,mp-13475,CeSi2Ir3,https://materialsproject.org/materials/mp-13475,11.729500375505927,66.63560764082622,-8.604250342815693,-0.5045126942092143
-8.1639139675,-32.65565587,10.740571426227266,-0.3839091924999991,2e-07,4.191756006846959e-08,0.0,221,4,55.604690509292716,359.658,mp-1185,VRh3,https://materialsproject.org/materials/mp-1185,63.32369144423702,53.30211393080355,-8.604250342815693,-0.5045126942092143
-8.324681928636364,-183.14300243,8.143690870165152,-0.2844351489609096,37.8072122,1.6415016125737378,0.0,166,22,268.41746390847146,1316.3851,mp-1190690,Dy2Fe17N3,https://materialsproject.org/materials/mp-1190690,61.46389785826757,75.2931233886756,-8.604250342815693,-0.5045126942092143
-9.964741035,-39.85896414,14.898057990597284,-0.6567126899999991,0.9718959999999999,0.16795474164207133,0.0,225,4,67.4380420907061,605.0419999999999,mp-864890,Hf2FeIr,https://materialsproject.org/materials/mp-864890,39.494858768448864,60.78819723433731,-8.604250342815693,-0.5045126942092143
-6.594296590000001,-32.97148295,8.830489941750448,-0.4477835210000009,1.7885428,0.2612835819979516,0.0,139,5,79.77460152800067,424.229,mp-5451,Er(FeGe)2,https://materialsproject.org/materials/mp-5451,16.771533221553007,71.27538031328585,-8.604250342815693,-0.5045126942092143
-8.111735795,-32.44694318,10.282250393833555,-0.6272505166666669,3.2e-06,6.475976252920509e-07,0.0,221,4,57.586695527755786,356.5835,mp-1152,TiRh3,https://materialsproject.org/materials/mp-1152,65.37904945411678,50.91448043035596,-8.604250342815693,-0.5045126942092143
-0.8743481475,-3.49739259,10.973400963126636,-0.16958714750000006,1.7100000000000002e-05,2.1634882750298863e-06,0.0,225,4,92.11258961318745,608.711,mp-973824,LiHg3,https://materialsproject.org/materials/mp-973824,-17.39357940812051,62.36646572693447,-8.604250342815693,-0.5045126942092143
-4.1881227009090916,-46.06934971,7.3240348830830415,-0.4801189049999996,0.0007392000000000001,4.1415637993831426e-05,0.0,123,11,208.00560119728738,917.437195,mp-1101871,Sm2Ga8Co,https://materialsproject.org/materials/mp-1101871,17.181864092432942,83.79055574025998,-8.604250342815693,-0.5045126942092143
-7.11448458,-170.74762992,6.810037780617276,-0.05896103166666696,7.62421605,0.21305120661896768,0.0,6,24,417.05047859972433,1710.366,mp-1226373,Cr3SbAs2,https://materialsproject.org/materials/mp-1226373,45.21028496481093,64.46703346269479,-8.604250342815693,-0.5045126942092143
-6.37890401,-31.89452005,7.506670833262816,-0.5190772240000001,2e-07,3.090846447983094e-08,0.0,139,5,75.41018273595866,340.9009999999999,mp-2866,Yb(FeSi)2,https://materialsproject.org/materials/mp-2866,20.8696013574395,72.62096978137696,-8.604250342815693,-0.5045126942092143
-5.534385123333332,-49.80946611,10.188401557305868,-0.5413750883333337,0.0,0.0,0.0,189,9,139.5853949629427,856.44,mp-423,GePd2,https://materialsproject.org/materials/mp-423,46.534992684870275,38.092217417010225,-8.604250342815693,-0.5045126942092143
-6.227241395,-37.36344837,9.321386135019695,0.2991661566666662,0.65897305,0.0923169751535169,0.0,194,6,83.18854246795206,466.97639000000004,mp-1025124,FeCoSn,https://materialsproject.org/materials/mp-1025124,45.28924481912709,45.24589022752878,-8.604250342815693,-0.5045126942092143
-5.392171008571429,-37.74519706,9.112662288906458,-0.3291514569642859,0.050987199999999996,0.004736067684715911,0.0,123,7,125.46445087536766,688.5205,mp-1206770,NpGa5Rh,https://materialsproject.org/materials/mp-1206770,39.28687448459215,46.69770145501421,-8.604250342815693,-0.5045126942092143
-6.11280745935484,-189.49703124,6.7053437756528735,0.13797761709677414,28.9874217,0.5013271490285287,0.0,12,31,673.8539708769657,2721.0576929999997,mp-1201074,Sm12Al5Fe14,https://materialsproject.org/materials/mp-1201074,53.595366108051536,81.7634116486724,-8.604250342815693,-0.5045126942092143
-6.129816552857143,-85.81743174,9.394107660489434,-1.003490473469388,4e-07,1.9598566239676863e-08,0.0,12,14,237.85545595608508,1345.611098,mp-569431,Tb3P4Pd7,https://materialsproject.org/materials/mp-569431,27.968270462914358,50.0494765840304,-8.604250342815693,-0.5045126942092143
-4.706914400833333,-56.48297281,8.393294475297091,-0.3245769791666664,8.02e-05,3.362628316901198e-06,0.0,65,12,277.95400105968645,1404.9352199999996,mp-1207718,TmNiSn4,https://materialsproject.org/materials/mp-1207718,1.9773001698995691,53.23117659352639,-8.604250342815693,-0.5045126942092143
-7.164649325000001,-128.96368785,9.626778829110856,-1.0471646450000014,1.8333333333333333e-07,6.5895176036325155e-09,0.0,190,18,324.23899140327666,1879.7372315999999,mp-567927,ZrAlPt,https://materialsproject.org/materials/mp-567927,33.02722409378629,59.41490216150921,-8.604250342815693,-0.5045126942092143
-5.865266658333334,-105.57479985,8.239476534843035,-0.2794902899999998,3.14624875,0.10387375861500406,0.0,46,18,352.99181633530156,1751.5202699999998,mp-1213023,ErMnGa,https://materialsproject.org/materials/mp-1213023,24.89473809472125,70.32333623331608,-8.604250342815693,-0.5045126942092143
-9.195705037777778,-82.76134534,14.699792279826289,-0.5978167244444437,1.4133333333333334e-05,1.101209403006935e-06,0.0,189,9,149.57262594115934,1324.08,mp-1095196,HfGeOs,https://materialsproject.org/materials/mp-1095196,44.54917043788661,57.28302143528565,-8.604250342815693,-0.5045126942092143