energy_per_atom,energy,density,formation_energy_per_atom,total_magnetization_uB,total_magnetization_T,band_gap,sgr,num_sites,cell_volume,weight,mp_id,formula,URL,tsne_cry_lin1_0,tsne_cry_lin1_1,tsne_cry_lin2_0,tsne_cry_lin2_1
-5.844054603809522,-122.72514668,9.25137443903841,-0.16523194380952366,0.0584514,0.001530058404882423,0.0,147,21,445.2094112702462,2480.398755,mp-1225451,Dy4Co3,https://materialsproject.org/materials/mp-1225451,-27.697223923835626,67.47347156876782,-8.604250342815693,-0.5045126942092143
-3.66755720375,-29.34045763,1.515159359636115,-0.3196560599075,1.4e-06,1.7369705973102914e-07,0.57,6,8,93.93187603088104,85.70816928,mp-1186148,NaLi5N2,https://materialsproject.org/materials/mp-1186148,4.145425436312915,1.180938190267952,-5.131253143813741,-3.1657916392308376
-6.9943776524,-349.71888262,6.80295442816882,-2.5164350447383987,25.1224697,0.4904504968341707,0.0,10,50,596.9591039673502,2445.64294,mp-694945,Ba3La7Mn2(Co4O15)2,https://materialsproject.org/materials/mp-694945,-39.292049209755504,-4.285578809666236,-8.604250342815693,-0.5045126942092143
-5.360317065,-21.44126826,11.16431101379642,-0.6667908306250006,2e-07,2.7473294547897126e-08,0.0,225,4,84.83922270219117,570.4000000000002,mp-1187039,SmPd2Pb,https://materialsproject.org/materials/mp-1187039,27.680648438060715,40.438554525310956,-8.604250342815693,-0.5045126942092143
-7.483751561166668,-449.02509367,5.547090354631534,-2.771203253759333,41.001688200000004,0.6885621127464929,0.0,1,60,693.9625652087262,2318.2068950000007,mp-706248,Ca6Pr6Mn11CrO36,https://materialsproject.org/materials/mp-706248,-32.63407313237505,6.260655328592714,-8.604250342815693,-0.5045126942092143
-2.658319755,-10.63327902,8.546839683040384,-0.16568355487499975,8.170000000000001e-05,7.648500584998909e-06,0.0,225,4,124.4867646065902,640.73676928,mp-865145,NaTl2Bi,https://materialsproject.org/materials/mp-865145,-8.910287389982331,36.88946272997431,-8.604250342815693,-0.5045126942092143
-6.626992080625,-106.03187329,5.876385519521612,-0.7412622731249989,1e-07,4.381337926145823e-09,0.0,63,16,265.99328718776883,941.3082519999999,mp-31191,Sc3Co2Ge3,https://materialsproject.org/materials/mp-31191,23.541467555051106,66.543311574526,-8.604250342815693,-0.5045126942092143
-7.4561963078947375,-141.66772985,6.423490846675558,-3.0423655281359654,0.0,0.0,0.0,123,19,248.67597006752246,961.9574,mp-557043,Ba2Nd2Ti2Cu2O11,https://materialsproject.org/materials/mp-557043,-33.426135817529484,-6.203628714405012,-8.604250342815693,-0.5045126942092143
-6.63761578,-26.55046312,13.916113604057214,-0.4155128154687491,5.4267342,0.7004767987871067,0.0,225,4,90.28637633647915,756.6431379999998,mp-861599,PuSnAu2,https://materialsproject.org/materials/mp-861599,-8.25254335283247,49.671552581620034,-8.604250342815693,-0.5045126942092143
-8.759591386034483,-508.05630039,5.693093412774659,-0.8090813028201966,0.01365185,0.00022360095254993453,0.0,51,58,711.5333917450058,2439.464516,mp-1195743,V18P9C2,https://materialsproject.org/materials/mp-1195743,53.15708592926561,50.64405917775275,-8.604250342815693,-0.5045126942092143
-0.7922123083333333,-4.75327385,7.082797876878864,-0.2509078517816093,2.8999999999999998e-06,1.481106961828151e-07,0.0,74,6,228.18600351933566,973.2956,mp-9827,RbHg2,https://materialsproject.org/materials/mp-9827,-22.606969485949325,43.849281191919324,-8.604250342815693,-0.5045126942092143
-5.726316088125,-91.62105741,3.767821635657264,-2.6406165933125,0.0,0.0,1.2199,123,16,199.12822756460153,451.82897,mp-1031330,KLaMg6O8,https://materialsproject.org/materials/mp-1031330,-6.144442457931698,-3.1319784319017945,3.578572028918814,-4.6081028227945575
-3.8176557125,-15.27062285,10.791345501849117,-0.3602868975,0.0,0.0,0.0,225,4,83.89954569950335,545.2379999999998,mp-864759,LiYb2Ir,https://materialsproject.org/materials/mp-864759,-2.779061791801681,50.72328882896614,-8.604250342815693,-0.5045126942092143
-7.072344155750001,-1131.57506492,4.4248871724483845,-2.6378440899596654,21.00114735,0.1376408580339571,0.3570000000000002,1,160,1778.169178911896,4738.3396600000015,mp-1247602,SrCa7TiMn7O24,https://materialsproject.org/materials/mp-1247602,-32.959151772791174,-8.39289651512274,3.342024098959142,-0.03166969224913025
-5.190149126000001,-77.85223689,4.236544298625014,-1.2721155615666666,8.9969073,0.6182286988446218,0.0049999999999998926,2,15,169.59830661835227,432.69728784,mp-39072,Na3(CoO2)4,https://materialsproject.org/materials/mp-39072,-41.81970396979175,-22.54685213427319,2.5218626408642746,-0.6647353061335655
-5.767786634285714,-161.49802576,9.057040601981566,-0.25503415642857163,7.0529682000000005,0.1887847252786352,0.0,62,28,435.3940612530365,2374.76,mp-1212701,GdCu5Sn,https://materialsproject.org/materials/mp-1212701,3.0862713794289447,42.202091705576244,-8.604250342815693,-0.5045126942092143
-3.245272785,-12.98109114,9.06506570877938,-0.7418489066666667,0.0,0.0,0.2568000000000001,225,4,105.45824734863972,575.7082,mp-1187877,Yb2AgSb,https://materialsproject.org/materials/mp-1187877,-5.10456086089235,52.98955777271396,-8.604250342815693,-0.5045126942092143
-6.648164289583334,-159.55594295,5.231433854530069,-2.588324246474168,13.1760766,0.4985371150672726,0.0,38,24,308.01086920857915,970.3707350000003,mp-1218555,Sr6Mn3FeO14,https://materialsproject.org/materials/mp-1218555,-34.81030430027807,5.041576058540209,-8.604250342815693,-0.5045126942092143
-6.995302022222222,-62.9577182,8.901606573995046,-0.6748469755555564,7.283808500000001,0.400722165523112,0.0,189,9,211.83249481372897,1135.564707,mp-580154,GdMgAu,https://materialsproject.org/materials/mp-580154,-14.014652277811544,45.60003785122146,-8.604250342815693,-0.5045126942092143
-6.0279020785714295,-84.3906291,5.922769085524959,-2.580873196785714,5e-07,2.5838010530376373e-08,1.5345999999999995,123,14,225.52171265002445,804.3851999999998,mp-1208734,Sr4SnPbO8,https://materialsproject.org/materials/mp-1208734,-7.164740927062218,-13.175039617463653,6.907444149682917,-1.340070110001134
-8.446097235,-33.78438894,10.207139336608511,-0.3433404562500009,7.65e-05,1.2562736763430756e-05,0.0,225,4,70.96669872889599,436.224,mp-864897,Zr2CuOs,https://materialsproject.org/materials/mp-864897,-10.03440909788914,53.96567579003775,-8.604250342815693,-0.5045126942092143
-4.658619353214285,-130.44134189,3.3096075875711155,-2.7722853912071423,1.511041125,0.0441780830659016,0.0,14,28,398.60876531203303,794.464064,mvc-3399,CaCuF5,https://materialsproject.org/materials/mvc-3399,-52.049581047791754,-12.107758802253857,-4.702765512608358,-2.8919451542296635
-7.21583008,-21.64749024,7.681431895013059,-0.013700751666666141,3.5113695,0.8319289670663585,0.0,216,3,49.18896830542315,227.5416,mp-961725,CrGeRh,https://materialsproject.org/materials/mp-961725,31.986410475047194,51.88703756547818,-8.604250342815693,-0.5045126942092143
-6.368247520500001,-127.36495041,6.330051156214838,-0.8744267545000001,0.0,0.0,0.0,14,20,418.9970457804976,1597.236,mp-18655,Ba(SiRh)2,https://materialsproject.org/materials/mp-18655,7.687102030444624,35.398357327563,-8.604250342815693,-0.5045126942092143
-8.29247042090909,-182.43434926,7.6104672787460395,-0.2360202271427286,38.5255016,1.6161854610678432,0.0,166,22,277.8014663893236,1273.2004,mp-1190963,Pr2Fe17N3,https://materialsproject.org/materials/mp-1190963,61.45178473603219,75.30962415855299,-8.604250342815693,-0.5045126942092143
-7.014298544324324,-1038.11618456,3.91030161038776,-2.5617154362289187,28.999998275,0.18200669107848166,0.0,1,148,1856.897987092336,4372.69526,mp-1247704,Ca8Mn7CrO21,https://materialsproject.org/materials/mp-1247704,-31.013743136764344,-11.036139250471518,-8.604250342815693,-0.5045126942092143
-5.02762079,-20.11048316,8.021201642035571,-0.79346067,8.85e-05,1.1923187714677424e-05,0.0,225,4,86.50243182046862,417.84832,mp-1183569,CaHoPd2,https://materialsproject.org/materials/mp-1183569,14.590118739313052,45.76666730225873,-8.604250342815693,-0.5045126942092143
-7.467234554166668,-179.2136293,5.721383930073945,-0.2763974919444448,0.0,0.0,0.0,227,24,358.56041780070746,1235.4191999999996,mp-1808,Ti2Ni,https://materialsproject.org/materials/mp-1808,58.80080333745763,54.3410831735359,-8.604250342815693,-0.5045126942092143
-4.36970013,-26.21820078,8.263726988849799,-0.1594406429166669,0.0,0.0,0.005399999999999849,191,6,92.83009257468865,461.972,mp-1140,NdCu5,https://materialsproject.org/materials/mp-1140,3.556569633392668,44.081694523469906,-8.604250342815693,-0.5045126942092143
-4.807742105925926,-129.80903686,2.5827800821914706,-1.7701449381828698,0.0002264666666666667,3.4271507380548337e-06,1.7030999999999996,8,27,770.1024564962662,1197.807,mp-1100367,Ca3SnS5,https://materialsproject.org/materials/mp-1100367,82.27428332567284,8.760406721678685,9.553607277648176,-4.4820470858414465
-5.041540075,-20.1661603,6.9696756044844435,-0.3452646462500004,4.7e-06,5.771586359997431e-07,0.0,225,4,94.90303187814544,398.3305,mp-1185389,LiNd2Rh,https://materialsproject.org/materials/mp-1185389,9.498066029372831,43.451113008256996,-8.604250342815693,-0.5045126942092143
-4.5120149025,-18.04805961,12.126283990756555,-0.6937674493749997,7.56e-05,9.704256866569343e-06,0.0,225,4,90.78977493275907,663.003138,mp-972526,SmSnAu2,https://materialsproject.org/materials/mp-972526,-7.839579233965471,48.17524250032454,-8.604250342815693,-0.5045126942092143
-2.556363255,-10.22545302,4.9723436375639185,-0.03835488587500002,1.2e-05,1.58591207478047e-06,0.0,139,4,88.18192350926823,264.05330784,mp-982871,Na3Pt,https://materialsproject.org/materials/mp-982871,-18.424427102320603,21.08744688750782,-8.604250342815693,-0.5045126942092143
-6.412773106,-64.12773106,7.2767400331395296,-0.4723482440000005,4e-07,2.1070753303503738e-08,0.0,70,10,221.23679404707002,969.494,mp-30050,Ba(GeRu)2,https://materialsproject.org/materials/mp-30050,8.245822448657488,34.72984782960264,-8.604250342815693,-0.5045126942092143
-9.026749939,-90.26749939,6.896653106351888,-1.0974797079279994,0.0,0.0,1.1506000000000007,161,10,133.32440554199312,553.73114,mp-989552,LaMoN3,https://materialsproject.org/materials/mp-989552,32.783807038476006,-9.193803664009321,5.3586926225107705,-3.605575437449912
-3.736547806666667,-11.20964342,1.8977178120863891,-0.7625138207142861,1.4e-06,2.99681311817542e-07,1.5647000000000002,216,3,54.44347057422525,62.219762,mp-36111,LiMgP,https://materialsproject.org/materials/mp-36111,26.52921409881543,-11.440565586273227,8.04703602847292,-3.7851949389659767
-4.241483836607143,-237.52309485,8.178872366725026,-0.21649651958333346,0.000252775,3.1738399752517927e-06,0.0,58,56,928.1678489949924,4571.62776,mp-1203883,LaInCu5,https://materialsproject.org/materials/mp-1203883,2.5567199319588263,43.250799442419,-8.604250342815693,-0.5045126942092143
-6.078984129,-60.78984129,8.740130310130342,-0.832118568,0.0812322,0.004072375064271664,0.0,127,10,232.46515988252574,1223.5639999999999,mp-1206052,Ce2SnPd2,https://materialsproject.org/materials/mp-1206052,11.45916176187993,53.72458574337161,-8.604250342815693,-0.5045126942092143
-6.26209810625,-300.5807091,3.040666827258183,-2.2576215425694444,1.00000025,0.027062878876690937,0.02140000000000009,14,48,430.6292667227451,788.5391999999998,mp-770786,Li3Ni(BO3)2,https://materialsproject.org/materials/mp-770786,-44.67162300448963,-32.20397708981118,3.1608748611965445,0.3450782029899734
-5.495669419166667,-65.94803303,8.674847257071013,-0.03907514708333319,5.7560337,0.38378461488337895,0.0,47,12,174.78863657215766,913.115975,mp-1219221,Sm2(CoCu)5,https://materialsproject.org/materials/mp-1219221,39.632301417087675,75.26796623960814,-8.604250342815693,-0.5045126942092143
-7.235005826,-144.70011652,4.9348515935762265,-2.6568030935669995,13.0000027,0.6711168614828943,0.0,6,20,225.7473805299593,670.88445,mp-1227732,Ca3LaMn4O12,https://materialsproject.org/materials/mp-1227732,-33.28496273969051,6.1650483210947575,-8.604250342815693,-0.5045126942092143
-4.6477820475,-18.59112819,0.8324022558225742,2.437212238750001,3.0000002,0.046547693306308764,0.0,71,4,751.1048166967598,376.5171,mp-1093756,CrSnRh2,https://materialsproject.org/materials/mp-1093756,7.263189510553932,24.87956591552443,-8.604250342815693,-0.5045126942092143
-6.96375815725,-1114.20130516,4.462258809493451,-2.532461060019,22.000000525,0.14525951034478635,0.20000000000000015,1,160,1765.0440271079956,4743.08828,mp-1247710,SrCa7Mn6Cr2O24,https://materialsproject.org/materials/mp-1247710,-32.996641571349414,-8.383264221668872,1.1622244352474622,-2.2902867533575813
-6.053433965000001,-84.74807551,3.25750916614985,-1.1292220522500005,3.0,0.1343547904221182,0.0,12,14,260.2229083744186,510.48393856,mp-1238847,Na(CrS2)2,https://materialsproject.org/materials/mp-1238847,13.863218036545724,8.318339955809211,-8.604250342815693,-0.5045126942092143
-7.0980565730769225,-184.54947090000002,5.6963151765315425,-2.77691430235577,2.9999857999999997,0.09424448779958687,0.0,8,26,370.9716042417981,1272.58145,mvc-12163,Ba3Y5(NiO5)3,https://materialsproject.org/materials/mvc-12163,-39.40618018189811,-20.442212188109828,-4.4972584620803335,-1.588609885894097
-6.5258794225,-156.62110614,4.73917004706996,-2.3681805984375,8.000280199999999,0.2693219895814077,0.0,74,24,346.1870447130516,988.01608,mvc-409,Sr2YCo2O7,https://materialsproject.org/materials/mvc-409,-35.70916101214394,-16.404406401691382,-8.604250342815693,-0.5045126942092143
-7.995911583333334,-47.9754695,8.523811690146447,-0.598545495000001,7.1709725,0.6317755160501919,0.0,186,6,132.27954530388126,679.012,mp-21436,GdCuSn,https://materialsproject.org/materials/mp-21436,-5.861844579320095,54.34499766948882,-8.604250342815693,-0.5045126942092143
-8.267617045,-49.60570227,11.248733524791104,0.07703453833333285,0.00015235,2.035550707076837e-05,0.0,74,6,87.22439396507002,590.87076,mp-1217827,TaVCu,https://materialsproject.org/materials/mp-1217827,21.574786113874087,57.70076685823707,-8.604250342815693,-0.5045126942092143
-6.849697585370372,-369.88366961,4.055854844235682,-2.4161003358884483,4.0000003,0.06815812021021804,0.1341000000000001,90,54,683.942902807194,1670.5256960000004,mp-1195143,BaTiCu4P4O17,https://materialsproject.org/materials/mp-1195143,-57.8527450389759,-12.104866458235366,-4.5755751227903865,-0.6356373852139535
-4.67799885090909,-51.45798736,9.034523562878393,-0.4837268104545448,8e-07,4.121314323874085e-08,0.0,12,11,226.2203531538401,1230.8010000000002,mp-1103053,Er3(CuSn)4,https://materialsproject.org/materials/mp-1103053,-5.094605997252058,54.54221154620174,-8.604250342815693,-0.5045126942092143
-7.112532283571428,-298.72635591,4.136721310235611,-2.331561720274285,8.000408716666668,0.1953388251091257,0.0,8,42,477.310546630439,1189.07214,mvc-10048,MgMn2O4,https://materialsproject.org/materials/mvc-10048,-69.03794229351294,-35.43106029177109,-4.675844249872271,-0.6763449678415167
-6.761474623333332,-101.42211935,6.905704371878771,-2.393241525583334,7.000000999999999,0.4609954728334063,0.0,164,15,176.96153187921504,735.932125,mp-1227960,BaLa2(CoO3)3,https://materialsproject.org/materials/mp-1227960,-39.63820656437619,-4.2781704634576405,-8.604250342815693,-0.5045126942092143
-6.015100068888889,-54.13590062,6.908010989600034,-0.6417030755555561,7.866666666666667e-06,5.717359865990616e-07,0.0,189,9,160.3513597645212,667.0779359999998,mp-1078355,ScNiSn,https://materialsproject.org/materials/mp-1078355,3.827339942270696,56.78117740506249,-8.604250342815693,-0.5045126942092143
-6.71181599642857,-93.96542395,3.87384762331464,-2.3287330373485724,9.999999800000001,0.7804447485791828,0.0,160,14,149.32593960936867,348.360335,mp-756823,LiMg2Mn3O8,https://materialsproject.org/materials/mp-756823,-68.1118498226939,-36.78173714306696,-8.604250342815693,-0.5045126942092143
-5.8417165275,-23.36686611,10.896992012123173,-0.2768450362500001,0.000102,1.4671599590686777e-05,0.0,225,4,81.02147277490177,531.689,mp-862558,LiEr2Os,https://materialsproject.org/materials/mp-862558,9.096515759147689,42.79321536229171,-8.604250342815693,-0.5045126942092143
-5.8332828075,-46.66626246,5.838934104972424,0.19259942131000066,0.0,0.0,0.0,12,8,88.2210922008795,310.2108,mp-1080203,CuN,https://materialsproject.org/materials/mp-1080203,16.495276103009893,-11.563507630447551,4.8911660095907665,-2.720744027112941
-8.328896679166666,-99.94676015,12.362316923539383,-0.5745365624999993,1.8191723999999998,0.09540879665225244,0.0,62,12,222.20962558961642,1654.29764,mp-20321,UGeRh,https://materialsproject.org/materials/mp-20321,-11.139712211064957,27.058382895689586,-8.604250342815693,-0.5045126942092143
-7.5445229625,-30.17809185,8.355254306456787,-0.3358610768750001,0.0,0.0,0.0,38,4,48.734453034077475,245.2148,mp-4587,DyNiC2,https://materialsproject.org/materials/mp-4587,-21.565751072062284,11.270423116661279,-8.604250342815693,-0.5045126942092143
-6.088365678928571,-170.47423901,3.7040572735197235,-0.06481659573285624,3.5e-07,1.2951259910644021e-08,1.9394,186,28,314.9440825478007,702.5254399999999,mp-601817,Cu4H3C2N5,https://materialsproject.org/materials/mp-601817,13.608946711482284,-14.49096096471634,8.661849838445919,-1.8954634038512492
-6.315130501052631,-119.98747952,4.442003278232957,-0.8482603025810519,5.9999996,0.19111441772417428,0.0,12,19,365.8770740920789,978.73469,mp-569961,Sr8Mn2FeN8,https://materialsproject.org/materials/mp-569961,5.612665141591816,7.40009145377212,-8.604250342815693,-0.5045126942092143
-5.319284584,-79.78926876,4.187916545691978,-1.4012510195666663,14.9999994,1.018904368860229,0.0,44,15,171.56758763484768,432.69728784,mp-1221243,Na3(CoO2)4,https://materialsproject.org/materials/mp-1221243,-77.5383500241508,-25.4171927685849,2.9745344482798006,-1.5003993747981628
-6.132166426,-30.66083213,5.816609722024848,-0.23444950799999945,5.922028599999999,0.6159533368237711,0.0,139,5,112.04696973513906,392.48309,mp-22412,Ba(MnGe)2,https://materialsproject.org/materials/mp-22412,22.05470868138483,22.685106837974768,-8.604250342815693,-0.5045126942092143
-6.971129960000002,-34.855649799999995,7.389783522170416,-2.4313456862500007,1.4990449,0.3136931010913899,0.08899999999999952,221,5,55.691267359066494,247.83904500000003,mp-20427,PrCoO3,https://materialsproject.org/materials/mp-20427,-40.02126693302489,-3.921914844868002,-8.604250342815693,-0.5045126942092143
-7.1293303508333326,-171.10392842,7.008820659291392,-0.06455162083333359,0.083179925,0.002079109235235561,0.0,227,24,466.2497849069615,1967.9520000000002,mp-583800,Zr2Cu,https://materialsproject.org/materials/mp-583800,-10.004752395825117,53.63479655704566,-8.604250342815693,-0.5045126942092143
-7.596392599999999,-68.3675334,5.748290849909475,-0.7855796472222225,0.08592336666666668,0.00856625913436177,0.0,189,9,116.89542248295948,404.657085,mp-15657,TiCoSi,https://materialsproject.org/materials/mp-15657,46.69841714726881,51.18602683083246,-8.604250342815693,-0.5045126942092143
-4.453122318,-89.06244636,3.215992019995951,-1.1721327484375004,2.5e-08,5.532381116834256e-10,0.0,227,20,526.6296973421631,1019.932,mp-866471,CaSnS3,https://materialsproject.org/materials/mp-866471,41.20479144658217,0.35843048759739715,-8.604250342815693,-0.5045126942092143
-6.990490038333332,-209.71470115,6.363039756792022,-2.7681082307113334,5.01933055,0.1345259501895983,0.0,194,30,434.8276541599973,1666.2213800000002,mp-555498,Ba3ErMn2O9,https://materialsproject.org/materials/mp-555498,-38.23584200597811,-22.18623916591164,-6.390085034155173,-3.6537660078465777
-9.54923614,-38.19694456,13.678049531103946,0.5336306081250015,4.85e-05,6.776155688692459e-06,0.0,225,4,83.4133935872143,687.08564,mp-1186327,NdTa3,https://materialsproject.org/materials/mp-1186327,9.584941114300237,74.32402744800842,-8.604250342815693,-0.5045126942092143
-5.698744682,-28.49372341,5.7238598312019615,-0.595424078,0.0,0.0,0.0,139,5,78.95843263548244,272.16885,mp-3390,Y(CuSi)2,https://materialsproject.org/materials/mp-3390,-3.723743735105215,57.413761203926185,-8.604250342815693,-0.5045126942092143