energy_per_atom,energy,density,formation_energy_per_atom,total_magnetization_uB,total_magnetization_T,band_gap,sgr,num_sites,cell_volume,weight,mp_id,formula,URL,tsne_cry_lin1_0,tsne_cry_lin1_1,tsne_cry_lin2_0,tsne_cry_lin2_1
-6.59344479625,-105.49511674,5.931901676734428,-0.6080162523593753,0.0,0.0,0.09440000000000026,2,16,350.8407465274376,1253.29953856,mp-1210246,NaMo3Se4,https://materialsproject.org/materials/mp-1210246,63.381898795130546,32.54105520369823,-8.604250342815693,-0.5045126942092143
-6.9595354045,-278.38141618,4.039473318262598,-1.989369292037999,10.00081645,0.2647259873647164,0.3361000000000001,1,40,440.2671753045832,1071.00614,mp-763655,LiMn3O6,https://materialsproject.org/materials/mp-763655,-67.27738321645222,-37.926600318309774,3.3101913962943703,-0.022944450383929317
-7.16701655361111,-516.02519186,6.4838183820142685,-0.6924381637022563,1.0368595999999999,0.00734013544842208,0.0,167,72,1646.2405937002115,6427.9879999999985,mp-1197677,Ba2Mo15Se19,https://materialsproject.org/materials/mp-1197677,63.577788711341114,32.27687530711519,-8.604250342815693,-0.5045126942092143
-5.579764152999999,-55.79764153,8.38547448293562,-0.6007298550000002,0.38819235,0.019878496165474883,0.0,194,10,227.58355327549938,1149.263,mp-1205546,Ho2Co2I,https://materialsproject.org/materials/mp-1205546,-26.88828275972754,66.32911083776968,-8.604250342815693,-0.5045126942092143
-6.0920066525,-24.36802661,12.789743319860616,-0.3415763929166671,0.0026464,0.00037351782506657015,0.0,225,4,82.56986666862628,635.96662,mp-865279,Tm2AgOs,https://materialsproject.org/materials/mp-865279,18.473012039365283,55.351231459269364,-8.604250342815693,-0.5045126942092143
-7.898337116666667,-47.3900227,8.422442421148869,-0.30916690333333463,0.00109315,0.0001545190674659516,0.0,227,6,82.4470475718527,418.18077999999997,mp-929,ZrCo2,https://materialsproject.org/materials/mp-929,61.57289600458734,64.41909684855868,-8.604250342815693,-0.5045126942092143
-5.803328507272727,-127.67322716,4.385658292181581,-1.6784870529545457,4.0000003,0.2170713788549003,0.0,64,22,214.7508475431876,567.17958,mp-757742,Li2Fe(CoO3)2,https://materialsproject.org/materials/mp-757742,-73.42177959022222,-23.37295899431533,-4.706018018820458,-2.6099670017392067
-6.3702000925,-25.48080037,5.925216788720659,-0.2961056437499998,0.0012374,0.0002031289396185651,0.0,225,4,70.99303416167379,253.320824,mp-862264,Sc2ZnTc,https://materialsproject.org/materials/mp-862264,19.299588458103077,56.905811654625644,-8.604250342815693,-0.5045126942092143
-7.438238829102564,-1160.36525734,4.726538259446585,-1.094994385936808,0.02460705,8.104027635432156e-05,0.0,167,156,3538.637421568005,10072.3348,mp-1203858,Rb8Mo33S37,https://materialsproject.org/materials/mp-1203858,66.47848481542027,33.00711197066842,-8.604250342815693,-0.5045126942092143
-8.0174620025,-32.06984801,9.240596008934574,-0.7473670349999999,5.5e-06,9.313158013105532e-07,0.0,225,4,68.82451275805707,382.995824,mp-862362,Sc2TcPt,https://materialsproject.org/materials/mp-862362,20.82616619322312,56.09752081111166,-8.604250342815693,-0.5045126942092143
-3.33481586,-13.33926344,0.4790021567629975,2.460969345833333,0.0007769,1.4987124306348513e-05,0.06789999999999985,71,4,604.1214269482206,174.265982,mp-1095832,TiBeNi2,https://materialsproject.org/materials/mp-1095832,-60.17080008752772,37.98909006924486,-8.604250342815693,-0.5045126942092143
-6.760548555,-67.60548555,10.086513289231569,-0.31369418999999965,2e-07,1.0056525248274394e-08,0.0,176,10,231.7712029721085,1407.8339999999996,mp-31198,Er3Ru2,https://materialsproject.org/materials/mp-31198,-31.80691916203884,71.01022028370012,-8.604250342815693,-0.5045126942092143
-7.320721995,-29.28288798,9.678745818573526,-0.9108624300000008,6.7e-06,9.81591903161868e-07,0.0,225,4,79.54653428235738,463.65106,mp-980943,YTmRh2,https://materialsproject.org/materials/mp-980943,17.688119285382452,51.20110307021533,-8.604250342815693,-0.5045126942092143
-5.749603975,-22.998415899999998,0.7372716918948851,3.829361985,3.0000001,0.04124215941291789,0.022699999999999942,71,4,847.7295073966152,376.38800000000003,mp-1093638,Zr2TcMo,https://materialsproject.org/materials/mp-1093638,-62.55094788984415,37.84883249683092,-8.604250342815693,-0.5045126942092143
-8.0198276125,-64.1586209,6.8876396674489495,-0.1374401246875001,2.0300000000000002e-05,2.6417537117719106e-06,0.0,194,8,89.55320620114941,371.4518,mp-20197,Cr2GaC,https://materialsproject.org/materials/mp-20197,-0.4904052237621634,17.319178296416872,-8.604250342815693,-0.5045126942092143
-5.52022787,-110.4045574,7.469668455792286,-0.05166266725000028,4e-06,8.836784500588981e-08,0.0,186,20,527.5251318749682,2372.98717,mp-1006282,Nd7Co3,https://materialsproject.org/materials/mp-1006282,-30.143891982379603,68.33705073141505,-5.239164801727406,-3.039652353812612
-5.4277996275,-21.71119851,0.6260147130801449,3.7550455525,0.9954864,0.0174504875385333,0.11739999999999995,71,4,664.8217111518801,250.63438,mp-1095905,NbV2Fe,https://materialsproject.org/materials/mp-1095905,-60.519987784629315,42.376275558181135,-8.604250342815693,-0.5045126942092143
-6.4082899725,-25.63315989,14.623362880681428,-0.5466226987500002,2.45e-05,3.4678854503471093e-06,0.0,225,4,82.33391529675052,725.064989,mp-865369,Tm2OsAu,https://materialsproject.org/materials/mp-865369,17.793257945123376,55.51077209867311,-8.604250342815693,-0.5045126942092143
-5.93476908,-23.73907632,1.0885203248865585,4.18804960125,3.6227273,0.0476886973801922,0.0,71,4,885.3145698430511,580.3434186000001,mp-1095983,TaAlRe2,https://materialsproject.org/materials/mp-1095983,-60.99939272030159,40.62723261338205,-1.8995248660341688,-0.6015550789479963
-7.770954210555555,-139.87717579,7.765039240281742,-0.5651945161111122,1.1666666666666666e-06,7.316958867941271e-08,0.0,166,18,185.82049109079082,868.9367550000001,mp-618324,ZrCo3B2,https://materialsproject.org/materials/mp-618324,38.90577451225853,88.43575529281361,-8.604250342815693,-0.5045126942092143
-6.96529822,-125.37536796,9.177715851003539,-0.3686106748148145,6.809686500000001,0.3720256544922472,0.0,191,18,213.32004014653006,1179.009145,mp-30907,Dy3Co11B4,https://materialsproject.org/materials/mp-30907,42.31847843448336,83.54140042983539,-8.604250342815693,-0.5045126942092143
-7.334271285,-88.01125542,8.138214212357584,-0.4249886866666669,9.000000000000001e-07,5.991595069836262e-08,0.0,194,12,175.05619410275597,857.9411699999998,mp-1215817,Zr2GaCo3,https://materialsproject.org/materials/mp-1215817,61.617033867287255,64.37653689705718,-8.604250342815693,-0.5045126942092143
-8.254850325,-49.52910195,8.025270781840037,-0.24456185833333305,0.3785945,0.05185171083488286,0.0,166,6,85.0919816240007,411.243685,mp-1215506,Zr2CrCo3,https://materialsproject.org/materials/mp-1215506,61.608215270530636,64.35936675217907,-8.604250342815693,-0.5045126942092143
-6.890577691756757,-509.90274919,5.980351028508991,-0.5865009541021962,0.00967585,6.74981170121091e-05,0.0,11,74,1670.60930913587,6016.61861568,mp-1221553,Na3Mo15Se19,https://materialsproject.org/materials/mp-1221553,63.38199209047667,32.56475793008597,-8.604250342815693,-0.5045126942092143
-4.531507185,-18.12602874,0.9565067401573462,3.122593702500001,7.096736099999999,0.10624896317420762,0.0,71,4,778.4153342518438,448.38422699999995,mp-1097310,MnBeIr2,https://materialsproject.org/materials/mp-1097310,8.261969403430994,24.49230215097198,-8.604250342815693,-0.5045126942092143
-5.715426225,-22.8617049,0.7267132064051882,4.326530460000002,3.0000401,0.04599103056920652,0.0,71,4,760.2060926437654,332.69426,mp-1095742,Nb2VMo,https://materialsproject.org/materials/mp-1095742,-59.525688018311094,42.1848537792845,-8.604250342815693,-0.5045126942092143
-8.92097592,-35.68390368,8.430945613930575,0.10844257749999996,1.26e-05,2.209601472950585e-06,0.0,139,4,66.45597313897879,337.41254,mp-999394,Nb3Ni,https://materialsproject.org/materials/mp-999394,54.143544279250364,57.10789321613686,-8.604250342815693,-0.5045126942092143
-10.7206304925,-42.88252197,9.925270629479735,-0.4298883050000004,7.160601,1.1069180992553012,0.0,225,4,75.38959559934764,450.61400000000003,mp-1184742,GdZrRu2,https://materialsproject.org/materials/mp-1184742,39.4758749839869,59.290722051930196,-8.604250342815693,-0.5045126942092143
-7.801043335,-31.20417334,9.507810915618462,-0.4403840650000008,0.0005407999999999999,8.758317594330633e-05,0.0,225,4,71.96037550727756,412.026232,mp-974063,HoScRu2,https://materialsproject.org/materials/mp-974063,20.022091420269934,53.12239592220657,-8.604250342815693,-0.5045126942092143
-5.67708654,-22.70834616,10.896889233434718,-0.41432423166666776,2.6000000000000002e-05,3.636390023099141e-06,0.0,225,4,83.32595848129435,546.8066200000002,mp-865282,Tm2AgRu,https://materialsproject.org/materials/mp-865282,18.542447094674184,55.331333568231784,-8.604250342815693,-0.5045126942092143
-6.481787273285715,-453.72510913,10.3546452341645,-0.7961750342857149,0.0009881285714285714,7.3211218349626965e-06,0.0,140,70,1572.9439605896307,9808.427440000001,mp-1200753,Ho3Rh2,https://materialsproject.org/materials/mp-1200753,-31.83799326911133,70.99590446721416,-8.604250342815693,-0.5045126942092143
-5.602222406,-56.02222406,8.102006239808363,-0.6034269459999997,0.45578555,0.023032182681378598,0.0,194,10,230.62314134870385,1125.2431199999999,mp-567614,Tb2Co2I,https://materialsproject.org/materials/mp-567614,-26.972964643696407,66.39066697755159,-8.604250342815693,-0.5045126942092143
-6.97360439,-27.89441756,13.32523071491372,-0.6358070362500001,2.3199999999999998e-05,3.4193757311889718e-06,0.0,225,4,79.07124691131015,634.51842,mp-865374,Tm2OsPd,https://materialsproject.org/materials/mp-865374,17.933414494284627,54.451954511457856,-8.604250342815693,-0.5045126942092143
-9.126448759375,-146.02318015,5.787075740414018,-0.4512243855650002,0.15924829999999998,0.011982221092186987,0.0,33,16,154.88697703384491,539.79018,mp-1245441,MnCrN2,https://materialsproject.org/materials/mp-1245441,2.9949258259027434,15.765526468972325,-8.604250342815693,-0.5045126942092143
-5.4088689325,-21.63547573,0.8415785599403208,2.357284645,1.24e-05,1.5546505300365588e-07,0.0,71,4,929.5362551758943,471.0987,mp-1095808,Y2IrRu,https://materialsproject.org/materials/mp-1095808,-67.72819034212802,41.7914396021637,-8.604250342815693,-0.5045126942092143
-7.815327925,-31.261311699999997,9.637730800689363,-0.4573313025000001,4.84e-05,7.900889694617397e-06,0.0,225,4,71.39154662242169,414.354912,mp-1184223,ErScRu2,https://materialsproject.org/materials/mp-1184223,20.046001528513848,53.108680787092155,-8.604250342815693,-0.5045126942092143
-5.4292880025,-21.71715201,0.6351891790751542,3.94085815,6.0000004,0.10544282247365294,0.0013000000000000787,71,4,663.1498631825425,253.668,mp-1097660,V2FeMo,https://materialsproject.org/materials/mp-1097660,-57.246693679462155,36.25529994753247,-8.604250342815693,-0.5045126942092143
-9.5679243325,-38.27169733,11.399550071633813,-0.11656658593750002,0.0492365,0.008137140328859243,0.0,225,4,70.51683232487376,484.095912,mp-1186344,NpScRu2,https://materialsproject.org/materials/mp-1186344,20.852752437064453,54.466368497928656,-8.604250342815693,-0.5045126942092143
-8.8520649225,-35.40825969,10.892035788793466,-0.36146046000000176,6.37e-05,1.0725173191016234e-05,0.0,225,4,69.21696393992792,454.01741860000004,mp-865148,PaAlTc2,https://materialsproject.org/materials/mp-865148,56.547215380289686,46.05146994828166,-8.604250342815693,-0.5045126942092143
-4.49004093,-17.96016372,0.6581313006788754,2.2526836475,0.0,0.0,0.1062000000000003,71,4,772.1913442937048,306.04718199999996,mp-1097556,ZrBeRh2,https://materialsproject.org/materials/mp-1097556,-64.03466844944839,39.898580771528934,-1.683946485246696,-0.5994089765521609
-4.166312455,-16.66524982,0.6796125245625478,3.3403644579166665,3.4415504,0.047582378834119206,0.0,71,4,842.9181613523916,344.983,mp-1096563,Ti2ZnW,https://materialsproject.org/materials/mp-1096563,-65.1508981780549,40.861171135630066,-8.604250342815693,-0.5045126942092143
-6.18173642,-24.72694568,0.9854095166725232,3.4681148850000003,0.8240136999999998,0.0120344479173155,0.0,71,4,797.9683903454641,473.53638,mp-1093591,HfNbRu2,https://materialsproject.org/materials/mp-1093591,-60.91979594451718,35.23859212398342,-8.604250342815693,-0.5045126942092143
-5.8635648975,-164.17981713,5.414397334556358,-1.759093749642857,0.0,0.0,0.5583,186,28,270.1547119480149,880.87357,mp-757930,Li2Co3SbO8,https://materialsproject.org/materials/mp-757930,-73.06502018043592,-24.62905111673476,-0.04879455299028408,1.5342736343364358
-5.2385876875,-20.95435075,0.5897520273790174,2.9558864341666675,0.9999998,0.016514100944984414,0.0484,71,4,705.7037183296528,250.6356,mp-1097164,Ti2CrRh,https://materialsproject.org/materials/mp-1097164,-60.598311329864785,36.1095682296651,-8.604250342815693,-0.5045126942092143
-6.1264723025,-24.50588921,1.1917774431307224,3.43231291875,0.11195730000000001,0.0015449010942251954,0.0,71,4,844.5573835361055,606.143195,mp-1097643,Hf2CoOs,https://materialsproject.org/materials/mp-1097643,-62.87126023839527,35.034967732852174,-8.604250342815693,-0.5045126942092143
-8.205074670833334,-98.46089605,6.707948522254112,-0.6420515595238095,0.0434339,0.0022491719164643245,0.0,124,12,225.0523760409532,909.126324,mp-1103567,Zr4NiP,https://materialsproject.org/materials/mp-1103567,25.148302189150986,58.089096493897216,-8.604250342815693,-0.5045126942092143
-7.028816097777778,-63.25934488,8.364351006134429,-0.4731781827777779,1.3333333333333334e-07,9.703764588016049e-09,0.0,189,9,160.1311829974692,806.601585,mp-30563,ZrCoSn,https://materialsproject.org/materials/mp-30563,43.00068774845143,43.700028333393966,-8.604250342815693,-0.5045126942092143
-8.08537332,-32.34149328,12.070380107108129,-0.4803432250000004,2.3899999999999998e-05,3.3569820616921443e-06,0.0,225,4,82.97099684940758,603.11227,mp-980648,TmThRu2,https://materialsproject.org/materials/mp-980648,20.567413226456114,54.62523725117794,-8.604250342815693,-0.5045126942092143
-6.484373805454546,-285.31244744,3.801624614168998,-2.045790119536364,15.999642199999998,0.4257002308582379,0.1452,1,44,438.009784868246,1002.77605,mp-758791,Li5Mn5O12,https://materialsproject.org/materials/mp-758791,-68.28951137911471,-42.02552984527275,3.569847562833212,0.372469479865321
-5.14162072,-20.56648288,0.910115028906366,2.642632470000001,2.9999981,0.039831236322846415,0.0,71,4,877.7576445675725,481.085,mp-1096630,Zr2IrPd,https://materialsproject.org/materials/mp-1096630,-63.419725953214176,37.9733718690112,-8.604250342815693,-0.5045126942092143
-6.8369355675,-27.34774227,1.4840264871735058,4.21147051375,0.059621,0.0009506614611875416,0.0,71,4,730.8879387377518,653.1957600000002,mp-1093605,Ta2OsRu,https://materialsproject.org/materials/mp-1093605,-58.19286815285509,40.20309645408191,-8.604250342815693,-0.5045126942092143
-5.6537411825,-22.61496473,0.8027457346386386,3.989134517500001,3.0000002,0.05003072464174065,0.0,71,4,698.8145164566147,337.82426,mp-1097443,Nb2VRu,https://materialsproject.org/materials/mp-1097443,-59.89517732341056,42.571740036492784,-8.604250342815693,-0.5045126942092143
-6.997508745999999,-34.98754373,8.284531946182506,-0.5566074346666653,0.0,0.0,0.0,139,5,59.81359822877471,298.41374,mp-3893,Tb(CoB)2,https://materialsproject.org/materials/mp-3893,7.435556426101817,39.54264365340521,-8.604250342815693,-0.5045126942092143
-3.0362588180000003,-15.18129409,1.7409725341325608,-1.470903751238,0.0038353000000000003,0.0001045913312391632,0.0,123,5,427.34741103918464,448.0473432,mp-1207271,Sr2I2F,https://materialsproject.org/materials/mp-1207271,-22.866949072520967,11.24169293229136,-8.604250342815693,-0.5045126942092143
-5.66922324625,-90.70757194,10.639859562717351,-0.7214696824999995,2.8999999999999998e-06,7.84750963129534e-08,0.0034000000000000696,62,16,430.66895650110183,2759.49984,mp-1188476,Ho3Pt,https://materialsproject.org/materials/mp-1188476,-33.75064383782311,71.32338542507186,-8.604250342815693,-0.5045126942092143
-9.55759026,-38.23036104,11.114343306277403,-0.34387037750000005,0.0,0.0,0.0,225,4,70.51824779045177,471.99373,mp-865519,YTaRu2,https://materialsproject.org/materials/mp-865519,40.887425170870976,59.492896558759774,-8.604250342815693,-0.5045126942092143
-7.215895145,-28.86358058,10.899973877276604,-0.2842537406250001,8.400000000000001e-06,1.232348552963503e-06,0.0,225,4,79.43705849622613,521.43421,mp-978539,SmTmRu2,https://materialsproject.org/materials/mp-978539,19.666595314903613,53.415252528983785,-8.604250342815693,-0.5045126942092143
-8.090522305,-32.36208922,11.950417355450366,-0.463183978750001,1.84e-05,2.565895986527428e-06,0.0,225,4,83.57111626543563,601.43706,mp-1184246,ErThRu2,https://materialsproject.org/materials/mp-1184246,20.530129587315272,54.42440536647642,-8.604250342815693,-0.5045126942092143
-8.083313090227273,-355.66577597,8.504321020720758,-0.4412401039935064,6e-07,1.24212306643575e-08,0.0,2,44,562.9425177330048,2883.0661440000003,mp-1220216,Ni15Mo17P12,https://materialsproject.org/materials/mp-1220216,53.13946019948615,57.34631283987206,-8.604250342815693,-0.5045126942092143
-4.68625611625,-37.49004893,7.155399786036176,0.029418361874999913,0.53948445,0.022577236551950902,0.0,194,8,278.47459141519533,1199.97,mp-1186267,Nd3Er,https://materialsproject.org/materials/mp-1186267,-52.97551505117197,68.02069726231844,-8.604250342815693,-0.5045126942092143
-8.622766741875,-137.96426787,8.830896643255135,-0.3945825049107139,5e-08,2.7516424316254278e-09,0.0,12,16,211.7656102154868,1126.188648,mp-1209867,NiMo2P,https://materialsproject.org/materials/mp-1209867,53.0997948238203,57.22877702159631,-8.604250342815693,-0.5045126942092143
-8.24181119,-49.45086714,7.864062752447638,-0.32443914333333385,0.00033130000000000003,4.4577185382716085e-05,0.0,166,6,86.61362591649963,410.18908500000003,mp-1215478,Zr2VCo3,https://materialsproject.org/materials/mp-1215478,61.67688282445898,64.32431085564049,-8.604250342815693,-0.5045126942092143
-5.879674099999999,-23.518696399999996,0.9668364898176576,3.5763762537499995,0.9999998999999999,0.01574594169847944,0.0,71,4,740.1312560606411,430.935912,mp-1247730,ScRu2W,https://materialsproject.org/materials/mp-1247730,-65.70027028005335,42.6518986896152,-8.604250342815693,-0.5045126942092143
-7.482091689600001,-187.05229224,6.696075872399557,-2.2960187367,1.8015667000000002,0.055395497324150736,0.0,183,25,379.01230294999425,1528.3562,mp-765995,Ba(WO3)6,https://materialsproject.org/materials/mp-765995,-17.373913668290154,0.4378666678321767,-8.604250342815693,-0.5045126942092143
-9.978929897857142,-279.41003714,12.48887843215565,-0.3963530791071414,0.0039176,0.00011934322659144382,0.0,44,28,382.5601624571218,2877.2267600000005,mp-1218112,Ta6V3Ni3C2,https://materialsproject.org/materials/mp-1218112,21.74189460073723,42.267255413418425,-8.604250342815693,-0.5045126942092143
-9.132792853333337,-164.39027136,5.891312702405192,-0.4037879366133331,1.40000525,0.08910042121985498,0.0,15,18,183.1164392047549,649.6662699999998,mp-1246904,Mn3(CrN2)2,https://materialsproject.org/materials/mp-1246904,-0.4792985990378858,15.416399617258213,-8.604250342815693,-0.5045126942092143
-5.669788614375,-90.71661783,10.818494765381349,-0.730022993125,0.001160325,3.160593733540041e-05,0.0,62,16,427.8469125506482,2787.4439999999995,mp-1189835,Er3Pt,https://materialsproject.org/materials/mp-1189835,-33.76458778066019,71.34527347969174,-8.604250342815693,-0.5045126942092143
-9.384358416875,-150.14973467,10.885870146173348,-0.7182221081249995,5.68e-05,2.100901987955072e-06,0.0,193,16,315.07937203948535,2065.542000000001,mp-1188697,Zr5Ir3,https://materialsproject.org/materials/mp-1188697,26.407520402688824,58.049978889845256,-8.604250342815693,-0.5045126942092143
-5.6073906425,-22.42956257,0.5680109496377942,3.636788960000001,7.1611047999999995,0.11163150816313762,0.0,71,4,747.6023620528897,255.72799999999998,mp-1096497,V2FeTc,https://materialsproject.org/materials/mp-1096497,-57.22531638560017,35.543354412221774,-8.604250342815693,-0.5045126942092143