energy_per_atom,energy,density,formation_energy_per_atom,total_magnetization_uB,total_magnetization_T,band_gap,sgr,num_sites,cell_volume,weight,mp_id,formula,URL,tsne_cry_lin1_0,tsne_cry_lin1_1,tsne_cry_lin2_0,tsne_cry_lin2_1
-5.617498594107143,-314.57992127,4.686757968360242,-1.6588702922321426,44.0000007,1.0176268546503011,0.03799999999999981,2,56,503.8967434941404,1422.214125,mp-766887,Li13Co15O28,https://materialsproject.org/materials/mp-766887,-76.96182762924063,-35.77577987217132,-4.639709946700878,-0.7311375947532887
-8.441691887500001,-202.6006053,12.89332361792446,-0.35775836736111205,2.50097345,0.09854604975486993,0.0,194,24,295.76534679221606,2296.4821899999997,mp-505344,U3Co7B2,https://materialsproject.org/materials/mp-505344,42.618968103725415,83.76656961923894,-8.604250342815693,-0.5045126942092143
-4.497190588333333,-26.98314353,10.861044595822262,-0.3744654566666661,3e-07,2.6104304385745284e-08,0.0,186,6,133.93267945791652,876.01,mp-16751,ErCuPb,https://materialsproject.org/materials/mp-16751,-8.22449846742618,57.8418461936681,-8.604250342815693,-0.5045126942092143
-9.070363353928572,-253.97017391,7.168126489958148,-0.23570875232142896,0.396721425,0.015011966371900522,0.0,227,28,307.98211700409337,1329.4808,mp-1193313,V3Fe3C,https://materialsproject.org/materials/mp-1193313,52.754243670105026,52.95199219724813,-8.604250342815693,-0.5045126942092143
-3.9917379125,-47.90085495,11.64045415124112,-0.9472782808333337,2.0300000000000002e-05,8.226607754512879e-07,0.0,6,12,287.57602397316464,2015.921,mp-1215613,Yb7MgPt4,https://materialsproject.org/materials/mp-1215613,3.8427269800270496,64.62264791562734,-8.604250342815693,-0.5045126942092143
-5.7735165684375,-184.75253019,4.16693078997813,-1.8381676050599989,22.0000002,0.8898732086136818,0.0,8,32,288.11905431623325,723.001465,mp-1100669,Li9Mn2Co5O16,https://materialsproject.org/materials/mp-1100669,-84.09775939303219,-43.8966725150049,1.3137245188753528,-1.50954700128359
-7.795669487222222,-140.32205077,9.835568626230575,-0.4126161585185189,0.0010918,7.288624582683266e-05,0.0,137,18,174.57214011146718,1034.0113800000001,mp-505343,U(CoB)4,https://materialsproject.org/materials/mp-505343,8.363972148360405,39.63629111428632,-8.604250342815693,-0.5045126942092143
-4.9659902825,-19.86396113,0.4247186760999199,2.955185440000001,14.6022548,0.2547107480045448,0.0,71,4,668.1132405986427,170.88437199999996,mp-1093898,Mn2BeCr,https://materialsproject.org/materials/mp-1093898,8.610594721598376,23.788104775014787,-6.010289555474817,0.3477022601720938
-7.101140071666666,-42.60684043,10.436205912193849,-0.25484386,1.87845015,0.17946994947354486,0.0,65,6,121.97908220479799,766.6178199999998,mp-1237,UGe2,https://materialsproject.org/materials/mp-1237,25.082838347788336,63.042654255292206,-8.604250342815693,-0.5045126942092143
-5.904169791999999,-118.08339584,4.050771615187516,-1.947131056471,5.000000099999999,0.3310486247931416,0.26180000000000003,2,20,176.0174205967949,429.38248,mp-1174117,Li3MnCoO5,https://materialsproject.org/materials/mp-1174117,-70.64538772881748,-49.17840386462668,3.8363711258695705,4.4127021239670885
-7.423205885000002,-89.07847062,4.84869203626139,-0.6839775216666671,0.02040795,0.0013470545847631536,0.0,62,12,176.5597132182859,515.545648,mp-22701,ScFeSi,https://materialsproject.org/materials/mp-22701,19.01602404069845,73.59006117722714,-8.604250342815693,-0.5045126942092143
-6.618908046891892,-489.79919547,14.323742246339426,-0.8697259152702695,4.715e-05,4.4794675921371433e-07,0.0,225,74,1226.6840706487387,10581.32692,mp-1201436,Ho3Si11Pt23,https://materialsproject.org/materials/mp-1201436,60.47839871266594,43.709318490114185,-8.604250342815693,-0.5045126942092143
-4.5249348216326535,-221.72180626,6.767239506515723,-0.1482403821428573,0.0021248,2.8021222253704866e-05,0.0,148,49,883.7072346285972,3601.395912,mp-1203283,Sc(Ga5Mo)8,https://materialsproject.org/materials/mp-1203283,11.71871300561128,91.58648248231144,-8.604250342815693,-0.5045126942092143
-8.383232472500001,-167.66464945,11.74666480512757,-0.41649402750000064,0.00083295,1.781323413804033e-05,0.0,186,20,544.9461438096558,3854.95284,mp-573601,Th7Ru3,https://materialsproject.org/materials/mp-573601,-31.68278727815265,67.84185164115523,-8.604250342815693,-0.5045126942092143
-7.40347444,-29.61389776,8.4320157191977,-0.4082101137500001,3e-07,5.165553367759707e-08,0.0,225,4,67.68334741422318,343.68782400000003,mp-867802,Sc2CuOs,https://materialsproject.org/materials/mp-867802,-10.47656234051175,55.82316002740339,-8.604250342815693,-0.5045126942092143
-5.397012305,-53.97012305,9.58314831657941,-0.7526693420000001,0.00198715,0.00011090229537122275,0.0,127,10,208.8178133308609,1205.109924,mp-1078810,Sc2SnAu2,https://materialsproject.org/materials/mp-1078810,-10.317577127516245,57.47154811389605,-8.604250342815693,-0.5045126942092143
-7.18676469388889,-129.36176449,4.038088649367418,-1.8808656283222231,15.9999935,0.876010168122154,1.0718,12,18,212.85707334795762,517.624525,mp-1176451,Mn5VO12,https://materialsproject.org/materials/mp-1176451,-77.70021676606036,-15.340884224872765,3.668199180162442,-0.31588931452780544
-5.61526821,-22.46107284,8.235553853718411,-0.3679654162499997,4e-07,5.5296024507459876e-08,0.0,63,4,84.30309322499281,418.1068,mp-999145,SmNi,https://materialsproject.org/materials/mp-999145,2.1946816457053187,58.46914663642456,-8.604250342815693,-0.5045126942092143
-7.317374276111113,-131.71273697,10.998633746028073,-0.3890659655555563,0.00013130000000000002,4.985543064499137e-06,0.0,2,18,306.92317463530213,2032.91552,mp-1224476,Ho3(NiRu2)2,https://materialsproject.org/materials/mp-1224476,42.63204010578504,69.06936648278973,-8.604250342815693,-0.5045126942092143
-7.494715354166666,-89.93658425,6.541108681377867,-0.9110168191666664,1e-07,6.447519034165588e-09,0.0,62,12,180.75270054736512,712.0116,mp-1103272,ZrSiNi,https://materialsproject.org/materials/mp-1103272,44.88803662162736,58.654376336458405,-8.604250342815693,-0.5045126942092143
-9.090064807857145,-254.52181462,10.154378046668274,-0.4776140181547613,0.163338225,0.004957368882921311,0.0,119,28,383.98479091255166,2348.1090400000007,mp-1218255,Ta2Ti2Ni2C,https://materialsproject.org/materials/mp-1218255,22.017755034581768,42.46946954677321,-8.604250342815693,-0.5045126942092143
-7.5563369275,-30.22534771,14.737807171976929,-0.8285470612500001,2.75e-05,3.9957349744256795e-06,0.0,225,4,80.20721676903912,711.86432,mp-984768,DyHoIr2,https://materialsproject.org/materials/mp-984768,16.51431225358799,48.90440300814784,-8.604250342815693,-0.5045126942092143
-7.397654644499999,-147.95309289,6.884247398790548,-2.7109198729419988,7.0,0.3367760076052021,0.0,65,20,242.23356642303082,1004.24968,mp-558858,BaTbMn2O6,https://materialsproject.org/materials/mp-558858,-31.826052574643413,8.850827539515436,-8.604250342815693,-0.5045126942092143
-5.02604563,-20.10418252,0.778979282996649,2.726537586666667,4.9876294,0.07886397065795411,0.0,71,4,737.0432353859743,345.75604500000003,mp-1097537,Ti2MnPt,https://materialsproject.org/materials/mp-1097537,-60.497319850313424,36.17313616848725,-8.604250342815693,-0.5045126942092143
-7.755246944,-77.55246944,8.230443333954295,-0.5455207927499999,0.51104075,0.04602041216376193,0.0,63,10,129.41435597587306,641.44082,mp-1205538,TmFe2SiC,https://materialsproject.org/materials/mp-1205538,18.720498330803565,73.19307961504656,-8.604250342815693,-0.5045126942092143
-6.325998322999999,-63.25998323,7.87054132908268,-0.08936510600000032,1.86360975,0.11321877012718415,0.0,64,10,191.8288700087113,909.22105,mp-569054,La2Co3,https://materialsproject.org/materials/mp-569054,42.46389768794279,81.23083592960015,-8.604250342815693,-0.5045126942092143
-9.156650413214283,-256.38621157,7.782859952942284,-0.3207812958928571,1.5e-07,4.5000108350398454e-09,0.012900000000000134,44,28,388.4678904041961,1820.7287600000002,mp-1220550,Nb6V3Ni3C2,https://materialsproject.org/materials/mp-1220550,22.236199437873807,42.01065761647398,-8.604250342815693,-0.5045126942092143
-6.4427311525,-25.77092461,11.19545463106369,-0.8920504625000003,2.42e-05,4.278038939413266e-06,0.0,225,4,65.9246845318862,444.46820999999994,mp-865195,TmGaRh2,https://materialsproject.org/materials/mp-865195,34.1841254122738,57.59229691154755,-8.604250342815693,-0.5045126942092143
-6.4703809625,-25.88152385,1.0949686168669657,3.907509558125,1.8165714,0.02333944333674441,0.0,71,4,907.0670818549382,598.125045,mp-1096065,Hf2MnRe,https://materialsproject.org/materials/mp-1096065,-61.198761966363094,35.269938898155004,-8.604250342815693,-0.5045126942092143
-9.706434071111113,-87.35790664,10.70911738755446,-0.9643123318253954,1e-07,8.203258155607688e-09,0.0,189,9,142.06629306909056,916.211286,mp-7032,HfMoP,https://materialsproject.org/materials/mp-7032,51.62478456174361,56.68121281597548,-8.604250342815693,-0.5045126942092143
-5.778176635625,-184.90165234,4.226964252778618,-1.8428276722474992,20.0,0.8206306441459179,0.0,2,32,284.0270432427932,723.001465,mp-1175640,Li9Mn2Co5O16,https://materialsproject.org/materials/mp-1175640,-86.85529470824982,-39.97959294596919,1.964343112562135,-0.7609305702671938
-5.3738773475,-21.49550939,13.252641941628267,-0.33906510874999984,1.3e-06,1.677235584196076e-07,0.0,187,4,90.3288980217371,720.9084,mp-1227296,BiSbPt2,https://materialsproject.org/materials/mp-1227296,43.41696743518506,38.71002603273277,-8.604250342815693,-0.5045126942092143
-4.466517409387754,-218.85935306,7.127316322803686,-0.15224981530612214,0.24755729999999998,0.003299168512274723,0.0,148,49,874.4775534762841,3753.4065689999998,mp-1195837,Ga40Mo8Au,https://materialsproject.org/materials/mp-1195837,11.71657497112687,91.59139773995909,-8.604250342815693,-0.5045126942092143
-7.273525681724138,-210.93224477,8.547443448108076,-0.4664820736206899,0.00046369999999999994,1.391688632163285e-05,0.0,225,29,388.3045179894728,1998.75512,mp-672654,Zr6Co16Ge7,https://materialsproject.org/materials/mp-672654,48.73332218712832,49.63320809652698,-8.604250342815693,-0.5045126942092143
-7.609519577777778,-68.4856762,11.542731057578644,-0.8322414511111107,7.2000000000000005e-06,5.537253968563086e-07,0.0,189,9,151.53588193500212,1053.3555,mp-1079842,HfGaRh,https://materialsproject.org/materials/mp-1079842,33.518553738695346,57.20862663940279,-8.604250342815693,-0.5045126942092143
-7.047385144285713,-49.33169601,6.776656782892423,-2.8051563806957147,1.7120834999999999,0.2422133116060927,0.0,71,7,82.37669462807844,336.17914,mp-24149,LiCe2HO3,https://materialsproject.org/materials/mp-24149,-13.748398184721047,35.775859471651714,-8.604250342815693,-0.5045126942092143
-5.198162079558824,-353.47502141,8.31057558181488,-0.5719511497794121,0.0821448,0.00048679755726531974,0.0,186,68,1966.5686600953754,9842.176,mp-1209408,Sm23Mg4Pt7,https://materialsproject.org/materials/mp-1209408,-31.643809941750757,69.06909234384275,-8.604250342815693,-0.5045126942092143
-7.009790161578947,-399.55803921,3.9164237862021674,-1.8784559721452625,19.003373833333328,0.3294059800556926,0.0,5,57,672.3209746021894,1585.6862099999996,mp-758753,LiMn6O12,https://materialsproject.org/materials/mp-758753,-76.39133466255839,-14.742873187295732,-8.604250342815693,-0.5045126942092143
-3.907251595,-23.44350957,9.471429759072867,-0.27455146333333325,1.4e-06,1.306772754320063e-07,0.0,99,6,124.85484279990908,712.1505999999998,mp-1225292,Dy2CuAg3,https://materialsproject.org/materials/mp-1225292,20.451341762227152,59.18914524716516,-8.604250342815693,-0.5045126942092143
-4.899433683636363,-107.78754104,10.114129352915718,-0.8263471486363628,0.63490825,0.012381671580123823,0.0,12,22,597.5979755439873,3639.892276,mp-1190197,Er7(TeAu)2,https://materialsproject.org/materials/mp-1190197,-31.92695479419929,41.5041834154071,-8.604250342815693,-0.5045126942092143
-8.53678136625,-68.29425093,13.20500180402959,-0.9851654175000012,7.05219065,0.4905724574473518,0.0,194,8,167.532207273092,1332.256,mp-1079214,GdSnPt2,https://materialsproject.org/materials/mp-1079214,22.690634924040925,52.25841600461675,-8.604250342815693,-0.5045126942092143
-5.3318158875,-21.32726355,8.497543098579719,0.05792191062499974,6.500000000000001e-05,5.674652901831041e-06,0.0,139,4,133.49084487122602,683.11806,mp-978939,Sm3Th,https://materialsproject.org/materials/mp-978939,-47.804156585460824,69.25505984347993,-8.604250342815693,-0.5045126942092143
-5.7057182825,-45.64574626,10.080104805147064,0.15022599328124994,0.20439145,0.015953865274892846,0.0,194,8,149.3049587804918,906.3380000000001,mp-21349,PuGa3,https://materialsproject.org/materials/mp-21349,40.00145345032796,46.398333801537284,-8.604250342815693,-0.5045126942092143
-4.465764828775511,-218.82247661,6.871838622555663,-0.13464681346938762,0.2396806,0.00319320853436735,0.0,148,49,874.7481434623497,3619.986,mp-1204344,Ga40CuMo8,https://materialsproject.org/materials/mp-1204344,11.724444697193455,91.59983971457319,-8.604250342815693,-0.5045126942092143
-4.494441313333334,-26.96664788,7.965047101622505,-0.6267191163888887,5e-08,3.768715121902017e-09,0.0,186,6,154.6158889117367,741.6404,mp-4808,NdAgSn,https://materialsproject.org/materials/mp-4808,-2.3781729111343397,48.650496809220286,-8.604250342815693,-0.5045126942092143
-7.592926763846153,-296.12414379,8.450605303682018,-0.7988038709829055,0.0007789,1.6927495866694442e-05,0.0,10,39,536.248900772548,2729.010096,mp-1219413,Sc8B8As3Rh20,https://materialsproject.org/materials/mp-1219413,29.791488893032287,50.57927885155616,-8.604250342815693,-0.5045126942092143
-7.475037125833333,-448.50222755,5.616199468090339,-2.7667691525253324,7.000005133333333,0.11785257143685075,0.0,1,60,692.208173631828,2341.154940000001,mp-744199,CaNdMn2O6,https://materialsproject.org/materials/mp-744199,-32.36073767741497,6.379055964031111,-8.604250342815693,-0.5045126942092143
-6.4252106625,-25.70084265,10.916028011137671,-0.8495590937499989,0.0005537999999999999,9.632415234601297e-05,0.0,225,4,67.00314421516633,440.46432,mp-865696,HoGaRh2,https://materialsproject.org/materials/mp-865696,33.649719320786694,57.44080115699028,-8.604250342815693,-0.5045126942092143
-7.5213834760000005,-37.60691738,12.332304380053849,-0.14405132199999998,0.0,0.0,0.0,139,5,90.57231589016745,672.652278,mp-2123,Nb3Au2,https://materialsproject.org/materials/mp-2123,44.92015466756959,57.37819634684267,-8.604250342815693,-0.5045126942092143
-4.86374173,-29.18245038,7.619615396704925,-0.5724799674999991,3.45e-06,2.825335080214591e-07,0.0,194,6,142.3070974727612,652.996,mp-1071618,NdCuSn,https://materialsproject.org/materials/mp-1071618,-7.020550253773254,56.56813646998598,-8.604250342815693,-0.5045126942092143
-8.961379010833333,-107.53654813,7.810328371300415,-0.35202395666666675,0.0,0.0,0.0,124,12,194.92098138040703,916.80884,mp-22396,Nb4SiNi,https://materialsproject.org/materials/mp-22396,47.27584328556132,58.45106439556591,-8.604250342815693,-0.5045126942092143
-6.068645768,-30.34322884,11.518963173976172,-0.8437966114999995,0.0,0.0,0.0,139,5,97.98206340718828,679.69,mp-21070,Nd(GePt)2,https://materialsproject.org/materials/mp-21070,6.898028069866044,66.88197667497465,-8.604250342815693,-0.5045126942092143
-5.57645371875,-89.2232595,6.81824113427714,-0.10401148437499952,6.675e-06,1.6788226958375487e-07,0.0,62,16,463.3656820920377,1902.59842,mp-640095,La3Co,https://materialsproject.org/materials/mp-640095,-28.566721039888087,65.26428698528025,-8.604250342815693,-0.5045126942092143
-5.79343461875,-92.69495390000002,11.305437639836486,-0.9306581612500002,0.00096705,2.6945463645919038e-05,0.0,140,16,418.25457102538047,2847.5999999999995,mp-1212213,Ho5BiPt2,https://materialsproject.org/materials/mp-1212213,-6.0079982574920585,32.17071711288551,-8.604250342815693,-0.5045126942092143
-6.8344178175,-82.01301381,14.63410905073933,-1.0168271516666667,3.3666666666666665e-06,2.022389327602517e-07,0.0,180,12,194.00493695970658,1709.73963,mp-1103146,TmBPt2,https://materialsproject.org/materials/mp-1103146,15.388376989233086,57.548358081621586,-8.604250342815693,-0.5045126942092143
-6.81097217,-27.24388868,1.571087588905963,4.572619652500001,1.0000001,0.014941707037484013,0.0,71,4,779.968842163068,737.95276,mp-1095856,Ta2IrW,https://materialsproject.org/materials/mp-1095856,-57.684023548403005,40.25776631102456,-8.604250342815693,-0.5045126942092143
-8.48034036,-16.96068072,7.645677464561532,0.6789089000000015,1.0579544,0.5166638346653093,0.0,141,2,23.863619391903946,109.87608999999999,mp-1057139,Mn,https://materialsproject.org/materials/mp-1057139,55.9005517709826,69.02872498700827,-8.604250342815693,-0.5045126942092143
-4.90818162,-49.0818162,8.390949685639553,-0.7479397400000003,3.95e-06,1.8950717738898359e-07,0.0,127,10,242.91193867091397,1227.47,mp-1205689,Nd2CdPd2,https://materialsproject.org/materials/mp-1205689,10.159882368341227,35.511461634212864,-8.604250342815693,-0.5045126942092143
-6.549388822749998,-523.95110582,5.562939440086813,-0.3576557407499997,1.125e-06,7.146871660036223e-09,0.0,92,80,1834.4841621324435,6145.6696,mp-582134,Y3Ni2,https://materialsproject.org/materials/mp-582134,-31.13938688407137,73.04318060086334,-8.604250342815693,-0.5045126942092143
-6.908657962142858,-193.44242294,5.6388462945955755,-1.0043163107142854,0.013156225,0.0003142470175212547,0.0,62,28,487.90756877111437,1656.832944,mp-1194390,Sc3Si3Pt,https://materialsproject.org/materials/mp-1194390,14.862951572792575,74.83027357542753,-8.604250342815693,-0.5045126942092143
-7.162838829999999,-42.97703298,10.302989022770852,-0.5482256883333333,2.4e-06,1.6867046592128789e-07,0.0,97,6,165.8248544069101,1028.87774,mp-1217280,Th4SiGe,https://materialsproject.org/materials/mp-1217280,2.016630080381223,71.42498480144387,-8.604250342815693,-0.5045126942092143
-4.5841545075,-18.33661803,9.310629494482226,-0.26360282999999995,1.4999999999999999e-05,2.1376395459962508e-06,0.0,225,4,81.77757186229657,458.52620999999994,mp-1184109,DyTmCu2,https://materialsproject.org/materials/mp-1184109,-12.39307457415518,58.01094872265116,-8.604250342815693,-0.5045126942092143
-6.982536041176472,-237.4062254,4.816313570290607,-1.1817522413235302,7.499999999999999e-06,1.48605192051276e-07,0.0,1,34,588.172489720538,1705.9660000000001,mp-675383,Li3(Mo3S4)2,https://materialsproject.org/materials/mp-675383,67.13952447623099,33.20088218481395,-8.604250342815693,-0.5045126942092143
-6.5986081528571425,-92.38051414,12.659692067457373,-1.095379250357143,3.75e-06,1.3733137008789065e-07,0.0,148,14,318.22840527353327,2426.124,mp-1103688,Nd3Pt4,https://materialsproject.org/materials/mp-1103688,22.482676363411557,54.019800225981854,-8.604250342815693,-0.5045126942092143
-8.569403282,-85.69403282,6.994470118797669,-0.7660743879999998,14.124487,0.7161503658117718,0.0,127,10,229.85073280049363,968.17,mp-19945,Gd2MgGe2,https://materialsproject.org/materials/mp-19945,-1.2458947888076468,68.46191544978078,-8.604250342815693,-0.5045126942092143
-7.96553624,-63.72428992,6.818052773139119,-0.4013991005949995,2.0072086,0.25582104442104786,0.0,194,8,91.43946343186084,375.4438,mp-10371,Cr2GaN,https://materialsproject.org/materials/mp-10371,-1.0342874797097803,15.639158277253232,-8.604250342815693,-0.5045126942092143
-10.27573738,-41.10294952,14.901879965854885,-0.4101605893749998,0.03457059999999999,0.006004724982186162,0.0,225,4,67.09516469471535,602.120195,mp-864877,Hf2CoRe,https://materialsproject.org/materials/mp-864877,64.1192863700866,56.68935184184738,-8.604250342815693,-0.5045126942092143
-9.223278318666669,-276.69834956,12.148304868665535,-0.4622425720000005,0.0054224,0.00012137473433031001,0.0,136,30,520.6437828383116,3808.9676,mp-1192954,Nb2Pt,https://materialsproject.org/materials/mp-1192954,46.44437200360997,57.61699198006713,-8.604250342815693,-0.5045126942092143
-6.444968059333331,-96.67452089,4.242855045946815,-1.964539316192,11.0000006,0.8791775086656719,0.0,166,15,145.81210077263762,372.56552999999997,mp-753150,Li3Mn3CoO8,https://materialsproject.org/materials/mp-753150,-71.68111760077616,-35.953495487580476,-8.604250342815693,-0.5045126942092143