energy_per_atom,energy,density,formation_energy_per_atom,total_magnetization_uB,total_magnetization_T,band_gap,sgr,num_sites,cell_volume,weight,mp_id,formula,URL,tsne_cry_lin1_0,tsne_cry_lin1_1,tsne_cry_lin2_0,tsne_cry_lin2_1
-5.826045420714286,-81.56463589,4.587043821131039,-0.6803924231628571,1.5025177,0.06647713001418949,0.0,176,14,263.40545378508097,727.6265900000002,mp-1246731,Sr3CoN3,https://materialsproject.org/materials/mp-1246731,5.047493719339519,7.375711079073086,-8.604250342815693,-0.5045126942092143
-6.16528352375,-98.64453638,7.391530865160358,-1.9671035125000005,6.1503804,0.3009273574141348,0.08960000000000079,123,16,238.186824133906,1060.2372,mp-20041,Sr2EuCu3(PbO4)2,https://materialsproject.org/materials/mp-20041,-46.58394201853423,-4.8364148989347315,-8.604250342815693,-0.5045126942092143
-6.316957388846153,-164.24089211,4.816599434951381,-2.2766954935576917,2.6132473999999997,0.08953719715289774,0.0,8,26,340.13745610460603,986.6108772,mvc-883,Sr2AlCrCu2O7,https://materialsproject.org/materials/mvc-883,-48.71747273580106,-4.866737788294417,-8.604250342815693,-0.5045126942092143
-7.0292307507142855,-196.81846102,6.47608174434256,-2.6895226067857143,0.00013435,3.99859922909301e-06,0.0,140,28,391.5680248226685,1527.11046,mp-1228503,Ba2PrNb(CuO4)2,https://materialsproject.org/materials/mp-1228503,-47.568081467666474,-6.315150998545748,-11.32636909138193,-0.30135545402244074
-6.048257212692307,-157.25468753,6.412511110996813,-2.17311906721154,1.39e-05,4.4896267357705403e-07,0.0,25,26,360.81284675167467,1393.3526000000004,mp-1228286,Ba3SrNd2(Cu3O7)2,https://materialsproject.org/materials/mp-1228286,-46.92160419698351,0.7991359692762117,-8.604250342815693,-0.5045126942092143
-5.8874784447619035,-123.63704734,4.665356563301025,-2.6224079856209515,0.0006822,2.4240428893507926e-05,0.0,139,21,327.9811187651676,921.4772,mp-1214003,Ca4Sm2Cu3(ClO2)4,https://materialsproject.org/materials/mp-1214003,-45.26068484542815,-3.8882931156443727,-8.604250342815693,-0.5045126942092143
-3.08854825925,-123.54193037,2.9640537093101464,-0.10278094402200004,0.0,0.0,0.6413,140,40,473.58396507394656,845.34496,mp-1147650,KCuH3,https://materialsproject.org/materials/mp-1147650,-43.81596895314313,-1.4352241878986665,-8.604250342815693,-0.5045126942092143
-6.043946909375,-96.70315055,7.243717604994825,-2.0546523050000003,2.6e-06,1.2053625860069694e-07,0.0,10,16,251.38135827686955,1096.59305,mp-1228504,Ba2YCu3(PbO4)2,https://materialsproject.org/materials/mp-1228504,-47.563726059002065,-3.880749838243528,-8.604250342815693,-0.5045126942092143
-6.696508699722222,-241.07431319,4.141359868082965,-2.7358716658011097,4.000001425,0.10204930717713913,0.0,62,36,456.8014912278009,1139.25618,mp-630403,Ca2MnGaO5,https://materialsproject.org/materials/mp-630403,-32.420763169414414,-10.978231904377964,-8.604250342815693,-0.5045126942092143
-6.603405037777778,-118.86129068,6.700658910631394,-2.429785651666666,0.000178,9.113388333065615e-06,0.0,6,18,227.62373923967513,918.51441,mp-1218269,SrLa3(Cu2O5)2,https://materialsproject.org/materials/mp-1218269,-44.92583526669729,0.5682161722351594,-8.604250342815693,-0.5045126942092143
-5.524834425347222,-795.57615725,5.7010809413733075,-1.8448663429861107,0.00168685,8.988276730213854e-06,0.0,1,144,2187.144405057118,7509.06,mp-1099795,Ba7Sr(Cu2O5)4,https://materialsproject.org/materials/mp-1099795,-49.10613931303292,1.3068790020045071,-8.604250342815693,-0.5045126942092143
-5.973486406666668,-89.60229609999999,8.022998635653995,-1.9368275506666672,6.991472999999999,0.3617733010653492,0.0,139,15,225.22137194111016,1088.1712,mp-1214767,Ba2GdCu2(HgO4)2,https://materialsproject.org/materials/mp-1214767,-47.554530525017825,-3.454497559663308,-8.604250342815693,-0.5045126942092143
-5.8443230208333325,-70.13187625,5.842195610891727,-1.9868866264583336,0.0035711,0.00020852016539826024,0.0,115,12,199.58659935743145,702.19605,mp-1228546,Ba2Pr(CuO2)3,https://materialsproject.org/materials/mp-1228546,-51.20354938318649,-1.1443945990387234,-8.604250342815693,-0.5045126942092143
-6.2943587338461535,-163.65332708,4.981747391402371,-2.2652741270930767,4.00000165,0.1409100548300972,0.0,9,26,330.82293790640693,992.4947672,mvc-808,Sr2MnAlCu2O7,https://materialsproject.org/materials/mvc-808,-48.89009989325334,-4.960103158553097,-8.604250342815693,-0.5045126942092143
-6.108026546153847,-79.40434509999999,6.587975427153574,-2.262954937019232,3.4e-06,2.2215750913122329e-07,0.0,123,13,178.35913078813863,707.61695,mp-9117,Sr2YTlCu2O7,https://materialsproject.org/materials/mp-9117,-46.73098625815716,-2.503326983285646,-8.604250342815693,-0.5045126942092143
-6.510246839615385,-169.26641783,5.309669005555421,-2.406722792019231,4.9750195,0.16580120010694135,0.0,46,26,349.6910725637155,1118.1573,mvc-771,Sr2YFeCu2O7,https://materialsproject.org/materials/mvc-771,-48.223656117447526,-3.7876738759896185,-8.604250342815693,-0.5045126942092143
-5.545212647142856,-77.63297706,4.552814321434694,-0.5898079153057145,0.14666045,0.006444646080807528,0.0,176,14,265.2108994724792,727.1469999999999,mp-1246578,Sr3NiN3,https://materialsproject.org/materials/mp-1246578,5.0566719639347895,7.262275136500674,-8.604250342815693,-0.5045126942092143
-7.20705705,-100.89879870000001,6.831061878334736,-2.778588085535714,0.0006296,3.9951858684283696e-05,0.0,123,14,183.65601557581542,755.51708,mp-1208772,Sr2NdTa(CuO4)2,https://materialsproject.org/materials/mp-1208772,-47.00204424333477,-6.44846707849359,-8.604250342815693,-0.5045126942092143
-7.1473192999999995,-100.0624702,4.7168435454766815,-2.8944550353157155,6.999999799999999,0.4612897155713605,0.0,99,14,176.84862316095771,502.34729000000004,mp-1227690,Ca3NdMn2O8,https://materialsproject.org/materials/mp-1227690,-34.55618967180907,5.10741625177039,-8.604250342815693,-0.5045126942092143
-4.327506770625,-69.24010833,3.351117641023185,-0.3605793312199994,0.0,0.0,0.35639999999999983,57,16,181.23015092281864,365.7388,mp-1246596,Li2CuN,https://materialsproject.org/materials/mp-1246596,8.304826631693677,0.4462979908072025,2.506422746217252,-2.8752432257231897
-5.711002185326088,-525.41220105,4.412874377064656,-2.0012539292391307,2.999977375,0.0300232995760018,0.02870000000000017,13,92,1164.4932814915967,3094.6352,mp-29917,Ca5(CuO2)6,https://materialsproject.org/materials/mp-29917,-52.83412037669466,-3.1201554725001093,-5.231907404860047,-0.7974577626566736
-6.9328289969565216,-159.45506693,6.1732856295424545,-2.6936122713334782,7.799239999999999,0.29888892011468626,0.0,38,23,304.10243411452683,1130.54324,mp-1218561,Sr3Pr3Mn2Cu2O13,https://materialsproject.org/materials/mp-1218561,-43.50614240762136,-2.7915148246318497,-8.604250342815693,-0.5045126942092143
-5.787242882058824,-196.76625799,6.299951207877661,-2.1376319634558825,0.12973515,0.0028605106402679803,0.0,223,34,528.5566220568594,2005.3012,mp-1147655,Ba4Cu3SnO9,https://materialsproject.org/materials/mp-1147655,-49.41236864353011,-1.6760739690635333,-8.604250342815693,-0.5045126942092143
-5.3616096903571435,-150.12507133,6.600443338460639,-1.5749437067857142,0.2645128,0.007728271242459928,0.0,12,28,398.87954338801285,1585.4983,mp-1218860,Sr6Tl3Cu3O16,https://materialsproject.org/materials/mp-1218860,-46.853315456178656,-2.749546440684981,-8.604250342815693,-0.5045126942092143
-7.023003966428571,-196.64411106,6.203764353671898,-2.7224681758928577,0.0,0.0,0.0,140,28,360.596687081232,1347.18716,mp-18490,Sr2SmNb(CuO4)2,https://materialsproject.org/materials/mp-18490,-46.90620656574914,-6.343091740554132,-8.604250342815693,-0.5045126942092143
-5.616598536969698,-185.34775172,5.612451646765237,-2.037331164507576,5.14e-05,1.3667712251915397e-06,0.0,12,33,438.2730030225956,1481.3178,mp-766079,Sr8Cu8O17,https://materialsproject.org/materials/mp-766079,-46.055696855905886,0.1945389709132908,-8.604250342815693,-0.5045126942092143
-7.511163769722222,-270.40189571,5.750606096076819,-3.0700015434722223,1.9997728,0.0465098398630805,0.11070000000000002,26,36,501.0871207084706,1735.3128000000004,mp-1227594,BaSrY4(CuO5)2,https://materialsproject.org/materials/mp-1227594,-46.867689917588905,-7.523513225512732,-8.604250342815693,-0.5045126942092143
-7.355340654285714,-51.48738458,7.0861650467921695,-2.9931772000000003,0.0,0.0,0.0,139,7,97.48997757683266,416.0276,mp-4158,Nd2CuO4,https://materialsproject.org/materials/mp-4158,-43.09412278482338,-2.5956109943437724,-8.604250342815693,-0.5045126942092143
-6.836380533461537,-177.74589387,5.664283443736878,-2.470599155096155,8.190000000000001e-05,2.616117688682811e-06,0.0,1,26,364.8413483084562,1244.5144372000002,mp-1251503,Sr2TaAlCu2O7,https://materialsproject.org/materials/mp-1251503,-47.58439911316469,-4.439433510552988,-8.604250342815693,-0.5045126942092143
-5.55313544,-22.21254176,6.156722828415079,-1.933956361875,1e-07,1.8555003444825603e-08,0.0,123,4,62.80820592253588,232.8718,mp-752398,BaCuO2,https://materialsproject.org/materials/mp-752398,-46.93638745387147,-0.31725671650884063,-8.604250342815693,-0.5045126942092143
-5.684517145692308,-369.49361447,6.965877168824862,-2.056471591173077,1.3688589,0.018323368182550516,0.0,6,65,870.6243375214584,3652.225,mp-1228720,Ba8Sr2Yb5(Cu3O7)5,https://materialsproject.org/materials/mp-1228720,-49.408706897485345,-0.6507710261852205,-8.604250342815693,-0.5045126942092143
-6.754538160384616,-175.61799217,4.8569806290088495,-2.522523768942308,1.30367595,0.04009473238225678,0.021399999999999864,46,26,378.9306739568547,1108.3503,mvc-1257,Sr2YVCu2O7,https://materialsproject.org/materials/mvc-1257,-45.13946310745936,-3.551815207280528,-8.604250342815693,-0.5045126942092143
-7.5251900519444455,-270.90684187,5.988231997771544,-3.070664475694445,1.0118722,0.02317828049070808,0.0,62,36,508.77044848430114,1834.7268,mp-542733,BaY2CuO5,https://materialsproject.org/materials/mp-542733,-46.875204916504785,-7.5426651833957425,-8.604250342815693,-0.5045126942092143
-6.6964043094444445,-120.53527757,4.130751929740612,-2.7357672755233327,4.00000065,0.203575783947688,0.0,46,18,228.9872879839169,569.62809,mp-21470,Ca2MnGaO5,https://materialsproject.org/materials/mp-21470,-32.36541557808802,-11.030017301123474,-8.604250342815693,-0.5045126942092143
-6.88039244074074,-371.5411918,6.8381284100571005,-2.526632045046296,0.2438219666666667,0.004021934913576777,0.0,15,54,706.5049667795874,2909.3996399999996,mp-654033,La2Cu2O5,https://materialsproject.org/materials/mp-654033,-42.80099321925878,-4.03822050932191,-8.604250342815693,-0.5045126942092143
-6.444567967,-257.78271868,6.753498210531892,-2.3250838525000006,0.0192148,0.00041866784807519065,0.0,1,40,534.8643914771387,2175.32116,mp-1229252,Ba3La3Pr3Cu9O22,https://materialsproject.org/materials/mp-1229252,-45.366381782197635,0.7156865154086146,-8.604250342815693,-0.5045126942092143
-7.518274037777778,-270.65786536,5.884612353521176,-3.0704301365277784,3.9999586000000003,0.0925462135651684,0.1008,6,36,503.7026888099717,1785.0198,mp-1228408,Ba3SrY8(CuO5)4,https://materialsproject.org/materials/mp-1228408,-46.87357609195319,-7.5446759822740415,-8.604250342815693,-0.5045126942092143
-6.037411907692308,-156.9727096,5.118168956575182,-2.350460413173077,0.0035835,0.00012594240575711392,0.012599999999999945,9,26,331.5987245234013,1022.0646772,mvc-10745,Sr2AlGaCu2O7,https://materialsproject.org/materials/mvc-10745,-48.96828501992008,-5.034443626261921,-8.604250342815693,-0.5045126942092143
-6.990386608088236,-475.34628935,6.8241608265994715,-2.6253964085661767,0.8103551999999999,0.01043271591075025,0.0,15,68,905.2227694467548,3720.10872,mp-1181551,La8Cu7O19,https://materialsproject.org/materials/mp-1181551,-42.73656327751125,-4.035715598313152,-8.604250342815693,-0.5045126942092143
-5.9335619260714285,-166.13973393,6.549635065418014,-2.046604649151786,1.0486559,0.03175978222978098,0.0,44,28,384.79809761627433,1517.7524,mp-1228702,Ba4Nd2Cu6NiO15,https://materialsproject.org/materials/mp-1228702,-47.00898368231619,0.8196331501007252,-8.604250342815693,-0.5045126942092143
-5.990883599230768,-155.76297358,4.817038905394247,-0.5789537064830768,8.25e-06,2.1789536794586207e-07,0.0,15,26,441.2486381881497,1280.01318,mp-1246638,Sr5(CoN3)2,https://materialsproject.org/materials/mp-1246638,3.9328038952338975,7.7275652949694775,-8.604250342815693,-0.5045126942092143
-6.881486897962962,-371.60029249,6.830836821083351,-2.5277265022685187,0.21590936666666669,0.003557708411102601,0.0,2,54,707.2591267691467,2909.3996399999996,mp-1178323,La2Cu2O5,https://materialsproject.org/materials/mp-1178323,-42.80006898505953,-4.039741935206885,-8.604250342815693,-0.5045126942092143
-6.69981943,-53.59855544,3.2249616666967964,-1.48892815512625,7.6e-06,7.97381599802302e-07,0.0,123,8,111.07717094727717,215.7249,mp-1147632,Ca2CuC(NO)2,https://materialsproject.org/materials/mp-1147632,-46.313332230170786,-4.78285116679528,-8.604250342815693,-0.5045126942092143
-5.4448594916666675,-65.3383139,5.168057528605159,-1.6845455793750002,5e-08,3.451586407479048e-09,0.0,59,12,168.82186039594947,525.4204,mp-753181,SrCu2O3,https://materialsproject.org/materials/mp-753181,-51.38782211790385,-0.12363954805215012,-8.604250342815693,-0.5045126942092143
-6.0084169934615375,-156.21884183,5.372564419991523,-2.2461786685576928,0.0001099,3.69976927197963e-06,0.0,1,26,346.17880855554114,1120.0386772,mp-1266881,Sr2AlCu2SnO7,https://materialsproject.org/materials/mp-1266881,-48.978997503495904,-5.023069119461245,-8.604250342815693,-0.5045126942092143
-5.640595548235294,-191.78024864,6.589546891439919,-2.009097895220588,0.0011247,2.3834710081291214e-05,0.0,223,34,549.9259946940297,2182.2812,mp-1023127,Ba4Cu3PbO9,https://materialsproject.org/materials/mp-1023127,-49.76658543484872,-1.9751805179651607,-7.584607511263433,-3.3960956873167856
-7.00397609375,-168.09542625,4.429748089567325,-2.9719744055208346,0.9999995,0.0306981306687345,0.18049999999999988,113,24,379.6341565969279,1012.7336,mp-11613,Ba2CuSi2O7,https://materialsproject.org/materials/mp-11613,-53.90774925227245,-19.57670466484541,-5.5036856926273225,-3.576884181875841
-6.287314583,-251.49258332,5.600020061398309,-2.2620951868125005,3.8134736000000005,0.08771800957044303,0.0,10,40,506.6515822746334,1708.63735,mp-1218669,Sr6Y3Fe(Cu4O11)2,https://materialsproject.org/materials/mp-1218669,-47.75166518732392,0.8366188640012646,-8.604250342815693,-0.5045126942092143
-6.220383914615384,-161.72998178,6.6213181726392065,-2.208109996346155,3e-07,9.721997272354997e-09,0.0,47,26,359.61946232073007,1433.96501,mp-1228501,Ba3La3(Cu3O7)2,https://materialsproject.org/materials/mp-1228501,-46.56978515000132,0.7133210191331905,-8.604250342815693,-0.5045126942092143
-5.64248057,-22.56992228,5.599886547045962,-2.083436566875,2e-07,4.291365890752238e-08,0.6403000000000003,123,4,54.31401129264621,183.1648,mp-37514,SrCuO2,https://materialsproject.org/materials/mp-37514,-45.794523072265214,-0.19070690701955528,-8.604250342815693,-0.5045126942092143
-5.587974086315789,-106.17150764,4.650194906480574,-0.6181333588968422,1.6862653000000003,0.055640101911952726,0.0,12,19,353.19570515916234,989.0938,mp-1246821,Sr8Ni3N8,https://materialsproject.org/materials/mp-1246821,5.214032734928455,7.36420740211299,-8.604250342815693,-0.5045126942092143
-6.6592143092307685,-173.13957204,4.542090051867995,-2.597919837532052,1.5e-07,4.887422666729808e-09,0.0,46,26,357.6751664602031,978.3526772,mp-1249417,Sr2TiAlCu2O7,https://materialsproject.org/materials/mp-1249417,-47.62353505433364,-4.455622363767233,-8.604250342815693,-0.5045126942092143
-6.697540472857143,-93.76556662,4.937107635520031,-2.710213714065714,6.0211027,0.3857738845192065,0.0,99,14,181.89494852791282,540.8092899999998,mp-1218411,Sr3CaMn2O8,https://materialsproject.org/materials/mp-1218411,-34.34216136654658,5.116588919404079,-8.604250342815693,-0.5045126942092143
-6.848338898108107,-253.38853923,3.7614522111785913,-2.802958181015945,13.999997500000001,0.3754817972973137,0.0,123,37,434.5267303370316,984.2897344,mp-1247620,Ca8Mn4Al4O21,https://materialsproject.org/materials/mp-1247620,-36.051850174801785,5.989760563864193,-8.604250342815693,-0.5045126942092143
-5.546347654324324,-205.21486321,6.246792357255321,-1.8430226690202696,0.861409,0.01941629961359712,0.0,47,37,517.0355052945146,1945.03915,mvc-12772,Sr6YTl3(Cu2O7)3,https://materialsproject.org/materials/mvc-12772,-47.12368028813475,-3.2563966163528764,-8.604250342815693,-0.5045126942092143
-7.019568414285715,-196.54791559999998,5.667849408375781,-2.8453714247114283,5.0000429,0.16295614459976004,0.024800000000000374,67,28,357.5859257427658,1220.53329,mp-1227616,Ca2Nd2MnNiO8,https://materialsproject.org/materials/mp-1227616,-33.78025338693523,-10.3271375538642,-8.604250342815693,-0.5045126942092143
-6.960857343571428,-97.45200281,6.216128657913929,-2.7948228764971423,3.7374044,0.2317570729655181,0.0,123,14,187.9379662571509,703.534545,mp-1218720,Sr2Pr2MnCuO8,https://materialsproject.org/materials/mp-1218720,-43.55053651806282,-2.8674751763277797,-8.604250342815693,-0.5045126942092143
-7.392585612222222,-133.06654102,4.027624390004816,-3.0500913005233325,4.00000045,0.18596798948997015,0.2991999999999999,46,18,250.66821694645503,607.99379,mvc-6185,Ca2YMnO5,https://materialsproject.org/materials/mvc-6185,-32.63323877012861,-10.82569235241634,-8.604250342815693,-0.5045126942092143
-6.271765586,-250.87062344,6.815844672795175,-2.2368001575000007,0.0061083,0.0001331523590012771,0.0,10,40,534.6245788220966,2194.4188,mp-1228592,Ba4Nd5Cu9O22,https://materialsproject.org/materials/mp-1228592,-46.491031682084206,0.9833727094438468,-8.604250342815693,-0.5045126942092143
-5.442338265555557,-48.98104439,6.821510202937497,-2.001624474861112,1.05e-05,9.60856225233575e-07,0.0,123,9,127.35274737084663,523.1663,mp-620290,Sr2TlCuO5,https://materialsproject.org/materials/mp-620290,-46.84884931838685,-2.823969590864248,-8.604250342815693,-0.5045126942092143
-6.757664531428572,-94.60730344,4.280837148292138,-2.7248747104942845,6.0185321,0.40567696524705454,0.0,99,14,172.89708052912175,445.72529,mp-1218408,SrCa3Mn2O8,https://materialsproject.org/materials/mp-1218408,-35.02702380484273,5.334287533513204,-8.604250342815693,-0.5045126942092143
-7.918958657142857,-55.4327106,5.710750382187773,-3.0704270378571428,7e-07,9.187854143270084e-08,0.0,139,7,88.78945196106798,305.3553,mp-754364,Y2CuO4,https://materialsproject.org/materials/mp-754364,-45.496328386516296,-6.922586243720594,-8.604250342815693,-0.5045126942092143
-5.997518814666666,-89.96278222,7.310563465142072,-2.1348789324999995,1.7e-06,8.787887075395781e-08,0.0,139,15,225.44566109435596,992.53,mp-1208768,Sr2NdCu2(BiO4)2,https://materialsproject.org/materials/mp-1208768,-45.02388318254635,-5.618690055428002,-8.604250342815693,-0.5045126942092143
-6.582212473461539,-171.13752431,5.4631563231832265,-2.3552644112500003,1.39529845,0.04464330872703685,0.0,8,26,364.2404422301304,1198.3473,mvc-848,Sr2YCu2MoO7,https://materialsproject.org/materials/mvc-848,-45.03613549462568,-3.5829288186358546,-8.604250342815693,-0.5045126942092143
-6.74983299875,-53.99866399,3.25862297797382,-1.3968539651262493,0.010093600000000001,0.0010934411833495152,0.0,123,8,107.57914552657556,211.112095,mp-1147777,Ca2CoC(NO)2,https://materialsproject.org/materials/mp-1147777,2.8998216592049424,5.320760729225473,-6.139678419248019,-3.789396706928649
-5.476698006875,-87.62716811,5.577324256961418,-1.5759689606249996,1e-07,6.640855926611254e-09,0.0,223,16,175.490402161256,589.4272,mp-1147653,CaCu3O4,https://materialsproject.org/materials/mp-1147653,-51.527188848299645,-0.03276112580291461,-8.604250342815693,-0.5045126942092143
-6.640510651666666,-119.52919173,4.608776598283863,-2.7152337771900004,4.00000045,0.19464374695725528,0.0,5,18,239.4953090622792,664.7120900000001,mp-1218355,SrCaMnGaO5,https://materialsproject.org/materials/mp-1218355,-32.14504208877772,-11.225416369089112,-3.0464609553706783,-0.4637302844720716