energy_per_atom,energy,density,formation_energy_per_atom,total_magnetization_uB,total_magnetization_T,band_gap,sgr,num_sites,cell_volume,weight,mp_id,formula,URL,tsne_cry_lin1_0,tsne_cry_lin1_1,tsne_cry_lin2_0,tsne_cry_lin2_1
-7.96955326,-31.87821304,16.542449799565947,-0.7308761562499989,1.2e-06,2.2172748914175643e-07,0.0,225,4,63.0723677122899,628.3330000000002,mp-864798,HfZnIr2,https://materialsproject.org/materials/mp-864798,40.24787106818149,51.10672412580474,-8.604250342815693,-0.5045126942092143
-9.104906724285714,-127.46869414,7.70860440401919,-0.026653142499999456,3.2388001,0.2924081699671959,0.0,5,14,129.08389719414234,599.2371599999999,mp-1221861,Mn4FeC2,https://materialsproject.org/materials/mp-1221861,58.87657020215598,69.15929785773811,-8.604250342815693,-0.5045126942092143
-6.938103422352941,-117.94775818,10.4064632212532,-0.8948414635294112,0.0020908000000000003,8.329603167601707e-05,0.0,189,17,292.5267643150333,1833.2414600000002,mp-1105133,Ho3Si2(SnRh3)3,https://materialsproject.org/materials/mp-1105133,32.550819797875555,54.49240046687768,-8.604250342815693,-0.5045126942092143
-6.287301165,-100.59681864,8.329370486539156,-0.7625294449999993,0.72268445,0.030008779601293882,0.0,63,16,280.65824409795516,1407.7997799999996,mp-1212859,Er3Co2Si3,https://materialsproject.org/materials/mp-1212859,19.91093397143544,70.75550004985003,-8.604250342815693,-0.5045126942092143
-5.5693318575,-22.27732743,0.9378886593341264,3.33143802,3.4665769,0.05108493204763368,0.0,71,4,790.8342071197991,446.67087999999995,mp-1096284,TaGaTc2,https://materialsproject.org/materials/mp-1096284,-61.118909479328565,40.73398434554522,-1.5759642283917368,-0.4385096603951804
-8.399617657352941,-856.76100105,4.546801746338659,-1.7260610247140529,0.00019018823529411765,1.5975559332164575e-06,0.0,1,102,1387.4105857651716,3798.9356,mp-1245186,Ti2O,https://materialsproject.org/materials/mp-1245186,-6.374804294163117,19.667855956391772,-8.604250342815693,-0.5045126942092143
-8.48716272121212,-280.0763698,6.350343781220782,-0.8611439792655415,5.8399999999999997e-05,1.0675143428311243e-06,0.0,3,33,637.5533849151788,2438.174036000001,mp-1216169,Zr24P8H,https://materialsproject.org/materials/mp-1216169,2.434551964465752,80.05402536629542,-8.604250342815693,-0.5045126942092143
-6.748359825833332,-80.98031791,4.0702750551705815,0.09996879527777837,0.0152937,0.0008285588559829145,0.0,38,12,215.11298699554482,527.28,mp-1094340,MgTi5,https://materialsproject.org/materials/mp-1094340,59.39910104560546,54.200410721704856,-8.604250342815693,-0.5045126942092143
-4.2254523975,-16.90180959,0.6621878502644122,2.0836333312500006,2.9997621,0.03994350345310162,0.0,71,4,875.2217205162327,349.01991200000003,mp-1096611,ZrScPd2,https://materialsproject.org/materials/mp-1096611,-65.65696031485264,38.63208423946415,-6.185370140026198,-1.484098846716411
-7.379820323333332,-44.27892194,10.104791454450908,-0.4042366933333324,0.050254900000000005,0.005267704060669488,0.0,166,6,111.18199750653326,676.5699999999998,mp-1219394,Sm2GeRu3,https://materialsproject.org/materials/mp-1219394,29.48652937216439,64.17122895566361,-8.604250342815693,-0.5045126942092143
-7.5266009325,-30.10640373,6.216163653337572,-0.3261490699999996,1e-07,1.76908420252458e-08,0.0,225,4,65.87625821274479,246.60522400000002,mp-862424,Sc2TcNi,https://materialsproject.org/materials/mp-862424,18.943886274353492,54.38210699120629,-8.604250342815693,-0.5045126942092143
-6.4404187025000015,-77.28502443,8.441412625158648,-0.7359609391666678,1.49e-05,8.759051480366217e-07,0.0,62,12,198.24699683564285,1007.79606,mp-510688,HoCoSi,https://materialsproject.org/materials/mp-510688,20.790556802661836,70.22615402563935,-8.604250342815693,-0.5045126942092143
-2.82892131,-11.31568524,0.3008394044714676,2.10011804375,2.0038297,0.01976884188389216,0.05859999999999976,71,4,1181.2913095332565,214.014224,mp-1093910,Sc2ZnNi,https://materialsproject.org/materials/mp-1093910,-67.68525341241846,44.3022367254309,-8.604250342815693,-0.5045126942092143
-3.1349510364285718,-43.88931451,10.253677744724733,-0.40873468404761937,3.0299999999999998e-05,1.0623546458525494e-06,0.0,11,14,332.39197850467167,2052.490276,mp-1104570,Yb(In2Au)2,https://materialsproject.org/materials/mp-1104570,-15.721067316908714,51.36160692396724,-8.604250342815693,-0.5045126942092143
-5.0587077975,-20.23483119,0.5229916169059248,3.0475618425000004,6.0000005,0.09377124447901077,0.0,71,4,745.6912281679489,234.8576286,mp-1093791,Mn2AlTc,https://materialsproject.org/materials/mp-1093791,8.53371245277491,24.57466494346912,-8.604250342815693,-0.5045126942092143
-5.189240731875,-83.02785171,6.816756921509893,-0.1569155206249997,0.0,0.0,0.03819999999999979,62,16,469.08560940279887,1925.6654,mp-1106122,Pr3Ni,https://materialsproject.org/materials/mp-1106122,-28.85367681362512,66.87693858622372,-8.604250342815693,-0.5045126942092143
-9.172596201666666,-55.03557721,14.768931635628336,-0.05260507416666608,7.000000000000001e-06,6.985096162907321e-07,0.0,227,6,116.78930612454651,1038.7309400000001,mp-1768,LaOs2,https://materialsproject.org/materials/mp-1768,29.570755061876373,63.955076564449435,-8.604250342815693,-0.5045126942092143
-6.2752432888888885,-112.95437920000002,8.700656067566218,0.01846936111111101,0.0,0.0,0.0,180,18,381.7348646417026,2000.16,mp-30047,Sn2Mo,https://materialsproject.org/materials/mp-30047,42.972070584677105,42.24432703716186,-8.604250342815693,-0.5045126942092143
-6.754734807999999,-135.09469616,4.708754549637526,-2.233244360750001,5e-07,1.77598756434366e-08,2.1382,15,20,328.10096778089235,930.3888,mvc-8404,CaGe2WO6,https://materialsproject.org/materials/mvc-8404,-14.615884032838288,-20.496099241503753,4.68182056447501,-1.0253042946367674
-7.5885917175,-30.35436687,15.496761570399025,-0.8806956212500001,0.0151262,0.0022712339017688142,0.0,225,4,77.61495389154152,724.33132,mp-1184847,HoLuIr2,https://materialsproject.org/materials/mp-1184847,17.253812970896405,49.66893053293641,-8.604250342815693,-0.5045126942092143
-6.2931092585714286,-88.10352962,5.9282759147486015,-0.1632409685714283,0.0016822,4.434675036649163e-05,0.0,176,14,442.07225103043936,1578.23828,mp-1104504,Nb3Te4,https://materialsproject.org/materials/mp-1104504,57.893767705017964,32.839496920624306,-8.604250342815693,-0.5045126942092143
-8.20506789625,-65.64054317,19.13450618313611,-0.4272322984374997,0.0028937,0.0002363002416338211,0.0,194,8,142.7140615650104,1644.504,mp-1186410,NpPt3,https://materialsproject.org/materials/mp-1186410,63.283642171120434,43.094691058299595,-8.604250342815693,-0.5045126942092143
-5.5945741325,-22.37829653,9.349941735660403,-0.3974841362500001,4.2650751,0.8399932912115089,0.0,225,4,59.17364102223021,333.187045,mp-1186001,MnZnPd2,https://materialsproject.org/materials/mp-1186001,47.927578087377434,42.468561691670736,-8.604250342815693,-0.5045126942092143
-5.449443405,-54.49443405,11.353582182916675,-0.8466209310000004,4.1e-06,2.1552535749638033e-07,0.0,127,10,221.6985793344397,1515.81684,mp-581968,Tm2Pd2Pb,https://materialsproject.org/materials/mp-581968,9.69066087155889,52.38021686856865,-8.604250342815693,-0.5045126942092143
-7.4349078355555545,-267.65668208,4.440390353804142,-0.8191901405022214,2.375e-06,5.0261929708048675e-08,0.0,52,36,550.6832705310359,1472.5632,mp-1246761,Ca3(MoN2)2,https://materialsproject.org/materials/mp-1246761,-8.27235680921247,33.90924181458253,-8.604250342815693,-0.5045126942092143
-8.25224545,-49.5134727,10.25859434889086,-0.23115633500000024,0.044845300000000005,0.0050505334828754465,0.0,166,6,103.48016357418928,639.2869999999999,mp-1226857,Ce2FeRu3,https://materialsproject.org/materials/mp-1226857,29.636330668342424,64.51553559314289,-8.604250342815693,-0.5045126942092143
-7.221328575,-28.885314299999997,10.00046945407018,-0.2121556856250004,2.5e-06,3.4678395569709704e-07,0.0,225,4,84.01531112600759,505.97579,mp-973101,LaHoRu2,https://materialsproject.org/materials/mp-973101,15.092016650867205,52.146828061995315,-8.604250342815693,-0.5045126942092143
-9.418553016666666,-113.0226362,11.64010797419659,-0.8435255640476195,0.0,0.0,0.0,62,12,152.79478975155902,1071.066568,mp-21336,TaFeP,https://materialsproject.org/materials/mp-21336,44.9852849031678,62.11269303253662,-8.604250342815693,-0.5045126942092143
-9.782369938392858,-547.81271655,12.802447399360476,-0.3818530077566972,0.003041,3.138368022495243e-05,0.0,15,56,1129.2496838906898,8706.305199999999,mp-1208493,Ta20Te5S3,https://materialsproject.org/materials/mp-1208493,39.23992733970663,66.27315555927086,-8.604250342815693,-0.5045126942092143
-10.448015390833334,-125.37618469,16.208344321257727,-0.1495526275000003,5e-06,2.4959950596194786e-07,0.0,164,12,233.45528525077262,2278.73212,mp-1225636,DyThRe4,https://materialsproject.org/materials/mp-1225636,66.9712868644574,59.894885076611345,-8.604250342815693,-0.5045126942092143
-5.899013127142857,-82.58618378,11.420170994958005,-1.0004168042857142,1.55e-06,6.53451737022493e-08,0.0,148,14,276.4366421271864,1901.1620000000007,mp-1103963,Lu3Pd4,https://materialsproject.org/materials/mp-1103963,17.326130865715562,54.22898008824092,-8.604250342815693,-0.5045126942092143
-9.105873931875,-145.69398291,12.807466372559354,-0.4951210307031246,16.10363115,0.5725375152459861,0.0,63,16,327.7912023195159,2528.2,mp-582399,Pu3Pd5,https://materialsproject.org/materials/mp-582399,21.814103976685352,55.593967486606495,-8.604250342815693,-0.5045126942092143
-7.235273011470588,-491.99856478,6.07281973743987,-0.49304846097885996,7e-07,5.0750105164177005e-09,0.0,167,68,1607.4538790414497,5878.6799999999985,mp-568488,Mo15Se19,https://materialsproject.org/materials/mp-568488,63.125212219415005,32.52494293019475,-8.604250342815693,-0.5045126942092143
-6.863394323333334,-82.36073188,8.30022490392237,-0.16078249999999986,0.0,0.0,0.0,62,12,193.03343312517367,964.88,mp-13688,Ge2Mo,https://materialsproject.org/materials/mp-13688,48.78696527187786,55.729218440831254,-8.604250342815693,-0.5045126942092143
-4.5293174703125,-144.93815905,8.324282907901239,-0.4368578807291668,0.0,0.0,0.0,62,32,737.1728883055307,3695.448,mp-20846,CaIn2Ir,https://materialsproject.org/materials/mp-20846,-14.458769227651914,51.53999473172975,-8.604250342815693,-0.5045126942092143
-8.006884095,-96.08260914,11.318427194516026,-0.2715673986111113,0.0411657,0.0033741236474039422,0.0,191,12,142.18439640671718,969.14538,mp-1103581,UCo4B,https://materialsproject.org/materials/mp-1103581,42.619524912985504,83.80508745931931,-8.604250342815693,-0.5045126942092143
-5.7733407296875,-184.74690335,4.169581609836103,-1.8379917663099992,22.000000600000003,0.8904393233761214,0.0,8,32,287.93588205049787,723.001465,mp-1100663,Li9Mn2Co5O16,https://materialsproject.org/materials/mp-1100663,-84.04367641623547,-43.85786316690739,1.1850656011695293,-1.6806379603798356
-7.950976545,-174.92148399,8.192721670006204,-0.4831499426727274,0.00010759999999999999,3.469847616007396e-06,0.0,2,22,361.3926339999681,1783.029,mp-1247439,Sr3Re3N5,https://materialsproject.org/materials/mp-1247439,7.00574863191234,10.998805425870195,-8.604250342815693,-0.5045126942092143
-5.6030784725,-22.41231389,0.8466462877788931,3.4770500375,3.4593647000000005,0.05088868289517068,0.0,71,4,792.232339138266,403.9294186,mp-1097350,TaAlTc2,https://materialsproject.org/materials/mp-1097350,-61.196480576813904,40.697865729200096,-0.9708495793193148,0.21691775288473472
-4.55904122,-18.23616488,0.7249238831929642,1.8095610424999995,0.0002904,3.104908908524263e-06,0.0,71,4,1089.996682562866,475.848269,mp-1093857,Y2RuAu,https://materialsproject.org/materials/mp-1093857,-68.72941911709107,40.310526047996866,-4.521881913661281,-0.94054903154994
-5.791048650625,-185.31355682,4.23119824891705,-1.8556996872474996,15.9999997,0.6571620996568721,0.4474999999999998,1,32,283.74282838601886,723.001465,mp-1175969,Li9Mn2Co5O16,https://materialsproject.org/materials/mp-1175969,-89.10559658997107,-37.56662585789253,2.447446496548661,-1.024873666971988
-5.422978649666666,-650.75743796,4.659583089948651,-1.6988532723333332,0.0022086625,6.658751271090423e-06,0.6941999999999999,88,120,3865.574007468297,10847.058,mp-1201999,Y5IrBr9,https://materialsproject.org/materials/mp-1201999,-33.01094899437171,37.4707155906113,3.2398390867282774,-3.5792593733287004
-6.49565156,-25.98260624,11.473353082835786,-0.09520967958333326,1.4376315,0.24617985776005386,0.0,225,4,68.05695141964928,470.23371,mp-646821,UInNi2,https://materialsproject.org/materials/mp-646821,28.246287365886165,71.24607351252227,-8.604250342815693,-0.5045126942092143
-6.1819763275,-74.18371593,8.385802968841142,-0.4225349798611121,5e-08,3.774344432471535e-09,0.0,191,12,154.38528439928731,779.6532,mp-8048,NdNi4B,https://materialsproject.org/materials/mp-8048,30.4064781363257,85.04361933606722,-8.604250342815693,-0.5045126942092143
-10.2241533175,-40.89661327,10.936014760188279,-0.4194774450000017,4e-06,6.59216581021141e-07,0.0,225,4,70.71463375212616,465.714,mp-974943,HfZrTc2,https://materialsproject.org/materials/mp-974943,63.37550105287274,57.80805782401089,-8.604250342815693,-0.5045126942092143
-6.925251049722222,-249.30903779,6.336927185452787,-1.3188679168055557,0.802813125,0.01924735465109109,0.0,109,36,486.0946518944455,1855.0279999999998,mp-543061,Mo4O5,https://materialsproject.org/materials/mp-543061,-20.38864796627053,-17.785221710493207,-8.604250342815693,-0.5045126942092143
-7.552229300833332,-90.62675161,10.126378264921296,-0.9458592508333332,2.85e-06,1.6344356937251582e-07,0.0,62,12,203.21438603738846,1239.251648,mp-1102855,ScGeIr,https://materialsproject.org/materials/mp-1102855,29.79079642739532,51.34717288709365,-8.604250342815693,-0.5045126942092143
-5.80940223,-11.61880446,10.773926007140496,-0.9366256575000004,3e-07,8.288617644938238e-08,0.0,221,2,42.180971321593155,273.67900000000003,mp-851,ErPd,https://materialsproject.org/materials/mp-851,16.81619894129651,54.11645484517419,-8.604250342815693,-0.5045126942092143
-8.896648525,-71.1731882,5.689355370063399,-0.4925261793587498,0.000105,1.741058331992887e-05,0.0,166,8,70.2835039259194,240.80604,mp-1216447,V4HC3,https://materialsproject.org/materials/mp-1216447,5.146331396345047,21.707260674214677,-8.604250342815693,-0.5045126942092143
-9.41215477,-18.82430954,11.679307766923973,-0.2971467259375,5.0806244000000005,0.9193547379782884,0.0,225,2,64.40378604329935,452.9804,mp-22879,PuBi,https://materialsproject.org/materials/mp-22879,-3.999776213460028,35.126141832011896,-8.604250342815693,-0.5045126942092143
-5.003449785,-20.01379914,10.936745031653347,-0.88765389875,0.0003484,4.855036533658422e-05,0.0,225,4,83.63018771560617,550.81032,mp-1187646,YbHoPd2,https://materialsproject.org/materials/mp-1187646,16.587788320851498,54.3117613389193,-8.604250342815693,-0.5045126942092143
-6.20021765,-49.6017412,13.410478110328429,-1.01258766625,1.55e-06,1.092259190883096e-07,0.0,194,8,165.38016386809133,1335.6067,mp-1078626,TbSnPt2,https://materialsproject.org/materials/mp-1078626,22.68116487990573,52.7921904588572,-8.604250342815693,-0.5045126942092143
-7.937358664583333,-190.49660795,8.952881203796032,-0.07657811708333284,2.3933364333333333,0.092929394803675,0.0,164,24,300.1428974709156,1618.2357899999995,mp-1220660,NbCo3,https://materialsproject.org/materials/mp-1220660,60.315741859196464,65.20529689642777,-8.604250342815693,-0.5045126942092143
-6.768055715,-27.07222286,10.796859901057902,-0.5523727349999996,5.01e-05,7.563655731234098e-06,0.0,225,4,77.19397416439202,501.91685,mp-1187876,YRh2Pb,https://materialsproject.org/materials/mp-1187876,31.040753001669184,56.36086633113799,-8.604250342815693,-0.5045126942092143
-6.349729941666666,-152.3935186,3.2263753747979727,-2.099947499983333,10.000013099999999,0.5343492714737363,0.7898,12,24,218.09854830048835,423.7586522,mp-690617,LiMn3Al2(HO2)6,https://materialsproject.org/materials/mp-690617,-44.19581826216189,-17.321664289747385,-0.4273226308244185,-1.4861010443729794
-5.6769137425,-22.70765497,0.6965171692439671,3.2698286875000004,7.1444508,0.1308965120289988,0.0,71,4,636.089465616319,266.809285,mp-1097654,Mn2CoTc,https://materialsproject.org/materials/mp-1097654,7.128213755210018,23.88882819837693,-8.604250342815693,-0.5045126942092143
-8.4099396625,-67.2795173,6.898752988409412,-0.15597153749999926,2.45e-06,2.804063826554474e-07,0.0,223,8,101.8252809453892,423.0358,mp-7226,V3Ni,https://materialsproject.org/materials/mp-7226,56.52021989190837,54.9334111142564,-8.604250342815693,-0.5045126942092143
-7.67393464,-92.08721568,8.953627737630175,-0.2427796383333328,0.5406263000000001,0.03928925575989319,0.0,194,12,160.36175275126712,864.6706899999998,mp-1220716,Nb2GaCo3,https://materialsproject.org/materials/mp-1220716,45.00025073482459,46.5972416189647,-8.604250342815693,-0.5045126942092143
-6.2071969125,-24.82878765,10.225836427620745,-0.6666760914583332,1.7e-06,2.590391078305075e-07,0.0,225,4,76.48231295760428,470.989,mp-867978,SmInRh2,https://materialsproject.org/materials/mp-867978,31.943561031689267,55.964637943342154,-8.604250342815693,-0.5045126942092143
-7.3968170283333325,-88.76180434,11.36837250415752,-0.9877846733333336,0.0,0.0,0.0,62,12,209.7211952236575,1435.7920000000001,mp-1095610,ZrGePt,https://materialsproject.org/materials/mp-1095610,44.84377695139657,57.471789889607535,-8.604250342815693,-0.5045126942092143
-4.6703815275,-18.68152611,0.7075299653276138,3.146813612291666,2.8954065,0.040884134488088995,0.0,71,4,825.3386140220473,351.664,mp-1097337,Ti2GaRe,https://materialsproject.org/materials/mp-1097337,-58.88146527380693,38.22520423355977,-8.604250342815693,-0.5045126942092143
-6.6926957666666675,-40.15617460000001,9.841825413655362,-0.19257881833333335,4.7532901,0.5887634278077566,0.0,166,6,94.08728207597568,557.644585,mp-1225366,Dy2FeCo3,https://materialsproject.org/materials/mp-1225366,42.60273783533058,74.2475377951351,-8.604250342815693,-0.5045126942092143
-8.812427980833332,-105.74913577,7.824745727857053,-0.07485438166666587,9.245188699999998,0.5949993527907746,0.0,156,12,181.0825968784272,853.2923599999999,mp-1226679,CeZr3Mn8,https://materialsproject.org/materials/mp-1226679,52.92469109409761,60.5873935756097,-8.604250342815693,-0.5045126942092143
-8.19283861,-131.08541776,19.06200699879645,-0.4150030121875004,0.067973675,0.002764857689546346,0.0,194,16,286.51370169033885,3289.008,mp-1105856,NpPt3,https://materialsproject.org/materials/mp-1105856,63.28596172748786,43.09303124886007,-8.604250342815693,-0.5045126942092143
-5.1199037975,-20.47961519,0.6556604662138864,2.7803520766666656,0.0036454,6.591605216218311e-05,0.0,71,4,644.5126236832273,254.48450000000003,mp-1095865,Ti2FeRh,https://materialsproject.org/materials/mp-1095865,-60.11385512038147,36.08113930116342,-8.604250342815693,-0.5045126942092143
-6.425447083333334,-19.27634125,13.803065600858936,0.14539579666666688,3.3e-06,5.504408581344696e-07,0.0,216,3,69.86838491566303,580.774,mp-961715,HfPtPb,https://materialsproject.org/materials/mp-961715,32.67224690534811,39.881945430877145,-8.604250342815693,-0.5045126942092143
-6.041279865,-24.16511946,10.902148282763093,-0.2352709224999998,0.54901,0.09096979571172703,0.0,225,4,70.33321390605471,461.7676,mp-980669,TmLuCo2,https://materialsproject.org/materials/mp-980669,31.198561863452568,59.35418048609279,-8.604250342815693,-0.5045126942092143
-6.46256585642857,-90.47592199,15.567590354965693,-0.6988781492857145,0.00044995,1.9865997828781987e-05,0.0,12,14,263.9558551051516,2474.592,mp-1104762,CeSbPt5,https://materialsproject.org/materials/mp-1104762,24.28241140319921,51.157236801317595,-8.604250342815693,-0.5045126942092143
-4.27227452,-17.08909808,0.8914710289620369,2.7158298225000013,1.9911514,0.03841488536478279,0.02519999999999989,71,4,604.0629086152712,324.295045,mp-1097093,MnCuRh2,https://materialsproject.org/materials/mp-1097093,-63.147391396043936,36.36100574544349,-8.604250342815693,-0.5045126942092143