energy_per_atom,energy,density,formation_energy_per_atom,total_magnetization_uB,total_magnetization_T,band_gap,sgr,num_sites,cell_volume,weight,mp_id,formula,URL,tsne_cry_lin1_0,tsne_cry_lin1_1,tsne_cry_lin2_0,tsne_cry_lin2_1
-6.7299199925,-80.75903991,15.342764106641024,-0.7847636981944449,1.15e-06,6.619230904079693e-08,0.0,191,12,202.47328855355926,1870.7779999999998,mp-1209829,NdBPt4,https://materialsproject.org/materials/mp-1209829,24.042128392989078,51.75449590203036,-8.604250342815693,-0.5045126942092143
-7.860982061666667,-47.16589237,6.877380212697242,-0.06530009833333376,3.26320275,0.3925938485830917,0.0,227,6,96.86747857040363,401.1917,mp-1570,YFe2,https://materialsproject.org/materials/mp-1570,42.78464708063923,69.62466531304297,-8.604250342815693,-0.5045126942092143
-9.87437547,-39.49750188,14.561899703870045,-0.7797570887499994,6.6475542,0.9582899660252542,0.0,225,4,80.84299113266475,708.943,mp-1184499,GdErIr2,https://materialsproject.org/materials/mp-1184499,16.347584820682684,49.043037787776015,-8.604250342815693,-0.5045126942092143
-6.673075839642857,-186.84612351,6.504596425213247,-0.3826219593719214,0.0,0.0,0.0,148,28,817.809647563244,3203.4909038,mp-18193,CsTe7Mo6,https://materialsproject.org/materials/mp-18193,58.89729929164818,32.820594416350204,-8.604250342815693,-0.5045126942092143
-5.279368968333333,-95.02864143,8.53819850407315,-0.2776528049999993,0.00011275,2.960340341793253e-06,0.0,71,18,443.8664651342556,2282.28298,mp-1188624,Tb6GaCo2,https://materialsproject.org/materials/mp-1188624,-29.606879161422054,71.27816928044355,-8.604250342815693,-0.5045126942092143
-6.071957285,-24.28782914,11.525815682532244,-0.6761226512499992,1.5399999999999998e-05,2.727423834215119e-06,0.0,225,4,65.80297321082361,456.739,mp-1184560,HfZnPd2,https://materialsproject.org/materials/mp-1184560,31.042514364075387,43.021117845989195,-8.604250342815693,-0.5045126942092143
-5.066014593043478,-116.51833564,9.107177243719855,-0.7322375713043484,1.7899999999999998e-05,4.271352516771857e-07,0.0,229,23,488.3880658636837,2678.5499,mp-569508,Pr6Cd4Pd13,https://materialsproject.org/materials/mp-569508,24.61995942297625,31.994794264020715,-8.604250342815693,-0.5045126942092143
-6.6627312000000005,-193.21920480000003,8.289236921167978,-0.5904395146551725,3.229999999999999e-05,9.419335718689251e-07,0.0,225,29,399.6314638268989,1994.9184,mp-672651,Zr6Ni16Ge7,https://materialsproject.org/materials/mp-672651,48.100009387674405,51.91121979132302,-8.604250342815693,-0.5045126942092143
-7.1070934275,-85.28512113,7.541136448680178,-0.15775163499999914,3.582724366666667,0.2378794034498349,0.0,166,12,175.52298024055858,797.116305,mp-2588,YCo3,https://materialsproject.org/materials/mp-2588,43.06005354860671,74.82985218160144,-8.604250342815693,-0.5045126942092143
-6.227111790833334,-74.72534149,9.011435000883774,-0.4906089236111117,0.0,0.0,0.0,191,12,149.07826866144453,809.0199,mp-12964,TbNi4B,https://materialsproject.org/materials/mp-12964,30.413799913822345,85.0649057292495,-8.604250342815693,-0.5045126942092143
-7.4767873185000004,-149.53574637,8.581843697135206,-0.8980387638333326,1e-07,4.3281699142909285e-09,0.0,127,20,269.260796210422,1391.568648,mp-542024,Sc2GaB2Rh5,https://materialsproject.org/materials/mp-542024,29.787778261079808,50.62161101583651,-8.604250342815693,-0.5045126942092143
-7.179994338275861,-208.21983581,6.3011079477123655,-0.6374994443103454,5.9641203,0.18715393262164007,0.0,225,29,371.3854329102211,1409.265092,mp-1192939,Sc6Co16Si7,https://materialsproject.org/materials/mp-1192939,48.52634829705473,50.499544100561145,-8.604250342815693,-0.5045126942092143
-5.271545756666667,-94.88782362,9.130167681422538,-0.3027648633333339,2e-07,5.443364564802422e-09,0.0,71,18,428.1934319783229,2354.34262,mp-11844,Ho6GaCo2,https://materialsproject.org/materials/mp-11844,-29.45072878342757,71.36813266744541,-8.604250342815693,-0.5045126942092143
-6.446303211666668,-38.67781927,10.137918443005447,-0.16512612833333407,0.1469098,0.018865048742483976,0.0,74,6,90.75493778439913,554.0768,mp-1225668,DyFeNi,https://materialsproject.org/materials/mp-1225668,42.609383690078936,69.97687917893283,-8.604250342815693,-0.5045126942092143
-3.773629545,-22.64177727,5.471919370453635,-0.062120843333333425,0.05206,0.003195881905809681,0.0,63,6,189.84137397459517,625.578,mp-976425,Nd2Mg,https://materialsproject.org/materials/mp-976425,-33.806497516583725,74.37865944437199,-8.604250342815693,-0.5045126942092143
-7.2225716050000015,-563.36058519,4.701337659701292,-1.1123418272355785,0.32764879999999996,0.002594960536841638,0.0,176,78,1471.4830085620233,4166.08,mp-1198026,Li5Mo15S19,https://materialsproject.org/materials/mp-1198026,67.13119645761907,33.22870992559042,-8.604250342815693,-0.5045126942092143
-7.766475626666666,-93.19770752,8.625243867015357,-0.2522654152777785,7.6162308,0.5742200576358183,0.0,191,12,154.57496805563954,802.9,mp-3045,ErFe4B,https://materialsproject.org/materials/mp-3045,42.60188784329688,83.56580659405148,-8.604250342815693,-0.5045126942092143
-8.390992108999999,-167.81984218,9.299230515390908,-0.20283922349999986,3.125e-06,1.0272623697282188e-07,0.0,136,20,354.5243502288938,1985.3816,mp-569275,Nd2WC2,https://materialsproject.org/materials/mp-569275,-14.947799418464156,32.894911028899415,-8.604250342815693,-0.5045126942092143
-8.1278513865,-162.55702773,14.078357485283579,-0.6837959848333327,5e-07,2.174097393117011e-08,0.0,127,20,268.0207613848251,2272.329648,mp-1209000,Sc2CuB2Ir5,https://materialsproject.org/materials/mp-1209000,29.618062822674432,49.760283371513204,-8.604250342815693,-0.5045126942092143
-2.95432873,-11.81731492,0.537459612647933,1.8921055387500003,1.9999997999999999,0.021576556905249098,0.053900000000000066,71,4,1080.25239229138,349.6407000000001,mp-1096055,Y2ZnPd,https://materialsproject.org/materials/mp-1096055,-70.82458405009228,42.849711171516034,-8.604250342815693,-0.5045126942092143
-6.93653280625,-55.49226245,6.253636462179098,-2.3160311471725006,1.0,0.09344672233633844,0.0,9,8,124.71346753729635,469.6744064,mp-753367,WO2F,https://materialsproject.org/materials/mp-753367,-19.413410080290397,1.039668182976453,-4.4791420970715325,-2.8423128582745947
-7.54166707,-30.16666828,15.007387681660312,-0.8388480824999993,0.28956859999999995,0.042604142466226506,0.0,225,4,79.2094623938179,715.8682100000002,mp-1184120,DyTmIr2,https://materialsproject.org/materials/mp-1184120,17.0445344549829,49.20826261908154,-8.604250342815693,-0.5045126942092143
-6.3899982675,-25.55999307,6.874143001997832,-0.5991095712499996,5.5e-06,7.92557573207904e-07,0.0,225,4,80.87406948827963,334.79485,mp-865002,CaYRh2,https://materialsproject.org/materials/mp-865002,13.465492254019866,46.24345046049289,-8.604250342815693,-0.5045126942092143
-8.041623040000001,-40.2081152,9.84609356521358,-0.2751271353333337,0.0370998,0.006215978877826284,0.0,221,5,69.55677951084138,412.43388,mp-1206988,NbBRh3,https://materialsproject.org/materials/mp-1206988,21.788127287070765,43.9185904340722,-8.604250342815693,-0.5045126942092143
-4.98922156,-19.95688624,11.098190629001026,-0.8983965525000004,4.55e-05,6.387697454988019e-06,0.0,225,4,83.01268976623136,554.81421,mp-1187537,YbTmPd2,https://materialsproject.org/materials/mp-1187537,16.636257468636398,54.323023570653284,-8.604250342815693,-0.5045126942092143
-7.685833606315789,-146.03083852,8.194539881094968,-0.345070438421052,13.867155300000002,0.8581785413350643,0.0,166,19,188.31597190245574,929.31434,mp-645286,Gd(Co2B)6,https://materialsproject.org/materials/mp-645286,39.00693997932167,88.02328023798451,-8.604250342815693,-0.5045126942092143
-6.13677139375,-49.09417115,11.937813973228787,-1.0393166774999996,1.4e-06,9.131608295896152e-08,0.0,6,8,178.67269546500395,1284.4994000000004,mp-1217627,Tb4CuPt3,https://materialsproject.org/materials/mp-1217627,14.199356445459184,55.37716030732717,-8.604250342815693,-0.5045126942092143
-5.7847781578125,-185.11290105,4.2667686911877265,-1.8494291944349996,13.999999300000002,0.5798508169233011,0.0,2,32,281.377371379252,723.001465,mp-1175687,Li9Mn2Co5O16,https://materialsproject.org/materials/mp-1175687,-88.98308371927072,-37.603681978821186,1.1294885952145153,-1.7538760087766003
-3.13732428125,-25.09859425,10.385684977692767,-0.5607802404166669,0.0,0.0,0.0,63,8,191.7504522829461,1199.2851380000002,mp-20746,YbIn2Au,https://materialsproject.org/materials/mp-20746,-15.77526581661193,51.33292716661949,-8.604250342815693,-0.5045126942092143
-7.039619383333334,-21.11885815,5.77701022791387,-0.25201174833333323,2.9994349,0.8581221895765297,0.0,216,3,40.73500141387344,141.71694499999998,mp-1062306,MnSiNi,https://materialsproject.org/materials/mp-1062306,48.01665202847651,46.25817371216176,-8.604250342815693,-0.5045126942092143
-5.011882076666667,-120.28516984,6.31829702564376,-0.3308822933333335,0.002847225,4.568903710641733e-05,0.0,216,24,726.2517810293417,2763.3643999999995,mp-1209444,Pr4MgRh,https://materialsproject.org/materials/mp-1209444,-29.166753381535422,67.26863969476568,-8.604250342815693,-0.5045126942092143
-4.704562177142857,-32.93193524,9.905246828705074,-0.32555703622767895,2.1000000000000002e-06,2.158067550757121e-07,0.0,123,7,113.40486544913401,676.4689999999999,mp-1025222,ZnPd5Se,https://materialsproject.org/materials/mp-1025222,41.97531735870773,41.55910213206417,-8.604250342815693,-0.5045126942092143
-7.0552070221951215,-289.26348791,4.121756162280739,-2.0238644951824383,47.000000799999995,1.2075125020780244,0.06389999999999985,1,41,453.61108285913605,1125.944185,mp-698705,Li4Mn13O24,https://materialsproject.org/materials/mp-698705,-67.62814350145986,-37.46395595579849,2.316666118492402,-1.2379407559767497
-9.445650554615383,-245.58691442,14.949378866133035,-0.08774523298076857,2.675e-05,9.564288597652208e-07,0.0,227,26,325.9481659122014,2934.4222,mp-1194082,Ni6W6C,https://materialsproject.org/materials/mp-1194082,53.08919225546379,57.738618025075894,-8.604250342815693,-0.5045126942092143
-7.68991783,-15.37983566,16.135681569955057,-0.9950699749999988,2e-07,6.168249025227053e-08,0.0,221,2,37.78727066594302,367.184,mp-1529,LuIr,https://materialsproject.org/materials/mp-1529,17.40600499590968,49.90741999814786,-8.604250342815693,-0.5045126942092143
-8.980038245,-17.96007649,16.802734183381514,-0.9745098899999984,2e-07,6.313375885225481e-08,0.0,221,2,36.91864696297415,373.574,mp-11455,HfPt,https://materialsproject.org/materials/mp-11455,62.206748908557216,44.89894174164928,-8.604250342815693,-0.5045126942092143
-7.170610507999999,-35.85305254,8.738676185875963,-0.6620852635000005,0.0,0.0,0.0,139,5,93.4265016941627,491.66199999999986,mp-22397,Nd(GeRu)2,https://materialsproject.org/materials/mp-22397,15.910226064927619,65.49132616389176,-8.604250342815693,-0.5045126942092143
-9.422989916666667,-56.5379395,12.217640130253544,-0.17517630003472226,0.13368570000000002,0.02015192788869579,0.0,191,6,77.31179942535087,568.832,mp-1072629,PuB2Ru3,https://materialsproject.org/materials/mp-1072629,18.614492750995108,38.547990441457344,-8.604250342815693,-0.5045126942092143
-7.478864245,-29.91545698,13.327493082521553,0.7724774650000006,2e-07,3.8888814558435685e-08,0.0,225,4,59.935304816493655,481.041,mp-631333,LiPdW2,https://materialsproject.org/materials/mp-631333,28.652280810982536,44.66072738793387,-8.604250342815693,-0.5045126942092143
-8.160434331000001,-163.20868662,13.95399518483276,-0.8232412913333335,0.0,0.0,0.003500000000000725,127,20,271.8795829654062,2284.683648,mp-1208983,Sc2GaB2Ir5,https://materialsproject.org/materials/mp-1208983,29.646736698502924,49.77349431142964,-8.604250342815693,-0.5045126942092143
-6.331241107954545,-278.57460875,3.2226060912916865,-2.6707784113527264,3.0,0.07549061547359524,0.9684,1,44,463.1329880984742,898.8016256000001,mp-759102,Li3V2(O2F)2,https://materialsproject.org/materials/mp-759102,-41.553456520689494,-57.69346343610451,4.044471434737518,4.4193091778154985
-10.330707542,-206.61415084,8.39221897574634,-0.5962075774279996,3.16e-05,1.1437807211194156e-06,0.3174999999999999,2,20,321.97469323705934,1627.23192,mp-1246615,TaWN3,https://materialsproject.org/materials/mp-1246615,6.851796790580872,19.30602629284112,-11.335739379275715,-0.33374876917852764
-5.2377293675,-20.95091747,0.7064393274850019,3.0714774520833323,4.0000001,0.06265848473204992,0.2354000000000003,71,4,743.9736287111481,316.507,mp-1096244,TiTc2Ge,https://materialsproject.org/materials/mp-1096244,-60.52273187593846,37.306956397247475,-8.604250342815693,-0.5045126942092143
-10.955415625,-43.8216625,14.786377174387988,-0.13890801937500008,0.0,0.0,0.0,166,4,43.66404163371504,388.80928,mp-1217826,TaWC2,https://materialsproject.org/materials/mp-1217826,2.2379972710459075,25.35458803273491,-8.604250342815693,-0.5045126942092143
-8.512072007999999,-42.56036004,9.393654531848703,-0.6315931753750007,5.367843799999999,0.8465403499408343,0.009399999999999407,139,5,73.8974808921455,418.03739,mp-22383,Pu(CoSi)2,https://materialsproject.org/materials/mp-22383,11.010209458700563,71.19553576051004,-8.604250342815693,-0.5045126942092143
-9.587644965,-191.7528993,17.23908394262934,-0.8337578583333325,0.0,0.0,0.0,127,20,292.4740301189778,3036.3540000000007,mp-22409,Hf3B2Ir5,https://materialsproject.org/materials/mp-22409,40.91013780422689,57.723634156428346,-8.604250342815693,-0.5045126942092143
-4.41703307,-17.66813228,13.8692441132636,-0.5934187512499993,1.56e-05,3.2830469131770837e-06,0.0,225,4,55.37642783057146,462.518,mp-1185418,LiZnPt2,https://materialsproject.org/materials/mp-1185418,29.047731216422267,44.847033262217685,-8.604250342815693,-0.5045126942092143
-7.859612227333332,-235.78836682,6.90587754604699,-0.0639302640000011,3.21998524,0.07779991944009645,0.0,82,30,482.3387584937021,2005.9585,mp-1178773,YFe2,https://materialsproject.org/materials/mp-1178773,42.78473525005545,69.61192169154268,-8.604250342815693,-0.5045126942092143
-7.886215426875,-126.17944683,6.259941790692795,-0.8689021700000001,0.00806615,0.00037240470286565447,0.0,63,16,252.42279123175902,951.58978,mp-1188741,Zr3Co2Si3,https://materialsproject.org/materials/mp-1188741,44.9480205587648,58.57355630212347,-8.604250342815693,-0.5045126942092143
-5.018040745,-50.18040745,7.560920407340918,-0.7393773299999999,3.75e-06,1.8498264743066765e-07,0.0,127,10,236.25320268745116,1075.73,mp-1207144,Sm2MgPd2,https://materialsproject.org/materials/mp-1207144,3.1541489940607117,63.368323190381155,-8.604250342815693,-0.5045126942092143
-5.250031459130434,-120.75072356,8.784580811990363,-0.8166965963043482,2.3899999999999998e-05,5.945019824731315e-07,0.0,229,23,468.5134049603693,2478.52882,mp-1192004,La6Zn4Pd13,https://materialsproject.org/materials/mp-1192004,24.868873359701148,31.606414336064947,-8.604250342815693,-0.5045126942092143
-8.3285420165625,-799.54003359,3.5804150260476635,-3.4466588929340287,1.9999999,0.020732904228431555,0.027099999999999902,1,96,1124.2095233213822,2423.994,mp-757825,Mg11Ti25O60,https://materialsproject.org/materials/mp-757825,-42.57090795838045,27.667620413012664,-8.604250342815693,-0.5045126942092143
-7.415476622000001,-37.07738311,8.00823504635962,-0.4390448566666663,1.1012239,0.20923049818201692,0.0,139,5,61.33778187788991,295.812,mp-568725,Dy(FeB)2,https://materialsproject.org/materials/mp-568725,6.861934262051721,39.38800635556795,-8.604250342815693,-0.5045126942092143
-8.052367563999999,-80.52367564,6.4781324176797215,-3.25444152925,1.9999997999999999,0.1807305371327466,0.0,87,10,128.96618127785794,503.12577999999996,mp-1205944,Sr2TaVO6,https://materialsproject.org/materials/mp-1205944,-30.77559841022011,21.04964446271633,-4.66947234104959,-0.6651335233713528
-8.090287211944442,-291.25033963,8.680190027466628,-0.35382132972222125,0.000371825,4.402829221094678e-06,0.0,55,36,984.2018430548217,5144.75048,mp-1197597,Ta4CrTe4,https://materialsproject.org/materials/mp-1197597,58.11764318723269,32.845368226152786,-8.604250342815693,-0.5045126942092143
-7.024977553333334,-42.14986532,10.22592721874926,-0.1786813416666675,2.0130761,0.18845701891152988,0.0,63,6,124.48737328539231,766.6178199999998,mp-16373,UGe2,https://materialsproject.org/materials/mp-16373,24.774702636800686,62.991363164434546,-8.604250342815693,-0.5045126942092143
-10.2731734746875,-328.74155119,14.150302741396613,-0.10646349320312608,0.6251321,0.01695794719909909,0.0,194,32,429.6115502230897,3660.9398216,mp-1201626,Al3Co(W3C)3,https://materialsproject.org/materials/mp-1201626,57.42013559030622,48.01007101805454,-8.604250342815693,-0.5045126942092143
-5.5928157480000005,-55.92815748,5.230376352804135,-0.37369250400000026,0.0003707,2.1295029554135806e-05,0.0,127,10,202.87183918694492,639.0070000000002,mp-754185,Y2MgNi2,https://materialsproject.org/materials/mp-754185,4.012216263661921,59.20448246658796,-8.604250342815693,-0.5045126942092143
-7.636133206875,-244.35626262,10.539043921817402,0.13498328710937546,0.17384195,0.005474018482066335,0.0,194,32,370.1056823475175,2348.9722,mp-1198477,Ni10(WC)3,https://materialsproject.org/materials/mp-1198477,32.30095173602907,84.90391858295908,-8.604250342815693,-0.5045126942092143
-6.59183179,-92.28564506,6.425401922741046,-0.3400026299999997,0.9967166999999999,0.043787461116640884,0.0,63,14,265.276878025648,1026.48027,mp-21491,Y3GaCo3,https://materialsproject.org/materials/mp-21491,-27.45005118512888,66.34900880033922,-8.604250342815693,-0.5045126942092143
-7.836260308333332,-94.03512370000001,6.657358309053913,-0.5530645653571433,1.0199999999999999e-05,5.186740902424417e-07,0.0,124,12,229.18334059167145,918.831524,mp-581733,Zr4CuP,https://materialsproject.org/materials/mp-581733,24.909459485412388,58.22779042022504,-8.604250342815693,-0.5045126942092143
-6.5021248925,-26.00849957,1.1967959271767592,4.598523953749999,0.1958329,0.0029378999376094193,0.0,71,4,776.8301676929407,559.88276,mp-1097434,Nb2OsW,https://materialsproject.org/materials/mp-1097434,-59.36190123177796,42.69322536482693,-8.604250342815693,-0.5045126942092143
-7.408299587083333,-177.79919009,8.952835012888368,-0.18508221041666675,3.675e-06,1.372559203688852e-07,0.0,194,24,312.0352690364953,1682.3454399999998,mp-1191285,NbNi2,https://materialsproject.org/materials/mp-1191285,28.78124103546145,73.05957703745767,-8.604250342815693,-0.5045126942092143
-10.121322915,-40.48529166,14.970807360834275,-0.6384399725000005,4e-07,6.956639865002169e-08,0.0,225,4,67.00973457711717,604.135045,mp-865138,Hf2MnIr,https://materialsproject.org/materials/mp-865138,39.456386339608,60.87664167528537,-8.604250342815693,-0.5045126942092143
-6.526639575,-26.1065583,11.201723812051457,-0.6824879412499998,1.4599999999999999e-05,2.280737557528252e-06,0.0,225,4,74.60277273803077,503.25805999999994,mp-865761,ThZnRh2,https://materialsproject.org/materials/mp-865761,10.9739134750321,36.27022681548843,-8.604250342815693,-0.5045126942092143
-4.7661184,-47.661184000000006,7.940703645357398,-0.36583070799999995,0.0,0.0,0.0,127,10,216.7634509631008,1036.5636,mp-11991,Nd2CdNi2,https://materialsproject.org/materials/mp-11991,10.244110355961489,46.44195699219521,-8.604250342815693,-0.5045126942092143
-5.854109485,-23.41643794,12.725682193148048,-0.9243540650000002,2.8e-06,4.996142331395021e-07,0.0,225,4,65.31315402709075,500.532912,mp-867768,ScZnPt2,https://materialsproject.org/materials/mp-867768,42.980693626418784,50.970155899290674,-8.604250342815693,-0.5045126942092143
-7.842769893333332,-47.05661936,9.722011437264591,-0.40260315583333295,4.3457798,0.4790227241478901,0.0,25,6,105.72775929695857,619.0077200000001,mp-1216879,U2Si3Ni,https://materialsproject.org/materials/mp-1216879,22.73006025118161,64.71436926792906,-8.604250342815693,-0.5045126942092143
-6.415017544444443,-230.94063160000002,12.330280513051765,-1.1522798722222218,0.000131,1.799460474147004e-06,0.0,62,36,848.4112361117637,6299.8510000000015,mp-1198980,Tb5Pt4,https://materialsproject.org/materials/mp-1198980,14.179465632580916,55.52023188404365,-8.604250342815693,-0.5045126942092143