energy_per_atom,energy,density,formation_energy_per_atom,total_magnetization_uB,total_magnetization_T,band_gap,sgr,num_sites,cell_volume,weight,mp_id,formula,URL,tsne_cry_lin1_0,tsne_cry_lin1_1,tsne_cry_lin2_0,tsne_cry_lin2_1
-5.354616046666667,-16.06384814,6.756002641163134,-0.6076298658333338,0.0389791,0.007637475735584537,0.0,187,3,59.478415631433,241.9915,mp-1219066,SmCuSi,https://materialsproject.org/materials/mp-1219066,-3.749374114465236,58.812765046318475,-8.604250342815693,-0.5045126942092143
-3.4936517520000003,-17.46825876,2.8098620422312606,-1.5195248424500007,0.0,0.0,1.8795,221,5,97.43452307766405,164.87270784,mp-985586,Na3BrO,https://materialsproject.org/materials/mp-985586,17.0492677448501,-15.653797980956291,9.573768728219882,-1.7850366173701586
-6.237411192083332,-149.69786861,2.555732427019825,-2.2329346284027785,3.0000002,0.13648084784554082,1.2402,2,24,256.1692515865649,394.2696,mp-770880,Li3Ni(BO3)2,https://materialsproject.org/materials/mp-770880,-44.45366914827904,-32.416340254850866,2.8303669430477023,2.6952080075541067
-8.0134514625,-64.1076117,5.912137309521593,-0.23700519250000074,5.912833900000001,0.6602232617977918,0.0,160,8,104.37158647265524,371.6017122,mp-1221807,Mn3Al2V3,https://materialsproject.org/materials/mp-1221807,52.84464094488375,45.56279413617408,-8.604250342815693,-0.5045126942092143
-6.013178715517241,-174.38218275,6.642303081946249,-2.3977728306034485,0.0,0.0,2.1741,71,29,478.16742312003123,1912.7120000000002,mp-1228122,Ba6Bi2(TeO6)3,https://materialsproject.org/materials/mp-1228122,0.6217333590958629,-29.44191383835865,8.383683056341694,-0.8018613369243104
-4.545427359090909,-99.99940190000001,2.3189868396898543,-0.731758398454545,0.99999995,0.048290654353388335,0.01550000000000007,63,22,241.33166853720095,337.02608,mp-862687,CuH6(NCl)2,https://materialsproject.org/materials/mp-862687,-53.552329784397905,-15.466834369512744,0.5958753226124319,-2.308248720395542
-5.946994191875,-95.15190707,6.604100446146727,-0.5706176315773801,4.5625e-05,2.567198491716893e-06,0.0,141,16,207.11943660127116,823.7310480000001,mp-569532,TiCu2P,https://materialsproject.org/materials/mp-569532,14.612615497851765,26.952004325351968,-8.604250342815693,-0.5045126942092143
-6.990915667430556,-1006.69185611,3.945207267948165,-2.5449264001438885,32.00000075,0.196431265594096,0.09170000000000034,1,144,1898.5271022642526,4510.633440000001,mp-1247682,SrCa7Mn8O20,https://materialsproject.org/materials/mp-1247682,-30.734746243631268,-11.09001550246576,-8.604250342815693,-0.5045126942092143
-5.021884316964285,-281.22552175,4.3797322086424915,-0.5224053128838386,0.00547165,5.41604341718059e-05,0.4782000000000002,60,56,1177.3717195563247,3105.360800000001,mp-1246854,Sr7SeN6,https://materialsproject.org/materials/mp-1246854,25.11442826752476,-9.987802132397583,4.903405106064394,-4.387945371483447
-6.98938985,-307.5331534,8.602345194004622,-2.3028673769318186,1e-06,1.935105617173081e-08,0.43489999999999984,4,44,602.2443772130978,3119.89896,mp-771647,La2Pt2O7,https://materialsproject.org/materials/mp-771647,-9.936717891750938,-21.592280203962396,6.405480036749438,-5.359436274535831
-6.2383318871428575,-87.33664642,3.752189562583807,-2.192229025306122,0.9999998,0.07957823544869055,0.3906000000000001,43,14,146.4478619818216,330.91672400000004,mp-25885,LiCuPO4,https://materialsproject.org/materials/mp-25885,-57.40279290682533,-14.928894198824482,3.5170496561905416,-0.5552370204439608
-6.620447369500001,-264.81789478,5.008998600129806,-1.8670615377500008,7.500048,0.1822353338963546,0.6322999999999999,2,40,479.63280951332143,1446.8073399999996,mvc-16379,Y(CoO2)3,https://materialsproject.org/materials/mvc-16379,-48.525506581511095,-7.8320080928263565,1.0799294665550525,0.8471774413359692
-4.611898106,-138.35694318,1.9079542851468227,-0.5304796052986664,6.95e-06,2.240387523206767e-07,1.98,2,30,361.5256259477692,415.39184000000006,mp-722979,K2Zn(H2N)4,https://materialsproject.org/materials/mp-722979,27.63188998685236,-16.760146229483748,8.68985503663185,-1.6821352308313458
-5.425519872000001,-27.12759936,5.6117158077504685,0.321336960048,8e-07,1.4945981245295306e-07,0.0,115,5,62.3796568792198,210.8092,mvc-13905,Zn(NiN)2,https://materialsproject.org/materials/mvc-13905,3.37482613299866,13.48612208540177,-8.604250342815693,-0.5045126942092143
-5.257253747,-105.14507494,6.750487342902777,-1.46576644,0.0,0.0,0.1745000000000001,62,20,660.5112978098142,2685.1359999999995,mp-16380,Nd2Te3,https://materialsproject.org/materials/mp-16380,-10.60125070495391,24.93028095511757,-8.604250342815693,-0.5045126942092143
-5.179008954166666,-62.14810745,5.922981786465048,-0.27112902305555525,7.199404525,0.2633159842076988,0.0,62,12,318.6374230590906,1136.5488,mp-1212683,EuMgAg,https://materialsproject.org/materials/mp-1212683,-8.911527610316538,51.74670468533996,-8.604250342815693,-0.5045126942092143
-2.2409968175,-44.81993635,3.80435979695189,-0.21355739350000003,0.08868780000000001,0.001263658998393927,0.0,186,20,817.9211061286792,1873.8892,mp-1106092,Sr7Ag3,https://materialsproject.org/materials/mp-1106092,-36.92559740007334,49.559566903546155,-8.604250342815693,-0.5045126942092143
-5.782078097,-231.28312388,2.8889585372297613,-1.9589810751132857,0.88434425,0.02078834572178044,0.016899999999999915,14,40,495.76841316154696,862.523768,mp-706287,KCuPH2O5,https://materialsproject.org/materials/mp-706287,-54.30222479727618,-18.059524575414557,0.6169192090934478,-2.174526390050964
-5.60271235125,-89.64339762,5.576919046767149,-1.7058551599999996,3.0,0.22144900780859567,0.17220000000000013,2,16,157.87920959166294,530.2372,mp-756533,Li4Cu3WO8,https://materialsproject.org/materials/mp-756533,-57.261534139606674,-15.023216496550006,-8.604250342815693,-0.5045126942092143
-8.620440193333334,-724.11697624,1.8867756263417208,-0.10655744825333256,0.004577432142857143,2.7056456733587264e-05,0.010599999999999945,10,84,1971.6436342764623,2240.266,mp-1096934,CrN2,https://materialsproject.org/materials/mp-1096934,-4.90136626257989,9.707811446658523,-8.604250342815693,-0.5045126942092143
-6.218524963999999,-62.18524964,8.41201541980492,-0.8790922015000001,0.0001227,7.339156579429947e-06,0.0,129,10,194.83897531235704,987.02194,mp-1222840,LaGe2PdRh,https://materialsproject.org/materials/mp-1222840,10.355018498453463,63.434262104409115,-8.604250342815693,-0.5045126942092143
-2.441581283333333,-7.32474385,1.6091803430007223,1.3737994584166666,2.0,0.25039252943140144,0.0,225,3,93.08636163406376,90.2073,mp-1211945,K2C,https://materialsproject.org/materials/mp-1211945,4.064169641085857,2.18964777101439,-8.604250342815693,-0.5045126942092143
-6.3488874310000005,-63.48887431,6.695261256135143,-2.5796042457499997,1.0,0.0653752170210966,0.0,12,10,178.2642613453799,718.7580499999998,mp-1228494,Ba2PrPbO6,https://materialsproject.org/materials/mp-1228494,-58.515101207673254,11.848283428795945,-8.604250342815693,-0.5045126942092143
-6.528850345,-39.17310207,7.849380444632494,-0.3957433533333325,6.9519055,0.5729347253498227,0.0,12,6,141.40870400244287,668.4399999999998,mp-1225252,EuCuSn,https://materialsproject.org/materials/mp-1225252,-5.2393442223474045,53.846501234785954,-8.604250342815693,-0.5045126942092143
-8.045208621666667,-48.27125173,9.948996550959329,-0.3830855741666663,0.0051903,0.0005852424311298562,0.0,25,6,103.35561670099615,619.2475149999998,mp-1216755,U2CoSi3,https://materialsproject.org/materials/mp-1216755,22.60160415592843,65.19737363364649,-8.604250342815693,-0.5045126942092143
-6.6373337325,-159.29600958,4.4017771976013425,-1.7304321301683327,6.5e-07,2.1259969534953084e-08,2.3480000000000003,11,24,356.31011087337936,944.5112,mp-558331,Ca5W(N2O)2,https://materialsproject.org/materials/mp-558331,31.657191839952016,-12.538598333523922,8.828551591211001,-3.1057428637640534
-6.6879011544,-167.19752886,5.494245261351526,-2.4526085588500006,0.1087242,0.003541847881948484,0.0,12,25,357.74514077879417,1183.6756,mvc-12155,Ba3Y4(NiO5)3,https://materialsproject.org/materials/mvc-12155,-39.293594647578175,-20.272623838811285,-8.139285406084836,2.2241420301849213
-5.846367765,-46.77094212,6.834507227960232,-1.4925915278125004,5.5299999999999996e-05,4.5967930495043915e-06,0.0,129,8,140.1998686871569,577.0397399999998,mp-1079362,LaNiAsO,https://materialsproject.org/materials/mp-1079362,9.905293388856153,28.166658226687122,-8.604250342815693,-0.5045126942092143
-7.164071256153847,-93.13292633,4.108589126444413,-2.114491371884616,8.9999999,0.7229465043186827,0.05430000000000002,87,13,145.08207891049656,358.96936928,mp-760012,NaCr4O8,https://materialsproject.org/materials/mp-760012,-59.458687311632936,-28.406820016325145,-8.604250342815693,-0.5045126942092143
-7.1416284260000005,-35.70814213,7.375385792174832,-0.8932504619999989,0.020228200000000002,0.0029237136556536023,0.0,119,5,80.63058862704925,358.125695,mp-1226609,CeCoSi2Rh,https://materialsproject.org/materials/mp-1226609,18.28391573367264,69.12413102014659,-8.604250342815693,-0.5045126942092143
-6.767773646818182,-297.78204046,6.459655920461229,-0.7389857047159102,0.0,0.0,0.6908999999999996,15,44,902.9114433308748,3512.4120000000003,mp-1199685,Cu2(ReS2)3,https://materialsproject.org/materials/mp-1199685,47.59716102126792,-5.16698506512754,4.9198590486638425,-6.1901880737543795
-8.255143983,-82.55143983,5.08286500463232,-3.4125969220333348,0.9965132999999999,0.10018256107525264,0.0,155,10,115.92267576583237,354.83616928,mp-1221080,NaCeTi2O6,https://materialsproject.org/materials/mp-1221080,-40.2262843773152,28.599765226322184,-8.604250342815693,-0.5045126942092143
-6.054925898333334,-108.98866617,5.730189059719452,-2.483609089861111,4.99999965,0.1824969744107658,0.5822000000000003,140,18,319.29471692347323,1101.82239,mp-1214566,Ba3CoO5,https://materialsproject.org/materials/mp-1214566,-38.92882773622723,-24.318324935432038,1.2355567744028817,1.0000421895721814
-5.910273048846153,-153.66709927,5.50863088579359,-0.5379680564830763,1.55e-06,4.44148842143199e-08,0.048499999999999766,15,26,406.7060112169229,1349.1964,mp-1247133,Ca5(PtN3)2,https://materialsproject.org/materials/mp-1247133,7.954433608133863,6.131944220757121,-7.647096222538156,-3.152053729552319
-5.33005806875,-42.64046455,5.690485393516357,-1.2314472156249998,0.0,0.0,0.6003,121,8,127.9713212911096,438.5437,mp-19412,VAg3O4,https://materialsproject.org/materials/mp-19412,2.707332827708457,-17.769828220007632,7.351204527858119,-1.3159978641709025
-5.1388943792857145,-71.94452131,4.772823565056084,0.02335246469428601,3.4284863,0.19525078181935515,0.0,176,14,204.6383683574716,588.1842,mp-1247011,Zn3FeN3,https://materialsproject.org/materials/mp-1247011,0.7517581053011845,7.916667038560353,-8.604250342815693,-0.5045126942092143
-6.958971652857144,-97.42560314,11.533787445796314,-0.8243603085714294,7.699999999999999e-06,2.778099700456883e-07,0.0,148,14,323.01324079172434,2243.58836,mp-1105083,Th3Pd4,https://materialsproject.org/materials/mp-1105083,22.17974660137619,54.985820045218,-8.604250342815693,-0.5045126942092143
-5.525584472916666,-132.61402735,2.972318295715564,-0.9583512764083324,0.0,0.0,0.8224,193,24,424.83850207064074,760.4490000000002,mp-17875,Ca6GaN5,https://materialsproject.org/materials/mp-17875,25.37535350035857,-10.678491066775743,6.583716546241252,-4.034439083252381
-4.7311529525,-56.77383543,2.3355791734792617,-0.7769064082933325,0.0,0.0,1.3786,62,12,173.55105482015514,244.1028,mp-31468,LiCaN,https://materialsproject.org/materials/mp-31468,25.31561353317557,-10.944376392849284,7.473033511843574,-2.939421543978741
-5.107368497142857,-71.50315896,4.8042359912401125,-1.4304386850000006,0.9999996999999999,0.08196163857032998,0.6210999999999998,88,14,142.1892177807072,411.3788,mvc-12183,Mg(NiO2)2,https://materialsproject.org/materials/mvc-12183,-64.32434626636474,-23.500055108177747,-0.3564098329652738,1.1008074833083892
-5.465389184722223,-196.75401065,6.52071880048463,0.033107318550971994,6.5e-07,1.4883206468777364e-08,0.0,62,36,508.97245281487307,1998.668,mp-1247275,Ni4Se3N2,https://materialsproject.org/materials/mp-1247275,12.098347706546747,6.352341523063028,-8.604250342815693,-0.5045126942092143
-4.089727373333333,-12.26918212,11.114598036620416,-0.4570566533333332,7.085166900000001,0.9991575561159174,0.0,191,3,82.64061405688501,553.144,mp-20719,EuHg2,https://materialsproject.org/materials/mp-20719,25.41634717482116,18.71013214055781,-8.604250342815693,-0.5045126942092143
-4.92856095375,-39.42848763,6.243924707772349,-1.2533306527734376,7.5e-07,3.473729629935953e-08,0.0,63,8,251.61856305958173,946.13094,mp-4034,LaTe2Se,https://materialsproject.org/materials/mp-4034,-9.948460157862732,23.74453793854621,-8.604250342815693,-0.5045126942092143
-6.0935764125,-170.62013955,2.9572589971801704,-1.16936449975,5.000019625,0.10164296604476424,0.0,59,28,573.2866212124987,1020.96787712,mp-1238825,Na(CrS2)2,https://materialsproject.org/materials/mp-1238825,14.469421186381245,7.711005423571048,-8.604250342815693,-0.5045126942092143
-5.46075113,-169.28328503,3.157506604792601,-2.6184340263578973,0.0,0.0,2.0140000000000002,25,31,370.66998188491834,704.8271,mp-1034150,KRbMg14O15,https://materialsproject.org/materials/mp-1034150,28.455277431353647,-20.830473538901707,7.564807846389258,-3.2101635927056598
-6.339555241481482,-171.16799152,5.1667159100499545,-2.8363771146759253,0.0,0.0,2.5962,160,27,544.3904298258514,1693.854,mp-756637,Ba3GeO5,https://materialsproject.org/materials/mp-756637,23.04654410239193,-19.863492180731548,9.407354832973246,2.226642289882512
-6.585494944444445,-59.2694545,6.060316462123724,-2.3909735826388894,0.05671759999999999,0.004907793567828818,0.0,99,9,134.68182290245562,491.53585,mvc-7194,BaYCuSbO5,https://materialsproject.org/materials/mvc-7194,-46.681889858051996,-3.931425411689254,-8.604250342815693,-0.5045126942092143
-5.8368819815625,-186.78022341,4.818098006058324,-1.642333050095,2.8137488,0.06809526463209377,0.0,72,32,481.55493551687,1397.2443999999996,mp-972470,V2Cu3Pb(ClO4)2,https://materialsproject.org/materials/mp-972470,-55.66183339989409,-10.715944808324508,-4.6761086777547005,-0.5568884803613037
-4.13533802,-24.81202812,8.134664908853491,-0.2376508813888888,6.3e-06,5.697236324214586e-07,0.0,12,6,128.8705679191704,631.3124,mp-1220225,NdCuAg,https://materialsproject.org/materials/mp-1220225,-13.486376134378409,59.040277215392344,-8.604250342815693,-0.5045126942092143
-6.670765215,-26.68306086,11.258180832402614,-0.40494737625,0.00028460000000000003,4.8138350185808505e-05,0.0,225,4,68.90030134951087,467.13268,mp-861995,PaNi2Sn,https://materialsproject.org/materials/mp-861995,28.411101507012877,70.98355322273756,-8.604250342815693,-0.5045126942092143
-3.205168073333333,-9.61550422,4.047969271736823,-1.199436307054598,0.0,0.0,0.5912999999999999,166,3,115.60290603030649,281.81030380000004,mp-7988,Cs2O,https://materialsproject.org/materials/mp-7988,7.2166883714898935,1.0105274172405083,-6.199005936253937,-1.6686043829199486
-6.9468416129487185,-1083.70729162,4.097885629237112,-2.7008798495387176,18.000001,0.12070472711897308,0.2441999999999997,1,156,1737.9035814676547,4288.8061888,mp-1247619,Ca8Mn6Al2O23,https://materialsproject.org/materials/mp-1247619,-33.03809498158124,-8.548904051126943,3.3265444652354947,0.16728496510868746
-3.7666597568055553,-271.19950249,2.5721955153714635,-0.2998734784722217,3.071559675,0.023407805431925572,0.0,156,72,1529.2401292950995,2368.8118784000003,mp-1227750,Ca6MnAl11,https://materialsproject.org/materials/mp-1227750,-34.43000286980545,56.419003434556465,-8.604250342815693,-0.5045126942092143
-6.476286892142857,-90.66801649,4.879113165786354,-0.9462293374485712,1.5e-07,5.086141983978785e-09,0.0,176,14,343.70053399815697,1009.8852,mp-1245925,Ba3VN3,https://materialsproject.org/materials/mp-1245925,4.296519738154366,8.876121210347279,-2.1106129056466174,-2.5537551475284563
-5.194665343333333,-31.16799206,12.540765867984398,-0.03396752083333313,1.6104986000000001,0.20567448144832515,0.0,216,6,91.25514681427455,689.1794789999999,mp-1071839,UCu4Au,https://materialsproject.org/materials/mp-1071839,5.676080226005476,42.478195889347354,-8.604250342815693,-0.5045126942092143
-7.9561028225,-127.29764516,5.2877814348375365,-1.22891697869,0.0,0.0,0.1548999999999996,64,16,271.6788074705363,865.1275999999998,mp-1245629,BaVN2,https://materialsproject.org/materials/mp-1245629,4.388999718837685,9.351220913467273,-6.005763463668568,0.3315495021689409
-6.97605955,-34.88029775,8.509947968457233,-0.8190513534999994,1.0800000000000002e-05,1.321344142990205e-06,0.0,119,5,95.25444238835036,488.16097,mp-1222807,LaGe2RuRh,https://materialsproject.org/materials/mp-1222807,10.972368718218265,64.64172668340495,-8.604250342815693,-0.5045126942092143
-4.094101516,-20.47050758,3.8022750455734133,-0.9147070597708336,0.0,0.0,0.8247,44,5,142.29772687594843,325.83099999999996,mp-1223831,In2S3,https://materialsproject.org/materials/mp-1223831,37.74669094089122,-2.8115833190322883,7.911203500807611,-2.2377694152784096
-6.49957220125,-155.98973283,6.981168721772182,-0.5458508745833335,14.092938425,0.2939475414481537,0.0,64,24,558.7392105118658,2349.028,mp-1191637,Eu2ZnGe3,https://materialsproject.org/materials/mp-1191637,-3.1215437722452744,53.35289136366788,-8.604250342815693,-0.5045126942092143
-7.7734158171875,-248.74930615,5.481538838876135,-2.6464826038337512,6.999812375,0.2047640692016804,1.1437000000000008,55,32,398.39151044447715,1315.11424,mp-21444,LaMn2O5,https://materialsproject.org/materials/mp-21444,-34.0409513327728,-24.557347470235648,2.849352761198395,-2.395286551762247
-2.852140135,-5.70428027,1.4348585945521355,2.315763816625,2.9999925,0.5910990016150123,0.5835,225,2,59.14763316579647,51.108999999999995,mp-1057017,KC,https://materialsproject.org/materials/mp-1057017,-20.313425333518783,22.2061501805018,-8.604250342815693,-0.5045126942092143
-5.1934412126666665,-77.90161819,2.7560328792153994,-0.8641367719519991,0.0,0.0,1.1801,12,15,248.95509282711402,413.19620000000015,mp-1245857,Ca7Mg2N6,https://materialsproject.org/materials/mp-1245857,25.158234934505373,-10.263213104255096,6.872409315600827,-3.9746784206999854
-9.067428547999999,-45.33714274,7.980664984352874,-1.4973950864166654,21.296179199999997,2.033040655452969,0.0,221,5,122.07677752983324,586.7094000000002,mp-1069296,Eu3InO,https://materialsproject.org/materials/mp-1069296,-1.9459118151953612,50.091578936961014,-8.604250342815693,-0.5045126942092143
-3.572604341666666,-42.8712521,2.616820977870551,0.12932808277777794,0.57241865,0.027241583148703168,0.0,63,12,244.8831254669114,385.908,mp-1094344,Mg2Ti,https://materialsproject.org/materials/mp-1094344,-18.168778699452783,39.129639567157696,-8.604250342815693,-0.5045126942092143
-6.2056149476470575,-105.49545411,7.5228555602070495,-0.4631526608823536,0.0008912000000000001,3.2579529586036795e-05,0.0,204,17,318.792280222381,1444.2468499999998,mp-1179919,Pr(As3Ru)4,https://materialsproject.org/materials/mp-1179919,38.667023562495025,7.958594265377196,-8.604250342815693,-0.5045126942092143
-4.011889492,-40.11889492,3.6305546071409633,-2.17791251494738,0.0,0.0,2.0992,225,10,311.46604817471285,680.9803737999999,mp-1113523,Cs2LaCuCl6,https://materialsproject.org/materials/mp-1113523,12.597414208688367,-11.492273844948974,7.084191954880767,1.2644460080992557
-3.15080524,-9.45241572,5.346487632105736,-0.4602648285871644,4.3700000000000005e-05,7.83313594619059e-06,0.0,216,3,65.016442209015,209.3354,mp-1008813,RbAgO,https://materialsproject.org/materials/mp-1008813,8.546362167575383,3.807223114727268,-8.604250342815693,-0.5045126942092143
-5.809763031818182,-63.90739335,4.985339293065305,-0.619213131363636,2.6e-06,1.8143350980174924e-07,0.0,71,11,167.0064611645575,501.39373600000005,mp-1104960,Sc3(CuSi)4,https://materialsproject.org/materials/mp-1104960,-5.3878474384307715,57.56894618637333,-8.604250342815693,-0.5045126942092143