energy_per_atom,energy,density,formation_energy_per_atom,total_magnetization_uB,total_magnetization_T,band_gap,sgr,num_sites,cell_volume,weight,mp_id,formula,URL,tsne_cry_lin1_0,tsne_cry_lin1_1,tsne_cry_lin2_0,tsne_cry_lin2_1
-4.376654471,-43.76654471,5.78034783889835,0.13332358804800035,0.0,0.0,0.0,12,10,127.76613608916405,444.7548,mvc-15380,Zn2CuN2,https://materialsproject.org/materials/mvc-15380,26.27131532649557,-4.636525498940835,-8.604250342815693,-0.5045126942092143
-7.017746517999999,-350.88732589999995,6.632767453152554,-2.7137131819793336,15.999983499999999,0.2746834834923414,0.14010000000000036,8,50,678.8352968957643,2711.503045,mp-720201,Ba4La6Mn5In5O30,https://materialsproject.org/materials/mp-720201,-32.56775502955998,-21.573161760950278,-3.380390740494533,-0.6254666652894453
-3.7045968783333336,-22.22758127,9.954840317320878,-0.2454834594444447,4e-07,5.222687084952699e-08,0.0,216,6,89.2572316356973,535.0922,mp-1077741,YbCu4Ag,https://materialsproject.org/materials/mp-1077741,5.169323142820137,41.75223664284228,-8.604250342815693,-0.5045126942092143
-6.618202032857143,-92.65482846,4.255983615128083,-2.11154968949143,10.0000001,0.7935277784348966,0.0,166,14,146.86398139818206,376.41433500000005,mp-753967,Li2Mn3GaO8,https://materialsproject.org/materials/mp-753967,-68.1174998838535,-36.42613363887187,-8.604250342815693,-0.5045126942092143
-4.008536355652174,-184.39267236,2.673733562080057,-1.1104205989809786,0.00043315,6.63859783657998e-06,0.0,137,46,760.3952341289585,1224.358,mp-766521,Li10Cu4S9,https://materialsproject.org/materials/mp-766521,-51.09554018245535,-4.769954688622035,-8.604250342815693,-0.5045126942092143
-5.97675751,-23.90703004,4.632471801274142,-2.8818278006249995,0.0,0.0,2.1413,123,4,75.06212664450807,209.4038,mp-1018097,BaCaO2,https://materialsproject.org/materials/mp-1018097,23.525131418618603,-19.177866563318,6.733218543006668,-0.7380033502122498
-4.6617889477777785,-83.91220106,9.88132918921332,-0.8852136094444442,1.6666666666666667e-08,5.471106627765505e-10,0.0,44,18,355.01851104540367,2112.6,mp-568724,YbGePd,https://materialsproject.org/materials/mp-568724,6.401702326224522,48.72638393257428,-8.604250342815693,-0.5045126942092143
-4.54934512,-54.59214144,3.0634491960290826,0.20138603666666674,0.6669375666666667,0.03311343309021183,0.0,26,12,234.72448718958734,433.032,mp-1094347,MgTi,https://materialsproject.org/materials/mp-1094347,-17.889081452082642,38.946699080793984,-8.604250342815693,-0.5045126942092143
-5.39636064,-21.58544256,9.023972172119834,-0.3191571000000009,1.85e-05,2.6476225812387023e-06,0.0,225,4,81.43162088891266,442.529,mp-862661,LiEr2Ru,https://materialsproject.org/materials/mp-862661,9.013371753889462,42.794485263432186,-8.604250342815693,-0.5045126942092143
-8.320848040555555,-299.55052946,1.8569252166343853,0.19303470452444552,0.0,0.0,0.0,92,36,858.5734985818045,960.114,mp-1097766,CrN2,https://materialsproject.org/materials/mp-1097766,-3.8002002823769887,9.554676631533622,-8.604250342815693,-0.5045126942092143
-6.790488453571428,-95.06683835,7.06551423993836,-2.728895258571428,2.00000005,0.13292423025699926,0.0,63,14,175.34899455695975,746.10159,mp-1218284,SrDyCoO4,https://materialsproject.org/materials/mp-1218284,-35.56804057411503,-18.251176657158204,0.9189285749149778,-1.0329633328429189
-5.28086431,-47.52777879,8.010081985995747,-0.5461890591666668,4.24e-05,2.572362117127484e-06,0.0,189,9,192.09284068773368,926.6144099999999,mp-1205789,LaCuPd,https://materialsproject.org/materials/mp-1205789,-5.444195438296823,52.299352973717276,-8.604250342815693,-0.5045126942092143
-3.64143292,-10.92429876,3.4256782994874215,0.2967886954288896,4.35e-05,6.228077184060002e-06,0.0,123,3,81.39780587559629,167.923,mp-1246610,KInN,https://materialsproject.org/materials/mp-1246610,4.879753500566755,4.220013003944102,-8.604250342815693,-0.5045126942092143
-3.751399035,-15.00559614,9.871241532826486,-0.5887139454999999,1.13e-05,1.3950444788051495e-06,0.0,225,4,94.39909187893231,561.16490728,mp-865113,NaNdAu2,https://materialsproject.org/materials/mp-865113,-9.498633946038476,47.69878586691985,-8.604250342815693,-0.5045126942092143
-6.627941617857143,-92.79118265,5.567303949400749,-2.3801487035714293,1.2810886000000001,0.0876278335302002,0.0,38,14,170.37839373995652,571.22915,mp-1218600,Sr2YCr(CuO4)2,https://materialsproject.org/materials/mp-1218600,-47.92976515169542,1.1420390895919807,-8.604250342815693,-0.5045126942092143
-6.599989691875,-105.59983507,3.4483803892254947,-1.8883385500837504,6.000057099999999,0.3389954351357513,0.0,63,16,206.27137369697928,428.35618,mvc-8344,MgMn2O5,https://materialsproject.org/materials/mvc-8344,-40.444195234961185,-23.280000517859694,-4.818657511053092,-0.5757397173778039
-5.9298521625,-23.71940865,9.04004203430978,-0.2303497612499994,1.52e-05,2.0724102064454307e-06,0.0,225,4,85.47621701146629,465.336,mp-867895,Sm2CuRu,https://materialsproject.org/materials/mp-867895,10.636314673604367,50.0672409457215,-8.604250342815693,-0.5045126942092143
-6.57768806,-52.62150448,4.307272357365829,-0.9748005460116662,0.0,0.0,0.2513999999999994,129,8,95.2921052774902,247.1782,mp-1079500,CaNiBN,https://materialsproject.org/materials/mp-1079500,25.60825946971921,75.32012022474514,-8.604250342815693,-0.5045126942092143
-8.609231652857144,-723.17545884,5.4547498755626505,-0.6864932913599998,0.00088245,7.307816856563361e-06,0.07019999999999982,205,84,1407.2779409227844,4622.8056,mp-1029505,Ba(MoN2)2,https://materialsproject.org/materials/mp-1029505,-11.100305666587934,27.13414154209909,-8.604250342815693,-0.5045126942092143
-2.185614913333333,-52.45475792,4.083596948516754,-0.12768244280555555,0.002028675,3.575950085927041e-05,0.0,227,24,661.1476470411478,1625.89403136,mp-542681,Na3In2Ag,https://materialsproject.org/materials/mp-542681,-14.969306385082927,48.43965916384487,-8.604250342815693,-0.5045126942092143
-5.10969158,-15.32907474,7.11247192431195,-0.6077849366666666,0.1474213,0.02655721718796334,0.0,187,3,64.69267344146427,277.09365,mp-1219977,PrCuGe,https://materialsproject.org/materials/mp-1219977,-3.790127024953292,59.034973525561895,-8.604250342815693,-0.5045126942092143
-2.278664695,-18.22931756,3.207975618523095,-0.13557067474999984,0.0,0.0,0.0,63,8,190.5167676390963,368.05707712,mp-13520,Na2ZnGe,https://materialsproject.org/materials/mp-13520,-10.601703556502958,36.61686206506123,-8.604250342815693,-0.5045126942092143
-3.8616120066666655,-34.75450806,8.231297626327706,-0.6472612858333334,0.0003067333333333333,1.6159683767407917e-05,0.0,189,9,221.21040151661362,1096.540707,mp-1205903,NdMgAu,https://materialsproject.org/materials/mp-1205903,-14.038779345837732,45.62809566570189,-8.604250342815693,-0.5045126942092143
-7.016773986973684,-533.27482301,4.032682131082595,-2.5663188569278943,12.9999999,0.16629904324684547,0.0,1,76,911.026533405768,2212.4625400000004,mp-1247615,Ca4Mn3CrO11,https://materialsproject.org/materials/mp-1247615,-31.84470518024705,-10.418773825427886,-8.604250342815693,-0.5045126942092143
-6.698657857468356,-529.19397074,3.8690539243666393,-1.9012649844324063,60.999684200000004,0.8319016098941787,0.0,12,79,854.5412850720588,1991.080145,mp-530628,Li10Mn21O48,https://materialsproject.org/materials/mp-530628,-66.89845603869078,-36.83662199218196,-8.604250342815693,-0.5045126942092143
-5.950009635,-23.80003854,8.334089653279309,-0.6191008037499994,7.5e-05,1.0836570714246757e-05,0.0,225,4,80.65788347533817,404.81435,mp-1183546,CaTbRh2,https://materialsproject.org/materials/mp-1183546,13.504649266141286,46.23267204372974,-8.604250342815693,-0.5045126942092143
-4.469402283333333,-40.22462055,7.48039338194764,-0.6876220366666664,6.686666666666666e-05,3.7725153514938102e-06,0.0,189,9,206.5646900946136,930.532257,mp-1205750,YMgAu,https://materialsproject.org/materials/mp-1205750,-14.341841109816006,45.31507038679047,-8.604250342815693,-0.5045126942092143
-8.629326628888887,-155.32787932,6.352232058264973,-0.4015926062698409,0.5437894833333333,0.029937118167118262,0.0,44,18,211.6889750718938,809.7957719999998,mp-29184,Cr2P,https://materialsproject.org/materials/mp-29184,14.44592119114074,26.007619553540426,-8.604250342815693,-0.5045126942092143
-6.0181868992857135,-84.25461659,3.4518537565616736,-1.1399562802278322,3.0000004000000002,0.11437404687915025,0.0,12,14,305.68297558139824,635.4399999999998,mp-1238878,Rb(CrS2)2,https://materialsproject.org/materials/mp-1238878,14.101461402434936,8.291219090419293,-8.604250342815693,-0.5045126942092143
-6.3796446300000005,-38.27786778,7.006853236424818,-0.03747553333333424,1.11944435,0.1321420891803828,0.0,74,6,98.72764268443804,416.5937,mp-1215980,YFeCu,https://materialsproject.org/materials/mp-1215980,39.361668373709406,74.33347707721761,-8.604250342815693,-0.5045126942092143
-5.239334633333333,-31.4360078,8.728182523828371,-0.03363220041666596,2.0294223999999996,0.2709194907469047,0.0,191,6,87.29907189504696,458.86439000000007,mp-1219079,SmCo2Cu3,https://materialsproject.org/materials/mp-1219079,39.60805856201665,75.24469937276216,-8.604250342815693,-0.5045126942092143
-5.063442375909091,-111.39573227,7.6602669057575525,-0.6788167495454545,2.7000000000000004e-06,6.614165952222222e-08,0.0,64,22,475.7360960279392,2194.628,mp-1191488,Ba2Ge4Pd5,https://materialsproject.org/materials/mp-1191488,11.404070736435061,57.3062086976799,-8.604250342815693,-0.5045126942092143
-9.70327516,-38.81310064,12.17237764547086,0.12579440328125102,6.3913497,0.9073235716773324,0.0,225,4,82.09331898011001,601.775,mp-1184467,EuPuRh2,https://materialsproject.org/materials/mp-1184467,6.043003980157237,47.260144868789,-8.604250342815693,-0.5045126942092143
-5.715081217368421,-217.17308626,9.871429220791352,-0.2109288636842106,1.5e-07,2.147429008435145e-09,0.0,14,38,814.0477329016901,4839.28073,mp-30970,Er12Co7,https://materialsproject.org/materials/mp-30970,-27.67849393351892,68.10807084269115,-8.604250342815693,-0.5045126942092143
-7.894562544661017,-931.55838027,6.511497752727182,-2.9485029761111865,41.00000695,0.3262882475442172,0.0,14,118,1464.4006956025771,5742.37739,mp-530875,Pr12Mn11O36,https://materialsproject.org/materials/mp-530875,-31.493482173583235,6.069271850031698,-8.604250342815693,-0.5045126942092143
-5.163006436666667,-123.91215448,4.667923341004853,-2.1762782345833336,0.0,0.0,2.2566,11,24,707.3461378386438,1988.41308,mp-561179,Ba2CuIO2,https://materialsproject.org/materials/mp-561179,16.298036725333663,-16.200516421937287,8.655699017274799,-1.9013678478468703
-5.7155650033333325,-17.14669501,6.4726908238237035,-0.6524241283333326,4.4e-06,8.879859735868755e-07,0.0,187,3,57.74627812209008,225.09185,mp-1215905,YCuGe,https://materialsproject.org/materials/mp-1215905,-4.91257737494088,56.790141784240035,-8.604250342815693,-0.5045126942092143
-6.1197921,-24.4791684,11.490699444063182,-0.5652799650000002,0.0002897,4.072900327432748e-05,0.0,225,4,82.89381750568484,573.6137,mp-1187272,Tb2CuIr,https://materialsproject.org/materials/mp-1187272,12.312761933608948,48.90519686495313,-8.604250342815693,-0.5045126942092143
-6.264485459199999,-156.61213648,4.641923950018147,-0.7179090661520001,1.99999986,0.05029462656184302,0.0,2,25,463.4317720778839,1295.4920000000004,mp-28771,Sr2FeN2,https://materialsproject.org/materials/mp-28771,4.8518959351495266,7.72044395845453,-8.604250342815693,-0.5045126942092143
-1.240380165,-4.96152066,9.518728030193982,-0.16219726612499996,3.5799999999999996e-05,3.8049445362874702e-06,0.0,225,4,109.6508805525768,628.55306928,mp-1186188,NaTlHg2,https://materialsproject.org/materials/mp-1186188,-14.604114109028226,47.45579300841862,-8.604250342815693,-0.5045126942092143
-2.8264042475,-11.30561699,5.256672834333805,-0.1211480104166669,0.0,0.0,0.0,225,4,93.94170598619108,297.38585,mp-11234,PrMg2Ag,https://materialsproject.org/materials/mp-11234,-6.218410892109875,51.88895480177738,-8.604250342815693,-0.5045126942092143
-0.6745481844444444,-6.07093366,8.476760950812936,-0.212448396743295,1.55e-05,5.854520414916135e-07,0.0,164,9,308.54449412192014,1575.0656,mp-31474,Rb2Hg7,https://materialsproject.org/materials/mp-31474,-22.572382608448876,43.85119604505432,-8.604250342815693,-0.5045126942092143
-3.826625396666667,-68.87925714,5.477612105421975,-0.4562972266666669,1.3333333333333334e-07,3.842387992645066e-09,0.0,44,18,404.4035391486545,1334.004,mp-570879,CaCuSn,https://materialsproject.org/materials/mp-570879,-10.695158851504898,49.126808593960895,-8.604250342815693,-0.5045126942092143
-6.8557201523076925,-89.12436198,2.8691717384333857,-1.0184341691753842,1.833653,0.09557900098218906,0.0,6,13,223.57955840509948,386.31320000000005,mvc-11332,Ca5(VN3)2,https://materialsproject.org/materials/mvc-11332,6.466270083246656,9.600119719659576,-8.604250342815693,-0.5045126942092143
-0.6569512945833333,-15.76683107,8.498785322013848,-0.20475209048850576,1.11e-05,1.562035741056101e-07,0.0,87,24,828.1508263565819,4238.549,mp-31472,Rb5Hg19,https://materialsproject.org/materials/mp-31472,-22.739898492285718,43.95378792933555,-8.604250342815693,-0.5045126942092143
-7.315280986666667,-43.89168592,9.574251778265868,-0.3615020729166669,0.32931705,0.0449924488332488,0.0,131,6,85.30058556341874,491.82179,mp-22714,LuCoC,https://materialsproject.org/materials/mp-22714,-13.340164825522487,35.13734967827063,-8.604250342815693,-0.5045126942092143
-8.22830737375,-65.82645899,13.351550792985066,0.45291252781249897,0.0387148,0.00289088435433856,0.0,139,8,156.07154474358973,1254.892,mp-581747,PuGa,https://materialsproject.org/materials/mp-581747,24.436695633375148,65.923357394485,-8.604250342815693,-0.5045126942092143
-6.023923259999999,-84.33492564,5.032799532909741,-1.8836397735714276,0.0,0.0,0.0,227,14,136.04819921545214,412.33797999999996,mp-756442,Mg(CoO2)2,https://materialsproject.org/materials/mp-756442,-72.32109134742538,-21.507632332978115,-8.139285405102353,2.224142029976918
-6.459638305,-25.83855322,10.292131564441664,-0.3958474550000002,1e-06,1.4900602982699985e-07,0.0,225,4,78.21203468135073,484.7634,mp-864917,Dy2NiRu,https://materialsproject.org/materials/mp-864917,15.846379228256971,52.255827101320236,-8.604250342815693,-0.5045126942092143
-7.854411616666668,-23.56323485,5.762098864320018,-0.25346092624999983,1e-05,2.5298635319945192e-06,0.0,123,3,46.06598192026486,159.84974499999996,mp-1215913,YCoC,https://materialsproject.org/materials/mp-1215913,-13.335525834008891,35.08296279452789,-8.604250342815693,-0.5045126942092143
-6.574610079903848,-683.75944831,4.067519707283017,-2.3812602240796705,1.9830991875,0.01748750443539767,0.0010999999999996568,56,104,1321.5817309389545,3237.2377920000004,mp-582585,SrCu2(PO4)2,https://materialsproject.org/materials/mp-582585,-58.18740060641864,-13.92572234692902,0.5387033576950208,-2.4285678557343724
-6.891136838125,-1102.5818941,4.750636909882618,-2.4830170501919997,24.001275275,0.15547612717316509,0.19120000000000026,2,160,1799.0698749998407,5146.95984,mp-1247636,Sr3Ca5Mn8O24,https://materialsproject.org/materials/mp-1247636,-33.66881366788771,6.216732784598019,-8.604250342815693,-0.5045126942092143
-1.9628317977118648,-231.61415213,4.337118424410487,-0.2776374018644069,6.5e-07,2.985337217242629e-09,0.0,227,118,2537.449390444571,6627.4976000000015,mp-570883,Ca21(Zn18Ni)2,https://materialsproject.org/materials/mp-570883,-12.97865272425496,49.778018581781204,-8.604250342815693,-0.5045126942092143
-7.5280194421666655,-451.68116653,5.5478980188956335,-2.838849169759333,38.0001277,0.6346983860628421,0.0,1,60,697.742359687507,2331.172807,mp-698723,Ca6Nd6ScMn11O36,https://materialsproject.org/materials/mp-698723,-32.484415987738416,6.248281903067603,-8.604250342815693,-0.5045126942092143
-6.827295686666666,-81.92754824,2.6181762596853995,-0.6704271045233318,1e-07,5.30708445980253e-09,0.1822000000000001,38,12,219.5944847087157,346.2352,mvc-10945,Ca2VN3,https://materialsproject.org/materials/mvc-10945,31.368248587568086,-14.160818097964015,-8.139285405339848,2.224142030027199
-6.27969588142857,-87.91574234,5.478127223823611,-1.8358173164285716,0.0,0.0,0.0,227,14,115.71740577084505,381.752344,mp-770957,Be(CoO2)2,https://materialsproject.org/materials/mp-770957,34.37674395790052,-8.034300471949747,8.592259341768699,-2.046174976392708
-4.5364315275,-54.43717833,10.045412611822297,-0.6605534886111114,0.0,0.0,0.0,62,12,258.377857528076,1563.0539999999999,mp-11102,YbInRh,https://materialsproject.org/materials/mp-11102,5.963978736476082,49.81596793634172,-8.604250342815693,-0.5045126942092143
-3.513987091428572,-49.19581928,8.999981387263395,-0.7852198192857145,5e-08,1.738906173474725e-09,0.0,148,14,335.0975731276017,1816.200552,mp-12699,Ca3Au4,https://materialsproject.org/materials/mp-12699,-11.608893040062506,49.14125702760798,-8.604250342815693,-0.5045126942092143
-5.730234281642858,-802.23279943,3.7655630979208974,-1.7693287645420883,35.000003425,0.14137691164952826,0.08260000000000023,22,140,2885.140877641474,6542.56224,mp-1201493,Rb11Mn8O16,https://materialsproject.org/materials/mp-1201493,-28.44557051435224,-27.313187986767286,1.0504054862784435,0.7087899184272847
-3.5278749125,-14.11149965,5.810916514440818,1.502313098333333,0.5032612,0.06542035011842734,0.0,225,4,89.65159329931616,313.7282,mp-20149,GdMg2Ag,https://materialsproject.org/materials/mp-20149,-6.207596231847089,51.86661177044378,-8.604250342815693,-0.5045126942092143
-8.743065467000001,-87.43065467,6.5506390913578425,-0.5208791977499999,0.00044039999999999997,4.222390451052758e-05,0.0,63,10,121.55318617101429,479.5136,mp-27769,V3AsC,https://materialsproject.org/materials/mp-27769,53.532682766078615,50.58225672098234,-8.604250342815693,-0.5045126942092143
-7.663081824642857,-214.56629109,6.7961120852405354,-0.4830323110714281,0.775883725,0.021589544475549116,0.0,63,28,418.8230649037308,1714.1232,mp-540782,V4As3,https://materialsproject.org/materials/mp-540782,53.56516915624262,50.684833733659936,-8.604250342815693,-0.5045126942092143
-4.265661806000001,-21.32830903,5.86575021809366,-0.3763874569999999,0.0,0.0,0.0,139,5,88.4516734871501,312.4500000000001,mp-4441,Ca(CuGe)2,https://materialsproject.org/materials/mp-4441,-4.0202259890005845,55.62748285855864,-8.604250342815693,-0.5045126942092143
-8.397453439166666,-100.76944127,6.9171874466787004,-0.5620104132142849,0.93470965,0.0817219368490601,0.0,62,12,133.29550454434542,555.259448,mp-21495,CrFeP,https://materialsproject.org/materials/mp-21495,14.885321477438193,24.490549443914876,-8.604250342815693,-0.5045126942092143
-7.0809849236249995,-566.47879389,7.13879554986659,-2.341514649625,3.0006988999999997,0.040674289411977066,0.3562000000000003,2,80,859.7652189899388,3696.20224,mp-694913,CaTa2Ga2(CuO4)3,https://materialsproject.org/materials/mp-694913,-53.314854188920755,-5.913400801324888,-4.288453698146004,-0.6160980010382606
-7.469089741499999,-298.76358966,5.795243732886077,-2.768168319480499,23.999999600000002,0.5944787866300207,0.0,1,40,470.49206156767207,1642.0066650000006,mp-39207,Ca3La5Mn7NiO24,https://materialsproject.org/materials/mp-39207,-31.201114947341686,8.890869347954053,-8.604250342815693,-0.5045126942092143
-7.788791847222222,-140.19825325,6.943464230676905,-0.4618149685185181,0.0007119,3.5879989159210066e-05,0.0,193,18,231.22996706523816,966.877,mp-1106398,V5Ge3B,https://materialsproject.org/materials/mp-1106398,53.623914573376005,51.386754578971384,-8.604250342815693,-0.5045126942092143
-6.6456484340625,-212.66074989,4.08316356157909,-0.8529982149475002,3.00000045,0.061089989949751775,0.0,18,32,572.3065201150895,1407.2666000000004,mp-569547,Sr6FeC2N7,https://materialsproject.org/materials/mp-569547,6.779178417144978,6.620565042101736,-8.604250342815693,-0.5045126942092143
-5.676364997777778,-51.08728498,6.0562314051260575,-0.6581731544444439,4.566666666666666e-06,3.571822824731286e-07,0.0,189,9,149.00019328933658,543.4257359999998,mp-1078430,ScCuGe,https://materialsproject.org/materials/mp-1078430,-5.705389239480421,57.49065831550486,-8.604250342815693,-0.5045126942092143