energy_per_atom,energy,density,formation_energy_per_atom,total_magnetization_uB,total_magnetization_T,band_gap,sgr,num_sites,cell_volume,weight,mp_id,formula,URL,tsne_cry_lin1_0,tsne_cry_lin1_1,tsne_cry_lin2_0,tsne_cry_lin2_1
-8.29588423625,-66.36707389,5.227343768917593,-0.3225145968750001,1.3e-06,1.8643031575061282e-07,0.0,129,8,81.26513192518586,255.82101400000002,mp-615314,ScCoC2,https://materialsproject.org/materials/mp-615314,-10.93420241018286,29.33397400247514,-8.604250342815693,-0.5045126942092143
-6.241865432000001,-62.41865432,5.6019469388475,-0.3646552329520006,1.03149105,0.07171916163014358,0.0,140,10,167.61299540851238,565.4544,mp-1247460,Ba(NiN)2,https://materialsproject.org/materials/mp-1247460,20.555803272960567,22.398868998594303,-8.604250342815693,-0.5045126942092143
-5.1558978133333335,-46.40308032,6.594747050241223,-0.5612455355555552,1.3333333333333334e-07,9.123606329897366e-09,0.0,189,9,170.31371661839762,676.392336,mp-1080424,ScAgGe,https://materialsproject.org/materials/mp-1080424,19.040174599261807,61.14859207398928,-8.604250342815693,-0.5045126942092143
-5.572796984,-27.86398492,5.145360278646948,-0.496445799,0.0,0.0,0.0,139,5,73.65206565126657,228.21891200000002,mp-6969,Sc(CuSi)2,https://materialsproject.org/materials/mp-6969,-3.7620811113600174,57.373509243476384,-8.604250342815693,-0.5045126942092143
-4.624654248181818,-50.87119673,9.415947746933073,-0.4417119463636364,3.2e-06,1.6864396094798921e-07,0.0,12,11,221.13455508609883,1253.925,mp-1206069,Lu3(CuSn)4,https://materialsproject.org/materials/mp-1206069,-5.0174090324812415,54.53465956617235,-8.604250342815693,-0.5045126942092143
-6.065267154583332,-873.39847026,4.627403362271101,-2.1756852352777782,23.998850875,0.14909656176935074,0.0,1,144,1875.859236760378,5227.43346,mp-1076175,Sr4Ca4Co7CuO20,https://materialsproject.org/materials/mp-1076175,-33.149547316148066,-16.044552235237934,-8.604250342815693,-0.5045126942092143
-4.115036225918368,-201.63677507,4.769894514975798,-2.045445732244898,1.9999977,0.013953882421344035,0.012000000000000456,87,49,1670.3668582672046,4798.1249,mp-1205126,Ba9Pr6Br34,https://materialsproject.org/materials/mp-1205126,-33.828990494571656,35.28542021992784,-8.604250342815693,-0.5045126942092143
-6.743711823541666,-323.69816753,4.448314032340492,-2.530485251145834,0.0,0.0,0.0,62,48,645.9306639119478,1730.3432,mp-22407,BaCu2Si2O7,https://materialsproject.org/materials/mp-22407,-58.5526525134139,-11.61730074766286,-4.633555061446447,-0.5824576575638141
-5.4476912025,-43.58152962,5.683048781499183,-0.3340610399999999,8.900000000000001e-06,1.385474095158939e-06,0.0,194,8,74.86330985054076,256.213092,mp-984612,Be3Ru,https://materialsproject.org/materials/mp-984612,-27.871396224057,50.871804660324386,-8.604250342815693,-0.5045126942092143
-4.7159571457142855,-66.02340004,3.7396448816048022,-0.8561682794642864,0.1162887,0.005653013109869981,0.0,227,14,239.73693599800131,539.9036,mvc-11190,Mg(NiS2)2,https://materialsproject.org/materials/mvc-11190,17.31536241362849,10.354502521737972,-8.604250342815693,-0.5045126942092143
-5.471503111333333,-164.14509334,4.669858319640332,-1.5534695469000004,0.99999995,0.03787196604282087,0.0,59,30,307.7227143866653,865.39457568,mp-766225,Na3(CoO2)4,https://materialsproject.org/materials/mp-766225,-73.88887472844966,-22.900506495608106,-0.7088264039884234,-1.7668154283808282
-4.597175905,-9.19435181,8.762292968136919,-0.23379742500000056,3.4e-06,9.398335268725278e-07,0.0,221,2,42.16046682071306,222.47135,mp-1837,TbCu,https://materialsproject.org/materials/mp-1837,-12.79512651904449,58.44463601371687,-8.604250342815693,-0.5045126942092143
-4.635334863374999,-370.82678907,3.945799247359439,-0.48503662582699997,0.215213275,0.001331418274090709,0.0,11,80,1883.7877589427053,4476.2864,mp-1245409,Sr5ZnN4,https://materialsproject.org/materials/mp-1245409,7.5467836451009,4.452832222923481,-8.604250342815693,-0.5045126942092143
-7.535451268333333,-180.85083044,3.3493494583936947,-1.3785826861899997,5e-08,1.697296008560657e-09,1.6563,15,24,343.3126783360136,692.4704,mp-17892,Ca2VN3,https://materialsproject.org/materials/mp-17892,32.202196154674375,-11.912396475258065,7.419893258011282,-4.730038073707852
-5.831713197857143,-81.64398477,4.2305143440991495,-2.394827972576972,0.9999998999999999,0.0388961407386245,0.7267000000000001,2,14,299.6200493377108,763.3346076000001,mp-561495,Cs4CuSi2O7,https://materialsproject.org/materials/mp-561495,-52.44693615283446,-15.787136625709042,3.90596007120212,0.06254601549779873
-6.039885405,-24.15954162,6.6607472361249185,0.6494158031250006,0.026534600000000002,0.0035539351770933008,0.0,225,4,87.01226435055038,349.02322999999996,mp-631336,LaMgNb2,https://materialsproject.org/materials/mp-631336,-8.098818171811391,52.008071765148564,-8.604250342815693,-0.5045126942092143
-9.081673367368422,-172.55179398,6.432616843370241,-0.33994173626526364,6.1597289,0.399801706713502,0.0,12,19,179.55370969301453,695.5573999999998,mp-1246813,Cr8Fe3N8,https://materialsproject.org/materials/mp-1246813,-0.6076175473817116,15.448094562700248,-8.604250342815693,-0.5045126942092143
-3.2312627875,-12.92505115,5.657801019902783,-0.39803571999999976,1.8100000000000003e-05,1.9050573982645413e-06,0.0,225,4,110.72557319033541,377.265,mp-862745,Sr2LiPt,https://materialsproject.org/materials/mp-862745,-13.142578626508243,47.625291048856496,-8.139285405354567,2.224142030030314
-6.673170759166666,-160.15609822,3.8427613439424007,-2.0201666786775,8.9999999,0.41749499789363304,1.3872,2,24,251.22835558943194,581.3838700000001,mp-770534,Li2Mn3O7,https://materialsproject.org/materials/mp-770534,-65.74855290996955,-38.680916757594616,3.9100474288970255,0.6928086431585214
-3.8273947491666656,-91.85747398,3.9403430917293862,-1.2271080722557468,0.078370825,0.0015394941892891384,1.4328,14,24,593.2719182595126,1407.7928,mp-28568,Rb3CuO2,https://materialsproject.org/materials/mp-28568,16.973460660226642,-17.799811823020068,7.349631697174942,-2.7146424460445457
-4.470166355999999,-134.10499068,6.611070559551153,-0.25414171788888873,5e-08,1.1057135335154608e-09,0.0,186,30,526.992951578843,2098.1064,mp-21677,Ca3(InNi2)4,https://materialsproject.org/materials/mp-21677,31.542449634679826,76.43287243757854,-8.604250342815693,-0.5045126942092143
-7.219151872777778,-129.94473371,3.5402464332067995,-3.1878214209722224,2.0000006999999997,0.10436293766051387,1.5073,46,18,223.33730944585562,476.1520772,mp-1251643,Ca2AlVO5,https://materialsproject.org/materials/mp-1251643,-14.608359402450038,-29.001086133523124,5.060640257454627,-0.541060856086772
-2.78218524,-27.821852399999997,0.25005267316330765,0.8602592916437498,2.8782601000000003,0.005329169469766937,0.0,65,10,6294.3071763752905,947.82976928,mp-1206865,Na(SmSe2)3,https://materialsproject.org/materials/mp-1206865,35.726793673616555,-9.686255270400283,-11.331577586758726,-0.2927616137591279
-7.245487594285714,-50.71841316,7.242830941824508,-2.878013887857142,6.9e-05,8.568041060012347e-06,0.0,139,7,93.85231276021221,409.3589,mp-10498,Pr2CuO4,https://materialsproject.org/materials/mp-10498,-42.85491062355325,-4.106111302737509,-8.604250342815693,-0.5045126942092143
-7.528241491111111,-406.52504052,8.944294999731191,-0.5149837777777788,2.2204114333333336,0.03765353133136118,0.0,176,54,687.2348422801524,3701.70831,mp-541830,UCo5Si3,https://materialsproject.org/materials/mp-541830,49.271345695334425,50.718500434836905,-8.604250342815693,-0.5045126942092143
-6.7468082725,-80.96169927,5.273138478445246,-2.6139862194308328,6.0837620999999995,0.4644812039040286,0.0,139,12,152.6446215224961,484.73189,mp-19070,Sr3Mn2O7,https://materialsproject.org/materials/mp-19070,-33.97831922580558,5.455109007447388,-8.604250342815693,-0.5045126942092143
-5.2307138825,-20.92285553,10.924528103600302,-0.6484209174999993,1.63e-05,2.4038026535114084e-06,0.0,225,4,79.0253124628317,519.9,mp-1185442,Lu2CuPd,https://materialsproject.org/materials/mp-1185442,-9.84269330405102,55.4419346826911,-8.604250342815693,-0.5045126942092143
-5.8305459475,-23.32218379,10.682378510253322,-0.2603491612500006,0.00021749999999999997,3.093989760447561e-05,0.0,225,4,81.92525781549672,527.0316399999998,mp-867269,LiHo2Os,https://materialsproject.org/materials/mp-867269,9.118408123439034,42.8003542262345,-8.604250342815693,-0.5045126942092143
-7.10871624,-99.52202736,5.550935098632215,-2.912511142815713,6.9999994999999995,0.4263429450839194,0.0,38,14,191.34466401180373,639.63676,mp-1218441,Sr3LaMn2O8,https://materialsproject.org/materials/mp-1218441,-32.77908077013027,5.47274437019637,-8.604250342815693,-0.5045126942092143
-5.15830615125,-82.53289842,3.779708152558666,-2.0215008870087496,6.9955781,0.43397995893021,0.0,63,16,187.8587216328364,427.6027992,mp-755433,LiCo2O2F3,https://materialsproject.org/materials/mp-755433,-49.40300950059215,-33.1579668353658,4.176040088175872,-0.3688833588650664
-3.8096555125,-15.23862205,5.8006434301821255,-0.4054471487499995,1e-07,2.1099770468332805e-08,0.03400000000000025,225,4,55.2331353085119,192.942,mp-30080,Li2GePd,https://materialsproject.org/materials/mp-30080,-4.259941016559685,4.256767922819126,-8.604250342815693,-0.5045126942092143
-4.514986201666667,-27.08991721,9.59208955341549,-0.28939859833333337,7.000000000000001e-06,7.959383696972006e-07,0.0,74,6,102.49342978521412,592.05242,mp-1077209,TmCu2,https://materialsproject.org/materials/mp-1077209,39.297469495809366,74.2900358167036,-8.604250342815693,-0.5045126942092143
-6.0839819692857136,-85.17574757,4.084105315390292,-1.1953849792261906,2.9999997000000005,0.1279641903295075,0.2907000000000002,5,14,273.2185522483445,671.9826,mp-1238852,TiCrAgS4,https://materialsproject.org/materials/mp-1238852,14.481037332060426,3.515024832339064,-11.331270281384148,-0.28928531432615817
-4.56802454875,-73.08839278,3.0263012903938913,0.18270660791666596,0.4027220625,0.014814506710141846,0.0,59,16,316.80764628503067,577.376,mp-1094416,MgTi,https://materialsproject.org/materials/mp-1094416,-17.48717091781972,38.827406404290564,-8.604250342815693,-0.5045126942092143
-5.894041335,-94.30466136,2.9464345366519176,-0.8011815140174994,2.0000001,0.13099520804942086,0.08199999999999985,148,16,177.9311705946706,315.71828999999997,mp-569112,Li3CaMnN3,https://materialsproject.org/materials/mp-569112,2.4477613394527595,5.002219877503069,-8.604250342815693,-0.5045126942092143
-5.7060437538888875,-102.70878757,4.283322404962648,-1.8379621365277783,4.0159940999999995,0.2449075275618279,0.0,55,18,191.10337617451165,492.94678,mvc-3949,Mg2Co2O5,https://materialsproject.org/materials/mvc-3949,-41.4071865053729,-21.839179458375014,-8.604250342815693,-0.5045126942092143
-8.633499325833332,-103.60199191,1.8929695254561931,-0.11961658075333165,0.0,0.0,0.0,46,12,280.74175845775835,320.038,mp-1016058,CrN2,https://materialsproject.org/materials/mp-1016058,-4.9044619672810486,9.702477910735086,-8.604250342815693,-0.5045126942092143
-4.0611374375,-16.24454975,8.350815511648538,-0.66650394875,9.000000000000001e-07,1.5287282479705625e-07,0.0,216,4,68.61035183478664,345.04,mp-11806,LiMgSnPt,https://materialsproject.org/materials/mp-11806,29.6239767456499,38.636199137584704,-8.604250342815693,-0.5045126942092143
-7.1899760408653846,-747.75750825,5.680627377680223,-2.812868102067308,0.00021805,1.68847721857222e-06,0.18920000000000006,14,104,1505.0062835940769,5148.557,mvc-15129,Ba3Y5(CuO5)3,https://materialsproject.org/materials/mvc-15129,-47.532942258007886,-7.547686510260409,-3.662300219355148,-0.7144789851948615
-5.413907265,-21.65562906,8.777944087392259,-0.06358929000000035,0.0020751999999999997,0.0002909127413660174,0.0,225,4,83.13322786226014,439.459,mp-867139,LiEr2Tc,https://materialsproject.org/materials/mp-867139,8.697298738167259,42.862267989918706,-8.604250342815693,-0.5045126942092143
-6.021663737999999,-90.32495607,7.630412757968488,-2.1696673006666667,0.0003346,1.7727285026557452e-05,0.0,139,15,219.96882585554764,1010.788,mp-1208859,Sr2DyCu2(BiO4)2,https://materialsproject.org/materials/mp-1208859,-44.860496383055505,-5.8144312758154575,-8.604250342815693,-0.5045126942092143
-5.9579707325,-47.66376586,7.458289728076919,-0.4848940724999995,3.35e-06,2.922057565698257e-07,0.0,129,8,133.60830890662373,600.1,mp-1095201,ZrCuGe2,https://materialsproject.org/materials/mp-1095201,21.80431764575264,39.506509871510524,-8.604250342815693,-0.5045126942092143
-8.146087882407407,-439.88874565,5.042940411556884,-3.3003463675462963,0.000941,1.4176655356737414e-05,0.0,34,54,773.5586903272557,2349.2434000000007,mp-1203589,Sr5Nb5O17,https://materialsproject.org/materials/mp-1203589,-0.5042442417476384,-39.36639876533137,-8.604250342815693,-0.5045126942092143
-3.68123442,-11.04370326,4.158214632352009,0.07116736833333387,7.400000000000001e-06,1.440437270442953e-06,0.2530999999999999,216,3,59.8707636122341,149.92450000000005,mp-961723,LiCaRh,https://materialsproject.org/materials/mp-961723,8.188306613894593,6.952667118377008,-8.604250342815693,-0.5045126942092143
-6.2979384172,-629.79384172,3.820710282327513,-1.8392759870400004,2.94650365,0.021739716364172348,0.4651000000000001,14,100,1579.539668984585,3634.34,mp-704317,K2Cu3(MoO4)4,https://materialsproject.org/materials/mp-704317,-54.158971822597074,-11.189235423885153,2.1665702033109397,1.7728963909371165
-5.99048146,-47.92385168,6.047242835615437,-0.4730868266666661,2.85e-06,2.820558526983521e-07,0.0,129,8,117.75711896790993,428.8402,mp-1080455,TiCuSiAs,https://materialsproject.org/materials/mp-1080455,22.28757716217246,38.76226131006252,-8.604250342815693,-0.5045126942092143
-5.036975062857144,-70.51765088,4.771493832347615,-1.2008300192857146,1.0000003,0.08885206670922045,0.0,166,14,131.16260206888072,376.890595,mp-752703,Li2CoNi3O8,https://materialsproject.org/materials/mp-752703,-62.76874023090034,-21.41708048406041,-8.604250342815693,-0.5045126942092143
-5.0232151325,-20.09286053,7.429203336985627,-0.754483181875,1.74e-05,2.249651781404513e-06,0.0,225,4,90.13871778677573,403.278,mp-1183576,CaSmPd2,https://materialsproject.org/materials/mp-1183576,14.489624716751035,45.793776380149595,-8.604250342815693,-0.5045126942092143
-6.604394642727272,-290.59336428,3.1152630836288817,-1.2541182560818178,0.00080275,1.36535257211218e-05,1.7915000000000003,57,44,685.1930180714995,1285.46,mp-1247440,Ca5VN5,https://materialsproject.org/materials/mp-1247440,6.276880505785155,7.088090539109316,3.223000962425008,-5.006755068662161
-5.6157529927272725,-247.09313168,7.027296902344997,-0.5037970246590905,0.11982875,0.0010467604990657652,0.0,160,44,1334.1084377574746,5645.863100000001,mp-1203560,La15Cd2Rh5,https://materialsproject.org/materials/mp-1203560,-28.715769729953394,64.47972258719506,-8.604250342815693,-0.5045126942092143
-6.046114655,-108.83006379,5.5918743738130265,-2.1068644376388885,6.0533175,0.25138039510976395,0.0,46,18,280.63347662042486,945.03478,mp-1076439,Ba2Co2O5,https://materialsproject.org/materials/mp-1076439,-32.26898224861205,-16.6271186085015,-8.604250342815693,-0.5045126942092143
-6.8945980139705885,-468.83266495,4.137354413484792,-2.6176257539929395,9.0025894,0.1347129085628359,0.2972999999999999,61,68,778.8174207479277,1940.4805399999998,mp-554162,Ca4Mn3O10,https://materialsproject.org/materials/mp-554162,-33.07545553707202,-8.559283593094579,3.567562191987061,0.5489132430638481
-3.3587021030555557,-483.65310284,4.787343269645986,-0.0912479690277775,0.09316595,0.00023597107192921535,0.0,63,144,4601.250513549201,13265.4307712,mp-1198760,Na5Sn13,https://materialsproject.org/materials/mp-1198760,33.60844173976665,14.013517838512024,-8.604250342815693,-0.5045126942092143
-6.944711371375001,-1111.15381942,4.472543793421368,-2.5170468929180005,23.00000045,0.15183552967967287,0.2211999999999996,1,160,1765.3542328247738,4754.85606,mp-1247623,SrCa7Mn7CrO24,https://materialsproject.org/materials/mp-1247623,-32.973324295011885,-8.344261397666065,2.749417483157695,-0.7114618471256026
-5.475801291428572,-76.66121808,5.217140291468586,-0.7956405737500002,1.585e-05,8.325151976194814e-07,0.0,74,14,221.87814369426067,697.1046,mp-675691,Ni2RhS4,https://materialsproject.org/materials/mp-675691,16.16221677069808,10.193203819588216,-8.604250342815693,-0.5045126942092143
-6.445998277857143,-90.24397589,4.206206334485044,-1.8630156759200005,8.0000005,0.6378649122209697,0.0,166,14,146.1634308789386,370.237335,mp-756596,Li2Mn3CuO8,https://materialsproject.org/materials/mp-756596,-67.0337456213091,-36.78825129786205,-8.604250342815693,-0.5045126942092143
-6.831622250754718,-362.07597929,3.944880095161708,-1.9472994459320765,47.000057500000004,0.944510240987218,0.0,2,53,579.9214139240257,1377.697475,mp-761797,Li6Mn15O32,https://materialsproject.org/materials/mp-761797,-67.13049783422314,-37.342286943546036,-8.604250342815693,-0.5045126942092143
-6.8636794775,-27.45471791,11.111335657478898,-0.9137997774999996,5e-07,7.306196746346991e-08,0.0,225,4,79.75466016834669,533.6705599999999,mp-978908,TbTmRh2,https://materialsproject.org/materials/mp-978908,17.68792419885459,51.0635091361569,-8.604250342815693,-0.5045126942092143
-6.411967204285713,-89.76754086,9.442441428946623,-0.3885889128571429,0.58360015,0.035162294452105884,0.0,136,14,193.42634078215613,1099.89398,mp-1207971,Tm(Co2Ge)2,https://materialsproject.org/materials/mp-1207971,48.551480741625156,49.81163747339146,-8.604250342815693,-0.5045126942092143
-6.074509881704547,-534.55686959,3.118342381070663,-1.1856660321655483,3.94604695,0.03490977570937123,0.010099999999999998,201,88,1317.3240393669064,2473.8156,mp-557781,Rb5CeNi2(NO2)12,https://materialsproject.org/materials/mp-557781,-70.93518479540961,0.5653466951430364,-8.604250342815693,-0.5045126942092143
-3.2264356941666663,-38.71722833,6.68527629063608,-0.1069713348333335,2.3199999999999998e-05,9.148386957723732e-07,0.0,191,12,295.5431421657512,1189.8471000000004,mp-569886,KIn9Ni2,https://materialsproject.org/materials/mp-569886,7.046060487233994,50.879541877366066,-8.604250342815693,-0.5045126942092143
-5.534389505,-44.27511604,5.134905490317177,-0.9837714262968752,2.85e-06,1.7712932578498322e-07,0.6951999999999998,194,8,187.51318820077043,579.8493599999998,mp-7940,KNbSe2,https://materialsproject.org/materials/mp-7940,48.48965955202626,24.350461021303765,-8.604250342815693,-0.5045126942092143
-6.8294744375,-27.31789775,12.995581141584672,-0.596929995,0.4272724,0.06616066506200255,0.0,225,4,75.26315251608379,589.0186150000002,mp-865309,Tm2CoIr,https://materialsproject.org/materials/mp-865309,17.745748419801348,49.096678564012066,-8.604250342815693,-0.5045126942092143
-5.84895758171875,-374.33328523,2.017825517818828,-0.3569273743612502,2.000293525,0.022839694179860183,0.8374999999999999,19,64,1020.6594764757248,1240.2675800000002,mp-1201035,KCo(N3O4)2,https://materialsproject.org/materials/mp-1201035,-51.47898031778683,9.523454902354594,2.209229733175792,0.37721931796365016
-3.30825958,-26.46607664,1.614243676520526,-0.10275121728250004,0.0,0.0,0.0,6,8,121.18429196811948,117.80570784,mp-29928,Na3Li3N2,https://materialsproject.org/materials/mp-29928,4.750383710898205,1.5981577024290925,-5.3955426277571314,-3.5407649578551026
-6.78111344,-27.12445376,6.8195985884559,-0.3336790187500007,5.379999999999999e-05,8.969375690480399e-06,0.0,225,4,69.90326934673533,287.082824,mp-862887,LiSc2Os,https://materialsproject.org/materials/mp-862887,8.000892435143506,43.406196893048076,-8.604250342815693,-0.5045126942092143
-5.45452751,-49.09074759,12.478848106432318,-0.6538401116666661,2.9333333333333333e-05,1.7694049935064964e-06,0.0,189,9,193.20199045233213,1451.901,mp-1079709,YbSnIr,https://materialsproject.org/materials/mp-1079709,6.600020930170831,48.56088683776908,-8.604250342815693,-0.5045126942092143
-9.173296575,-256.85230409999997,8.00204536209586,-1.0538057367685727,2.245e-05,5.390666077002907e-07,0.0,227,28,485.3458745295309,2338.8548,mp-1194108,Zr4Rh2N,https://materialsproject.org/materials/mp-1194108,-4.788734331338791,20.688686785264142,-8.604250342815693,-0.5045126942092143