energy_per_atom,energy,density,formation_energy_per_atom,total_magnetization_uB,total_magnetization_T,band_gap,sgr,num_sites,cell_volume,weight,mp_id,formula,URL,tsne_cry_lin1_0,tsne_cry_lin1_1,tsne_cry_lin2_0,tsne_cry_lin2_1
-7.4168086925,-207.67064339,6.451101398916184,-3.1044764375595237,1.0,0.030119975892434512,0.0,65,28,386.9214508729718,1503.1682199999998,mp-684769,Sr2La6TiCu3O16,https://materialsproject.org/materials/mp-684769,-42.628007269525156,-4.079769973238927,-8.604250342815693,-0.5045126942092143
-6.666732545,-106.66772072,4.999783416233806,-0.4919845261900005,2.5e-08,1.2563145951631158e-09,0.0,14,16,231.9097624398483,698.26638,mp-1246343,SrCoN2,https://materialsproject.org/materials/mp-1246343,3.639910760435627,7.88794227886684,-4.699228285243441,-0.9951519452069972
-7.085319671111113,-127.53575408,3.6048125476047654,-3.0449676894122217,4.00000095,0.2090236930141424,0.0,46,18,223.01907257205661,484.14516720000006,mp-18907,Ca2MnAlO5,https://materialsproject.org/materials/mp-18907,-32.31461234094162,-10.97463410613648,-8.604250342815693,-0.5045126942092143
-6.556673887647058,-111.46345609,4.1016445748642765,-2.480840251436471,5.999999900000001,0.32615989465593165,0.13439999999999985,1,17,214.38683484894852,529.5500900000002,mvc-12044,Ca3Mn2(GaO5)2,https://materialsproject.org/materials/mvc-12044,-32.65826929458309,-10.711229005269766,0.6516894589834016,-2.291968484372118
-4.2076212625,-16.83048505,8.040015722112111,-0.2740901795833333,0.0,0.0,0.0,225,4,79.06497636288974,382.81765,mp-21148,PrInCu2,https://materialsproject.org/materials/mp-21148,-7.948050189496515,54.00634172012194,-8.604250342815693,-0.5045126942092143
-4.867603285555556,-43.80842957,6.96388854108689,-0.4280917000000007,0.000144,8.777511679052443e-06,0.0,189,9,191.19146617071328,801.8095500000002,mp-1080624,YInCu,https://materialsproject.org/materials/mp-1080624,-7.290535792144003,54.77258880136528,-8.604250342815693,-0.5045126942092143
-6.443147900666668,-96.64721851,5.583469217948487,-2.445349834333333,0.7856331,0.04550091734875357,0.0,139,15,201.22273502069683,676.60014,mp-1214137,Ca2La2Cu3O8,https://materialsproject.org/materials/mp-1214137,-46.24066300083343,0.4330091348303625,-8.604250342815693,-0.5045126942092143
-5.506153073571428,-77.08614303,4.886088896021452,-1.4383311928571427,0.9986313,0.09074595811955803,0.0,166,14,128.24939088496092,377.370185,mp-753237,Li2Co3NiO8,https://materialsproject.org/materials/mp-753237,-72.72065415481507,-22.504746443298398,-8.604250342815693,-0.5045126942092143
-4.676817308333333,-28.06090385,9.074828642860329,-0.2948739520833327,0.0,0.0,0.0,160,6,93.49770705611094,510.964,mp-1219099,SmCu4Pd,https://materialsproject.org/materials/mp-1219099,4.446329414185552,42.76259381502759,-8.604250342815693,-0.5045126942092143
-7.218765027142857,-101.06271038,6.929246407433037,-2.793777953035714,0.0,0.0,0.0,123,14,182.51981676057102,761.63508,mp-20087,Sr2SmTa(CuO4)2,https://materialsproject.org/materials/mp-20087,-47.000275919366636,-6.4820373056246785,-8.604250342815693,-0.5045126942092143
-6.833197454722222,-245.99510837,6.552628140990094,-2.526157597916667,1.999999775,0.045280730172832934,0.35530000000000017,33,36,514.7471525743855,2031.236,mp-768866,Sm2Cu2O5,https://materialsproject.org/materials/mp-768866,-48.66962023367174,-8.245914754733244,2.221338755987833,-0.4029152567700512
-4.44739305,-13.34217915,4.011993264038123,-0.5936866474599997,2.3e-06,2.710207911022021e-07,0.0,160,3,98.90144910240244,238.9537,mp-1227306,BaSrN,https://materialsproject.org/materials/mp-1227306,7.575374481671188,2.3969126300357853,-8.604250342815693,-0.5045126942092143
-6.042236084444443,-108.76024952,4.103443813869732,-2.5185202733796297,1.25e-06,6.101418266920373e-08,0.0,46,18,238.7572909839608,590.0054772000001,mvc-5154,Ca2AlAgO5,https://materialsproject.org/materials/mvc-5154,-35.19540405046459,-4.663428457982008,-8.604250342815693,-0.5045126942092143
-6.970544271315791,-264.88068231,4.194869616675216,-2.528463915875263,26.0000001,0.6634369873193214,0.0,1,38,456.7211220409658,1153.77327,mp-1247579,SrCa7Mn6Cr2O22,https://materialsproject.org/materials/mp-1247579,-31.935995884217448,-9.810798335635631,-8.604250342815693,-0.5045126942092143
-6.7296743743650795,-847.93897117,3.986139512477919,-2.0379561996165068,5.6403801666666675,0.050726489600752725,0.0,12,126,1295.8388471497733,3110.6732850000003,mp-685293,Li7Mn11O24,https://materialsproject.org/materials/mp-685293,-67.15898464438077,-37.186530918166106,-8.604250342815693,-0.5045126942092143
-7.404085397857143,-310.97158671,6.983210162794242,-2.995780240714286,1.1e-06,2.2166128308696657e-08,0.0,36,42,578.3360572169057,2432.12724,mp-673846,La2CuO4,https://materialsproject.org/materials/mp-673846,-42.62356224582119,-4.013802224202854,-8.604250342815693,-0.5045126942092143
-5.303662961136364,-233.36117029,3.719032314741607,-0.7634587674563633,5e-08,6.786439204661857e-10,0.2397,130,44,858.6288347322172,1923.0312,mp-569603,BaCa4(CuN2)2,https://materialsproject.org/materials/mp-569603,5.410344741902267,4.3337644608216905,-8.604250342815693,-0.5045126942092143
-7.111330364407895,-1080.92221539,4.12505575214007,-2.6658784631154377,24.999999725,0.1569873971141066,0.0,1,152,1855.8917560583225,4610.34446,mp-1247577,SrCa7TiMn7O22,https://materialsproject.org/materials/mp-1247577,-31.847462416743944,-9.846158030785343,-8.604250342815693,-0.5045126942092143
-5.292878463333333,-127.02908312,4.587925071188288,-1.6918622409374997,4.86581905,0.16514891917804433,0.0,8,24,343.36628215604884,948.6912,mvc-890,Sr2GaNi2O7,https://materialsproject.org/materials/mvc-890,-36.0191983710852,-15.47959250289482,-8.604250342815693,-0.5045126942092143
-4.3497963083333335,-26.09877785,9.048482466967856,-0.16247530166666674,2.8999999999999997e-05,3.8636485278401535e-06,0.0,216,6,87.47376371555227,476.65535,mp-1077262,TbCu5,https://materialsproject.org/materials/mp-1077262,4.28867056611125,44.93535296813825,-8.604250342815693,-0.5045126942092143
-6.831126285,-81.97351542,4.074794743110987,-2.618743873180834,6.0501949,0.5057581477340009,0.0,139,12,139.41320286607444,342.1058900000001,mp-19124,Ca3Mn2O7,https://materialsproject.org/materials/mp-19124,-35.566608017561094,5.6645867990481005,-8.604250342815693,-0.5045126942092143
-3.705558814444444,-33.35002933,2.8743780389627323,-1.2781403526111117,6e-07,3.483809564480471e-08,0.0,139,9,200.712430863843,347.4314,mp-1232341,K2Li2Cu(BrO)2,https://materialsproject.org/materials/mp-1232341,-50.99718491726814,-3.6850974855804735,-8.604250342815693,-0.5045126942092143
-3.821848085555555,-34.39663277,3.738622147678756,-0.6073879379583329,3.2865483,0.24273691025884556,0.0,139,9,157.79078149055496,355.2582000000001,mp-1232337,K2CuNi2(SO)2,https://materialsproject.org/materials/mp-1232337,-50.82523409803545,-3.6628444894738,-8.604250342815693,-0.5045126942092143
-5.226108660833334,-62.71330393,3.700044305724433,-0.5414222432933334,6.5e-07,3.587302047554621e-08,0.0,12,12,211.16543858712967,470.5228,mp-1245832,CaCuN,https://materialsproject.org/materials/mp-1245832,5.138799189602642,4.481938241520434,-8.604250342815693,-0.5045126942092143
-4.1851305775,-16.74052231,13.006089700821722,-0.7655717599999994,1.31e-05,1.851169064377882e-06,0.0,225,4,82.47126178712305,645.9520689999998,mp-1187934,Yb2RhAu,https://materialsproject.org/materials/mp-1187934,13.774306292535504,47.96776426301138,-8.604250342815693,-0.5045126942092143
-6.031202423846153,-78.40563151,6.433445333396714,-2.13438996221154,0.011335600000000001,0.0007146382029596732,0.0,99,13,184.85691933164443,716.1932700000001,mp-1228519,Ba2LaCu3O7,https://materialsproject.org/materials/mp-1228519,-46.93315939978997,0.9033756633739136,-8.604250342815693,-0.5045126942092143
-4.855350062,-24.27675031,4.586691220747424,-0.5677130509519998,0.0176555,0.0014562077282074778,0.0,164,5,141.2973826510359,390.2874,mp-1247390,Ba2SrN2,https://materialsproject.org/materials/mp-1247390,7.541089918107022,2.37237069963614,-8.604250342815693,-0.5045126942092143
-7.767968805,-31.07187522,7.083700545427434,-0.2270870868749997,0.5812695,0.1296853285849071,0.0,38,4,52.23530276887287,222.8308,mp-19741,CeNiC2,https://materialsproject.org/materials/mp-19741,-21.965796720503608,11.686181256920245,-8.604250342815693,-0.5045126942092143
-4.222784803333333,-38.00506323,9.046121427393096,-0.4130473394444441,3.3333333333333334e-08,2.0548570881185683e-09,0.0,189,9,189.0490720732665,1029.88296,mp-3015,HoInCu,https://materialsproject.org/materials/mp-3015,-7.145836208316539,54.71249951450779,-8.604250342815693,-0.5045126942092143
-6.793531004285714,-47.55471703,3.9206431684271466,-2.7380096522799993,3.0110776,0.4161544735618621,0.0,139,7,84.32275901123339,199.091645,mp-1205312,Ca2MnO4,https://materialsproject.org/materials/mp-1205312,-35.17231291856668,5.395422367822462,-8.604250342815693,-0.5045126942092143
-6.965045740448718,-1086.54713551,4.302027193336694,-2.532221023858206,24.99999955,0.16091226952587515,0.0,1,156,1810.6239811800863,4690.85846,mp-1247601,SrCa7Mn7CrO23,https://materialsproject.org/materials/mp-1247601,-32.285828145907395,-9.179787999111099,-8.604250342815693,-0.5045126942092143
-4.204553345,-16.81821338,9.336202560605432,-0.3224271795833333,2e-07,3.2211029914924215e-08,0.0,225,4,72.36070875933129,406.84032,mp-30586,HoInCu2,https://materialsproject.org/materials/mp-30586,-8.171367356728366,53.914732341522104,-8.604250342815693,-0.5045126942092143
-7.399840191428572,-51.79888134,7.0076493072924775,-2.991535034285714,0.0001196,1.4510983053746216e-05,0.0,42,7,96.05318548272324,405.35454,mp-1223234,La2CuO4,https://materialsproject.org/materials/mp-1223234,-42.61749353249815,-4.025216819572009,-8.604250342815693,-0.5045126942092143
-5.361827956666667,-64.34193548,4.1070279625159225,-0.6466582757933335,1.9999981,0.10710194400128734,0.0,136,12,217.62543733208202,538.2551900000001,mp-569001,Sr2LiCoN2,https://materialsproject.org/materials/mp-569001,6.64914347650888,8.148375727693232,-8.604250342815693,-0.5045126942092143
-5.917303150444443,-266.27864177,5.196138349691277,-2.3655111550833325,20.000011800000003,0.3767639562262084,0.01980000000000004,12,45,618.6404753357469,1935.84217,mp-1218902,Sr12Zn2Co6O25,https://materialsproject.org/materials/mp-1218902,-35.43609092229815,-17.111427413642232,-4.2753830490570515,-1.6514707086326783
-6.585207985555557,-118.53374374,5.02763699913477,-2.6952912705233327,3.9985508999999997,0.1856939802285228,0.0,46,18,250.947128860234,759.79609,mp-21302,Sr2MnGaO5,https://materialsproject.org/materials/mp-21302,-31.061607004548197,-12.912390644421333,0.058533835464667325,1.013666346945266
-5.662621782222222,-815.41753664,5.73728872489138,-1.9261852598611107,3.334624325,0.018460722355948474,0.0,1,144,2105.1141513528546,7273.329559999999,mp-1100085,Ba3SrCoCu3O10,https://materialsproject.org/materials/mp-1100085,-49.323806899012716,1.5500571220005492,-8.604250342815693,-0.5045126942092143
-3.4439534075,-13.77581363,8.922559828191575,-0.3658068349999999,1.3e-06,1.7855265914677324e-07,0.0,225,4,84.85051007766742,455.9265,mp-864763,LiYb2Rh,https://materialsproject.org/materials/mp-864763,-2.7956848779264645,50.72071908045093,-8.604250342815693,-0.5045126942092143
-5.504441565833332,-66.05329879,6.256732072726977,-1.6483556067708338,6.6842521999999995,0.4140416767692701,0.0,25,12,188.14219066728074,708.89949,mvc-2976,Ba2TlCo2O7,https://materialsproject.org/materials/mvc-2976,-51.53019766649054,-2.671558217250974,-8.604250342815693,-0.5045126942092143
-6.991696255902778,-1006.80426085,3.905150797406327,-2.5479213886161114,31.999999525,0.2060033919379516,0.0,1,144,1810.3103239123184,4257.37344,mp-1076897,Ca7MgMn8O20,https://materialsproject.org/materials/mp-1076897,-29.71072607569394,-10.773735258262727,-8.604250342815693,-0.5045126942092143
-7.143105907142857,-200.0069654,5.892816917767742,-0.8554617436309532,0.346964825,0.01072268396618352,0.0,216,28,377.10246400081513,1338.2376,mp-1217206,Ti4Cu2O,https://materialsproject.org/materials/mp-1217206,-5.752285362390664,19.224035217147037,-8.604250342815693,-0.5045126942092143
-7.417170303714285,-519.20192126,6.911445562192661,-3.040169712571428,0.12085370000000001,0.0014666602017323052,0.0,2,70,960.30208370007,3996.9404,mp-774722,LiLa20Cu9O40,https://materialsproject.org/materials/mp-774722,-42.627854399917496,-4.018588967584463,-8.604250342815693,-0.5045126942092143
-5.24922491375,-209.96899655,3.4039749175837475,-0.455229780202,1.90968075,0.025881671679136912,0.012700000000000156,33,40,859.8958920165289,1762.7192,mvc-14842,BaCa3(CuN2)2,https://materialsproject.org/materials/mvc-14842,5.419964334326453,4.254799498896456,-8.604250342815693,-0.5045126942092143
-6.89147332,-27.56589328,6.952852696066164,-0.3164533975000001,3.2e-06,4.5600799288209676e-07,0.0,225,4,81.78147719843436,342.4277,mp-865588,Y2CuRu,https://materialsproject.org/materials/mp-865588,-10.018084170662444,54.9180604988529,-8.604250342815693,-0.5045126942092143
-6.575105850625,-210.40338722,4.1729251338702245,-0.8668204146350007,2.0000003,0.04144009045326385,0.3003,18,32,562.4537202114881,1413.44299,mp-721246,Sr6CoC2N7,https://materialsproject.org/materials/mp-721246,6.769019539418237,6.5555742817772655,-8.604250342815693,-0.5045126942092143
-6.536815027375001,-522.94520219,4.454036630305343,-0.9106938099460002,3.999999975,0.031516859555705684,0.0,14,80,1479.0895874791538,3967.33774,mp-567532,Sr8(MnN3)3,https://materialsproject.org/materials/mp-567532,5.403411714869477,7.466734297333356,-8.604250342815693,-0.5045126942092143
-4.662920616666667,-27.977523699999995,8.839934356478476,-0.2728528495833332,3.3e-06,4.055387865651393e-07,0.0,160,6,94.83288657833384,504.846,mp-1220178,NdCu4Pd,https://materialsproject.org/materials/mp-1220178,4.601915616484903,42.790661046047575,-8.604250342815693,-0.5045126942092143
-6.9968131300000005,-153.92988886,4.194072298870037,-2.79836373689394,0.99999995,0.041294401435751305,0.4905,14,22,282.21898815965784,712.8088,mp-9660,Sr2Cu(BO3)2,https://materialsproject.org/materials/mp-9660,-52.33807019891224,-16.180944714338388,2.7552120639776216,0.9227496768317688
-4.2004791025,-16.80191641,9.473688975639847,-0.3210155845833333,9.000000000000001e-07,1.4624709439423144e-07,0.0,225,4,71.71874654158897,409.16900000000004,mp-4552,ErInCu2,https://materialsproject.org/materials/mp-4552,-8.173828549815552,53.89581986249074,-8.604250342815693,-0.5045126942092143
-3.946758488888889,-35.5208264,5.337800175493542,-0.06744166888888811,0.3072656333333333,0.016831057296934508,0.0,189,9,212.75511871143365,683.9010000000002,mp-1205969,CeMgCu,https://materialsproject.org/materials/mp-1205969,-8.289717368386702,52.37149061142559,-8.604250342815693,-0.5045126942092143
-7.975140965,-31.90056386,10.703678009383552,-0.5721480175,6.5671982,0.9547787421242342,0.0,225,4,80.1594650366429,516.7003500000002,mp-1187411,TbEuRh2,https://materialsproject.org/materials/mp-1187411,6.065038108779451,47.267214102657654,-8.604250342815693,-0.5045126942092143
-5.000961417901236,-405.07787485,4.838616041011672,-3.096393246363826,3.999999666666667,0.03484955146513223,0.02070000000000005,189,81,1337.6429034442854,3897.7345632,mp-559141,Ba5Cu4ClF17,https://materialsproject.org/materials/mp-559141,-52.12728408105002,-12.560720676012824,-5.3987067812947735,-2.923464735687302
-3.957788765,-15.83115506,10.337290652805061,-0.7286203168750003,3.4e-06,4.385375541289589e-07,0.0,225,4,90.35445163962162,562.480138,mp-866064,NdMgAu2,https://materialsproject.org/materials/mp-866064,-14.334844052883511,44.897461772204075,-8.604250342815693,-0.5045126942092143
-7.149514128333332,-257.38250862,8.402437826486095,-3.137034303194445,1.00360445,0.023912729307270172,0.0,62,36,489.114860793962,2474.95368,mp-22202,BaTm2CuO5,https://materialsproject.org/materials/mp-22202,-47.012617047166316,-7.533583992044206,-8.604250342815693,-0.5045126942092143
-6.315829071875,-101.05326515,7.167617123907723,-2.421726520859375,4.7799999999999996e-05,2.33918971659311e-06,0.0,139,16,238.1441283606889,1027.9348400000001,mp-1214673,Ba2La2TlCu2O9,https://materialsproject.org/materials/mp-1214673,-47.03678538223927,-3.5665179107222986,-8.604250342815693,-0.5045126942092143
-6.437228453181818,-283.23805194,4.17775638304448,-2.5333132794054545,3.9999998999999997,0.08759856309085905,0.5780999999999996,14,44,532.1577920916459,1338.85778,mp-1214191,Ca3MnCuO6,https://materialsproject.org/materials/mp-1214191,-33.08311247194517,-9.274476316258967,1.7832199035363698,-1.4441818793963368
-3.7260615366666663,-33.53455383,5.272879585633829,-0.1826552825,1.0533333333333336e-05,5.730085158142023e-07,0.0,189,9,214.23093296126927,680.26941,mp-1206944,LaMgCu,https://materialsproject.org/materials/mp-1206944,-8.281896745625504,52.35253149440186,-8.604250342815693,-0.5045126942092143
-7.022283017777778,-63.20054716,6.727487565936278,-1.8038162059722225,6.1263987,0.5855855071072256,0.0,99,9,121.92488783581189,493.965,mp-1206575,BaGdFeCuO5,https://materialsproject.org/materials/mp-1206575,-48.525843764970354,-3.924832597686712,-4.4158182918957865,-1.5787075297839768
-1.8144341133333333,-10.88660468,4.41586387298192,-0.2984512983333332,0.0,0.0,0.0,74,6,128.52727708212208,341.7920000000001,mp-1725,CaZn2,https://materialsproject.org/materials/mp-1725,-12.914907093459627,49.750583769512005,-8.604250342815693,-0.5045126942092143
-4.23348439,-93.13665658,3.604860197370075,-2.237267955757272,3.00000005,0.13852124884920286,0.0,227,22,252.39589731423007,547.9256448,mp-863404,Li2Cu2F7,https://materialsproject.org/materials/mp-863404,-52.10264400453164,-11.87822571832473,-8.604250342815693,-0.5045126942092143
-5.334583188333333,-32.00749913,8.269179121429278,-0.2579256029166667,7.53e-05,9.885238092897168e-06,0.0,191,6,88.77389387356193,442.07767,mp-1222916,LaCu2Ni3,https://materialsproject.org/materials/mp-1222916,29.964819682793237,77.20397209622021,-8.604250342815693,-0.5045126942092143
-3.3663607525,-40.39632903,5.385630108641782,-0.35725099583333336,4.625e-06,1.1468517625919433e-07,0.0,62,12,469.9827068432256,1524.296,mp-1103028,Ba2Pd,https://materialsproject.org/materials/mp-1103028,-3.6124533797441667,7.442480492455265,-8.604250342815693,-0.5045126942092143
-4.77840407,-95.5680814,2.8969028906897725,-0.5233348919519998,0.011175575,0.00023343931785884165,0.0,64,20,557.9217593471299,973.3256,mp-1245911,Sr2CaN2,https://materialsproject.org/materials/mp-1245911,7.1843610733857455,2.3157362481670543,-8.604250342815693,-0.5045126942092143
-4.215766407777778,-37.94189767,9.191402508971676,-0.4095791405555558,6.666666666666667e-08,4.147581921592381e-09,0.0,189,9,187.3230393495615,1036.869,mp-3950,ErInCu,https://materialsproject.org/materials/mp-3950,-7.139102659226728,54.71349309237029,-8.604250342815693,-0.5045126942092143
-5.226986203913044,-120.22068269,6.425164093896036,-1.758987149130435,2.4267903,0.0889387612704628,0.0,139,23,317.99376269266986,1230.421,mvc-126,Ba2Ca3Tl2(NiO3)4,https://materialsproject.org/materials/mvc-126,-27.15371964735884,-12.894985553657165,-8.604250342815693,-0.5045126942092143
-5.391148025833334,-64.69377631,10.290566845791089,-0.8916406975000003,0.0,0.0,0.0,62,12,224.9982300108839,1394.342,mp-20498,YbGeRh,https://materialsproject.org/materials/mp-20498,6.530882991368692,48.31982712700956,-8.604250342815693,-0.5045126942092143
-4.061248966111111,-292.40992556,2.160321640159026,-0.4291064686505553,0.0008937000000000001,1.32431373378631e-05,0.2892000000000001,191,72,786.4630126170081,1023.1696,mp-532007,Li47Cu7N18,https://materialsproject.org/materials/mp-532007,8.264361236265366,0.4731989147559209,-6.034550108924389,-0.9780380668480441
-4.1759626725,-16.70385069,9.569982917440724,-0.3188073858333329,0.0,0.0,0.0,225,4,71.28778138356421,410.84421000000003,mp-622636,TmInCu2,https://materialsproject.org/materials/mp-622636,-8.16278308862052,53.89513433993715,-8.604250342815693,-0.5045126942092143