energy_per_atom,energy,density,formation_energy_per_atom,total_magnetization_uB,total_magnetization_T,band_gap,sgr,num_sites,cell_volume,weight,mp_id,formula,URL,tsne_cry_lin1_0,tsne_cry_lin1_1,tsne_cry_lin2_0,tsne_cry_lin2_1
-7.52819858625,-60.22558869,7.914042187473103,-0.22142099291666728,2.7910095,0.3450003480388152,0.0,194,8,94.27992081378989,449.33317,mp-1079863,TiCo3,https://materialsproject.org/materials/mp-1079863,45.57762957242387,78.6609406108225,-8.604250342815693,-0.5045126942092143
-6.721066818157895,-255.40053909,8.036575900665555,-0.10811836026315734,21.359677899999998,0.5014511794028331,0.0,194,38,496.4133698200759,2402.51125,mp-1197924,Y2Ga2Co15,https://materialsproject.org/materials/mp-1197924,42.275364477472856,77.06154071227368,-8.604250342815693,-0.5045126942092143
-7.377763885357143,-413.15477758,10.974746303576119,-0.1130831182142852,3.14654615,0.04650674394696745,0.0,58,56,788.488927192235,5211.239079999999,mp-642894,UCo5Sn,https://materialsproject.org/materials/mp-642894,42.4469321244139,76.94249740624825,-8.604250342815693,-0.5045126942092143
-6.8208037525,-27.28321501,12.370002062461575,0.025899227500000063,5.352774,1.249597096698439,0.0,187,4,49.92135070871387,371.883585,mp-1226436,Co3Pt,https://materialsproject.org/materials/mp-1226436,47.905987813852654,78.2290479708222,-8.604250342815693,-0.5045126942092143
-6.44393177,-38.66359062,9.381494901058977,-0.19983880916666766,4.718064,0.6766142135917401,0.0,191,6,81.2643635805426,459.116705,mp-1223880,HoCo3Ni2,https://materialsproject.org/materials/mp-1223880,43.01858261211966,77.96583414810965,-8.604250342815693,-0.5045126942092143
-7.96430413736842,-302.64355722,8.002321137345374,-0.0050900210526334064,77.616839,1.7370982612078805,0.0,1,38,520.7256776127118,2509.434585,mp-1219400,Sm4Fe31Co3,https://materialsproject.org/materials/mp-1219400,50.668209540259674,72.88769282649127,-8.604250342815693,-0.5045126942092143
-6.7238969427777775,-121.03014497,9.772589244917686,-0.1789210794444445,8.99448815,0.4128901840843419,0.0,166,18,253.87464157953517,1494.10073,mp-569509,Er2Co7,https://materialsproject.org/materials/mp-569509,43.50814779518957,75.53133597397246,-8.604250342815693,-0.5045126942092143
-6.446644668333334,-38.67986801,9.48230030750447,-0.2043268058333337,4.730258900000001,0.6821920391700821,0.0,191,6,80.80824818571789,461.445385,mp-1225558,ErCo3Ni2,https://materialsproject.org/materials/mp-1225558,43.017109057656974,77.95407289926492,-8.604250342815693,-0.5045126942092143
-6.2767768550000005,-37.66066113,8.758509709207019,-0.06750706541666672,5.154881400000001,0.7047149255884859,0.0,187,6,85.24769314385688,449.63878,mp-1219087,SmCo4Cu,https://materialsproject.org/materials/mp-1219087,40.12126053271814,75.72257782163766,-8.604250342815693,-0.5045126942092143
-7.86961728375,-188.87081481,8.898727428732638,-0.13807846500000073,0.26865106666666666,0.011242857243260988,0.0,160,24,278.4769800423505,1492.3411499999993,mp-1220600,NbVCo6,https://materialsproject.org/materials/mp-1220600,47.28131226204485,79.16997285144132,-8.604250342815693,-0.5045126942092143
-6.2430398999999985,-37.4582394,9.111368339855623,-0.2303582483333327,4.1534443,0.5675648821588158,0.0,65,6,85.28453824927512,467.95578,mp-1225686,DyGaCo4,https://materialsproject.org/materials/mp-1225686,41.19179563509419,77.62676065550299,-8.604250342815693,-0.5045126942092143
-6.32883792,-12.65767584,9.006851940100269,0.11528749000000005,2.2794052000000002,1.2249472016320508,0.0,65,2,21.68610680388228,117.626595,mp-1226063,CoNi,https://materialsproject.org/materials/mp-1226063,44.017902496558676,78.66620510763335,-8.604250342815693,-0.5045126942092143
-6.5669580675,-78.80349681,8.6378652052812,-0.0431884193749994,3.339074866666667,0.2101737003970165,0.0,166,12,185.15063827230333,963.124755,mp-1095461,NdCo3,https://materialsproject.org/materials/mp-1095461,43.95116006799549,76.78805978088975,-8.604250342815693,-0.5045126942092143
-8.16741629,-32.66966516,8.136128345858456,-0.04504455250000028,9.3536782,2.3584210027533867,0.0,123,4,46.22091283838446,226.468195,mp-601820,Fe3Co,https://materialsproject.org/materials/mp-601820,48.99242260073132,74.32825455595702,-8.604250342815693,-0.5045126942092143
-6.53789325,-78.454719,8.417617012326204,-0.009477131250000308,3.340037433333333,0.20702389428070014,0.0,166,12,188.02183547983557,953.121705,mp-571334,PrCo3,https://materialsproject.org/materials/mp-571334,43.61145505064068,77.25033221463747,-8.604250342815693,-0.5045126942092143
-7.925732859999999,-317.0293144,7.932715112548211,-0.038189423437501084,72.70347609999999,1.5899358181172714,0.0,8,40,532.9089451314887,2545.8087649999998,mp-1219288,Sm4Fe27Co7C2,https://materialsproject.org/materials/mp-1219288,55.898966215222075,75.56904266713597,-8.604250342815693,-0.5045126942092143
-7.66058847,-30.64235388,8.743722756882304,0.08108324999999983,2.7762751,0.7446280365542064,0.0,187,4,43.45107658256877,228.79568500000002,mp-1226209,CrCo3,https://materialsproject.org/materials/mp-1226209,46.931601501486156,79.69928366336273,-8.604250342815693,-0.5045126942092143
-6.9424629375,-55.5397035,12.661035022332161,-0.09575995750000033,5.6968073,0.6806001990966719,0.0,194,8,97.5476665436014,743.76717,mp-865193,Co3Pt,https://materialsproject.org/materials/mp-865193,47.716345330404785,78.50269446858306,-8.604250342815693,-0.5045126942092143
-7.7614656575,-31.04586263,8.090840630075252,0.027971615000000227,8.6140871,2.162141529091961,0.0,225,4,46.43041524762328,226.2284,mp-1007853,Fe3Ni,https://materialsproject.org/materials/mp-1007853,49.333529414925366,74.3282404822708,-8.604250342815693,-0.5045126942092143
-7.3009420075,-29.20376803,8.138934195251421,0.06875421250000002,7.4338799,1.8375838967458555,0.0,65,4,47.146102019858674,231.081,mp-1225131,Fe3Cu,https://materialsproject.org/materials/mp-1225131,49.108164047435295,74.33900339290746,-8.604250342815693,-0.5045126942092143
-7.932992434375,-126.92787895,8.20682690950156,-0.06371504624999957,36.355557399999995,2.2881691738216494,0.0,221,16,185.16551382189726,915.137365,mp-601842,Fe9Co7,https://materialsproject.org/materials/mp-601842,48.626974979548656,74.54030412996526,-8.604250342815693,-0.5045126942092143
-8.239573085625,-131.83316937,8.039149557460116,-0.032836565000000206,37.556030299999996,2.3471129578824548,0.0,123,16,186.47607404088726,902.784585,mp-641526,Fe13Co3,https://materialsproject.org/materials/mp-641526,49.144594265062345,74.24240756471637,-8.604250342815693,-0.5045126942092143
-6.616000005833333,-79.39200007,7.703073049914146,-0.1679981391666665,8.599456800000002,0.606968246153915,0.0,47,12,165.11345888531946,765.944675,mp-1216167,Y2(CoNi)5,https://materialsproject.org/materials/mp-1216167,42.911523957006224,78.36388282039901,-8.604250342815693,-0.5045126942092143
-7.68620993736842,-146.03798881,7.622217077379003,-0.04277812657894748,21.026734100000002,0.9447914648618018,0.0,12,19,259.3661461501809,1190.5441672,mp-1219246,Sm2Mn2Al2Fe13,https://materialsproject.org/materials/mp-1219246,50.12478522745485,71.5419569934179,-8.604250342815693,-0.5045126942092143
-8.03768292,-32.15073168,9.717037932877151,0.010398600000000258,0.8248578000000001,0.20624961442275086,0.0,221,4,46.60831127493594,272.73958500000003,mp-1008279,Co3Mo,https://materialsproject.org/materials/mp-1008279,47.15969333789118,78.30883954585353,-8.604250342815693,-0.5045126942092143
-8.0167787685,-160.33557537,8.246682602282803,-0.03908811293749892,35.2902394,1.5802076760413153,0.0,12,20,260.26625616517066,1292.5520900000001,mp-1225909,Dy2Fe15Co2C,https://materialsproject.org/materials/mp-1225909,55.87944689554861,75.40301742407094,-8.604250342815693,-0.5045126942092143
-7.78069203,-31.12276812,8.167861650350183,0.008745242499999861,8.0337244,2.0356659623155657,0.0,65,4,45.992587318203434,226.2284,mp-1224780,Fe3Ni,https://materialsproject.org/materials/mp-1224780,49.28156737094832,74.2936128985798,-8.604250342815693,-0.5045126942092143
-7.789042499999999,-38.9452125,11.889548365237331,0.14229115700000108,6.3061067,1.2353310483427202,0.0,166,5,59.491563854941404,425.96278,mp-1226016,Co4Os,https://materialsproject.org/materials/mp-1226016,47.587625410631645,79.15417092579445,-8.604250342815693,-0.5045126942092143
-8.008571085,-64.06856868,9.187626364590301,-0.1477905374999997,0.0467077,0.005583410990317946,0.0,194,8,97.4914012457982,539.41193,mp-977426,NbCo3,https://materialsproject.org/materials/mp-977426,47.36891996714861,78.75824124050499,-8.604250342815693,-0.5045126942092143
-7.101422736666668,-42.60853642,7.670420079782388,-0.0985300949999998,7.071619500000001,0.9924752199418192,0.0,191,6,83.03795404053255,383.571825,mp-2827,YCo5,https://materialsproject.org/materials/mp-2827,43.97948568156292,76.46861452499716,-8.604250342815693,-0.5045126942092143
-8.416612677692306,-109.41596481,7.463309816094941,-0.06240275000000066,20.4178795,1.418133492119666,0.0,44,13,167.79188386253819,754.14235,mp-1215844,YVFe11,https://materialsproject.org/materials/mp-1215844,51.168010124543045,71.98727463674611,-8.604250342815693,-0.5045126942092143
-7.6480275944736835,-290.62504859,8.131416384010919,-0.10328938657894887,28.69953925,0.6660527692241043,0.0,194,38,502.16184785440424,2459.0129944,mp-1198100,Tm2Al2Fe15,https://materialsproject.org/materials/mp-1198100,50.134853513168935,70.99285614155762,-8.604250342815693,-0.5045126942092143
-8.15709516725,-326.28380669,8.248166996380299,-0.04715907018750158,37.5950375,0.8427146984957145,0.0,38,40,519.9090545517981,2582.4726800000008,mp-1224658,Ho2Fe17C,https://materialsproject.org/materials/mp-1224658,56.48272183370205,76.19869477597344,-8.604250342815693,-0.5045126942092143
-7.45689302,-37.2844651,8.429409997447253,0.04694352000000066,5.257859099999999,1.0850399488916422,0.0,166,5,56.4729718744316,286.67427999999995,mp-1216400,VCo4,https://materialsproject.org/materials/mp-1216400,47.37405213486196,79.26084204538243,-8.604250342815693,-0.5045126942092143
-8.49426301923077,-110.42541925,9.555051004606304,-0.02656620711538529,21.9253076,1.5229484666344608,0.0,44,13,167.7791209136331,965.4323199999999,mp-1224069,HoFe11Re,https://materialsproject.org/materials/mp-1224069,51.524665331255285,72.32844012482006,-8.604250342815693,-0.5045126942092143
-7.771128856666666,-186.50709256,8.706328087879598,-0.1688317666666658,5.15e-06,2.3029152691968565e-07,0.0,194,24,260.61937397989414,1366.4465099999998,mp-542614,VCo3,https://materialsproject.org/materials/mp-542614,46.734542872538825,79.09763351426305,-8.604250342815693,-0.5045126942092143
-8.092414545,-64.73931636,9.788203453925613,-0.04433302500000025,0.91458255,0.11517973229176115,0.0,194,8,92.53888740211308,545.4791700000001,mp-1139,Co3Mo,https://materialsproject.org/materials/mp-1139,47.14577338789426,78.2913906562966,-8.604250342815693,-0.5045126942092143
-7.660826568157893,-291.11140959,8.51810845201379,0.06942609026315656,38.26386885,0.8828997762517632,0.0,194,38,505.0738691086384,2590.89,mp-1195706,Yb2Fe17,https://materialsproject.org/materials/mp-1195706,50.85086177696301,73.165826058236,-8.604250342815693,-0.5045126942092143
-7.759289185,-31.03715674,8.67082320597953,-0.15699209499999967,0.14754920000000002,0.039426129315910316,0.0,221,4,43.614424336741706,227.741085,mp-1017529,VCo3,https://materialsproject.org/materials/mp-1017529,46.7493867935835,79.10669129972698,-8.604250342815693,-0.5045126942092143
-7.539132984473683,-286.48705341,8.56765499857657,-0.06991420078947379,30.01970395,0.6863481347482377,0.0,194,38,509.7290377494748,2629.97884,mp-1203778,Tm2Ga2Fe15,https://materialsproject.org/materials/mp-1203778,50.14281407957339,70.99218639694072,-8.604250342815693,-0.5045126942092143
-6.271851780555554,-112.89333205,8.980367593489268,-0.25549999722222183,4.2611717,0.19277719926121697,0.0,191,18,257.60292809061946,1393.14339,mp-1208354,TbGaCo4,https://materialsproject.org/materials/mp-1208354,41.17787113331887,77.60031805337452,-8.604250342815693,-0.5045126942092143
-6.290333095,-12.58066619,8.87688267230464,0.15379231499999954,2.3016999,1.2190793931613668,0.0,221,2,22.003620003806848,117.626595,mp-1006883,CoNi,https://materialsproject.org/materials/mp-1006883,43.95950002618447,78.68544560851116,-8.604250342815693,-0.5045126942092143
-7.580190715789473,-144.0236236,7.993555650742439,-0.08590131763158051,33.8483794,1.4860362431854763,0.0,8,19,265.4519415543892,1277.8410000000001,mp-1219390,Sm2Ga2Fe15,https://materialsproject.org/materials/mp-1219390,50.25617239198464,72.03656183647118,-8.604250342815693,-0.5045126942092143
-8.0805336103125,-258.57707553,8.533155342476906,0.015381407968749984,43.188102799999996,1.2233094633532549,0.0,12,32,411.4387753165152,2114.29596,mp-1198423,Ho3Fe29,https://materialsproject.org/materials/mp-1198423,51.197194244958894,72.37283126472614,-8.604250342815693,-0.5045126942092143
-8.070680807105262,-306.68587067,8.408165603706896,-0.019457209210526717,37.89320135,0.8740046437812541,0.0,194,38,505.27171235839853,2558.45128,mp-1196975,Ho2Fe17,https://materialsproject.org/materials/mp-1196975,51.11640141336329,72.41146817382062,-8.604250342815693,-0.5045126942092143
-7.5512529275,-30.20501171,8.29008633597906,0.05104416250000021,3.5650568999999996,0.9107778727244356,0.0,166,4,45.6174938749653,227.741085,mp-1216405,VCo3,https://materialsproject.org/materials/mp-1216405,47.383170269161475,79.23440559885877,-8.604250342815693,-0.5045126942092143
-8.07459562763158,-306.83463385,8.383286795482107,-0.024493144473684413,38.4125319,0.8801570068972628,0.0,194,38,508.61622566491616,2567.766,mp-1724,Er2Fe17,https://materialsproject.org/materials/mp-1724,51.07274170827729,72.51026340192666,-8.604250342815693,-0.5045126942092143
-8.067493687105264,-306.56476011,8.190818260171993,-0.011069783421054294,39.1265558,0.8874557469459821,0.0,194,38,513.8097501645071,2534.4314,mp-1194635,Tb2Fe17,https://materialsproject.org/materials/mp-1194635,50.83860923667156,73.19922826052075,-8.604250342815693,-0.5045126942092143
-8.305325135,-66.44260108,7.978048093482873,-0.014223831249999819,19.1380328,2.3820797619774434,0.0,229,8,93.63073287076773,449.84819500000003,mp-1080603,Fe7Co,https://materialsproject.org/materials/mp-1080603,49.255175830491225,74.17512315876658,-8.604250342815693,-0.5045126942092143
-8.068958003157894,-306.62040412,8.462831237692617,-0.028248459473684907,37.891726,0.8741804772790837,0.0,194,38,505.15041301603554,2574.46684,mp-30640,Tm2Fe17,https://materialsproject.org/materials/mp-30640,50.99150177423233,73.29117950976742,-8.604250342815693,-0.5045126942092143
-7.632388756842105,-145.01538638,7.579305030118394,-0.06257993447368455,30.2083756,1.3476539767365694,0.0,166,19,261.23201652157354,1192.3580772,mp-1188423,Sm2Al2Fe15,https://materialsproject.org/materials/mp-1188423,50.413683756443994,71.41555941608247,-8.604250342815693,-0.5045126942092143
-7.698271164473684,-292.53430425,7.956223535981652,-0.06110907631578979,70.0937465,1.539829119496353,0.0,1,38,530.4985153999187,2541.804,mp-1219432,Sm4Ga3Fe31,https://materialsproject.org/materials/mp-1219432,50.33607994443889,72.26233818298864,-8.604250342815693,-0.5045126942092143
-7.564920125,-30.259680499999998,7.9485414532079,-0.25814253166666745,2.7439988,0.6813358073160395,0.0,221,4,46.93535758380103,224.666585,mp-608,TiCo3,https://materialsproject.org/materials/mp-608,45.575465697505855,78.67029124502092,-8.604250342815693,-0.5045126942092143
-8.06569331736842,-306.49634606,8.326320441450386,-0.01167141546052694,76.35544940000001,1.7491766852967776,0.0,187,38,508.72582542713565,2550.867,mp-1219139,SmEr3Fe34,https://materialsproject.org/materials/mp-1219139,51.06730116925994,72.45751855883199,-8.604250342815693,-0.5045126942092143
-8.157256979,-163.14513958,8.200964136182389,-0.047320881937501724,37.662467299999996,1.6787896272739602,0.0,12,20,261.4507656455661,1291.2363400000004,mp-1224201,Ho2Fe17C,https://materialsproject.org/materials/mp-1224201,56.500132867506466,76.21023788001064,-8.604250342815693,-0.5045126942092143
-7.759313875,-62.074511,8.742326944250435,-0.15701678499999971,0.41435020000000006,0.05581508017792733,0.0,194,8,86.51540146371929,455.48217,mp-1095057,VCo3,https://materialsproject.org/materials/mp-1095057,46.726847696697426,79.0963457266018,-8.604250342815693,-0.5045126942092143
-8.159179446,-163.18358892,8.279170056195088,-0.05030840793750002,37.571849900000004,1.684644778988811,0.0,12,20,259.9151926985544,1295.8937,mp-1225238,Er2Fe17C,https://materialsproject.org/materials/mp-1225238,56.511018215982645,76.17728302799097,-8.604250342815693,-0.5045126942092143
-7.820351576842105,-148.58667996,7.53066941374337,0.0045305289473680285,34.751180100000006,1.5276101938979154,0.0,160,19,265.1150833020374,1202.3168386,mp-1219949,Pr2AlFe16,https://materialsproject.org/materials/mp-1219949,50.31445502281858,72.23708111455684,-8.604250342815693,-0.5045126942092143
-7.616507147894738,-144.71363581,7.399452165827631,-0.041567118684211764,30.457231,1.3402671902765275,0.0,166,19,264.83565772700786,1180.1220772,mp-1179971,Nd2Al2Fe15,https://materialsproject.org/materials/mp-1179971,50.67479722621624,71.4484168357054,-8.604250342815693,-0.5045126942092143
-7.605353321052631,-144.50171310000002,7.314148273530048,-0.028456883157894863,30.3219256,1.3264260295276211,0.0,166,19,266.4103968895895,1173.4533772,mp-1190010,Pr2Al2Fe15,https://materialsproject.org/materials/mp-1190010,50.184171634133904,71.60791016996131,-8.604250342815693,-0.5045126942092143
-8.121592655526316,-308.62052091,8.081012335715558,-0.02149088407894863,78.2223325,1.7820830592032664,0.0,187,38,511.5407639996661,2489.41285,mp-1216207,YEr3Fe34,https://materialsproject.org/materials/mp-1216207,51.05283743565276,72.43328911297394,-8.604250342815693,-0.5045126942092143
-8.203769602307691,-106.64900483,8.09568198722721,-0.08582124012820512,21.4076512,1.4706076096737035,0.0,44,13,169.64834947951945,827.09232,mp-1224104,HoTiFe11,https://materialsproject.org/materials/mp-1224104,51.079001843646154,72.65655068762118,-8.604250342815693,-0.5045126942092143
-6.6652349175,-79.98281901,9.826276337865496,-0.18822371624999928,3.631577833333333,0.2442915394853177,0.0,166,12,173.24645538451944,1025.189715,mp-30558,HoCo3,https://materialsproject.org/materials/mp-30558,43.344299193454844,75.26621357485574,-8.604250342815693,-0.5045126942092143
-6.661312559166666,-79.93575071,9.775303050110498,-0.17745582916666672,3.4457098,0.2322376787675685,0.0,166,12,172.9113269205284,1017.898755,mp-568945,DyCo3,https://materialsproject.org/materials/mp-568945,43.340575314416405,75.34875957703683,-8.604250342815693,-0.5045126942092143
-6.649873536666667,-79.79848244,9.593813401325583,-0.16051160916666635,3.376546333333333,0.2257290556366916,0.0,166,12,174.32620521635357,1007.1748050000001,mp-1095562,TbCo3,https://materialsproject.org/materials/mp-1095562,43.29065681353847,75.36337992229299,-8.604250342815693,-0.5045126942092143
-8.417126023846151,-109.42263831,7.514798171493468,-0.02003159461538491,20.306571899999998,1.4181495906096282,0.0,44,13,166.87527592170915,755.19695,mp-1216029,YCrFe11,https://materialsproject.org/materials/mp-1216029,51.043441211981026,71.76659066631099,-8.604250342815693,-0.5045126942092143
-7.1005641725,-28.40225669,8.985541506054288,0.009430167499999698,1.5934675,0.4262808508142601,0.0,194,4,43.563705530043336,235.73278,mp-1183710,Co,https://materialsproject.org/materials/mp-1183710,47.312283010250425,79.3625189296222,-8.604250342815693,-0.5045126942092143
-7.753846522758621,-224.86154916,9.240423839817584,-0.10793883551724254,50.4095956,1.4005173506987776,0.0,225,29,419.4711989735957,2334.237,mp-1193644,Lu6Fe23,https://materialsproject.org/materials/mp-1193644,51.822823670803736,72.79371039560141,-8.604250342815693,-0.5045126942092143
-8.112088318421053,-154.12967805,7.958700051704358,-0.013709503947368556,33.2932683,1.4934622356488745,0.0,160,19,259.8002788398801,1245.1815,mp-1219218,Sm2VFe16,https://materialsproject.org/materials/mp-1219218,50.97527192263247,72.00123562479304,-8.604250342815693,-0.5045126942092143