energy_per_atom,energy,density,formation_energy_per_atom,total_magnetization_uB,total_magnetization_T,band_gap,sgr,num_sites,cell_volume,weight,mp_id,formula,URL,tsne_cry_lin1_0,tsne_cry_lin1_1,tsne_cry_lin2_0,tsne_cry_lin2_1
-8.971887283125,-143.55019653,6.708017608166532,-0.3126150358184514,1.15e-05,7.440063779143289e-07,0.0,1,16,180.13520967406123,727.6854860000001,mp-1226178,Cr12BP3,https://materialsproject.org/materials/mp-1226178,14.305326112548792,26.075060551251298,-8.604250342815693,-0.5045126942092143
-4.14016962,-12.42050886,5.9062901557009235,0.30136080754000066,2e-07,5.799003987690853e-08,0.0,38,3,40.19333250088111,142.9617,mp-1246450,ZnCuN,https://materialsproject.org/materials/mp-1246450,5.423300499118854,14.483261123887242,-8.604250342815693,-0.5045126942092143
-4.35311674,-87.0623348,2.2039175901911863,-1.5651735492625007,0.5808595,0.018687401798163958,0.0,148,20,362.2426653994099,480.77941136,mp-756093,Na12NbO7,https://materialsproject.org/materials/mp-756093,15.76448220966772,-21.470492790768553,4.534526336747675,-2.3758139647616394
-3.7568496175,-15.02739847,5.05242721944174,-0.02653720999999987,0.39047540000000003,0.055961369267838665,0.0,216,4,81.31726695090762,247.4194,mp-1226627,CeMg2Ni,https://materialsproject.org/materials/mp-1226627,4.0222874174905625,60.37310276342292,-8.604250342815693,-0.5045126942092143
-6.1469266375,-24.58770655,5.550471029308195,-0.19564604249999995,1.9600000000000002e-05,2.51828049984948e-06,0.0,225,4,90.70461751811321,303.1867,mp-865433,Y2MgRu,https://materialsproject.org/materials/mp-865433,11.345207064004235,47.72322582588888,-8.604250342815693,-0.5045126942092143
-3.974681535,-31.79745228,9.877026597615574,-0.32113436500000025,2.5e-08,1.8695881382981825e-09,0.0,62,8,155.83732766896938,926.9336,mp-1080433,YbNi,https://materialsproject.org/materials/mp-1080433,3.483541441590832,58.71378720578039,-8.604250342815693,-0.5045126942092143
-6.9368815941666675,-166.48515826,8.596124861043437,-0.31954871208333196,9.34741465,0.3740415647440129,0.0,141,24,291.2386912444523,1507.65751,mp-1191958,ErCo9Si2,https://materialsproject.org/materials/mp-1191958,48.89134955741309,50.464521665647204,-8.604250342815693,-0.5045126942092143
-6.658739652911392,-526.04043258,3.604399910057421,-2.0080836495748096,76.00044220000001,0.9880567133823532,0.0,1,79,896.4202804816426,1945.788145,mp-698703,Li15Mn21O43,https://materialsproject.org/materials/mp-698703,-67.35486107073875,-38.08868393940525,1.5087054388348042,-1.922379813339792
-2.198522305,-8.79408922,3.634284106287995,-0.2121932691666668,1.6e-06,2.497262032567551e-07,0.0,225,4,74.66778973500098,163.4192,mp-864598,LiMg2Ag,https://materialsproject.org/materials/mp-864598,-1.9356306540481187,89.26544185963066,-8.604250342815693,-0.5045126942092143
-6.503979715652172,-149.59153346,5.6603256198231975,-2.3780765113043487,8.636745,0.28605592866329066,0.0,139,23,351.86540661619165,1199.4134,mvc-150,Ba2Ca3Tl2V4O12,https://materialsproject.org/materials/mvc-150,-24.99980789615855,-12.053190023316029,-8.604250342815693,-0.5045126942092143
-6.1496312758333325,-221.38672593,8.485738412000275,-0.9045608141666672,0.694920475,0.010805418968003657,0.0016999999999995907,62,36,749.4987701457175,3830.1120000000014,mp-21647,CeGePd,https://materialsproject.org/materials/mp-21647,7.990534740662706,64.03426006632428,-8.604250342815693,-0.5045126942092143
-6.37762373576923,-165.81821713,4.921557051271538,-2.0169839795192317,27.000000399999994,0.8485147483630407,0.6261000000000001,8,26,370.83592728091173,1099.09501,mp-1228573,Ba2CaY(Co4O7)2,https://materialsproject.org/materials/mp-1228573,-25.678645523986845,-28.931233874999432,3.940967744792431,-2.8347568004891737
-3.5807403116666667,-21.48444187,11.126045531326632,-0.19858095999999986,1.6e-06,1.9780716185080078e-07,0.0,216,6,94.26606934565865,631.6073,mp-1206479,YbTlCu4,https://materialsproject.org/materials/mp-1206479,3.3358263344010943,41.98254665097983,-8.604250342815693,-0.5045126942092143
-5.7945016150000015,-34.76700969,7.8571988466993234,-0.8853417191666667,1.36e-05,1.1793019981007481e-06,0.0,12,6,134.39753444161593,635.9309400000002,mp-1222934,LaGePd,https://materialsproject.org/materials/mp-1222934,8.270431476368023,64.2789065425442,-8.604250342815693,-0.5045126942092143
-5.81439089,-58.14390890000001,9.513778108555552,-0.7520222319999995,2.685e-05,1.6536019329999012e-06,0.0,12,10,189.23032980226108,1084.16323,mp-1079667,Tm2CoGe2,https://materialsproject.org/materials/mp-1079667,20.30341593111413,70.72396505955109,-8.604250342815693,-0.5045126942092143
-6.046305378571428,-42.32413765,5.544684001467127,-2.1170318711904756,0.9999995999999999,0.1444771103884202,0.0,160,7,80.66371260888572,269.34313860000003,mp-1228995,AlInCuO4,https://materialsproject.org/materials/mp-1228995,-49.924261509082214,-5.468850189488101,-8.604250342815693,-0.5045126942092143
-6.424384860000001,-89.94138804,9.429141545766546,-0.38825900785714296,0.61571275,0.037158035947693416,0.0,136,14,193.10913741220696,1096.5435599999996,mp-1212824,Er(Co2Ge)2,https://materialsproject.org/materials/mp-1212824,48.556336671586635,49.78821870859756,-8.604250342815693,-0.5045126942092143
-7.88800038,-70.99200342,4.74011482954801,-0.6829986663275002,4.0519324,0.4057786338312928,0.0,12,9,116.37252113985413,332.1928,mp-1246741,Cr4S3N2,https://materialsproject.org/materials/mp-1246741,-0.504119916493057,10.844732545513695,-8.604250342815693,-0.5045126942092143
-5.52922353,-77.40912942,5.370387210126912,-0.4707300981628566,0.000131,4.815224925433571e-06,0.0,176,14,317.05320288186834,1025.389,mp-1246177,Ba3NiN3,https://materialsproject.org/materials/mp-1246177,4.199663043346667,6.516480328402537,-6.4871066659678975,-3.3254387646850048
-3.6525762225,-14.61030489,9.878582364541352,-0.162921335833333,0.8861981,0.10966877611031617,0.0,225,4,94.17274838857101,560.2357,mp-867298,CeTlAg2,https://materialsproject.org/materials/mp-867298,-6.429468518679929,50.47373165014197,-8.604250342815693,-0.5045126942092143
-6.500515466666666,-39.0030928,10.476233869226764,-0.2380488416666668,1.8761261000000002,0.2418965415799303,0.0,227,6,90.38779532804969,570.25078,mp-537,ErCo2,https://materialsproject.org/materials/mp-537,42.673612190985935,74.21154883053579,-8.604250342815693,-0.5045126942092143
-6.105853180714287,-85.48194453,4.594453343605901,-1.908718289285716,4.0000001,0.2905712980366367,1.1319,88,14,160.42967963672595,443.88398,mvc-6423,Ca(CoO2)2,https://materialsproject.org/materials/mvc-6423,14.042166853094034,-15.165528836848654,7.56578353482662,-2.6805177385128385
-5.430739969166668,-130.33775926,3.189429601244293,-1.1378165755816667,1.5e-07,7.523879196736203e-09,0.12400000000000012,4,24,232.34154485657737,446.26292,mp-1192779,Cu2H4CO5,https://materialsproject.org/materials/mp-1192779,-55.06611687033577,-13.891659353102016,-8.604250342815693,-0.5045126942092143
-3.96282385625,-31.70259085,3.982958733952598,-1.3399486187499998,0.99997105,0.02683465866060805,0.053399999999999885,194,8,434.2789500241202,1041.6588199999999,mp-1183849,CeI3,https://materialsproject.org/materials/mp-1183849,-27.868696563476096,37.52979124889568,-8.604250342815693,-0.5045126942092143
-6.47524159,-25.90096636,10.044765517507036,-0.8364289012499997,0.0005486000000000001,9.125483999859079e-05,0.0,225,4,70.06115987190354,423.806912,mp-865994,YbScRh2,https://materialsproject.org/materials/mp-865994,30.100325540709964,57.29675355293283,-8.604250342815693,-0.5045126942092143
-4.914829278888889,-44.23346351,2.024335857219626,-0.9624370539722228,2.0000004000000002,0.12440004853330773,0.0,1,9,187.36434978564026,228.4128,mp-35889,K4C2O3,https://materialsproject.org/materials/mp-35889,17.5219282201802,-16.618744352581114,8.28923815257375,-1.2955736472203403
-2.9150157775,-11.66006311,7.752949167528553,-0.2011776493749995,7.8e-06,9.93308034944986e-07,0.0,216,4,91.51411448212049,427.27347,mp-1207143,LaCd2Cu,https://materialsproject.org/materials/mp-1207143,-17.66646566837595,55.83515785404965,-8.604250342815693,-0.5045126942092143
-6.3829819643055545,-459.57470143,4.0236441138433365,-2.3719274358333333,8.0005252875,0.10271938096780976,0.025499999999999638,57,72,907.7025098529937,2199.44956,mp-1203339,Ca2FeCoO5,https://materialsproject.org/materials/mp-1203339,-32.55890954617741,-16.326783242485554,-8.604250342815693,-0.5045126942092143
-4.075294209285714,-342.32471358,3.2864801580564773,-0.621801681424047,3.2438336,0.03623103462980451,0.0,1,84,1043.4106359940145,2065.0814400000004,mp-685437,Ca22H51Rh11,https://materialsproject.org/materials/mp-685437,32.01176446099368,46.73282560026784,-8.604250342815693,-0.5045126942092143
-5.331560845416667,-127.95746029,6.2075812576969875,-1.47812562203125,0.00144,3.1005199302587026e-05,1.4915000000000005,62,24,541.2593258539611,2023.38588,mp-1223219,LaCuPbS3,https://materialsproject.org/materials/mp-1223219,48.21821510558765,-7.256915926511259,8.725572858340481,-5.336834197735584
-6.191701018194443,-445.80247331,4.12399240310395,-2.2351838819444447,7.4996523375,0.097593805236733,0.0,11,72,895.5633393010378,2224.15512,mp-1195056,Ca2Co2O5,https://materialsproject.org/materials/mp-1195056,-32.91948507794647,-16.104321118290436,-8.604250342815693,-0.5045126942092143
-7.873823549666668,-236.21470649,9.120245433006911,-0.791549632666667,1.04e-05,2.903642989588645e-07,0.0,139,30,417.41451710560113,2292.5825600000007,mp-976184,Hf4Co4Si7,https://materialsproject.org/materials/mp-976184,46.76374131886837,51.96205401124846,-8.604250342815693,-0.5045126942092143
-5.0796859225,-60.95623107,10.564101007785252,-0.36378409750000057,0.5850006666666666,0.0414115046645061,0.0,166,12,164.63144038249226,1047.3606,mp-1095559,YbNi3,https://materialsproject.org/materials/mp-1095559,29.55309733092458,74.19670534755305,-8.604250342815693,-0.5045126942092143
-2.623133614,-13.11566807,1.3248960783926096,-0.5226624517239997,0.8060815,0.031104457532327327,0.0,123,5,302.01864164319926,240.97194,mp-1214091,Ca2HBr2,https://materialsproject.org/materials/mp-1214091,-34.452469451551906,48.893043642626935,-8.604250342815693,-0.5045126942092143
-3.7951021909375,-121.44327011,3.705103230734632,-0.3676941515325001,0.1876220625,0.002063077968002037,0.0,137,32,1059.8531432400443,2364.8136,mp-605860,Ba2LiN,https://materialsproject.org/materials/mp-605860,7.5264570804913085,2.4791402025104943,-8.604250342815693,-0.5045126942092143
-4.5926751925,-55.11210231,9.794860851817786,-0.9812331825,0.0,0.0,0.0,62,12,272.0779738305951,1604.88,mp-20540,YbSbPd,https://materialsproject.org/materials/mp-20540,4.634182810967434,49.41421225882249,-8.604250342815693,-0.5045126942092143
-7.114252947000001,-497.99770629,4.142115659489692,-2.333282383702858,8.00000008,0.1173501357983906,0.3109000000000002,8,70,794.4815613420137,1981.7869,mp-530444,MgMn2O4,https://materialsproject.org/materials/mp-530444,-68.96303655235062,-35.44787988546472,-8.604250342815693,-0.5045126942092143
-7.749719481666666,-92.99663378,6.920218560220087,-0.7850226899999994,7.026465975,0.2978151002227746,0.0,198,12,274.95882355724393,1145.878,mp-1102440,EuSiPd,https://materialsproject.org/materials/mp-1102440,4.956470734902399,48.406967576129006,-8.604250342815693,-0.5045126942092143
-6.1956976075,-1040.87719806,3.369110946243884,-2.149594745663266,1.0001877833333337,0.0059555960479399615,0.0,170,168,1957.193388850048,3971.000688,mp-758918,LiCuPO4,https://materialsproject.org/materials/mp-758918,-57.192875885765936,-15.121067451093905,1.952711733670466,-1.9043817228494169
-6.067956865714287,-169.90279224,4.381239297584028,-1.576908495,2.99999435,0.08454400019121698,1.9922,135,28,413.53766551307837,1091.0959799999996,mp-1096874,Co(AsO2)2,https://materialsproject.org/materials/mp-1096874,13.298497779902794,-17.675000592828514,6.7800568281339455,-1.9357052557326029
-4.2487970075,-203.94225636,3.3458718808823846,0.25622687445666753,1.9882625125,0.03743096015302345,0.0,206,48,619.0420980599836,1247.32722272,mp-1246407,Na3CoN2,https://materialsproject.org/materials/mp-1246407,1.8061519119554403,5.951111777416721,-8.604250342815693,-0.5045126942092143
-5.1740547775,-20.69621911,9.11203601066816,-0.6600225620833333,3e-07,3.0305408730453834e-08,0.0,225,4,115.36618637499396,633.06,mp-867241,Ac2GePd,https://materialsproject.org/materials/mp-867241,8.656877098500964,45.506462860502396,-8.604250342815693,-0.5045126942092143
-6.7020572183928575,-375.31520423,3.897960202133397,-2.0766536443471435,21.99999995,0.4456421845349902,0.7799,58,56,575.3257508176478,1350.52343,mp-530177,Li5Mn7O16,https://materialsproject.org/materials/mp-530177,-66.39546552157087,-38.40703649274463,3.499886178489154,0.5309304910713751
-6.1358319253571425,-171.80329391,3.4571106372499694,-2.171096367020408,1.00000015,0.03341858032675657,0.4311999999999996,19,28,348.73014971670074,726.02852512,mp-581303,NaCuPO4,https://materialsproject.org/materials/mp-581303,-57.79115997124216,-14.41706032220162,1.4295123039873188,-1.9994864239948025
-4.621980494000001,-92.43960988,6.513302159967182,-0.6989273804285716,1.75e-07,3.857321723171869e-09,0.0,62,20,528.7247166722979,2073.871048,mp-685613,Ba2PPd2,https://materialsproject.org/materials/mp-685613,4.8237969880417415,38.20895597574403,-8.604250342815693,-0.5045126942092143
-2.8640286508000004,-286.40286508,8.973211640508726,-0.3349006446400003,0.026057575,0.00013497522111339863,0.0,57,100,2249.869749134917,12157.83365296,mp-607853,Na8In6Au11,https://materialsproject.org/materials/mp-607853,-15.812795166724234,49.274568496205255,-8.604250342815693,-0.5045126942092143
-4.7649299439999995,-23.82464972,4.447733408336986,-0.4932366129519998,0.004981899999999999,0.00047561002051205517,0.009799999999999807,139,5,122.07351146198887,326.9724,mp-1247488,Ba2MgN2,https://materialsproject.org/materials/mp-1247488,6.945917730078392,2.788645398205565,-8.604250342815693,-0.5045126942092143
-8.172275697222222,-294.20192510000004,9.94582673689266,-0.9969628057142852,0.500074575,0.01272774958053748,0.0,189,36,457.8893897372038,2742.5362640000008,mp-18581,Hf2Co4P3,https://materialsproject.org/materials/mp-18581,12.442514728505206,27.480602966689734,-8.604250342815693,-0.5045126942092143
-4.4297313210714275,-124.03247699,8.882642009411018,-0.255130192142857,4.75e-06,1.2615777171170993e-07,0.0,62,28,438.790309297452,2347.2000000000007,mp-1208682,SmCu5Sn,https://materialsproject.org/materials/mp-1208682,3.074547077985617,42.19806191177652,-8.604250342815693,-0.5045126942092143
-4.388318256785714,-122.87291119,2.3068753106969564,-1.1214195347410725,4.0000005,0.07325578860051854,0.0,14,28,636.3492333893348,884.03723136,mp-561456,Na3FeS3,https://materialsproject.org/materials/mp-561456,23.69126132953648,2.0304596702719353,-6.01990045438427,-3.5476195676174234
-6.16488779,-123.29775579999999,6.299665317523741,-2.558097933975001,0.0,0.0,1.5181000000000004,229,20,297.7453458530332,1129.57056928,mp-6273,Ba4Na(SbO4)3,https://materialsproject.org/materials/mp-6273,1.5670758799207751,-27.691585283354865,7.4702469909109075,-1.2979011710966812
-3.6867351375,-14.74694055,3.0590885696722614,-0.3795972480949996,2.3e-06,2.5169607814558397e-07,0.0,107,4,106.49490120932016,196.1877,mp-1218743,Sr2LiN,https://materialsproject.org/materials/mp-1218743,7.671410226268339,2.5595182376879047,-11.336854983676893,-0.3426162005683395
-6.92665517,-41.55993102,10.019119465646224,-0.7445707366666655,0.008309899999999999,0.0008131092544060621,0.0,194,6,119.10344437566862,718.6290772000001,mp-1077038,CeAlIr,https://materialsproject.org/materials/mp-1077038,13.15877292873895,40.847708376329216,-8.604250342815693,-0.5045126942092143
-4.6211261383333335,-83.18027049,4.414189564318724,-1.0460906445000002,2.9999997000000005,0.17789845002629226,0.4039999999999999,2,18,196.5289231934986,522.43030784,mp-759923,Na3(NiO2)5,https://materialsproject.org/materials/mp-759923,-63.09562546054809,-24.539557932743527,1.76245322521979,-1.577680402695004
-5.669158550769232,-221.09718348,5.521882649091644,-1.4276456069230774,1.0000004999999998,0.022894237748386115,0.20520000000000005,2,39,509.03946782039566,1692.7372,mp-554606,Cu7As6(PbO12)2,https://materialsproject.org/materials/mp-554606,-57.04754531154642,-7.972479202608403,-8.604250342815693,-0.5045126942092143
-4.869615774090909,-107.13154703,2.4943026946266897,-1.8873350613068176,0.0001139,2.1148062627824472e-06,2.2461,9,22,627.6688323440529,942.824,mp-866473,Ca4SnS6,https://materialsproject.org/materials/mp-866473,82.19624917447659,8.65997935305159,9.788951838043804,-4.268839811555403
-4.599628083333333,-55.195537,3.0286298516124504,0.15110307333333314,0.0008147166666666668,3.99908970093738e-05,0.0,11,12,237.42305161076283,433.032,mp-1094350,MgTi,https://materialsproject.org/materials/mp-1094350,-17.416004683819757,38.80613971954886,-8.604250342815693,-0.5045126942092143
-2.5135242226666668,-37.70286334,4.930208604802262,-0.2272985973333329,4.666666666666666e-07,8.574622148022496e-09,0.0,148,15,634.2627659438165,1883.1522,mp-12612,Ba3Ag2,https://materialsproject.org/materials/mp-12612,-34.86020737728925,50.035971148737204,-8.604250342815693,-0.5045126942092143
-6.05261355,-24.210454199999997,12.530587138252187,-0.6339977650000002,4.05e-05,5.630627332453906e-06,0.0,225,4,83.82540619731763,632.5545689999999,mp-1184081,Er2RuAu,https://materialsproject.org/materials/mp-1184081,-11.108638972607482,54.61293631843571,-8.604250342815693,-0.5045126942092143
-5.0977295225,-20.39091809,13.161856813022633,-0.5712780149999991,1.93e-05,2.987626417229585e-06,0.0,225,4,75.28499842325427,596.728138,mp-983123,HfMgAu2,https://materialsproject.org/materials/mp-983123,-15.230687863206748,44.65128937073908,-8.604250342815693,-0.5045126942092143
-6.3379058226829255,-519.70827746,2.7548930864372863,-0.5176638356760971,0.0007718,7.652918049716258e-06,0.6962999999999999,2,82,1175.3173277211638,1949.8930784000001,mp-1029705,Na15Cr7N19,https://materialsproject.org/materials/mp-1029705,2.9784329791313056,5.29319057930468,2.958924663279176,-2.7669344788784396
-7.804595034666666,-117.06892552,7.529612120506723,-0.6431400477083324,4.977244000000001,0.18122858235462266,0.0,148,15,320.066091182744,1451.32,mp-1104216,Pu(Mo3Se4)2,https://materialsproject.org/materials/mp-1104216,63.67194340830146,34.00552993084065,-8.604250342815693,-0.5045126942092143
-5.068253352,-50.68253352,4.739740433914045,-3.1605455806220464,0.999976,0.05298600499571101,0.0,225,10,219.9408141064509,627.785523,mp-1113538,Cs2CeAgF6,https://materialsproject.org/materials/mp-1113538,-29.245475778349732,21.261411775147984,-8.604250342815693,-0.5045126942092143
-4.920315695,-19.68126278,15.436543336153456,-0.6126235050000002,3.32e-05,4.370684757111223e-06,0.0,225,4,88.52501883588394,822.937767,mp-1187403,ThAu3,https://materialsproject.org/materials/mp-1187403,-9.500108206492502,58.94353467587328,-8.604250342815693,-0.5045126942092143
-6.7305631275,-26.92225251,13.18932125317993,-0.9809817824999998,4e-07,5.817128651577747e-08,0.0,225,4,80.13620100630797,636.5054200000001,mp-865354,Tm2IrPd,https://materialsproject.org/materials/mp-865354,16.880064677307402,53.47725907414698,-8.604250342815693,-0.5045126942092143
-7.677108336000002,-38.38554168,8.851049219797476,-0.8311084340000008,6.936882400000001,0.8565879386902121,0.0,139,5,94.37779025098604,503.05500000000006,mp-626981,Eu(GeRh)2,https://materialsproject.org/materials/mp-626981,11.823175650264115,64.98278802115465,-8.604250342815693,-0.5045126942092143
-6.104615470416667,-146.51077129,4.516851398230772,-2.1515035163541683,7.7778538,0.26305490868415443,0.0,46,24,344.58057608624136,937.2976,mvc-567,Sr2GaFe2O7,https://materialsproject.org/materials/mvc-567,-28.76913128712466,-17.821927036782316,2.410624981406301,-2.972627561974877
-3.5523219920000004,-142.09287968,11.67798281288553,-0.5815563250000004,2.5e-08,3.655220954523957e-10,0.0,205,40,797.0834675627342,5605.6056560000015,mp-567485,CaGaAu3,https://materialsproject.org/materials/mp-567485,-10.208939190988447,49.06700223983986,-8.604250342815693,-0.5045126942092143