energy_per_atom,energy,density,formation_energy_per_atom,total_magnetization_uB,total_magnetization_T,band_gap,sgr,num_sites,cell_volume,weight,mp_id,formula,URL,tsne_cry_lin1_0,tsne_cry_lin1_1,tsne_cry_lin2_0,tsne_cry_lin2_1
-4.390908905,-17.56363562,8.640892969842469,-0.3000217000000003,1e-07,2.1404199967906112e-08,0.0,225,4,54.44756071254255,283.327,mp-862657,LiCuPd2,https://materialsproject.org/materials/mp-862657,26.891049858799324,37.032032165144464,-8.604250342815693,-0.5045126942092143
-5.285760098,-26.42880049,7.0398605007659105,-0.5034678779999993,2e-07,2.7351493806591564e-08,0.0,139,5,85.21702584120742,361.27785,mp-4520,Y(CuGe)2,https://materialsproject.org/materials/mp-4520,-3.2139672125462444,57.7870693180534,-8.604250342815693,-0.5045126942092143
-7.329130831290323,-227.20305577,5.635071021650282,-0.9395601827419358,1.47e-05,3.134086545886118e-07,0.0,1,31,546.617809203449,1854.958,mp-675781,Cu3(Mo3S4)4,https://materialsproject.org/materials/mp-675781,68.55776204837258,34.30487711959314,-8.604250342815693,-0.5045126942092143
-4.2663244,-8.5326488,5.503292801806596,-0.6761060275000004,0.0,0.0,0.0,221,2,44.20365352940366,146.498,mp-213,CaPd,https://materialsproject.org/materials/mp-213,14.662339982748414,45.63897807822494,-8.604250342815693,-0.5045126942092143
-4.36682828,-26.20096968,11.19425019966965,-0.3171190466666663,3.3e-06,4.2496523527611797e-07,0.0,216,6,90.49778795307556,610.075919,mp-1077752,TbCu4Au,https://materialsproject.org/materials/mp-1077752,4.645465311613756,41.8064297853264,-8.604250342815693,-0.5045126942092143
-6.624842101111112,-119.24715782,3.7726799304070138,-2.833646204861111,2.9963214,0.16120630734195066,0.5238999999999998,5,18,216.6126391130336,492.13546720000005,mvc-5179,Ca2AlCoO5,https://materialsproject.org/materials/mvc-5179,-33.09142165045021,-16.687558430038255,-8.604250342815693,-0.5045126942092143
-6.9774046266891885,-1032.65588475,4.0589667048919695,-2.5373497938900007,30.000000300000004,0.1868138249347933,0.0,1,148,1871.4993218250552,4574.63104,mp-1247590,SrCa7Mn8O21,https://materialsproject.org/materials/mp-1247590,-30.955944878417643,-10.09535365304865,-8.604250342815693,-0.5045126942092143
-5.049335877272728,-55.54269465,8.932623487131456,-0.6291232177272722,3e-07,1.8092122558785547e-08,0.0,71,11,193.2453983996555,1039.53496,mp-3683,Ho3(CuGe)4,https://materialsproject.org/materials/mp-3683,-4.7655104129446935,55.834503413002885,-8.604250342815693,-0.5045126942092143
-3.858206092000001,-19.29103046,4.562164010068146,-0.6651644020000006,2.48e-05,2.50253102989241e-06,0.0,71,5,115.49139767186264,317.3010000000001,mp-1068035,Ca2MgPd2,https://materialsproject.org/materials/mp-1068035,-12.632328089634724,51.17477112806986,-8.604250342815693,-0.5045126942092143
-4.273602655,-25.64161593,8.354511279925648,-0.15614742583333316,5.9e-06,8.080333502245303e-07,0.0,187,6,85.09423792841713,428.126502,mp-1223886,HoBeCu4,https://materialsproject.org/materials/mp-1223886,3.778077598493312,45.17212275790204,-8.604250342815693,-0.5045126942092143
-7.416448809183673,-726.8119833,6.936554862475313,-3.0528644606122453,7.565e-05,6.621697752134873e-07,0.013199999999999434,2,98,1331.4259168049437,5561.75356,mp-774931,LiLa14(Cu3O14)2,https://materialsproject.org/materials/mp-774931,-42.59497296633959,-4.06409302686696,-8.604250342815693,-0.5045126942092143
-6.931370603397436,-1081.29381413,4.468128052941679,-2.5104316864469234,26.0000001,0.1666365806385466,0.0,1,156,1818.3623553174787,4892.79424,mp-1247618,Sr2Ca6Mn8O23,https://materialsproject.org/materials/mp-1247618,-33.66450179017611,6.1444857957635435,-8.604250342815693,-0.5045126942092143
-3.5418568275,-42.50228193,4.137947305745291,-0.6135995925,6.065e-05,2.57803383204893e-06,0.0,62,12,274.1698032310113,683.212,mp-1102662,CaMgPd,https://materialsproject.org/materials/mp-1102662,-12.695126793660956,51.21281090361604,-8.604250342815693,-0.5045126942092143
-5.732518283518517,-619.11197462,6.816475132499478,-2.049453749328703,1.795e-05,1.1456604124419901e-07,0.08539999999999992,5,108,1825.9377769853666,7495.4332,mp-652781,Sr10Cu5Bi10O29,https://materialsproject.org/materials/mp-652781,-44.91906418890401,-5.7353745422158715,-8.604250342815693,-0.5045126942092143
-5.496657251111111,-49.46991526,6.020694213407401,-0.4784654077777775,4.333333333333333e-06,3.3694328266243317e-07,0.0,189,9,149.87966802220856,543.4257359999998,mp-1206354,ScCuGe,https://materialsproject.org/materials/mp-1206354,-4.867887467747162,56.88851480733821,-8.604250342815693,-0.5045126942092143
-6.552126314166667,-157.25103154,4.3064946456334114,-2.307086320264168,7.00100345,0.22663095977825204,0.0,46,24,360.01324690609823,933.6697800000001,mvc-572,Sr2Mn2GaO7,https://materialsproject.org/materials/mvc-572,-36.08195076466299,-15.453134319234975,-5.063314909294818,-0.7120470738166806
-7.238456548397435,-1129.19922155,4.216206441888017,-2.7878843513549567,20.000000275,0.12737834158927527,0.0,1,156,1829.8346151154958,4646.057879999999,mp-1247584,SrCa7Ti2Mn6O23,https://materialsproject.org/materials/mp-1247584,-32.24202125606427,-9.439817627592028,-8.604250342815693,-0.5045126942092143
-7.6865727875,-30.74629115,9.841967187113504,-0.4972293208333332,1e-06,1.9651179701675988e-07,0.0,225,4,59.304657274930676,351.49699999999996,mp-1187431,Ti2CuIr,https://materialsproject.org/materials/mp-1187431,34.254957476877784,65.84929890133199,-8.604250342815693,-0.5045126942092143
-4.653412122000001,-46.53412122,9.338023385963382,-0.6379386360000006,7.09e-05,3.0245867859955827e-06,0.0,11,10,273.1854798150563,1536.2556000000004,mp-571599,Ba(BiPd)2,https://materialsproject.org/materials/mp-571599,8.962535153983529,35.963838313555186,-8.604250342815693,-0.5045126942092143
-5.843799638095239,-122.71979240000002,8.999381764876757,-0.1523936695238096,2.0066666666666665e-05,5.199613925690605e-07,0.0,147,21,449.7607638660156,2437.502955,mp-1217743,Tb4Co3,https://materialsproject.org/materials/mp-1217743,-27.67470623201919,67.91761541721084,-8.604250342815693,-0.5045126942092143
-3.412245536666666,-10.23673661,5.655493154456601,-0.17457064499999989,3e-07,5.764634085945563e-08,0.0,216,3,60.64945978603997,206.561,mp-11361,MgCuSn,https://materialsproject.org/materials/mp-11361,2.9427980630693216,39.759222656692216,-8.604250342815693,-0.5045126942092143
-5.092381831515152,-168.04860044,2.1860642519704307,-0.4372310333763632,16.8229369,0.484582625463659,0.0,5,33,404.58651630296134,532.629525,mp-674982,Li19Mn5N9,https://materialsproject.org/materials/mp-674982,2.2337010350552844,6.715538426847272,-8.604250342815693,-0.5045126942092143
-6.00890522,-24.03562088,10.50851260597203,-0.38387177500000025,5.9e-06,8.717750673301216e-07,0.0,225,4,78.87238891642299,499.134,mp-862944,Er2CuRu,https://materialsproject.org/materials/mp-862944,-10.060784002076606,54.9811571214217,-8.604250342815693,-0.5045126942092143
-6.7172392755555554,-60.45515348,6.861524124463833,-2.5518796470833345,4.9658432999999995,0.4790207390750573,0.0,99,9,120.81368247297041,499.215,mp-1207068,BaDyFeCuO5,https://materialsproject.org/materials/mp-1207068,-48.57417526981786,-3.9277055356590984,-8.604250342815693,-0.5045126942092143
-6.063490780873016,-763.99983839,5.380429509256387,-2.2500990449206357,3.361365466666667,0.024433143972921817,0.0,165,126,1603.2963631775353,5194.95348,mp-704141,Sr5(CoO3)4,https://materialsproject.org/materials/mp-704141,-35.71647844835657,-17.414185360316356,-4.43202933744317,-1.6431529675961702
-3.815419326666667,-22.89251596,8.417984179723849,-0.3984605483333332,1.3e-06,1.241863309742604e-07,0.0,164,6,121.99639111222102,618.452,mp-1215641,YbCuGe,https://materialsproject.org/materials/mp-1215641,-4.8787830874436064,54.98509482555222,-8.604250342815693,-0.5045126942092143
-4.414321581666667,-26.48592949,8.882617831490561,-0.20280207000000006,3.75e-06,3.272134696536345e-07,0.0,164,6,133.56034194851313,714.446,mp-1222408,LuCuSn,https://materialsproject.org/materials/mp-1222408,-5.440380491754374,55.222360009010906,-8.604250342815693,-0.5045126942092143
-5.787324943958334,-833.37479193,5.3388192502690925,-2.0144650065972223,6.499608125,0.037809389629746316,0.0,1,144,2003.387381461769,6441.11512,mp-1076898,BaSr3Co2(CuO5)2,https://materialsproject.org/materials/mp-1076898,-33.89447400938724,-15.978473911618627,-8.604250342815693,-0.5045126942092143
-5.257690911363637,-115.66920005,7.606665427203138,-1.7994300861363646,0.0,0.0,0.0,64,22,368.0385273078051,1685.9260000000002,mp-6027,Ba2Tl2CuO6,https://materialsproject.org/materials/mp-6027,-50.587941078370285,-2.3070306232893656,-8.604250342815693,-0.5045126942092143
-4.100481197678572,-229.62694707,8.308960270026116,-0.1921548869642855,0.000671225,8.166949862474384e-06,0.0,58,56,957.823882684074,4792.7332,mp-1221285,Pr2(InCu3)3,https://materialsproject.org/materials/mp-1221285,2.9963075303530835,42.49086003142614,-8.604250342815693,-0.5045126942092143
-5.9948115575,-23.97924623,10.272642687631564,-0.36445281750000014,1.42e-05,2.070394399635755e-06,0.0,225,4,79.93052908154209,494.47664000000003,mp-867283,Ho2CuRu,https://materialsproject.org/materials/mp-867283,-10.056520834594526,54.973975905806256,-8.604250342815693,-0.5045126942092143
-6.057505096428572,-339.22028539999997,4.636460651034806,-1.7136730279257142,2.999999875,0.06532088410554115,0.0,5,56,535.2375942191993,1494.45932,mp-761940,Li2MnCo3O8,https://materialsproject.org/materials/mp-761940,-72.6549079210086,-22.390673217670923,-8.604250342815693,-0.5045126942092143
-6.9539618602702715,-257.29658883,4.2350522402073345,-2.5225081473359467,30.000000399999994,0.7485550974123031,0.0,1,37,467.06241003104867,1191.19976,mp-1247591,Sr2Ca6Mn8O21,https://materialsproject.org/materials/mp-1247591,-30.662435521248764,-9.918563046103824,-8.604250342815693,-0.5045126942092143
-5.233721589642856,-146.54420451,4.971749302433903,-1.4999403724999991,1.99999985,0.07877846751723554,0.19960000000000025,57,28,295.8692715355272,885.8496,mvc-6637,Ca(NiO2)2,https://materialsproject.org/materials/mvc-6637,-64.06713396632766,-23.70597743712643,-5.376035519007133,-2.9292494410693664
-7.257455593421053,-1103.1332502,4.056276025340674,-2.800984527805088,22.000002775,0.13668402995419676,0.07730000000000015,1,152,1875.7821043340607,4582.06028,mp-1247647,SrCa7Ti2Mn6O22,https://materialsproject.org/materials/mp-1247647,-31.79466723809971,-10.11557636030636,-8.604250342815693,-0.5045126942092143
-6.981417053421053,-265.29384803,4.109067460091603,-2.5386095418468417,14.000000199999997,0.363036163698628,0.0,4,38,449.42329569704316,1112.11516,mp-698549,Ca4Mn4O11,https://materialsproject.org/materials/mp-698549,-31.8480336103548,-9.868447901194482,-5.195017988916426,-3.5174237718953885
-4.595858785,-18.38343514,8.453016439117723,-0.35724769062499995,1.3e-06,1.9734522622334054e-07,0.0,225,4,76.77046206925544,390.802,mp-862900,PmCu2Sn,https://materialsproject.org/materials/mp-862900,-7.968368015769433,53.90882658210972,-8.604250342815693,-0.5045126942092143
-6.9718396956756745,-257.95806874,4.121758064036246,-2.531784862876485,30.000000699999998,0.7588151917946009,0.0,1,37,460.747168895998,1143.65776,mp-1247723,SrCa7Mn8O21,https://materialsproject.org/materials/mp-1247723,-30.83982766022764,-9.908435325214997,-8.604250342815693,-0.5045126942092143
-7.23101599736842,-274.7786079,4.142517499574283,-2.774544931752456,21.999999600000002,0.5583603292725026,0.0,1,38,459.1827300280118,1145.51507,mp-1247655,SrCa7Ti2Mn6O22,https://materialsproject.org/materials/mp-1247655,-31.885544407266178,-9.784307764740511,-8.604250342815693,-0.5045126942092143
-5.597343737777778,-806.01749824,5.730973948667757,-1.8924822729166677,2.868874725,0.015824673275527796,0.0,1,144,2112.7799157290506,7291.78078,mp-1076296,Ba6Sr2CoCu7O20,https://materialsproject.org/materials/mp-1076296,-49.19828952018962,1.4217874458033617,-8.604250342815693,-0.5045126942092143
-6.647173095,-26.58869238,6.9005961464291525,-0.5519234724999995,2.0399999999999998e-05,2.8698190522253515e-06,0.0,225,4,82.8424778823125,344.2632,mp-865587,Y2CuRh,https://materialsproject.org/materials/mp-865587,-9.791625618781724,55.199248522808,-8.604250342815693,-0.5045126942092143
-6.689941132222222,-60.20947019,5.974371179251898,-2.3722366459722224,3.8985717000000006,0.3812970257922691,0.0,99,9,119.15699320723458,428.709045,mvc-7666,BaYCoCuO5,https://materialsproject.org/materials/mvc-7666,-48.90789629470419,-3.3800186984732803,-8.604250342815693,-0.5045126942092143
-6.433407415,-25.73362966,9.94286250267826,-0.7608829524999994,0.0001494,2.228795447705453e-05,0.0,225,4,78.11920464988833,467.75685,mp-865429,YbYRh2,https://materialsproject.org/materials/mp-865429,13.919031180719475,47.947354023853855,-8.604250342815693,-0.5045126942092143
-5.12028443,-20.48113772,8.894440146655176,-0.5228511899999999,6.95e-05,9.76320486672021e-06,0.0,225,4,82.96020750868364,444.3645,mp-862660,LiEr2Rh,https://materialsproject.org/materials/mp-862660,8.92621969399691,42.741399738032605,-8.604250342815693,-0.5045126942092143
-6.64583668625,-53.16669349,1.9982270540409428,-1.0171628657200005,0.0,0.0,1.9737,69,8,134.81429951728012,162.2302,mp-1223461,KCNO,https://materialsproject.org/materials/mp-1223461,4.566343506015573,0.03091647487121371,6.265285607963652,-0.33215294687837266
-7.265242173928571,-203.42678087,5.926011003393709,-0.9775980104166664,0.943998,0.029337873850068075,0.0,227,28,374.99015413965583,1338.2376,mp-22432,Ti4Cu2O,https://materialsproject.org/materials/mp-22432,-5.80801977321461,19.143062194648703,-8.604250342815693,-0.5045126942092143
-3.022010805,-12.08804322,3.7357036848785343,0.6452747142500002,0.00028960000000000005,3.8627564159987337e-05,0.0,225,4,87.3732846356728,196.5631,mp-631619,KCaNi2,https://materialsproject.org/materials/mp-631619,-5.971024742846574,53.756220889641355,-8.604250342815693,-0.5045126942092143
-5.3777894326470586,-182.84484071,5.4175134619852106,-0.6883978675000009,2.15e-06,5.2083433903908404e-08,0.0,21,34,481.07886486960473,1569.5212,mp-976920,Ni9S8,https://materialsproject.org/materials/mp-976920,15.928904272850534,23.107602317370983,-8.604250342815693,-0.5045126942092143
-6.981515669807693,-1089.11644449,4.196230056231698,-2.540530916422308,25.000000275,0.16358688991633785,0.0,1,156,1781.020610318248,4500.69046,mp-1268193,Ca8Mn7CrO23,https://materialsproject.org/materials/mp-1268193,-32.44557163671053,-9.203244693461391,-5.350007584541155,-3.0455233154003216
-6.670466372962962,-180.10259207,3.7471138760899474,-2.0302854514062965,23.9999997,0.957366471710352,0.0,8,27,292.153067096165,659.2623150000001,mp-774493,Li5Mn7O15,https://materialsproject.org/materials/mp-774493,-67.27076472862103,-37.15133866341422,-8.604250342815693,-0.5045126942092143
-4.415341365,-52.98409638,4.522906063662094,-0.4869951991266663,0.00019635,9.844764240996783e-06,0.5358,62,12,232.43579653873024,633.0988,mp-1247100,BaLiN,https://materialsproject.org/materials/mp-1247100,7.573493122644049,2.860401822003559,-5.133245426713747,-3.1725750924488585
-7.957588735,-31.83035494,9.625881388649738,-0.5248463618749994,6.5374301,0.8784200228573156,0.0,225,4,86.7325787766757,502.775,mp-1186577,PmEuRh2,https://materialsproject.org/materials/mp-1186577,5.93200518540696,47.274125664540385,-8.604250342815693,-0.5045126942092143
-5.230911220909091,-57.54002343,7.162689886335045,-0.5184647381818176,2e-07,1.0096895270026837e-08,0.0,71,11,230.84452122932083,995.74155,mp-1095575,Y3(CuSn)4,https://materialsproject.org/materials/mp-1095575,-5.134499265006795,54.48290407478071,-8.604250342815693,-0.5045126942092143
-6.7951203610714295,-380.52674022,3.9872717248426985,-2.070244885971429,50.000001,1.000472956924169,0.1639999999999997,1,56,582.4277870273463,1398.520475,mp-769450,Li9Mn15O32,https://materialsproject.org/materials/mp-769450,-67.01197130091539,-37.79282386566431,0.9694486612357044,-2.35462627121339
-3.51856054,-10.55568162,3.757574416028475,0.5384432533333333,2.8899999999999998e-05,4.311789163102661e-06,0.0,216,3,78.11199926218566,176.75685,mp-631382,YMgCu,https://materialsproject.org/materials/mp-631382,-13.922500567911946,45.77076658586768,-8.604250342815693,-0.5045126942092143
-5.125214978095238,-107.62951454,6.0265174560377135,-1.425237271904762,0.555425,0.020084213224965803,0.0,139,21,322.29088855981263,1169.6754,mvc-11852,Ba2CaTl2(CuO3)4,https://materialsproject.org/materials/mvc-11852,-52.426427216272074,-1.9880873917967057,-8.604250342815693,-0.5045126942092143
-5.198131603055555,-187.13273771,4.181369351949591,-3.4213871816266663,1.0018931999999998,0.020835731809314147,0.011799999999999977,117,36,560.3896400109908,1411.1056768,mp-540812,Sr2CuF6,https://materialsproject.org/materials/mp-540812,-51.756563342037296,-15.312690875161431,1.7985431070021154,0.29527233449730395
-7.17419033392857,-200.87732935,7.038076780994144,-2.827333095535714,0.1042441,0.003125385517914216,0.0,12,28,388.7096444882595,1647.51822,mp-1218814,Sr2La6Cu3IrO16,https://materialsproject.org/materials/mp-1218814,-42.75253334462964,-4.123447230275089,-8.604250342815693,-0.5045126942092143
-5.785505021666666,-34.71303013,9.741192726649317,-0.07311004666666676,1.1664776000000001,0.14024179243654264,0.0,74,6,96.9340541785442,568.64264,mp-1223889,HoFeCu,https://materialsproject.org/materials/mp-1223889,39.43120575739954,74.35599647391291,-8.604250342815693,-0.5045126942092143
-5.796126696666667,-34.77676018,9.935399083336804,-0.08728191833333318,1.1818408999999999,0.14374433143146376,0.0,74,6,95.81769425131891,573.3,mp-1225569,ErFeCu,https://materialsproject.org/materials/mp-1225569,39.4397057603432,74.34613373515623,-8.604250342815693,-0.5045126942092143
-5.03424763,-25.17123815,6.733217528560429,-1.0832703696250008,3.3e-06,4.453629432507978e-07,0.0,164,5,86.35297195750263,350.14735,mp-1018637,Tb(CuS)2,https://materialsproject.org/materials/mp-1018637,-14.753353348661628,21.355854686728264,-8.604250342815693,-0.5045126942092143
-2.694813595714286,-18.86369517,3.1322329442058923,-0.3409728460408163,0.0,0.0,0.041200000000000125,166,7,187.9347597042493,354.4966011200001,mp-28591,Na4HgP2,https://materialsproject.org/materials/mp-28591,3.697561539171332,3.9996308948691017,-6.146379020523102,-3.3765877732793967
-6.051426736,-30.25713368,4.250931157768472,-0.15867630995199916,0.0,0.0,0.0,115,5,72.45325335510947,185.4782,mvc-11775,Ca(NiN)2,https://materialsproject.org/materials/mvc-11775,3.0412902841251213,13.512428392899468,-8.604250342815693,-0.5045126942092143
-5.015106896000001,-25.07553448,6.855847558682761,-1.0685337936250008,0.0,0.0,0.0,164,5,85.67419057662555,353.722,mp-1018631,Dy(CuS)2,https://materialsproject.org/materials/mp-1018631,-14.754473503963109,21.35740930727761,-8.604250342815693,-0.5045126942092143
-3.498656613333333,-20.99193968,8.157977263288245,-0.2435996299999997,3.7e-05,4.691664011747595e-06,0.0,216,6,91.90777419376437,451.529,mp-1025021,YbMgCu4,https://materialsproject.org/materials/mp-1025021,3.4838870593698834,41.33454255718564,-8.604250342815693,-0.5045126942092143
-4.18015759,-16.72063036,9.851874497428538,-0.3110796658333337,2e-06,3.317181759463749e-07,0.0,225,4,70.26485503431486,416.87699999999995,mp-4972,LuInCu2,https://materialsproject.org/materials/mp-4972,-8.095921220430466,53.80702791499167,-8.604250342815693,-0.5045126942092143
-5.131677496,-102.63354992,2.8464629256696865,-0.7811358874519989,2.72e-05,7.897104365399116e-07,0.41549999999999976,59,20,401.4010036419255,688.0735999999998,mp-1246052,SrCa5N4,https://materialsproject.org/materials/mp-1246052,24.385849122293816,-9.403115805891002,4.907959862534834,-4.527166125835957
-4.4505514999999995,-13.3516545,3.493076586714397,-0.6770251974600002,0.00023650000000000003,3.063650888197968e-05,0.036599999999999966,166,3,89.96411207712866,189.2467,mp-1245,Sr2N,https://materialsproject.org/materials/mp-1245,7.68253803659449,2.3932312662026725,-8.604250342815693,-0.5045126942092143