energy_per_atom,energy,density,formation_energy_per_atom,total_magnetization_uB,total_magnetization_T,band_gap,sgr,num_sites,cell_volume,weight,mp_id,formula,URL,tsne_cry_lin1_0,tsne_cry_lin1_1,tsne_cry_lin2_0,tsne_cry_lin2_1
-9.32880895,-18.657617899999998,9.80592192751378,0.12255253999999915,0.0008883,0.0003993902084976466,0.0,187,2,25.92027925873845,153.0661,mp-1226177,CrRu,https://materialsproject.org/materials/mp-1226177,56.08431733245197,58.299379773443434,-8.604250342815693,-0.5045126942092143
-7.756935263125,-124.11096421,7.285758836258884,-0.17468381125000046,0.45978359999999996,0.024733848172599986,0.0,8,16,216.64028251360514,950.528,mp-1216572,V5Cr5Ge6,https://materialsproject.org/materials/mp-1216572,53.620027009837855,52.27581190329229,-8.604250342815693,-0.5045126942092143
-5.91968798,-23.67875192,12.69028303999824,-0.07178839500000045,2.2890706,0.5492786929422645,0.0,221,4,48.56728903585222,371.1642,mp-12798,Ni3Pt,https://materialsproject.org/materials/mp-12798,36.84866420289333,81.19092807154266,-8.604250342815693,-0.5045126942092143
-5.480713921666666,-32.88428353,10.163474089113203,-0.4155884088888886,0.00020390000000000002,2.772641603585924e-05,0.0,216,6,85.70396563521379,524.5586000000002,mp-1206270,LuInNi4,https://materialsproject.org/materials/mp-1206270,31.12048614306129,74.72997295203959,-8.604250342815693,-0.5045126942092143
-6.110428315,-24.44171326,12.69176297261502,-0.5424027875000004,3.21e-05,6.579563447132976e-06,0.0,225,4,56.857188505747615,434.5685,mp-865743,Ga2IrRh,https://materialsproject.org/materials/mp-865743,36.4889652628291,52.492910905283324,-8.604250342815693,-0.5045126942092143
-5.916477371,-59.16477371,14.56001135769032,-0.4332815489999994,5e-07,3.496961211130848e-08,0.0,63,10,166.6313131450348,1461.064,mp-20576,Ge2Pt3,https://materialsproject.org/materials/mp-20576,61.714840983334035,45.563105631129396,-8.604250342815693,-0.5045126942092143
-5.14722322,-15.44166966,10.20040089132123,-0.4553486233333329,0.0,0.0,0.0,225,3,70.40799519626867,432.504,mp-19962,Sn2Pt,https://materialsproject.org/materials/mp-19962,37.80471881275578,43.514804801116355,-8.604250342815693,-0.5045126942092143
-6.1120538899999985,-18.33616167,5.978356128643076,-0.012677210555555265,1.9e-06,4.448614217608498e-07,0.0,216,3,49.77442858546403,179.2004,mp-961694,TiNiGe,https://materialsproject.org/materials/mp-961694,25.823856973847104,75.22837869848061,-8.604250342815693,-0.5045126942092143
-1.399503875,-16.7940465,4.9522561632564885,-0.01617433833333326,2.55e-06,1.4283526080655632e-07,0.0,8,12,208.05692517532142,620.4920000000002,mp-1094492,MgZn2,https://materialsproject.org/materials/mp-1094492,2.5755988723391314,98.29580742300944,-8.604250342815693,-0.5045126942092143
-6.209775689285713,-86.93685965,7.837699565854749,-0.3448395667857146,2.9765702999999997,0.13488451307282992,0.0,71,14,257.1766193613887,1213.86672,mp-1207776,Y3Co6Sn5,https://materialsproject.org/materials/mp-1207776,25.749006908208646,72.75885585077988,-8.604250342815693,-0.5045126942092143
-6.440968489310344,-186.78808619,5.953868770693378,-0.8311978658620689,1.8618198000000001,0.04577969743799384,0.0,225,29,473.96050560234926,1699.3871176000002,mp-1192673,Zr6Al16Rh7,https://materialsproject.org/materials/mp-1192673,10.067968568622714,83.28337515549656,-8.604250342815693,-0.5045126942092143
-5.30547188625,-42.44377509,8.125909041690491,-0.30398023812500075,1e-07,1.0916497643448647e-08,0.0,8,8,106.75644472431765,522.4166,mp-1224925,GaNi4Ge3,https://materialsproject.org/materials/mp-1224925,36.96380786774168,71.91906488228659,-8.604250342815693,-0.5045126942092143
-10.724839555,-300.29550754,14.312707798297012,-0.3827826789285719,0.00030255,6.3865131334449285e-06,0.0,194,28,552.0911369418918,4758.647000000001,mp-1193862,Hf9Re4Si,https://materialsproject.org/materials/mp-1193862,28.318252040068632,60.51157073632954,-8.604250342815693,-0.5045126942092143
-8.27549169232143,-463.42753477,6.5946325805654045,-0.18308017374999966,3.9999977375,0.06994276970975914,0.0,92,56,666.4910885908604,2646.8898,mp-1198479,Mn5Si2,https://materialsproject.org/materials/mp-1198479,51.14686254821331,46.412656468845704,-8.604250342815693,-0.5045126942092143
-6.336295596666666,-38.01777358,7.720636559083965,-0.5400039824999988,1.23e-05,1.2966370987032714e-06,0.0,38,6,110.55136155354441,514.0059120000002,mp-1224337,HfScGe4,https://materialsproject.org/materials/mp-1224337,36.59260475298692,64.30963683180346,-8.604250342815693,-0.5045126942092143
-9.50424293875,-152.06788702,13.828196478626914,-0.3610523993749997,0.0,0.0,0.0,140,16,269.6258713425636,2245.3188,mp-17593,Ta5Ge3,https://materialsproject.org/materials/mp-17593,41.87963329898128,65.37150121374907,-8.604250342815693,-0.5045126942092143
-8.64974536,-172.9949072,9.070685805166212,-0.4475300436666672,0.035042199999999996,0.0016393592720781152,0.0,10,20,249.11200096810254,1360.773,mp-1217239,Ti2FeB2Ru4Rh,https://materialsproject.org/materials/mp-1217239,40.60555978469355,56.59015363219264,-8.604250342815693,-0.5045126942092143
-6.46218755551724,-187.40343911,9.972894112472774,-0.8727799679310335,5.2e-06,1.2689324929462273e-07,0.0,225,29,477.5757351488868,2868.2326176,mp-1194470,Hf6Al16Pt7,https://materialsproject.org/materials/mp-1194470,8.653248545459899,83.9197449747957,-8.604250342815693,-0.5045126942092143
-6.2811350375,-25.12454015,8.93395292499141,0.07678443416666525,5.1366375,1.116248420107103,0.0,225,4,53.6284800586014,288.52939,mp-21211,InFeCo2,https://materialsproject.org/materials/mp-21211,44.21501439399446,46.81792321886334,-8.604250342815693,-0.5045126942092143
-6.510387390000001,-78.12464868,10.177014016172404,-0.9980222833333344,5e-08,2.6044271163097035e-09,0.0,62,12,223.7356672332745,1371.2179999999996,mp-20043,ErGeRh,https://materialsproject.org/materials/mp-20043,15.867922442382488,63.21325324928599,-8.604250342815693,-0.5045126942092143
-6.873997921666668,-41.24398753,9.869971393405764,-0.4740911816666653,5e-08,5.348692544997604e-09,0.0,63,6,108.94311716850528,647.54,mp-13683,HfGe2,https://materialsproject.org/materials/mp-13683,36.64006690650624,64.24732848376128,-8.604250342815693,-0.5045126942092143
-8.291581357777778,-298.49692888,11.547799018074429,-0.7069009277777761,2.5e-08,4.2817287921660535e-10,0.0,62,36,680.4532315242753,4732.04,mp-737,Hf5Ge4,https://materialsproject.org/materials/mp-737,44.76667822641068,60.14705713114119,-8.604250342815693,-0.5045126942092143
-2.4381717375,-39.0107478,8.271344288727883,-0.34169882,0.001394325,5.5669942162128735e-05,0.0,62,16,291.89097801961736,1453.944,mp-1188367,ErZn3,https://materialsproject.org/materials/mp-1188367,-0.43946552124131605,93.43202867419771,-8.604250342815693,-0.5045126942092143
-5.700020917142857,-79.80029284,8.748630654294761,-0.4048574828571429,0.3601114,0.018055279879628572,0.003500000000000725,140,14,232.43957495625855,1224.6192,mp-510125,Ce(Ni2Sn)2,https://materialsproject.org/materials/mp-510125,28.102316181597715,79.66294093914125,-8.604250342815693,-0.5045126942092143
-6.205697595,-24.82279038,10.233097558239695,-0.5371240100000003,3.2500000000000004e-05,6.7965940622375785e-06,0.0,225,4,55.72748668521999,343.4215,mp-867292,Ga2RuRh,https://materialsproject.org/materials/mp-867292,36.30983614317381,52.718294195214256,-8.604250342815693,-0.5045126942092143
-4.8600764175,-19.44030567,9.28612744018044,-0.7069672325000003,6.3e-06,1.1846105446149914e-06,0.0,225,4,61.97868860857422,346.5995000000001,mp-864940,Mg2PtRh,https://materialsproject.org/materials/mp-864940,38.69764434177383,54.9748047565497,-8.604250342815693,-0.5045126942092143
-5.377814943333332,-48.40033449,8.897296725576915,-0.8937769599999998,1.5e-06,1.0124797673047068e-07,0.0,189,9,172.6562616196812,925.1056158,mp-973629,LuAlPd,https://materialsproject.org/materials/mp-973629,3.4535161883981265,68.07119233963478,-8.604250342815693,-0.5045126942092143
-6.3144245275,-25.25769811,6.1867854015897645,-0.5139886541666671,2.5e-06,5.646770937231411e-07,0.0,123,4,51.596146284772225,192.2353386,mp-1217021,TiAlNi2,https://materialsproject.org/materials/mp-1217021,34.377717282161825,77.82779447670531,-8.604250342815693,-0.5045126942092143
-6.75922247,-27.03688988,8.642207572933557,-0.01635414500000021,1.4127755,0.37570417931230937,0.0,139,4,43.82324736504727,228.0763,mp-1007923,CrNi3,https://materialsproject.org/materials/mp-1007923,37.359709709581054,80.7169870893367,-8.604250342815693,-0.5045126942092143
-3.0223717564999997,-60.44743513,2.0963522838745643,0.11035608549999977,0.0011762,3.3514646519804874e-05,0.0,2,20,409.00061342984804,516.3439999999998,mp-1075851,Mg3Si2,https://materialsproject.org/materials/mp-1075851,-13.119722803134936,94.54115809182557,-8.604250342815693,-0.5045126942092143
-9.324913797999999,-46.62456899,8.915796991063667,-0.5783682970000015,14.1667925,1.6100017871953864,0.0,71,5,102.54691561679401,550.5968,mp-1206945,Gd2Ni2Sn,https://materialsproject.org/materials/mp-1206945,3.2625373919673133,56.876690551831395,-8.604250342815693,-0.5045126942092143
-4.8526308675,-38.82104694,13.941773829539251,-1.0597974875,0.0,0.0,0.0,62,8,175.38206573565154,1472.496,mp-570180,YbPt,https://materialsproject.org/materials/mp-570180,25.433431140187444,54.69866619362937,-8.604250342815693,-0.5045126942092143
-5.2190516525,-20.87620661,4.6714836236735975,-0.2783876850000002,1.04e-05,2.1457615875102784e-06,0.0,225,4,56.484501512235326,158.90407720000005,mp-982666,LiAl2Tc,https://materialsproject.org/materials/mp-982666,11.09411622395119,88.68726417746231,-8.604250342815693,-0.5045126942092143
-4.2856655375,-17.14266215,7.9890107444407965,-0.2917366418749996,3.4e-06,5.577109124581503e-07,0.0,225,4,71.04723852731901,341.815,mp-862906,PmGaCu2,https://materialsproject.org/materials/mp-862906,32.67682193431057,67.55749205136895,-8.604250342815693,-0.5045126942092143
-5.805661333333332,-174.16984,7.880679930258852,-0.2982055088888889,1.5634860000000002,0.030437903337699187,0.0,225,30,598.6275372792347,2841.000365,mp-610190,Zr9(In2Co)7,https://materialsproject.org/materials/mp-610190,5.6994774234646295,54.86805647642602,-8.604250342815693,-0.5045126942092143
-6.985203494375,-111.76325591,5.244009253010589,-0.7479419162499994,0.9605679,0.0377020352601065,0.0,63,16,296.9208544793563,937.6808800000001,mp-1207782,Y3Co2Si3,https://materialsproject.org/materials/mp-1207782,19.91984131082839,71.02534812501035,-8.604250342815693,-0.5045126942092143
-5.6509903025,-45.20792242,7.099627168098068,-0.06779520375000025,3.12e-05,2.782624290194874e-06,0.0,194,8,130.67046894728222,558.681,mp-972763,Si3Pt,https://materialsproject.org/materials/mp-972763,48.93929734613146,58.83754178588602,-8.604250342815693,-0.5045126942092143
-9.6633256225,-38.65330249,7.791973167710715,0.09248706500000026,0.0018899999999999998,0.00041526179382842345,0.0,225,4,53.041678159389065,248.89468,mp-999390,NbCr3,https://materialsproject.org/materials/mp-999390,54.665873661187575,65.38398053113653,-8.604250342815693,-0.5045126942092143
-8.826658546666666,-52.95995128,11.821153721312168,0.1909110971875,3.8680162000000005,0.5282421641790862,0.0,216,6,85.33607196268358,607.496,mp-1226594,CePuFe4,https://materialsproject.org/materials/mp-1226594,53.62216234544754,63.77020841229586,-8.604250342815693,-0.5045126942092143
-8.881621076666667,-53.28972646,12.967141146388517,0.021164445000000143,0.10597195,0.01382797639731893,0.0,74,6,89.31198129712665,697.43682,mp-1216701,UCrNi,https://materialsproject.org/materials/mp-1216701,44.682502470787426,72.8037971451852,-8.604250342815693,-0.5045126942092143
-9.2215912925,-36.88636517,7.5756428961963405,0.12089432000000146,1.8039077000000001,0.4527598549213546,0.0,225,4,46.43268821430932,211.8333,mp-1008282,Cr3Fe,https://materialsproject.org/materials/mp-1008282,54.65867523784181,65.80120095249357,-8.604250342815693,-0.5045126942092143
-7.900145468125,-126.40232749,6.9569142784334606,-0.538407352708334,0.3575137,0.015315969762523663,0.0,38,16,272.0355211899392,1139.7069,mp-1217195,Ti5Nb5Ge6,https://materialsproject.org/materials/mp-1217195,46.1031078161091,59.863896826251576,-8.604250342815693,-0.5045126942092143
-5.972006262758621,-173.18818162,7.540645205921064,-0.8082056662068963,0.00012190000000000001,3.0948511919528632e-06,0.0,225,29,459.03030797374237,2084.4946176,mp-978976,Ti6Al16Pt7,https://materialsproject.org/materials/mp-978976,8.908546602227542,83.78210565037709,-8.604250342815693,-0.5045126942092143
-4.8553118625,-77.6849898,8.715618089695973,-0.6847980218749994,7e-07,2.477399673167204e-08,0.0,108,16,329.2906441035604,1728.3372600000002,mp-1216665,Tm3Ga2Ge3,https://materialsproject.org/materials/mp-1216665,2.9375396155935576,74.61004942977709,-8.604250342815693,-0.5045126942092143
-6.9226994425,-27.69079777,4.975173200631804,-0.3109320487499998,2.5775222999999996,0.4138090087431772,0.0,225,4,72.59052171954994,217.489869,mp-999258,Sc2MnGe,https://materialsproject.org/materials/mp-999258,25.691270668016816,67.64460742230638,-8.604250342815693,-0.5045126942092143
-5.8340731125,-23.33629245,12.17548393615984,-0.3252834799999995,0.11693830000000001,0.025582520849105016,0.0,225,4,53.2710021280289,390.596195,mp-1184229,Ga2CoIr,https://materialsproject.org/materials/mp-1184229,43.770451714489546,47.31535295106121,-8.604250342815693,-0.5045126942092143
-6.64839434,-26.59357736,9.846398113539248,-0.7808874425000001,0.0001355,3.068908386947244e-05,0.0,225,4,51.45561801056736,305.1132722,mp-867319,Al2CoIr,https://materialsproject.org/materials/mp-867319,19.072418122023926,87.48524573970981,-8.604250342815693,-0.5045126942092143
-4.899173595,-19.59669438,4.941955679610502,-0.7113943624999992,5e-07,1.0586633982351984e-07,0.0,225,4,55.04140783551753,163.80957719999998,mp-30821,LiAl2Rh,https://materialsproject.org/materials/mp-30821,9.05659433989903,82.44902849955594,-8.604250342815693,-0.5045126942092143
-5.924498953333334,-17.77349686,9.041583180034234,0.1879609199999995,0.0413556,0.014736056152531657,0.0,156,3,32.70622995184968,178.0844,mp-1224973,FeCuNi,https://materialsproject.org/materials/mp-1224973,32.46080558495129,79.78692834150384,-8.604250342815693,-0.5045126942092143
-6.253279831,-62.53279831,6.32114682686978,-0.6070829279999999,3.5e-07,2.3814045286154876e-08,0.0,127,10,171.2822253163059,652.017248,mp-3363,Sc2Ni2Sn,https://materialsproject.org/materials/mp-3363,4.431696696505644,56.637731372788885,-8.604250342815693,-0.5045126942092143
-7.386921213611112,-265.92916369,6.905009719434668,-0.5540904980555551,0.00094715,1.7407650474933006e-05,0.0,62,36,634.0974886429866,2636.763856,mp-1209275,Sc2Nb3Ge4,https://materialsproject.org/materials/mp-1209275,46.050387313282826,59.73324702231081,-8.604250342815693,-0.5045126942092143
-7.682087108333333,-368.7401812,10.739441399688088,-0.5656522733333323,4.166666666666666e-08,6.160162117883193e-10,0.0,55,48,788.2682677787195,5098.08,mp-1204281,HfGe2Ru,https://materialsproject.org/materials/mp-1204281,32.315615873457816,53.218330640299556,-8.604250342815693,-0.5045126942092143
-8.778413615,-35.11365446,9.781669374760158,-0.2978989049999985,1.9999999,0.4320259856347144,0.0,225,4,53.95075563676936,317.80550860000005,mp-867120,TaMn2Al,https://materialsproject.org/materials/mp-867120,53.14149641817688,45.47907121217056,-8.604250342815693,-0.5045126942092143
-0.8458975666666667,-5.075385400000001,10.07444946214513,-0.10865894666666667,1.085e-05,9.014987897601677e-07,0.0,12,6,140.26264285491965,850.97,mp-1185877,MgHg2,https://materialsproject.org/materials/mp-1185877,-17.243094883664142,62.84292467494178,-8.604250342815693,-0.5045126942092143
-10.424404505,-41.69761802,11.324700628503015,-0.1544862237500002,3.26e-05,6.053261956417945e-06,0.0,225,4,62.76326951002589,428.03885999999994,mp-1186203,Nb2CrOs,https://materialsproject.org/materials/mp-1186203,58.22207446948527,59.503890107033946,-8.604250342815693,-0.5045126942092143
-7.08728066,-21.26184198,8.620909398918375,-0.022875053333333284,3.4e-06,1.2144811286375398e-06,0.0,71,3,32.6261308573438,169.3829,mp-784631,CrNi2,https://materialsproject.org/materials/mp-784631,37.492355574023726,80.82356344195958,-8.604250342815693,-0.5045126942092143
-9.061183300833333,-108.73419961,7.761670303776341,-0.054865865833334006,1.2401360666666668,0.08794820022463186,0.0,156,12,164.33111775802956,768.114405,mp-1215293,ZrMn3,https://materialsproject.org/materials/mp-1215293,53.02063602527713,60.17334212373589,-8.604250342815693,-0.5045126942092143
-5.61567274064516,-174.08585496,8.189623207376664,-0.6029295651612903,3e-07,6.8377687795582665e-09,0.0,216,31,511.3099820251263,2521.7329999999997,mp-30324,Mg5(Si8Pt5)2,https://materialsproject.org/materials/mp-30324,19.4672212848352,62.295112569851895,-8.604250342815693,-0.5045126942092143
-6.7359625633333335,-20.20788769,7.516375627265191,-0.27882539888888874,9.91e-05,1.918192404764293e-05,0.0,216,3,60.208653526734274,272.5325,mp-1206908,TiSbRh,https://materialsproject.org/materials/mp-1206908,31.871656542455398,50.22928958333373,-8.604250342815693,-0.5045126942092143
-6.907935066666668,-82.8952208,7.321206142797049,-0.5039246949999997,2.408985025,0.1278973182949935,0.0,62,12,219.50786687116403,967.79558,mp-20597,TbMnSi,https://materialsproject.org/materials/mp-20597,24.33410701924009,69.34237540600282,-8.604250342815693,-0.5045126942092143
-5.48290739142857,-153.52140696,6.103523941600289,-0.8380022657142854,0.00015805,3.893617946103608e-06,0.0,63,28,473.0625764518823,1738.8020947999998,mp-1208540,Tb2(Al3Rh)3,https://materialsproject.org/materials/mp-1208540,10.569882353766221,83.74564738568533,-8.604250342815693,-0.5045126942092143
-9.51866574,-57.11199444,13.699603419433016,-0.11431308500000033,0.7120725,0.0978839382282344,0.012299999999999756,227,6,84.77937430765141,699.43782,mp-21050,UFe2,https://materialsproject.org/materials/mp-21050,53.91316957740629,64.08020783739839,-8.604250342815693,-0.5045126942092143
-4.278547975,-8.55709595,6.343660372181783,0.34419822999999994,0.00010170000000000002,3.1166166206284995e-05,0.0,74,2,38.02900810848878,145.28,mp-1061054,Ge,https://materialsproject.org/materials/mp-1061054,44.09025447021986,43.98266380700628,-8.604250342815693,-0.5045126942092143
-7.3107573375,-87.72908805,9.211045045519596,-1.0676141233333345,0.0,0.0,0.0,74,12,191.8674881910781,1064.2930000000001,mp-8535,ErSi2Rh3,https://materialsproject.org/materials/mp-8535,13.003018096763995,66.42161776693062,-8.604250342815693,-0.5045126942092143
-7.434579312499999,-89.21495175,9.539639450743252,-0.7281816441666665,0.0,0.0,0.0,62,12,162.8549051878892,935.586,mp-20418,SiRh2,https://materialsproject.org/materials/mp-20418,34.57960419200396,53.484743510440026,-8.604250342815693,-0.5045126942092143
-8.03589744125,-64.28717953,7.715088995343666,-0.05070238375000002,1e-07,1.1994605794939336e-08,0.0,223,8,97.160881914741,451.4226,mp-1231,Cr3Ga,https://materialsproject.org/materials/mp-1231,45.97744809640565,64.73547890815657,-8.604250342815693,-0.5045126942092143
-5.871592706,-117.43185412,7.060334043993754,-0.3071032976666672,9.85e-06,2.70036259106354e-07,0.0,64,20,425.10046017376436,1807.4560000000001,mp-637255,Ti2Sn3,https://materialsproject.org/materials/mp-637255,35.703237781695826,61.379832517611845,-8.604250342815693,-0.5045126942092143
-4.94788512,-9.89577024,6.911660991661513,-0.472248679999999,2e-07,7.626368768171164e-08,0.0,221,2,30.56255244618701,127.2105,mp-1172,MgRh,https://materialsproject.org/materials/mp-1172,38.48853424353886,54.75370658115357,-8.604250342815693,-0.5045126942092143
-8.108098343333333,-24.32429503,15.750403030972324,-0.395615634047618,1e-07,2.6610032263678198e-08,0.0,225,3,43.795755890409424,415.40776200000005,mp-2082,PIr2,https://materialsproject.org/materials/mp-2082,40.08584536211481,52.164864193606796,-8.604250342815693,-0.5045126942092143
-5.47451706,-21.89806824,8.897528594548525,-0.3964238606250001,6.500000000000001e-05,1.0650641926122695e-05,0.0,225,4,71.1238078860237,381.0968,mp-862952,PmNi2Sn,https://materialsproject.org/materials/mp-862952,32.049483762088656,69.69104184100898,-8.604250342815693,-0.5045126942092143