energy_per_atom,energy,density,formation_energy_per_atom,total_magnetization_uB,total_magnetization_T,band_gap,sgr,num_sites,cell_volume,weight,mp_id,formula,URL,tsne_cry_lin1_0,tsne_cry_lin1_1,tsne_cry_lin2_0,tsne_cry_lin2_1
-8.4089816095,-168.17963219,8.491572800929235,-0.5196843528333333,2.67295715,0.11807422579344397,0.0,127,20,263.8240102871476,1349.128648,mp-1219435,Sc2FeB2Ru4Rh,https://materialsproject.org/materials/mp-1219435,29.666549736731195,49.9172533380136,-8.604250342815693,-0.5045126942092143
-8.595989685,-34.38395874,12.635337540091916,-0.46909532000000104,0.0006328999999999999,9.321254715288992e-05,0.0,225,4,79.12945005627766,602.11009,mp-862777,TmPaRu2,https://materialsproject.org/materials/mp-862777,20.7346777614981,55.06218958265818,-8.604250342815693,-0.5045126942092143
-7.81130617,-31.24522468,15.603358910379304,-0.5520875812499995,3.1e-06,4.7128695323059137e-07,0.0,225,4,76.65733275085705,720.31542,mp-865343,Tm2IrOs,https://materialsproject.org/materials/mp-865343,18.46180224599402,53.31977908778486,-8.604250342815693,-0.5045126942092143
-8.6813846775,-34.72553871,8.744586635021802,-0.5234689950000018,8.8e-06,1.396006645427757e-06,0.0,225,4,73.463668911906,386.86800000000005,mp-977578,Zr2TcPd,https://materialsproject.org/materials/mp-977578,26.977292000815744,57.22104331744026,-8.604250342815693,-0.5045126942092143
-8.723008295,-17.44601659,9.852685880383543,-0.1889073393749996,3.9594644999999997,0.7631596711338008,0.0,225,2,60.46422196169813,358.76,mp-20969,NpSb,https://materialsproject.org/materials/mp-20969,-4.21121437039367,35.02472478912143,-8.604250342815693,-0.5045126942092143
-8.252528937916667,-198.06069451,9.086861239061687,-0.1414863212499995,0.418212375,0.015817382708042154,0.0,194,24,308.13404448119996,1686.1821599999996,mp-1191009,NbCo2,https://materialsproject.org/materials/mp-1191009,60.37345160412527,65.16352043418081,-8.604250342815693,-0.5045126942092143
-6.8172764725,-54.53821178,8.930185532739477,-0.4406807012499998,7.1955762000000005,0.5127514513141431,0.0,6,8,163.544561201666,879.5236,mp-1224739,GdDy3Ni4,https://materialsproject.org/materials/mp-1224739,2.201482718102835,58.88707011950553,-8.604250342815693,-0.5045126942092143
-9.541635527,-95.41635527,8.88621809261694,-0.3528190536666657,3.485e-05,3.5118732439322265e-06,0.0,127,10,115.6488657514722,618.884,mp-1079053,B2Mo3,https://materialsproject.org/materials/mp-1079053,21.877242687179194,36.65881944008302,-8.604250342815693,-0.5045126942092143
-7.036120275,-28.1444811,13.089207506806874,-0.2153598237499992,0.0008847999999999999,0.00013846031414840027,0.0,225,4,74.47272219611637,587.031615,mp-865303,Tm2CoOs,https://materialsproject.org/materials/mp-865303,17.96622557937856,48.926539088995355,-8.604250342815693,-0.5045126942092143
-7.723149651666667,-139.01669373,7.864547587747322,-0.6676845805555547,3.335e-05,1.2692082494033766e-06,0.0,14,18,306.2248140504654,1450.3239999999998,mp-1189145,Dy2Si4Mo3,https://materialsproject.org/materials/mp-1189145,51.8458517541244,58.84891466897295,-8.604250342815693,-0.5045126942092143
-6.581404345999999,-32.90702173,1.6358236722284567,-1.5294359032379994,14.372450899999999,0.34181208103064903,0.0,123,5,490.0279511010466,482.7344032,mp-1206213,Eu2Br2F,https://materialsproject.org/materials/mp-1206213,-25.694629881154768,40.645095917364394,-8.604250342815693,-0.5045126942092143
-8.288460615,-16.57692123,11.460578948011706,0.1310896981250007,4.006974700000001,0.7226628373145181,0.0,225,2,64.61871329836238,445.9804,mp-22912,NpBi,https://materialsproject.org/materials/mp-22912,-4.142215693227803,35.04158901044049,-8.604250342815693,-0.5045126942092143
-9.773603165,-39.09441266,10.795311023776883,-0.5521434043750002,9.6e-06,1.5424010417045403e-06,0.0,225,4,72.53562386921959,471.5605,mp-1188019,Zr2ReRh,https://materialsproject.org/materials/mp-1188019,39.250241795627225,59.54222779749935,-8.604250342815693,-0.5045126942092143
-6.58214251,-26.32857004,10.966946719041944,-0.6820713500000002,2.02e-05,2.893394619640188e-06,0.0,225,4,81.36190853737772,537.35064,mp-861941,Ho2PdRu,https://materialsproject.org/materials/mp-861941,17.184539888864744,53.56680572800281,-8.604250342815693,-0.5045126942092143
-7.22423056,-28.89692224,10.755112022847277,-0.2702809243750002,3.28e-05,4.763378595629041e-06,0.0,225,4,80.24836087786937,519.759,mp-972633,SmErRu2,https://materialsproject.org/materials/mp-972633,19.740905734577847,53.30162301500761,-8.604250342815693,-0.5045126942092143
-10.351982856666668,-31.05594857,8.897604106821632,-0.035262956250000116,3e-07,9.188090263623779e-08,0.0,164,3,38.05164437282095,203.8907,mp-1221498,Mo2C,https://materialsproject.org/materials/mp-1221498,4.559030310281645,22.157873570674006,-8.604250342815693,-0.5045126942092143
-7.6044679014285705,-106.46255062,6.829622890232751,0.059422163265714235,0.00012205,1.0649519804117927e-05,0.0,194,14,133.56269875576072,549.3293699999998,mp-1246033,Fe(CoN)3,https://materialsproject.org/materials/mp-1246033,2.8684225703978457,16.14192159470396,-8.604250342815693,-0.5045126942092143
-7.8781605445454534,-173.31953198,4.968135809683631,-0.7548628624454546,1e-07,3.646568799633305e-09,0.0,2,22,319.5898778526161,956.175,mp-1247330,Ca3Mo3N5,https://materialsproject.org/materials/mp-1247330,-8.218304217429107,33.97690506295858,-8.604250342815693,-0.5045126942092143
-6.6077881635,-132.15576327,9.762786498270604,-0.6367132325,3.55682425,0.07780813992963218,0.0,186,20,532.7393796021696,3132.1279999999997,mp-1182329,Ce7Pt3,https://materialsproject.org/materials/mp-1182329,12.566605361809087,54.982081507500496,-8.604250342815693,-0.5045126942092143
-6.76849708625,-108.29595338,5.1488986868048885,-0.14046038875000022,0.000108175,3.000941434616172e-06,0.0,62,16,420.094321811678,1302.60298,mp-1105598,Y3Co,https://materialsproject.org/materials/mp-1105598,-29.269778037650703,70.61070042334245,-8.604250342815693,-0.5045126942092143
-7.086572974615384,-92.12544867,6.662746958552737,-0.4747927592307694,1.9e-06,6.00888992948827e-08,0.3764000000000003,174,13,368.49939552394386,1478.567,mp-1228689,Ba(TeMo)6,https://materialsproject.org/materials/mp-1228689,59.26763245808324,32.909585748062895,-8.604250342815693,-0.5045126942092143
-9.811907815,-39.24763126,12.420911772618249,-0.4835475987499986,0.0001299,2.1918105415666308e-05,0.0,225,4,69.06906346355315,516.639912,mp-977550,ZrScOs2,https://materialsproject.org/materials/mp-977550,40.428978329483535,59.040709416556034,-8.604250342815693,-0.5045126942092143
-7.821944846666668,-23.46583454,11.295965471004115,-0.12434561333333367,9e-06,1.972951689687728e-06,0.0,216,3,53.16226621323826,361.641075,mp-31459,TaCoSb,https://materialsproject.org/materials/mp-31459,46.664105005700534,43.995438221813735,-8.604250342815693,-0.5045126942092143
-7.01160855,-399.66168735,3.99763680023061,-1.8802743605663157,19.00127673333333,0.33619960981853275,0.32109999999999994,1,57,658.6626020509775,1585.6862099999996,mp-1176651,LiMn6O12,https://materialsproject.org/materials/mp-1176651,-76.68453005299018,-15.010224617230733,2.040357797094955,-1.877817161455184
-6.23519183857143,-43.64634287,4.097518519208507,-0.33408906750380896,6.37e-05,9.418621707635362e-06,0.0,111,7,78.8187432360982,194.49182,mp-1078123,Ti4H3,https://materialsproject.org/materials/mp-1078123,-55.507217962653705,43.9570432862682,-8.604250342815693,-0.5045126942092143
-6.6448360275,-26.57934411,11.205057394095123,-0.8271649075000003,0.00038760000000000004,6.198053607911572e-05,0.0,225,4,72.87958110072195,491.78,mp-862931,ErSnRh2,https://materialsproject.org/materials/mp-862931,31.787241334579978,56.48040474789882,-8.604250342815693,-0.5045126942092143
-7.45161570328125,-953.80681002,4.783027512507736,-1.09568707746885,0.0031341999999999997,1.283927709408659e-05,0.0,167,128,2844.877444617153,8194.4036,mp-1201941,Rb6Mo27S31,https://materialsproject.org/materials/mp-1201941,66.77545179946361,33.184738687819795,-8.604250342815693,-0.5045126942092143
-5.479380945882354,-372.59790432,4.6960941523460535,-1.6973125847058819,2.999999875,0.06203990129899,0.6101000000000005,1,68,563.543657047858,1593.73192,mp-760135,Li5(CoO2)4,https://materialsproject.org/materials/mp-760135,-73.68596748608937,-27.733568486555647,1.6055750618054119,1.1123053968562218
-5.187225993913043,-119.30619786,9.11264465581663,-0.7960205119565223,2.1899999999999997e-05,5.578897189658075e-07,0.0,229,23,457.48112905213753,2510.548,mp-1190606,Nd6Zn4Pd13,https://materialsproject.org/materials/mp-1190606,22.58353042310869,51.50696278119249,-8.604250342815693,-0.5045126942092143
-9.13583999,-164.44511982,6.4035084166822624,-0.5218298643911099,7.23524785,0.4976149052589327,0.0,2,18,169.44839513106533,653.44096,mp-1245928,Mn4VN4,https://materialsproject.org/materials/mp-1245928,2.6623974759649696,17.74500727454255,-8.604250342815693,-0.5045126942092143
-9.478061985,-37.91224794,14.565179420798705,-0.9744573237499984,0.0202455,0.0034045121693432176,0.0,225,4,69.30284182193837,607.8799120000001,mp-865000,HfScIr2,https://materialsproject.org/materials/mp-865000,39.37359761649736,60.59907250298336,-8.604250342815693,-0.5045126942092143
-5.4066853025,-21.62674121,8.427181412164835,-0.037350974999999835,0.0121543,0.0016719826617516721,0.0,225,4,84.71798344889783,429.941,mp-862588,LiDy2Tc,https://materialsproject.org/materials/mp-862588,8.608467817524009,43.09988878037283,-8.604250342815693,-0.5045126942092143
-8.3271497,-49.962898200000005,8.015115392085509,-0.2880339766666668,2.0608687,0.2813757048908262,0.0,74,6,85.35739546831053,412.00439000000006,mp-1215271,ZrFeCo,https://materialsproject.org/materials/mp-1215271,61.62645317304626,64.35590624907562,-8.604250342815693,-0.5045126942092143
-7.332374191666666,-87.9884903,8.594349463402155,-0.4943269066666669,1.395e-05,9.380865379237442e-07,0.0,62,12,173.30405778664226,896.9591199999999,mp-1101995,NbNiGe,https://materialsproject.org/materials/mp-1101995,46.702431870718186,58.47498855445962,-8.604250342815693,-0.5045126942092143
-7.767378168815789,-590.32074083,8.271268245397586,-2.813263090723684,0.0,0.0,0.4952000000000005,55,76,979.2864911899223,4877.89872,mp-14801,Ho4Mo4O11,https://materialsproject.org/materials/mp-14801,-20.913894496804534,-14.62324748471978,-0.6666032744372549,0.7733717932623231
-4.8586733375,-19.43469335,0.8328743566105146,2.7067934524999995,3.0,0.04017718132063995,0.0,71,4,870.2002770841016,436.465195,mp-1093665,Zr2CoPt,https://materialsproject.org/materials/mp-1093665,-63.63613096494489,37.46158476862582,-8.604250342815693,-0.5045126942092143
-7.84762615375,-62.78100923,7.224186406345138,-0.2661168849999997,4.5e-07,5.0210897053990365e-08,0.0,9,8,104.44603572831578,454.39319,mp-8761,NdCoC2,https://materialsproject.org/materials/mp-8761,8.182551006629309,38.59933018046966,-8.604250342815693,-0.5045126942092143
-7.3817874166,-369.08937083,6.479584723122327,-2.2320369113137932,0.24462045,0.0037670874840267897,0.0,58,50,756.7710017568643,2952.994,mp-698610,Rb(WO3)6,https://materialsproject.org/materials/mp-698610,-17.38623555167283,0.3767378656795087,-8.604250342815693,-0.5045126942092143
-9.450198246071428,-264.60555089,9.053214674232064,-0.033266549315476776,0.0,0.0,0.02910000000000057,74,28,342.45643977487146,1867.0634,mp-1225209,Fe6BMo6C,https://materialsproject.org/materials/mp-1225209,57.724743174660546,49.45431558810882,-8.604250342815693,-0.5045126942092143
-5.9772267125,-23.90890685,0.5525810929908072,4.589050737500001,1.8518495,0.017075235625552392,0.0,71,4,1263.9107591426932,420.59426,mp-1096713,Nb2VW,https://materialsproject.org/materials/mp-1096713,-59.5434684447658,42.28653680735222,-8.604250342815693,-0.5045126942092143
-8.514861445,-34.05944578,9.462714175483493,-0.7076857062499986,2.65e-05,4.594492009680102e-06,0.0,225,4,67.21803320631626,383.047324,mp-1186957,Sc2OsRh,https://materialsproject.org/materials/mp-1186957,20.94725158120764,52.71865395372007,-8.604250342815693,-0.5045126942092143
-6.476026949285715,-453.32188645,10.123857258382511,-0.7739854412857141,0.001848307142857143,1.352983080632781e-05,0.0,140,70,1592.0591669459484,9706.354,mp-1205201,Dy3Rh2,https://materialsproject.org/materials/mp-1205201,-31.800350103119612,70.84662463067505,-8.604250342815693,-0.5045126942092143
-7.3021220675,-29.20848827,14.632852369395833,-0.6947112187500002,6.1e-06,8.759414079924808e-07,0.0,225,4,81.15816247977213,715.1746400000001,mp-976939,Ho2OsPt,https://materialsproject.org/materials/mp-976939,17.9932167004218,54.59705098508039,-8.604250342815693,-0.5045126942092143
-10.601324438928572,-296.83708429,12.740099258880393,-0.3246605680357147,3.0161426,0.0940819983689188,0.0,44,28,373.61367565603234,2866.4639600000005,mp-1218078,Ta6Cr3Fe3C2,https://materialsproject.org/materials/mp-1218078,21.499238118493906,42.120753961069596,-8.604250342815693,-0.5045126942092143
-7.283458366666667,-43.7007502,7.1483056846825885,-0.3877787475000005,2.3218261,0.31722006456859475,0.0,160,6,85.29949641369095,367.198157,mp-1215226,ZrScMnNi3,https://materialsproject.org/materials/mp-1215226,36.49115753723966,67.59949476005644,-8.604250342815693,-0.5045126942092143
-6.675530455,-13.35106091,9.07589538805575,-0.9069054099999994,2.5300000000000002e-05,4.554942431511905e-06,0.0,225,2,64.73140839408863,353.79806,mp-1751,ThSb,https://materialsproject.org/materials/mp-1751,-4.145302597844904,35.02212876280201,-8.604250342815693,-0.5045126942092143
-8.009857715833332,-96.11829259,11.491630661456954,-0.5108677591666672,0.715348825,0.044405974986234636,0.0,62,12,187.73873435069848,1299.23124,mp-504984,USiNi,https://materialsproject.org/materials/mp-504984,49.91642657912185,63.899486781075346,-8.604250342815693,-0.5045126942092143
-6.641948599999999,-26.567794399999997,11.355987614467125,-0.8465857112499995,0.0011009000000000001,0.00017780885291710194,0.0,225,4,72.15591179868052,493.45521,mp-865252,TmSnRh2,https://materialsproject.org/materials/mp-865252,31.951100848346037,56.442181054902804,-8.604250342815693,-0.5045126942092143
-4.7810985472058825,-325.11470121,6.5661143418007075,-0.17926521286764796,0.00102785,6.190595758883468e-06,0.0,186,68,1934.9721647203696,7651.279599999999,mp-1211441,Nd23Mg4Ni7,https://materialsproject.org/materials/mp-1211441,-30.312561347211307,68.86268681060079,-8.604250342815693,-0.5045126942092143
-7.380916686799999,-369.04583434,6.472611018688776,-2.231166181513793,0.6464795999999999,0.009944892793089077,0.22059999999999969,71,50,757.5863600836502,2952.994,mp-38637,Rb(WO3)6,https://materialsproject.org/materials/mp-38637,-17.400293053338338,0.3446953480417468,-8.604250342815693,-0.5045126942092143
-9.202190235,-36.80876094,14.19556027842447,-0.3124488362499989,3.5000000000000004e-06,5.477375515917767e-07,0.0,225,4,74.4685599616488,636.6143199999998,mp-977437,HoZrOs2,https://materialsproject.org/materials/mp-977437,40.008541013987625,59.36712449387552,-8.604250342815693,-0.5045126942092143
-7.463983473333332,-89.56780168,7.8771573259506065,-0.7038959716666671,0.035719975,0.0022158445649739103,0.0,62,12,187.86647263280145,891.1887800000001,mp-1103148,ZrCoGe,https://materialsproject.org/materials/mp-1103148,45.14940298814973,58.25682013407461,-8.604250342815693,-0.5045126942092143
-6.83862636,-27.35450544,10.89650007916549,-0.8637757812500002,0.00048760000000000003,7.04006088517343e-05,0.0,225,4,80.71694372796775,529.6666700000002,mp-1187348,TbHoRh2,https://materialsproject.org/materials/mp-1187348,17.42011645120702,51.19369978962227,-8.604250342815693,-0.5045126942092143
-10.035068915714287,-280.98192964,12.835423158679495,-0.3330281283928563,0.005351600000000001,0.00016718373758260432,0.0,44,28,373.0499983948194,2883.55436,mp-1218085,Ta6Cr3Ni3C2,https://materialsproject.org/materials/mp-1218085,21.757055530688056,42.300348386070205,-8.604250342815693,-0.5045126942092143
-7.065557885,-28.26223154,10.801560849741357,-0.5985862800000001,3.4e-06,4.939328265458486e-07,0.0,225,4,80.22107075530631,521.8262,mp-1187274,Tb2RuRh,https://materialsproject.org/materials/mp-1187274,18.70099477473917,52.692651144978505,-8.604250342815693,-0.5045126942092143
-6.608034927619048,-277.53746696,2.621091760877444,-0.09385537375000094,4.3700000000000005e-05,1.0484594578230295e-06,1.7243999999999993,185,42,485.743751711972,766.7262948,mp-1228599,Al3BC3,https://materialsproject.org/materials/mp-1228599,-21.25482711507887,25.319886493468857,-6.358643728036357,-3.271187425010113
-6.6334200425,-26.53368017,11.064909599923858,-0.8130862749999999,0.0020669,0.00032793379001307366,0.0,225,4,73.45320065200762,489.45132,mp-864642,HoSnRh2,https://materialsproject.org/materials/mp-864642,31.777274196330772,56.46966054518207,-8.604250342815693,-0.5045126942092143
-8.248487148333334,-49.49092289,9.133731983266527,-0.1374445316666666,0.42072109999999996,0.06397737180115452,0.0,227,6,76.63820523640334,421.54554,mp-670,NbCo2,https://materialsproject.org/materials/mp-670,60.35364036880343,65.16745751067295,-8.604250342815693,-0.5045126942092143
-5.7488150725,-22.99526029,1.0964529307416382,2.8425318975,0.0704111,0.001044344639631963,0.0,71,4,785.7324957366147,518.818695,mp-1093737,Hf2CoRh,https://materialsproject.org/materials/mp-1093737,-62.941249952208615,35.082078481892516,-8.604250342815693,-0.5045126942092143
-11.657946713333333,-34.97384014,16.508112408373794,0.0569618937499996,1.06e-05,3.234459070954312e-06,0.0,164,3,38.192811805370866,379.6907,mp-1008625,W2C,https://materialsproject.org/materials/mp-1008625,57.0358016830965,47.59159710871666,-8.604250342815693,-0.5045126942092143
-5.70597092,-22.82388368,12.277849870421958,-0.34450234750000064,4.8700000000000005e-05,7.0705543353969135e-06,0.0,225,4,80.26993747609706,593.50742,mp-865236,Tm2ZnOs,https://materialsproject.org/materials/mp-865236,17.803993440555924,56.59738171910786,-8.604250342815693,-0.5045126942092143
-8.12114081,-32.48456324,12.323373645398126,-0.5041880775000003,2.5e-06,3.5495821820354084e-07,0.0,225,4,82.08053916557718,609.1450600000002,mp-865410,LuThRu2,https://materialsproject.org/materials/mp-865410,20.43875626535868,54.2859668740281,-8.604250342815693,-0.5045126942092143
-9.200383245,-36.80153298,13.267083532489956,-0.06632855374999913,0.9032754999999999,0.1381050805357524,0.0,225,4,76.2233448880331,608.99591,mp-865488,LuUTc2,https://materialsproject.org/materials/mp-865488,20.731282250425615,56.57705491750907,-8.604250342815693,-0.5045126942092143
-5.69504872375,-45.56038979,9.03419949576486,-0.5663323006250005,9.699999999999999e-06,7.043283592734894e-07,0.0,25,8,160.49961187198778,873.2017,mp-1225662,Er4SiNi3,https://materialsproject.org/materials/mp-1225662,2.1870753589042726,59.075204165635405,-8.604250342815693,-0.5045126942092143
-10.11906238,-40.47624952,14.981308453310561,-0.5602771587500008,1.0093574,0.17508454845371196,0.0,225,4,67.1853491478851,606.143195,mp-1184586,Hf2CoOs,https://materialsproject.org/materials/mp-1184586,31.27450419022697,57.99543259771371,-8.604250342815693,-0.5045126942092143
-7.1710642423529425,-121.90809212,8.176453163254276,-0.6006803923529418,0.7722055,0.036523240836182386,0.0,229,17,246.4001744831881,1213.2683650000001,mp-18135,Zr4Co7Ge6,https://materialsproject.org/materials/mp-18135,45.49053755531475,57.93013226248856,-8.604250342815693,-0.5045126942092143
-8.508727993214285,-476.48876762,5.867751793159031,-0.19070483959142692,8.8813934,0.1689375046588036,0.0,60,56,612.6782455040269,2164.98606,mp-1247750,Mn7GeN6,https://materialsproject.org/materials/mp-1247750,4.52676265687299,16.36182895019321,-8.604250342815693,-0.5045126942092143
-5.6149288625,-22.45971545,1.0846771028301936,3.1376315337500005,0.2034124,0.0033978220883412818,0.0,71,4,697.6766951029712,455.72788,mp-1093738,TaGeRu2,https://materialsproject.org/materials/mp-1093738,-61.0327266234039,40.69569806823849,-8.604250342815693,-0.5045126942092143