energy_per_atom,energy,density,formation_energy_per_atom,total_magnetization_uB,total_magnetization_T,band_gap,sgr,num_sites,cell_volume,weight,mp_id,formula,URL,tsne_cry_lin1_0,tsne_cry_lin1_1,tsne_cry_lin2_0,tsne_cry_lin2_1
-8.027064835,-48.16238901,6.150368651014728,-0.27633190333333363,2.7553077,0.3796212629903653,0.0,227,6,84.58571090352079,313.291824,mp-540,ScFe2,https://materialsproject.org/materials/mp-540,53.704093654759404,63.44745600195423,-8.604250342815693,-0.5045126942092143
-6.91173907,-55.29391256,8.156922404950437,-0.07197408000000037,12.645420199999998,1.3885465451027597,0.0,166,8,106.1329536318342,521.3477350000002,mp-1221776,Mn3Ni4Sb,https://materialsproject.org/materials/mp-1221776,34.704098187422794,72.77364572046349,-8.604250342815693,-0.5045126942092143
-5.536531289166668,-66.43837547,8.836949486103109,-0.41462035249999946,2.5e-08,1.1389803605795698e-09,0.0,64,12,255.80038901262364,1361.3020000000001,mp-1103044,Sn2Rh,https://materialsproject.org/materials/mp-1103044,42.55996173477536,41.60128327480611,-8.604250342815693,-0.5045126942092143
-1.50163455,-3.0032691000000002,4.163096723054322,-0.0630536574999998,6.7e-06,2.1820234835479166e-06,0.0,123,2,35.78432338830292,89.714,mp-1094862,MgZn,https://materialsproject.org/materials/mp-1094862,2.0646710074532497,98.582933667742,-8.604250342815693,-0.5045126942092143
-4.62548635,-13.87645905,10.277935937084356,-0.5860976166666662,0.0,0.0,0.0,225,3,54.04782910222965,334.53,mp-22095,Ga2Pt,https://materialsproject.org/materials/mp-22095,42.091661225163534,51.485630800894796,-8.604250342815693,-0.5045126942092143
-7.3344178173611105,-528.07808285,4.727277578605434,-0.7713028669907405,0.00513385,5.873277831154056e-05,0.0,62,72,1018.6853432208464,2900.0272,mp-1199666,Ti4Si4Ni,https://materialsproject.org/materials/mp-1199666,42.16252619390886,63.91054458951204,-8.604250342815693,-0.5045126942092143
-6.484086363333333,-38.90451818,6.557060237478929,-0.5210696916666665,0.0,0.0,0.0,227,6,82.2247779865215,324.685424,mp-850,ScNi2,https://materialsproject.org/materials/mp-850,31.1391262056903,74.90132268305662,-8.604250342815693,-0.5045126942092143
-5.24118329375,-41.92946635,8.388734136834012,-0.23969164562500025,5.2e-06,5.8601825226623e-07,0.0,146,8,103.41168825877988,522.4166,mp-1224859,GaNi4Ge3,https://materialsproject.org/materials/mp-1224859,35.37731275230693,72.79128891142713,-8.604250342815693,-0.5045126942092143
-8.60872872,-34.43491488,10.595543673503126,-0.20188096000000044,0.9366943000000001,0.2159753583556665,0.0,225,4,50.54417377704076,322.51153860000005,mp-862288,AlFe2W,https://materialsproject.org/materials/mp-862288,51.2479699894009,64.4395711968999,-8.604250342815693,-0.5045126942092143
-7.129569363749999,-285.18277455,7.0373676574853326,-0.049617193999999636,26.55085375,0.3947077081038295,0.0,140,40,783.9354616501786,3322.32,mp-1202920,Nd6GaFe13,https://materialsproject.org/materials/mp-1202920,53.731301055040596,81.38692807999216,-8.604250342815693,-0.5045126942092143
-6.836286606250002,-273.45146425,8.924355239107449,-0.3562312352500001,0.0,0.0,0.3814000000000002,60,40,625.2785869264984,3360.48,mp-21945,Ge3Ru2,https://materialsproject.org/materials/mp-21945,32.35744261218294,53.09024660919098,-8.604250342815693,-0.5045126942092143
-5.783350434642857,-161.93381217,8.537902182539518,-0.4062808207142865,0.00061715,1.92664199060434e-05,0.0,140,28,373.3078646401331,1919.4165,mp-1186507,PrNi9Ge4,https://materialsproject.org/materials/mp-1186507,26.91050478505048,77.95878884676259,-8.604250342815693,-0.5045126942092143
-9.202582452,-46.01291226,7.10154933289401,-0.02425259800000106,1.5393038,0.2931355855671733,0.0,42,5,61.197435838906145,261.7202,mp-1216576,V2Cr2Fe,https://materialsproject.org/materials/mp-1216576,56.34582776873101,56.42389150316746,-8.604250342815693,-0.5045126942092143
-10.80626102375,-259.35026457,15.419401706418789,-0.43121217541666573,3.71375e-05,9.180461473116716e-07,0.0,227,24,471.43907935164106,4377.68,mp-1191415,Hf2Os,https://materialsproject.org/materials/mp-1191415,29.87058534858164,61.036822876542466,-8.604250342815693,-0.5045126942092143
-6.677437888988094,-1121.80956535,6.329862414482918,-0.7015123305555557,0.00047430000000000004,2.743090630384092e-06,0.0,191,168,2015.071197575083,7681.315,mp-867049,Ti13Si31Ni40,https://materialsproject.org/materials/mp-867049,37.16981630043757,69.51228167280426,-8.604250342815693,-0.5045126942092143
-5.800110831875,-92.80177331,10.235627122771817,-0.9135005068750006,5.825e-06,2.3106322180685525e-07,0.0,62,16,293.7937364904612,1810.956,mp-20819,ErGePd2,https://materialsproject.org/materials/mp-20819,27.7296528535942,53.626843860304845,-8.604250342815693,-0.5045126942092143
-6.148670984375,-98.37873575,9.475383918400977,-0.6208665887500002,0.0068582999999999995,0.0002726409291289472,0.0,63,16,293.1587443052035,1672.82526,mp-1208100,Tm3Fe2Ge3,https://materialsproject.org/materials/mp-1208100,17.719619374099604,74.49960067894175,-8.604250342815693,-0.5045126942092143
-7.005607725454545,-77.06168498,9.585004502011957,-0.892003837142857,1.8000000000000001e-06,1.3242565259614105e-07,0.0,174,11,158.4082553444689,914.368048,mp-1103449,Yb(P2Rh3)2,https://materialsproject.org/materials/mp-1103449,33.402182582349496,51.748876958395655,-8.604250342815693,-0.5045126942092143
-7.982392634166667,-95.78871161,5.5333757241464685,-0.3877027916666656,4.47e-05,3.069015081711929e-06,0.0,194,12,169.74067623116218,565.622918,mp-1209009,Sc2Mn3Si,https://materialsproject.org/materials/mp-1209009,42.16205918989242,71.88215536038531,-8.604250342815693,-0.5045126942092143
-5.2467568075,-62.96108169,6.722251884396428,-0.0978272750000002,0.029460400000000005,0.002083518338668292,0.0,74,12,164.78540335045176,667.0899999999998,mp-1101884,CaNi5,https://materialsproject.org/materials/mp-1101884,31.40160785611544,79.2505034042898,-8.604250342815693,-0.5045126942092143
-4.435239267777779,-39.91715341,9.320505578887985,-0.7497683761111109,4.4666666666666665e-06,2.9131043879341733e-07,0.0,189,9,178.69192352451634,1002.987,mp-1078837,DyZnPd,https://materialsproject.org/materials/mp-1078837,17.83964018675295,59.685201167616704,-8.604250342815693,-0.5045126942092143
-7.561482859375,-241.9674515,5.971298075258612,-0.8828376091666668,0.005939975,0.00013409430460110502,0.0,62,32,516.2400715176594,1856.3992,mp-1201836,Ti5As3,https://materialsproject.org/materials/mp-1201836,42.5673037016491,64.44643409896506,-8.604250342815693,-0.5045126942092143
-4.9371403725,-59.24568447,6.399633999234348,-0.16920095291666706,2.4984487,0.18189426514499588,0.0,166,12,160.07697085725633,616.9286,mp-12695,CaMg2Ni9,https://materialsproject.org/materials/mp-12695,31.770140071453238,73.18133578409468,-8.604250342815693,-0.5045126942092143
-5.66406032,-33.98436192,9.904307679990039,-0.9043715116666664,2e-07,1.997470813641741e-08,0.0,12,6,116.68821084111141,695.98842,mp-1216607,TmGePd,https://materialsproject.org/materials/mp-1216607,17.115302150506302,62.177210149688904,-8.604250342815693,-0.5045126942092143
-7.591115002727273,-167.00453006,5.240698092687803,-0.3585843143939397,6.1029801,0.2461766248055789,0.0,72,22,288.91664855351036,911.82736,mp-17553,Ti2Mn4Si5,https://materialsproject.org/materials/mp-17553,50.94922282560854,46.54741569566186,-8.604250342815693,-0.5045126942092143
-8.526931373793103,-247.28100984,9.238333867734363,-0.24022791586206976,36.0731848,1.3648332120848512,0.0,225,29,308.02242243910143,1713.66882,mp-1208129,U2(Fe7B2)3,https://materialsproject.org/materials/mp-1208129,41.6539745943839,88.19839077623313,-8.604250342815693,-0.5045126942092143
-4.8085296375,-19.23411855,6.878837594251429,-0.15092617125000007,4.2999999999999995e-06,8.811458194877304e-07,0.0,225,4,56.871947200680644,235.59391200000002,mp-973100,ScCu3,https://materialsproject.org/materials/mp-973100,32.99235231337133,67.6052301456373,-8.604250342815693,-0.5045126942092143
-8.7469681075,-34.98787243,9.103928910688603,-0.4678169412500015,3.0245485,0.6776785552637618,0.0,225,4,52.01327953048352,285.163545,mp-864966,MnSiRu2,https://materialsproject.org/materials/mp-864966,43.73701021994323,53.575852183697386,-8.604250342815693,-0.5045126942092143
-9.224424496666666,-110.69309396,9.628306385480867,-1.0766819973809518,1.75e-07,1.1352892884903247e-08,0.0,62,12,179.64243615034576,1041.621048,mp-1095442,HfVP,https://materialsproject.org/materials/mp-1095442,52.88415121313022,52.444189785859955,-8.604250342815693,-0.5045126942092143
-6.18693117625,-148.48634823,7.8732446779043945,-0.469198157708334,1.1e-06,4.285105961012274e-08,0.0,119,24,299.1634598176263,1418.4473,mp-1227485,Ce2Si5Ni17,https://materialsproject.org/materials/mp-1227485,26.576239629676003,77.93887712937307,-8.604250342815693,-0.5045126942092143
-4.621964916666667,-27.7317895,8.146512571476416,-0.3195071966666673,0.0016265000000000001,0.0002080332804209129,0.0,191,6,91.11684589223455,447.0142,mp-1226538,CeZn2Ni3,https://materialsproject.org/materials/mp-1226538,28.588135639473855,78.18574784935079,-8.604250342815693,-0.5045126942092143
-5.670463996666666,-34.02278398,8.167259059927959,-0.3079637008333336,0.43281629999999993,0.05426833273044377,0.0,191,6,92.94682443763331,457.15323499999994,mp-1219978,PrGa2Co3,https://materialsproject.org/materials/mp-1219978,24.41424099825082,72.88497380832241,-8.604250342815693,-0.5045126942092143
-6.891555345,-27.56622138,6.639928015890495,-0.4299012091666672,0.0,0.0,0.0,225,4,43.70105273411089,174.74557199999995,mp-866152,TiBeCo2,https://materialsproject.org/materials/mp-866152,40.51785619705733,71.82611189415172,-8.604250342815693,-0.5045126942092143
-5.820541287999999,-29.10270644,8.243929490896129,-0.37593703999999933,1e-07,1.2504444215063483e-08,0.0,71,5,93.19938233256796,462.6986286,mp-13432,Tb2AlCo2,https://materialsproject.org/materials/mp-13432,23.691919806727448,71.92671301844477,-8.604250342815693,-0.5045126942092143
-5.5064215414545465,-302.85318478,7.9695918291024315,-0.11856305190909056,0.09012739999999998,0.0013632111167850769,0.0,89,55,770.4973532342418,3697.92535,mp-1220212,Pr3(Ni9Ge4)4,https://materialsproject.org/materials/mp-1220212,27.224671265595106,77.97341702767757,-8.604250342815693,-0.5045126942092143
-6.884877225,-27.539508899999998,8.964309765349231,0.2455997099999996,6.4985987000000005,1.3853011548535874,0.0,225,4,54.67048801289468,295.135,mp-1184307,Fe3Te,https://materialsproject.org/materials/mp-1184307,34.64402497436068,55.5548370200504,-8.604250342815693,-0.5045126942092143
-8.450820015,-169.01640030000002,9.160301523862751,-0.44051281866666586,0.16945965,0.007984517838785055,0.0,10,20,247.34038764898048,1364.444,mp-1217246,Ti2FeB2Ru3Rh2,https://materialsproject.org/materials/mp-1217246,40.517083419164244,56.591250946393224,-8.604250342815693,-0.5045126942092143
-1.47058309,-17.64699708,4.033406817756814,-0.032002197499999774,2.9666666666666665e-06,1.5601187127974728e-07,0.0,5,12,221.60958142686727,538.2840000000001,mp-1094445,MgZn,https://materialsproject.org/materials/mp-1094445,1.9696427229599818,98.70680557434014,-8.604250342815693,-0.5045126942092143
-5.80246779125,-92.83948466,10.113933332330733,-0.9131948187499992,3.75e-06,1.477445152032746e-07,0.0,62,16,295.7994267128653,1801.64128,mp-1189077,HoGePd2,https://materialsproject.org/materials/mp-1189077,27.71166610348193,53.593113833174144,-8.604250342815693,-0.5045126942092143
-6.007396494545453,-132.16272288,7.127419969532673,-0.5407575281818179,1.465e-05,4.831851107646383e-07,0.0,229,22,353.3470819243928,1516.6479,mp-1191954,Y3(GaNi3)2,https://materialsproject.org/materials/mp-1191954,25.37657397536541,79.40917986924389,-8.604250342815693,-0.5045126942092143
-6.667960747777778,-60.01164673,12.545684313523552,-0.8544155711111109,1.3433333333333332e-05,8.244956562307694e-07,0.0,189,9,189.87721232364385,1434.558,mp-1078876,ErSnIr,https://materialsproject.org/materials/mp-1078876,10.301035350763604,56.30660376830561,-8.604250342815693,-0.5045126942092143
-5.718096388333334,-68.61715666,9.542763100114223,-0.4891620616666668,0.21551685,0.010462314255713529,0.0,62,12,240.0661333706744,1379.60878,mp-11851,ErCoSn,https://materialsproject.org/materials/mp-11851,25.369999397167174,72.79887369729214,-8.604250342815693,-0.5045126942092143
-7.454947055,-119.27915288,6.367021188628764,-0.42992704541666704,4.55e-05,1.8871180022538712e-06,0.0,140,16,280.98928976256514,1077.4,mp-30326,Ti5FeSb2,https://materialsproject.org/materials/mp-30326,36.75093705729521,62.00725039227705,-8.604250342815693,-0.5045126942092143
-4.98435511,-29.90613066,6.833753112102483,-0.7231865000000001,1.75e-06,1.935827353709833e-07,0.0,63,6,105.35347231712109,433.569824,mp-1071720,ScZnPd,https://materialsproject.org/materials/mp-1071720,18.03439026822685,59.646682192617604,-8.604250342815693,-0.5045126942092143
-7.396770494,-36.98385247,8.535898415663237,-0.818480876000001,1e-06,1.6417937160628848e-07,0.0,164,5,70.98373357468324,364.8875,mp-1207013,Si2Rh3,https://materialsproject.org/materials/mp-1207013,34.33464610811643,53.26949909873282,-8.604250342815693,-0.5045126942092143
-6.96348079,-27.85392316,9.926418392721104,-0.3122349308333332,4.2719345,0.7924247320024134,0.0,123,4,62.82666271827162,375.567045,mp-1221572,MnInRh2,https://materialsproject.org/materials/mp-1221572,34.510018718352235,55.42842034545146,-8.604250342815693,-0.5045126942092143
-9.5893816725,-38.35752669,10.735711512202265,-0.8352420583333338,7.400000000000001e-06,1.4446369505922873e-06,0.0,225,4,59.69671430706804,385.95099999999996,mp-865840,Ti2TcIr,https://materialsproject.org/materials/mp-865840,63.1359842028716,56.08389934330772,-8.604250342815693,-0.5045126942092143
-5.798494186666668,-52.18644768,7.920459047133822,-0.19269998666666607,3.0909006666666667,0.2019561539920407,0.0,189,9,178.36325292816238,850.759185,mp-1207233,TbMnGa,https://materialsproject.org/materials/mp-1207233,24.363539775643073,70.18393164267546,-8.604250342815693,-0.5045126942092143
-6.466093455999999,-193.98280368,7.841000629132777,-0.31144699266666576,7.519707,0.17056961691996875,0.0,186,30,513.7793824663917,2426.04622,mp-22379,Y3(Co2Sn)4,https://materialsproject.org/materials/mp-22379,25.84057701751946,72.79752925283822,-8.604250342815693,-0.5045126942092143
-8.463037725,-33.8521509,9.276401862226844,-0.7000597754166664,1.85e-05,3.732948414725441e-06,0.0,225,4,57.75600794317746,322.647,mp-865640,TiGeRu2,https://materialsproject.org/materials/mp-865640,43.749228894146434,54.64798283778208,-8.604250342815693,-0.5045126942092143
-7.443849735,-29.77539894,13.474443282894715,-0.6684545193749996,0.288327,0.03961040337844965,0.0,225,4,84.83078300348619,688.35935,mp-1187370,TbPmIr2,https://materialsproject.org/materials/mp-1187370,15.702551834217555,49.419901564272976,-8.604250342815693,-0.5045126942092143
-6.0237317415384615,-156.61702528,4.621685754563014,-0.19441853076922985,1.13328615,0.03746809955186913,0.0,160,26,352.4969335490606,981.0850676000001,mp-1194040,Mn5Al8,https://materialsproject.org/materials/mp-1194040,12.98612267187448,89.11152297537443,-8.604250342815693,-0.5045126942092143
-4.629348288333333,-55.55217946,3.0707800616883065,0.12138286833333348,0.00317555,0.00015804327241906527,0.0,8,12,234.16413000087638,433.032,mp-1094348,MgTi,https://materialsproject.org/materials/mp-1094348,33.264682880127275,61.040451787743166,-8.604250342815693,-0.5045126942092143
-6.63893768875,-53.11150151,8.37604679529721,-0.09764915124999972,1.06924,0.1223010566037514,0.09020000000000028,198,8,101.88785414818324,513.94,mp-21255,FeGe,https://materialsproject.org/materials/mp-21255,49.122053273915824,66.40450179821201,-8.604250342815693,-0.5045126942092143
-6.10288434875,-146.46922437,8.826879245920066,-0.4400596929861121,1.29e-05,4.5223196365362244e-07,0.0,194,24,332.4343426577602,1767.1116,mp-973241,Sm3Ni7B2,https://materialsproject.org/materials/mp-973241,30.32668354006535,85.07688193477524,-8.604250342815693,-0.5045126942092143
-6.8514379492592585,-739.95529852,9.898064054243653,-0.7048515800925931,0.00010689166666666666,7.009308670750196e-07,0.0,176,108,1777.2400467660752,10593.69,mp-1211968,SmGe3Rh5,https://materialsproject.org/materials/mp-1211968,34.19895131438874,53.29746944375026,-8.604250342815693,-0.5045126942092143
-6.6031683150000005,-132.06336629999998,9.461267471036603,-0.6163538225000009,0.0,0.0,0.07769999999999921,72,20,352.52010970931883,2008.55684,mp-1106240,Tm2Ge5Ru3,https://materialsproject.org/materials/mp-1106240,15.352530732159991,63.533755940481946,-8.604250342815693,-0.5045126942092143
-9.280888305,-37.12355322,11.45137595279756,-0.8029925012499994,0.0,0.0,0.17079999999999984,225,4,59.26694283732053,408.7155,mp-866062,HfSiRu2,https://materialsproject.org/materials/mp-866062,41.889890657739016,57.010472571583605,-8.604250342815693,-0.5045126942092143
-9.566928661875,-306.14171718,7.717940671168094,-0.6296256974107148,1.25e-07,2.732867318943021e-09,0.0,86,32,533.0511607615789,2477.543216,mp-505528,Nb3P,https://materialsproject.org/materials/mp-505528,46.3301859842875,61.29599967386611,-8.604250342815693,-0.5045126942092143
-3.289239645,-13.15695858,5.574738638279807,-0.33213097875,1.13e-05,2.038086848226005e-06,0.0,225,4,64.61497558092343,216.9245,mp-978267,Mg2ZnRh,https://materialsproject.org/materials/mp-978267,38.070636716997925,54.95829263510105,-8.604250342815693,-0.5045126942092143
-7.368897144761903,-154.74684004,9.601049270017466,-0.9323905797619052,3.4e-05,1.2826134394487415e-06,0.0,147,21,308.93033713831187,1786.2003339999999,mp-1225638,Er2P7Rh12,https://materialsproject.org/materials/mp-1225638,33.408728990749964,51.67025124116385,-8.604250342815693,-0.5045126942092143
-1.506655285,-3.01331057,4.153716239515125,-0.0680743924999998,6e-06,1.9496479222846403e-06,0.0,221,2,35.86513638494238,89.714,mp-1094779,MgZn,https://materialsproject.org/materials/mp-1094779,1.6234160728375626,98.09184102765043,-8.604250342815693,-0.5045126942092143
-6.98714997,-27.94859988,9.96782436763517,-0.3359041108333329,4.3611011,0.8123391642018547,0.0,225,4,62.56568307773003,375.567045,mp-864968,MnInRh2,https://materialsproject.org/materials/mp-864968,34.57113024040873,55.423016660481174,-8.604250342815693,-0.5045126942092143
-6.497010283333334,-19.49103085,10.640265303355532,-0.08851841500000053,3.4300327000000004,0.6946534102934245,0.0,216,3,57.54498958108146,368.732045,mp-583030,MnSnPt,https://materialsproject.org/materials/mp-583030,47.67117659693785,43.35430025862614,-8.604250342815693,-0.5045126942092143
-2.8669928725,-11.46797149,7.07482253603988,-0.4590508099999999,2e-07,4.066919465372352e-08,0.0,225,4,57.31150996122658,244.17900000000003,mp-867250,LiZn2Pd,https://materialsproject.org/materials/mp-867250,1.0573003260452831,90.24513211539049,-8.604250342815693,-0.5045126942092143
-8.37071415,-33.4828566,8.321026006544614,-0.7486815133333327,5e-08,9.68329335563758e-09,0.0,123,4,60.17614227175476,301.545,mp-2583,TiRh,https://materialsproject.org/materials/mp-2583,62.301572227976344,55.31307010518557,-8.604250342815693,-0.5045126942092143
-8.2359161775,-32.94366471,9.162446761208649,-0.1841002162500001,1.9994356,0.4533799361127393,0.0,216,4,51.39519889377613,283.58609,mp-1221898,Mn2GeRu,https://materialsproject.org/materials/mp-1221898,51.11470555313604,46.739525638091116,-8.604250342815693,-0.5045126942092143
-6.690722631750001,-267.62890527,7.243267589243456,-0.1536866840000016,21.99708515,0.331047229002594,0.0,108,40,774.3772872468362,3377.832000000001,mp-1221312,Nd6Ga3Fe11,https://materialsproject.org/materials/mp-1221312,53.664197667762565,81.5848514959412,-8.604250342815693,-0.5045126942092143
-4.6832078875,-37.4656631,3.0666897343297763,0.06752326916666629,1.375e-05,1.0251139483093391e-06,0.0,59,8,156.31763755334308,288.688,mp-1094383,MgTi,https://materialsproject.org/materials/mp-1094383,33.26256535849947,60.9748383917969,-8.604250342815693,-0.5045126942092143