energy_per_atom,energy,density,formation_energy_per_atom,total_magnetization_uB,total_magnetization_T,band_gap,sgr,num_sites,cell_volume,weight,mp_id,formula,URL,tsne_cry_lin1_0,tsne_cry_lin1_1,tsne_cry_lin2_0,tsne_cry_lin2_1
-6.0266381935,-120.53276387,4.544787445251541,-2.04313125175,2.910064875,0.15784815241531866,0.0,62,20,214.85259109253647,588.0375799999998,mvc-3994,CaCoO3,https://materialsproject.org/materials/mvc-3994,-35.57028715990237,-17.046038084046465,-8.604250342815693,-0.5045126942092143
-3.159657446666667,-9.47897234,7.471290537360621,-0.024624393333333217,4.429999999999999e-05,7.872824994143347e-06,0.0,216,3,65.57685072492471,295.051,mp-1207094,MgCuPb,https://materialsproject.org/materials/mp-1207094,2.88436457839442,39.69207252719297,-8.604250342815693,-0.5045126942092143
-4.378498818333333,-52.54198582,3.236947660873775,-1.2331515572500005,0.0,0.0,1.247,139,12,243.45465709120154,474.5748,mp-7911,KCuO,https://materialsproject.org/materials/mp-7911,13.243301873777186,-16.311270686264013,6.704567961106348,-4.778929618659856
-4.4166284777777784,-39.7496563,9.095484033553166,-0.4103514866666661,2.6666666666666667e-07,1.6315974268006198e-08,0.0,189,9,190.47287982734014,1043.3015999999998,mp-9343,ErAgGe,https://materialsproject.org/materials/mp-9343,-2.924682076856488,55.929926034706405,-8.604250342815693,-0.5045126942092143
-9.887177385,-39.54870954,7.839098178514089,-0.30902433687499986,7.0638447,1.6195264408541026,0.0,38,4,50.831219299937715,239.9648,mp-1065668,GdNiC2,https://materialsproject.org/materials/mp-1065668,-21.81534734173094,11.57732723511391,-8.604250342815693,-0.5045126942092143
-4.09525796,-16.38103184,11.195216671050604,-0.4692814824999996,5.3e-06,8.124864890950971e-07,0.0,225,4,76.0216251267865,512.5314999999998,mp-865854,Yb2CuRh,https://materialsproject.org/materials/mp-865854,14.110168703273274,47.91926376427253,-8.604250342815693,-0.5045126942092143
-4.644044060714286,-390.09970110000006,3.1675927074288928,-1.5111234192499998,2.00000015,0.021063904588354145,0.3249,64,84,1106.5437177357776,2110.80843408,mp-849289,Na3CoO3,https://materialsproject.org/materials/mp-849289,-36.580380476948,-30.050814476305383,2.5612381681144303,-0.5051681494568057
-7.3487377525,-293.9495101,5.538640335075001,-2.720923748918,24.999997699999998,0.6297310540818793,0.09260000000000003,1,40,462.66035416408266,1543.1791950000004,mp-697834,Ca4La4Mn7NiO24,https://materialsproject.org/materials/mp-697834,-31.138601748939532,9.133297270061188,-8.604250342815693,-0.5045126942092143
-5.7818309,-34.6909854,10.07040623316225,-0.10273043000000116,1.2076387,0.1480129574558623,0.0,74,6,95.08559165062721,576.65042,mp-1216605,TmFeCu,https://materialsproject.org/materials/mp-1216605,39.46832514303174,74.34336773132397,-8.604250342815693,-0.5045126942092143
-6.16915277125,-49.35322217,3.8750149716556948,0.1547764837499992,0.01127455,0.000913071374451024,0.0,139,8,143.90368558039899,335.81199999999995,mp-1094376,MgTi3,https://materialsproject.org/materials/mp-1094376,33.61536952725207,61.50294294688901,-8.604250342815693,-0.5045126942092143
-7.458468443571428,-104.41855821,8.728195499909381,-3.15278624,2.925e-05,1.938870484747937e-06,0.0,64,14,175.81442250986007,924.1232,mp-753901,Er2CuO4,https://materialsproject.org/materials/mp-753901,-45.715740229988135,-7.157740275468619,-8.604250342815693,-0.5045126942092143
-5.330505236666666,-15.99151571,7.531169407670236,-0.6296148299999995,8.7e-06,1.792330019287254e-06,0.0,187,3,56.5690260332685,256.56182,mp-1223814,HoCuSi,https://materialsproject.org/materials/mp-1223814,-4.529940587060686,57.20057475935111,-8.604250342815693,-0.5045126942092143
-5.140836138333333,-30.84501683,8.496646615168,-0.6910017499999993,0.0,0.0,0.0,186,6,115.34995864069236,590.2227,mp-9387,TbCuGe,https://materialsproject.org/materials/mp-9387,-4.648768130419351,56.529045775881684,-8.604250342815693,-0.5045126942092143
-5.871420420714286,-82.19988589,3.5333379962764977,-2.3999230766163806,1.0,0.04323311144784429,0.7275,2,14,269.56340596995807,573.5840000000001,mp-557618,Rb4CuSi2O7,https://materialsproject.org/materials/mp-557618,-52.42234536144321,-15.783270025214614,2.0168168970270828,-1.7949087113815785
-5.10966687875,-81.75467006,3.615176657293505,-0.9666126648437504,2.4914256,0.13310121890184815,0.0,59,16,218.14402270669385,474.9236,mvc-5452,CaNi2O5,https://materialsproject.org/materials/mvc-5452,-62.82036629921213,-24.013921488061577,-8.604250342815693,-0.5045126942092143
-6.967573771111112,-250.83265576,3.7975554866006016,-2.504671977798889,14.9999999,0.3721563605841682,0.0,1,36,469.7245269396734,1074.23247,mp-1247727,Ca4Mn3CrO10,https://materialsproject.org/materials/mp-1247727,-30.452605198061022,-10.45712898122764,-8.604250342815693,-0.5045126942092143
-6.08647495,-109.5565491,5.93860670079969,-0.3305129043911113,7.59e-05,2.699729891922792e-06,0.0,15,18,327.64148698123813,1171.74838,mp-1247283,Ba3(CoN2)2,https://materialsproject.org/materials/mp-1247283,3.671099531689884,7.9077705171967905,-8.604250342815693,-0.5045126942092143
-6.16247202,-24.64988808,3.8755002778770287,0.16145723499999942,0.0007028,0.0001138470145922886,0.0,221,4,71.94283268197121,167.90599999999998,mp-1185971,MgTi3,https://materialsproject.org/materials/mp-1185971,33.616699223552516,61.50899282487464,-8.604250342815693,-0.5045126942092143
-5.9632158825,-23.85286353,4.957032449266832,-0.05280334333333414,3.7336482,0.6973652576800761,0.0,216,4,62.395104260718114,186.2615386,mp-999079,Ti2AlCu,https://materialsproject.org/materials/mp-999079,6.04383741993689,47.075574654525106,-8.604250342815693,-0.5045126942092143
-4.425367628888889,-39.82830866,8.958478104560953,-0.41554044111111055,3e-07,1.820085581727676e-08,0.0,189,9,192.09093610033432,1036.31556,mp-7093,HoAgGe,https://materialsproject.org/materials/mp-7093,-2.9329514606549036,55.92944253372025,-8.604250342815693,-0.5045126942092143
-6.525066374285713,-91.35092924,4.962921270441412,-0.915366173877142,4e-07,1.3767262870926439e-08,0.0,176,14,338.60222999505953,1011.9944,mp-12905,Ba3CrN3,https://materialsproject.org/materials/mp-12905,3.8098090903163424,8.723748952749931,-5.403688097806975,-3.139960449235484
-7.069775359186047,-608.00068089,3.515333679703608,-2.7623801221511632,1.00007005,0.01114700981277238,0.0,15,86,1045.5612164656663,2213.4358,mp-722867,Ca3Cu5Si9O26,https://materialsproject.org/materials/mp-722867,-56.27448622020732,-15.151556475896644,1.6635229871224435,-1.0451786771008524
-6.026373292000001,-241.05493168,2.6637206247645717,-0.622467630952,1.1545241625,0.01614532737992103,0.0,140,40,833.3618176112847,1336.82076,mvc-11252,Ca2CoN2,https://materialsproject.org/materials/mvc-11252,6.711558370237013,8.104016446005325,-8.604250342815693,-0.5045126942092143
-7.0429820833333325,-42.2578925,9.153781286673008,-0.4942353988888885,0.0,0.0,0.0,191,6,65.47287547100724,360.921585,mp-20193,DyCo3B2,https://materialsproject.org/materials/mp-20193,7.814517095002373,39.573865637604,-8.604250342815693,-0.5045126942092143
-7.90737057,-47.44422342,5.80814548038434,-0.306419879583333,0.29983675,0.038230391131551536,0.0,131,6,91.40154736240528,319.69949,mp-21422,YCoC,https://materialsproject.org/materials/mp-21422,-13.3429235309451,35.081840535246265,-8.604250342815693,-0.5045126942092143
-4.603694085,-36.82955268,3.6814982643643432,-0.9499275345312506,0.5259274,0.05235922092840317,0.0,13,8,117.06041221745956,259.5288,mp-754727,LiNiS2,https://materialsproject.org/materials/mp-754727,16.22895588005683,9.98568222271243,-5.222788084659324,-3.2775940390626395
-5.060163256363637,-55.66179582,8.854165328065578,-0.6324827472727269,0.0,0.0,0.0,71,11,193.5904060174406,1032.244,mp-22039,Dy3(CuGe)4,https://materialsproject.org/materials/mp-22039,-4.656760811523852,55.807270910236426,-8.604250342815693,-0.5045126942092143
-4.698861823636364,-51.68748006,2.610307396618343,-0.4387013306490905,1.1e-06,1.002310625683208e-07,0.0,38,11,127.89918535561256,201.0529,mp-1222476,Li6Ni2N3,https://materialsproject.org/materials/mp-1222476,1.9962269552544083,6.763340798713209,-8.604250342815693,-0.5045126942092143
-7.384204224166668,-1151.93585897,4.177007498466347,-2.922895405475641,17.000001225,0.10792197853703704,0.0,1,156,1835.7624470510696,4617.773700000002,mp-1247639,SrCa7Ti3Mn5O23,https://materialsproject.org/materials/mp-1247639,-32.303306553238414,-9.595000676700998,-7.953436206852336,-3.224400652629653
-5.591356306666667,-33.54813784,8.579624831180304,-0.2617873462500005,2e-07,2.7211526269466185e-08,0.0,65,6,85.65535543397002,442.5616,mp-1220204,NdCuNi4,https://materialsproject.org/materials/mp-1220204,29.79967474423573,77.84761140618998,-8.604250342815693,-0.5045126942092143
-3.799795533333333,-11.3993866,8.549142214006572,-0.3828367549999996,9.000000000000001e-07,1.7462940947543554e-07,0.0,216,3,60.06238197111423,309.226,mp-13306,YbCuGe,https://materialsproject.org/materials/mp-13306,-4.488171125894705,46.801091107484,-8.604250342815693,-0.5045126942092143
-6.095216132159091,-536.37901963,2.71363853044839,-1.1957129812172722,4.9999956,0.047372667711059066,0.0,201,88,1230.0399238717641,2010.1206,mp-704967,K5CeNi2(NO2)12,https://materialsproject.org/materials/mp-704967,-70.95308878031393,0.5910256519195684,-8.604250342815693,-0.5045126942092143
-6.12730135,-24.5092054,8.557766114801122,-0.8480919274999996,1.11e-05,1.6950774909320303e-06,0.0,225,4,76.31516533458569,393.29839300000003,mp-972866,Sc2PdAu,https://materialsproject.org/materials/mp-972866,-10.535519326078148,54.891599502679135,-8.604250342815693,-0.5045126942092143
-5.8113767916666665,-34.86826075,11.140654261889713,-0.15345063583333265,2.3301005,0.2839960815818402,0.0,44,6,95.61801698925319,641.5069100000002,mp-1216729,UCu3Pd2,https://materialsproject.org/materials/mp-1216729,5.6331831465423,42.550115889276256,-8.604250342815693,-0.5045126942092143
-4.6044357775,-18.41774311,7.28837144429141,-0.7945456675000004,2.5e-06,3.350597018020523e-07,0.0,225,4,86.95513597935394,381.66,mp-1183493,Ca2PdPt,https://materialsproject.org/materials/mp-1183493,14.574557304695256,45.679061886843115,-8.604250342815693,-0.5045126942092143
-6.021495065,-24.08598026,10.096986234293723,-0.11802188999999964,8.53e-05,1.2300651431517835e-05,0.0,225,4,80.81618527553674,491.40664000000004,mp-973788,Ho2CuTc,https://materialsproject.org/materials/mp-973788,-10.015326762662767,55.28723246360436,-8.604250342815693,-0.5045126942092143
-6.623284300476191,-278.17794062,3.8955956118547816,-2.0641953271333326,15.00000025,0.4147092358117665,0.9979,15,42,421.52660082366,988.89405,mp-691115,Li4Mn5O12,https://materialsproject.org/materials/mp-691115,-66.13051815894146,-38.36768664128717,2.1997023860201312,-1.8850134359929984
-6.043528345263157,-114.82703856,3.9994323713501063,-0.8830196367915792,0.0013785,3.8514932206784975e-05,0.06340000000000012,12,19,417.1142818769762,1004.6258,mp-1247333,Sr9(CrN4)2,https://materialsproject.org/materials/mp-1247333,4.1634061932872015,6.158606653679758,3.9453623219717833,-3.0356618042048638
-6.6647922034615386,-173.28459729,4.274304614177547,-2.5431270045776917,0.0,0.0,1.0268000000000002,100,26,456.50442783390565,1175.0636,mp-1214680,Ba2V2CuClO7,https://materialsproject.org/materials/mp-1214680,-53.88771172895003,-11.436238595935615,3.1921395094293867,1.455865914911077
-5.608732041666666,-134.609569,5.036856553451479,-2.051443196614584,0.0,0.0,1.1070000000000002,62,24,574.922839002183,1743.89388,mp-18079,BaLaCuS3,https://materialsproject.org/materials/mp-18079,48.167136879159905,-4.420418282980071,7.948370984831562,-5.269469035676403
-6.08178528,-24.32714112,6.0608762495078174,-0.5961581974999994,2.8e-06,4.5830285574374676e-07,0.0,225,4,71.20047574264404,259.87782400000003,mp-1186941,Sc2CuPd,https://materialsproject.org/materials/mp-1186941,-10.507889477461363,55.57066470877353,-8.604250342815693,-0.5045126942092143
-6.106251145000001,-73.27501374,9.087767462310893,-0.6528493999999997,0.0,0.0,0.0,62,12,212.32241121320823,1161.99418,mp-21144,TbCoGe,https://materialsproject.org/materials/mp-21144,21.38922816620148,69.72064195454834,-8.604250342815693,-0.5045126942092143
-4.103188113333333,-24.61912868,2.0127563195586506,-0.3387986106266663,2.995e-05,2.7445795562125484e-06,0.0,186,6,127.17402895029512,154.14893856,mp-1245645,NaCaN,https://materialsproject.org/materials/mp-1245645,6.370223544089594,2.215924944522892,-8.604250342815693,-0.5045126942092143
-7.193162081041668,-1035.81533967,6.4282417420333715,-2.6557914077083336,17.284892525,0.10135909110470644,0.0,1,144,1987.3822355509399,7693.5098400000015,mp-1076871,La7SmCo6(CuO10)2,https://materialsproject.org/materials/mp-1076871,-33.01677504533225,-18.94515505821644,-8.604250342815693,-0.5045126942092143
-3.902749985833333,-93.66599966,7.218755179240879,-0.16786253104166646,0.0,0.0,0.0,194,24,354.65476956263046,1541.7679999999998,mp-13222,SmMg2Cu9,https://materialsproject.org/materials/mp-13222,3.5269409149884483,41.19164332348205,-8.604250342815693,-0.5045126942092143
-7.631232092727273,-83.94355302,8.382203751961256,-0.6186521336363636,20.992966600000003,1.2149419999390487,0.0,71,11,201.37042964755187,1016.494,mp-621619,Gd3(CuGe)4,https://materialsproject.org/materials/mp-621619,-4.45207747532816,55.38567067625689,-8.604250342815693,-0.5045126942092143
-6.930340310972222,-997.96900478,4.368610905564677,-2.5595258365755544,33.004544275,0.19900983272844355,0.0,1,144,1932.7542337795746,5084.76526,mp-1076163,Sr4Ca4Mn7FeO20,https://materialsproject.org/materials/mp-1076163,-30.99942621650032,-11.311988284585354,-8.604250342815693,-0.5045126942092143
-6.224177586666666,-18.67253276,10.949223014825304,-0.12223665666666625,1.4e-06,2.179944702062161e-07,0.0,216,3,74.84451631341577,493.50800000000004,mp-961709,ZrPtPb,https://materialsproject.org/materials/mp-961709,14.541900690666303,44.84994142137209,-8.604250342815693,-0.5045126942092143
-5.89282536,-23.57130144,8.416430259478961,-0.16894972625000015,3.1e-06,4.041326119904227e-07,0.0,225,4,89.39541062276659,453.1,mp-864837,Nd2CuRu,https://materialsproject.org/materials/mp-864837,10.538578770629453,50.069027994762145,-8.604250342815693,-0.5045126942092143
-4.280612472,-21.40306236,4.8358792431257775,-0.8340168314759999,1.7e-06,1.7420188346983135e-07,0.0,221,5,113.72959762965219,331.207269,mp-9040,Ca3AuN,https://materialsproject.org/materials/mp-9040,25.151727980439592,-8.100757874886062,4.08212005314401,-5.882419186129411
-7.698007803999999,-38.49003902,3.8305110915163145,-0.2618784259519984,1.8599668999999999,0.2905700137036639,0.0,115,5,74.59880133923033,172.0836,mvc-2137,Ca(CrN)2,https://materialsproject.org/materials/mvc-2137,5.554509476332414,12.483505786980688,-8.604250342815693,-0.5045126942092143
-4.22111132,-25.32666792,9.599633668452858,-0.2832437055555553,5.6e-06,7.013587918511177e-07,0.0823999999999998,216,6,93.05189224773851,537.93621,mp-1024957,TmInCu4,https://materialsproject.org/materials/mp-1024957,2.984322562933818,41.78771789757329,-8.604250342815693,-0.5045126942092143
-7.77285520275,-310.91420811,6.850059800375347,-3.028923359375,7.000006699999999,0.15674036368559555,0.3975,1,40,520.4691986921101,2147.0408399999997,mp-1173226,Sr3LaTa2(CoO6)2,https://materialsproject.org/materials/mp-1173226,-32.86458897304701,21.7316219973608,-8.604250342815693,-0.5045126942092143
-5.785264926,-57.85264926,3.8234885022004663,-0.5405431989519996,1.00313465,0.09928798807654417,0.0,12,10,117.74431543205769,271.11319,mvc-15553,Mg2CoN2,https://materialsproject.org/materials/mvc-15553,-0.7360855442575821,8.238996471254469,-8.604250342815693,-0.5045126942092143
-5.461666728333332,-65.54000074,7.6611627977815715,-0.2681240574999997,1.31e-05,8.927143826164473e-07,0.0,47,12,171.0157823077502,789.0087,mp-1216156,Y2(CuNi)5,https://materialsproject.org/materials/mp-1216156,29.981172197858605,77.27709174607484,-8.604250342815693,-0.5045126942092143
-4.826699966666667,-28.9601998,9.02270091821064,-0.5977828000000004,1.45e-06,1.32233136953729e-07,0.0,186,6,127.79243016918396,694.3726399999998,mp-1024954,HoCuSn,https://materialsproject.org/materials/mp-1024954,-6.093095432888285,54.60173328388071,-8.604250342815693,-0.5045126942092143
-5.12056582,-30.72339492,8.88872420465359,-0.6871990666666665,5e-08,5.179328806811852e-09,0.0,186,6,112.50555049944185,602.2326400000001,mp-9389,HoCuGe,https://materialsproject.org/materials/mp-9389,-4.7763794342788515,56.71801351199829,-8.604250342815693,-0.5045126942092143
-5.648053210833332,-67.77663853,3.6143269476730833,0.15147667805555542,0.0,0.0,0.0014000000000002901,15,12,220.59924152781915,480.156,mp-1094381,MgTi2,https://materialsproject.org/materials/mp-1094381,33.53042796476099,61.46098486519703,-8.604250342815693,-0.5045126942092143
-7.3888909428571425,-51.7222366,7.575628022323684,-3.04065505,1e-07,1.2414688170123799e-08,0.0,139,7,93.8731977223998,428.2636,mp-4210,Sm2CuO4,https://materialsproject.org/materials/mp-4210,-42.977877875115844,-2.4699707381903875,-8.604250342815693,-0.5045126942092143
-3.870418049333333,-116.11254148,9.874327586987109,-0.2709378504444445,3.98e-05,1.0221840717146562e-06,0.0,160,30,453.7654134737436,2698.2975,mp-1216028,Yb5In4Cu20Rh,https://materialsproject.org/materials/mp-1216028,3.2797775355671424,42.04739709360655,-8.604250342815693,-0.5045126942092143
-3.7802115933333336,-11.34063478,8.041891957476443,-0.13076164166666673,0.7458670999999999,0.133186627957828,0.0,187,3,65.26468631575835,316.0730000000001,mp-1206698,CeCdCu,https://materialsproject.org/materials/mp-1206698,-16.892636151926066,55.55394722971097,-8.604250342815693,-0.5045126942092143
-5.694821847999999,-142.37054619999998,4.425426674421813,-1.5566753017000008,1.0000002000000001,0.04675490606632768,0.7873000000000001,1,25,249.25869997129058,664.287965,mp-699137,Li4(CoO2)7,https://materialsproject.org/materials/mp-699137,-73.7422930315395,-22.80164394467208,-3.100603934558208,-1.929575690668348
-5.221897554,-26.10948777,5.478023441300963,-0.451212760952,0.9932059999999999,0.10426950851660187,0.0,139,5,111.00931826730499,366.2134,mp-1245897,Ba2CuN2,https://materialsproject.org/materials/mp-1245897,6.433610701700528,3.5972145349791638,-8.604250342815693,-0.5045126942092143
-7.092475846249998,-283.69903385,4.057159655948589,-2.8691747054999994,0.9999982,0.020163469178436144,0.6074999999999999,137,40,577.9781094270493,1412.1616,mp-1201761,BaCu(SiO3)2,https://materialsproject.org/materials/mp-1201761,-54.30820961605289,-19.74206106802828,1.3408944388235338,0.8705669226832417
-2.3514926816233768,-362.12987297,4.672278099969468,-0.14086095709090915,0.18565979999999999,0.0004888947314073028,0.0,223,154,4425.679386301029,12452.58580256,mp-684127,K3(Na13In24)2,https://materialsproject.org/materials/mp-684127,-38.450923913735906,48.20381946332246,-8.604250342815693,-0.5045126942092143
-3.8948666933333334,-23.36920016,3.6045861391832594,-0.1563775689599994,2.2e-06,1.5963222616158507e-07,0.0,186,6,160.61257251201104,348.64693856,mp-1245803,BaNaN,https://materialsproject.org/materials/mp-1245803,6.9325030673274455,2.206822748825444,-8.604250342815693,-0.5045126942092143
-7.300914464285714,-204.42560500000002,6.2222458169532775,-2.602215662857143,6.04247485,0.19540221400989716,0.0,140,28,360.38175741906474,1350.39516,mp-16786,Sr2EuNb(CuO4)2,https://materialsproject.org/materials/mp-16786,-46.91817876858647,-6.318661121613562,-8.604250342815693,-0.5045126942092143
-5.357160428035714,-300.00098397,3.0347722573049247,-0.6985607064552671,8.975e-06,1.0774324349009642e-07,0.42710000000000026,60,56,970.7822778078653,1774.1848,mp-1245740,Ca7SeN6,https://materialsproject.org/materials/mp-1245740,25.03575137392211,-10.845081658108695,3.2546391751231276,-4.1360098540568435
-8.61830571,-34.47322284,9.963560926095502,-0.2087573618749996,7.2000000000000005e-06,1.164902686623682e-06,0.0,225,4,72.03113815938548,432.20099999999996,mp-1187940,Zr2CuRe,https://materialsproject.org/materials/mp-1187940,-10.066980401173804,54.07215494725544,-8.604250342815693,-0.5045126942092143