energy_per_atom,energy,density,formation_energy_per_atom,total_magnetization_uB,total_magnetization_T,band_gap,sgr,num_sites,cell_volume,weight,mp_id,formula,URL,tsne_cry_lin1_0,tsne_cry_lin1_1,tsne_cry_lin2_0,tsne_cry_lin2_1
-5.14278938,-20.57115752,9.408754371844076,-0.3896965950000002,9.9e-06,1.4312321072232712e-06,0.0,38,4,80.61253004740097,456.7574,mp-1225072,Er2CuNi,https://materialsproject.org/materials/mp-1225072,-9.789659522052697,55.419991360959436,-8.604250342815693,-0.5045126942092143
-6.5800029785000005,-131.60005957,5.792240371369837,-2.3183573707500016,6.0000005,0.3088629233888669,0.0,7,20,226.39296971994858,789.69688,mvc-9638,CaPr(CoO3)2,https://materialsproject.org/materials/mvc-9638,-35.455508222907355,-17.195792689440587,-8.604250342815693,-0.5045126942092143
-8.609485205999999,-172.18970412,7.26429897099672,-0.6093454019279989,0.0,0.0,0.013199999999999434,14,20,339.3683637521812,1484.62228,mp-989632,LaOsN3,https://materialsproject.org/materials/mp-989632,34.105593004590695,-9.493612740300266,2.8075725011098074,-4.768590124220103
-6.42102766,-25.68411064,12.462128532949414,-0.3083262637500006,0.0001192,1.7721578367617354e-05,0.0,225,4,78.38830673387062,588.294,mp-866100,Er2CuOs,https://materialsproject.org/materials/mp-866100,-9.753638737126364,55.1834605383438,-8.604250342815693,-0.5045126942092143
-4.9279790955000005,-295.67874573,3.347256378422209,-1.8857050700500009,1.5325e-05,1.8467703842130933e-07,1.9929,14,60,967.085806477116,1949.41766272,mp-773498,Na6Sn2O7,https://materialsproject.org/materials/mp-773498,16.264954678335425,-21.668373117486485,7.850211045361965,-0.7674843998600048
-3.9826271525,-15.93050861,8.937650438898352,-0.38685372770833293,2.07e-05,2.678265968979286e-06,0.0,225,4,90.072884316237,484.8064,mp-862735,SmAg2Sn,https://materialsproject.org/materials/mp-862735,-5.157553540610372,50.07818348129855,-8.604250342815693,-0.5045126942092143
-6.401180347857142,-89.61652487,4.886447768207572,0.10200718898000057,1.00008435,0.03809558483577025,0.0,176,14,305.94221989682194,900.2924,mp-1246803,Cr(SnN)3,https://materialsproject.org/materials/mp-1246803,-0.15600068253019087,8.691619121485065,-8.604250342815693,-0.5045126942092143
-5.64774227423077,-146.84129913,5.529972590656016,-1.9763288625320523,0.0131855,0.0004659133524527834,0.0,1,26,329.81383823756914,1098.3550772,mvc-296,Sr2AlCu2AgO7,https://materialsproject.org/materials/mvc-296,-49.11207516367556,-5.146529728716722,-8.604250342815693,-0.5045126942092143
-4.778472254,-23.89236127,5.021774889579404,0.25252994225000125,10.3766695,1.7372350363508176,0.0,221,5,69.61083327588605,210.5159386,mp-1206753,AlFe3O,https://materialsproject.org/materials/mp-1206753,-5.5431815402808535,18.988707948783322,-8.604250342815693,-0.5045126942092143
-7.5389433528125,-482.49237458,3.955173161139703,-0.5125211126274989,0.0306685125,0.00036209052957738083,0.0,61,64,987.0814118508322,2351.09070848,mp-1245367,NaMoN2,https://materialsproject.org/materials/mp-1245367,-11.102323430681095,27.155138974928764,-8.604250342815693,-0.5045126942092143
-7.221193807083334,-173.30865137,5.52822031682146,-0.9973091832733326,0.067460925,0.0017748757088574454,0.0,64,24,442.9572085770977,1474.6808,mp-1029843,Ba2CrN3,https://materialsproject.org/materials/mp-1029843,3.727757755732623,8.856291844403652,-4.983360412827892,-2.4963367864595982
-5.961332387142857,-83.45865342,6.383494939528786,-2.1444177896428576,9.000000000000001e-07,5.1314374556811917e-08,0.0,123,14,204.40000264821242,785.7607386,mp-1253210,Ba2AlSn3O8,https://materialsproject.org/materials/mp-1253210,-35.27124727699496,0.5504149775484702,-8.604250342815693,-0.5045126942092143
-8.38200632909091,-92.20206962,10.896225546883995,-0.6712621327272721,20.100969,1.0144182641162007,0.0,217,11,230.92840793960738,1515.3200000000004,mp-1095238,Eu3(GeIr)4,https://materialsproject.org/materials/mp-1095238,6.556827923320108,48.639402160218964,-8.604250342815693,-0.5045126942092143
-6.027804965,-24.11121986,12.810610941900618,-0.6538056425000001,4.04e-05,5.711988333743834e-06,0.0,225,4,82.42737717617449,635.904989,mp-1187585,Tm2RuAu,https://materialsproject.org/materials/mp-1187585,-11.022160572266571,54.650595654214364,-8.604250342815693,-0.5045126942092143
-6.186389457708334,-296.94669397,6.510229199896457,-0.4216413835016664,0.25454570000000004,0.006248101240197197,0.0,206,48,474.7829718717749,1861.4112,mp-1246634,Li3WN2,https://materialsproject.org/materials/mp-1246634,1.3039770112762077,2.9864947130512647,-8.604250342815693,-0.5045126942092143
-7.596329700000001,-30.385318800000004,7.571043537025508,-0.7120091216666671,14.040955199999999,1.3983006625990788,0.0,225,4,117.02361712770359,533.5562,mp-1183942,Eu2AgSb,https://materialsproject.org/materials/mp-1183942,5.096735063128612,36.55313977683005,-8.604250342815693,-0.5045126942092143
-4.48592674,-53.83112088,6.66024509754863,-0.3365485320833332,6.5000000000000004e-06,3.7809776219774705e-07,0.0,10,12,200.3487684807286,803.5775557999999,mp-1223301,La2Al3Cu7,https://materialsproject.org/materials/mp-1223301,-4.834732881823407,61.68063260582282,-8.604250342815693,-0.5045126942092143
-5.7600708525,-23.04028341,10.266356668142413,-0.6624976312499999,2.4100000000000003e-05,3.734329135033505e-06,0.0,225,4,75.21108902366974,464.99591200000003,mp-1206369,ScPd2Pb,https://materialsproject.org/materials/mp-1206369,28.098027019882387,40.67151584040425,-8.604250342815693,-0.5045126942092143
-4.540614636666667,-27.24368782,8.829314765488407,-0.2652648933333334,1.5e-07,1.6248909566878517e-08,0.0,74,6,107.5832017335655,572.0347,mp-1527,TbCu2,https://materialsproject.org/materials/mp-1527,-5.180324423920637,58.69598025434795,-8.604250342815693,-0.5045126942092143
-2.8008801475,-11.20352059,4.086650783979456,1.3138852972499997,3.5381724,0.3976806918801256,0.0,225,4,103.68642774970915,255.17630784,mp-982595,Na3Re,https://materialsproject.org/materials/mp-982595,-18.15152010448813,21.14319296192439,-8.604250342815693,-0.5045126942092143
-6.064525748333334,-291.09723592,5.021825108376905,-1.9850610026041675,7.75e-07,1.3089260892793415e-08,0.02159999999999984,62,48,690.0236974958972,2086.7792,mp-542101,BaCu2Ge2O7,https://materialsproject.org/materials/mp-542101,-56.12350875047949,-6.765943971339938,-2.80747670181288,-0.4172541454209117
-6.5118982525,-156.28555806,5.959933967015023,-0.9325528391666668,8.175e-06,1.838526423724381e-07,0.0,194,24,518.1974992922811,1859.89176,mp-1191810,La2Si3Rh,https://materialsproject.org/materials/mp-1191810,10.344046196079344,63.65825720627142,-8.604250342815693,-0.5045126942092143
-7.3789213999999985,-339.4303844,5.365137195755633,-2.8644306571195637,8.00000675,0.15406061623494133,0.4179999999999997,15,46,605.168271579777,1955.2752,mp-1218649,Sr2Y4Fe2Cu2O13,https://materialsproject.org/materials/mp-1218649,-48.5333921008837,-4.1953587851346645,3.0781712026057564,-5.097146332292268
-4.48511753825,-179.40470153,4.972104402804517,-2.6197378968330005,4.00430065,0.0876964639490175,0.0,15,40,532.1352428877003,1593.3572896,mvc-1700,Ba2ZnCu3F14,https://materialsproject.org/materials/mvc-1700,-52.10002685973899,-12.382618492215743,1.6029434556018731,-1.5227610727320886
-5.927933695499999,-237.11734782,4.449481963110599,-1.9421048363749995,25.079041699999998,0.676760588231729,0.0,160,40,431.8702676956842,1157.2139650000001,mp-1076139,Ca7MgFeCo7O24,https://materialsproject.org/materials/mp-1076139,-52.80000105453145,3.2284831050868665,-8.604250342815693,-0.5045126942092143
-5.570201616,-27.85100808,6.574907232242058,-0.5734931959999997,0.0022982,0.0003279396835237017,0.0,139,5,81.67163965187191,323.379,mp-5452,Ce(CuSi)2,https://materialsproject.org/materials/mp-5452,-3.180874302492832,58.3831733477319,-8.604250342815693,-0.5045126942092143
-5.6563323216666666,-33.93799393,9.471642348253884,-0.46328411,0.0,0.0,0.0,129,6,83.36438139801972,475.5068,mp-3274,NiGePd,https://materialsproject.org/materials/mp-3274,47.834537628559296,44.78141091050691,-8.604250342815693,-0.5045126942092143
-7.339132798333334,-44.03479679,7.2709792565304365,-0.4800627388888887,0.022412900000000003,0.003980541904337606,0.0,191,6,65.61955497975572,287.32743500000004,mp-5019,YCo3B2,https://materialsproject.org/materials/mp-5019,7.781371375466847,39.58890438043016,-8.604250342815693,-0.5045126942092143
-4.253838991,-42.53838991,3.3514073730606544,-2.527787698764,1.0,0.07313813043211953,0.0,225,10,159.3432140486006,321.59678848,mp-1111627,K2NaPdF6,https://materialsproject.org/materials/mp-1111627,-29.489385770328287,20.673730069885963,-8.604250342815693,-0.5045126942092143
-8.1563274025,-326.2530961,3.0347620974905047,-0.8579458684840006,0.001737,3.4988076373863035e-05,0.7562,100,40,578.571690927778,1057.38401568,mp-1245818,Na3V6N11,https://materialsproject.org/materials/mp-1245818,33.664225852273475,-8.177172437138317,4.0179755901449665,-4.924704409260587
-6.085470003571428,-170.3931601,4.093844842140748,-1.1968730135119046,2.998890425,0.06411096145308255,0.2836999999999996,46,28,545.1370946033231,1343.9652,mp-1238871,TiCrAgS4,https://materialsproject.org/materials/mp-1238871,14.471661619780868,3.5188803516616183,-8.604250342815693,-0.5045126942092143
-7.527846440454545,-828.06310845,8.920170565809297,-0.5434603734545456,9.9654141,0.08363383780567839,0.0,176,110,1388.6434540601028,7459.58762,mp-569882,U6Co30Si19,https://materialsproject.org/materials/mp-569882,49.28792144315773,50.71087981098464,-8.604250342815693,-0.5045126942092143
-3.9733089645454553,-87.41279722,2.138273148487273,-1.3001451178409094,1.00017205,0.03214686590914029,0.0,137,22,362.5880634009069,466.904,mp-757177,Li6CuS4,https://materialsproject.org/materials/mp-757177,-51.07768123352904,-4.778093489052303,-8.13928540570749,2.224142030105033
-5.035771356000001,-25.17885678,7.4545624087526,-0.5616376594999999,0.0021261999999999995,0.00027047036464246393,0.0,139,5,91.61400197086927,411.27747,mp-20322,La(CuGe)2,https://materialsproject.org/materials/mp-20322,-2.9048818506753533,58.446584045984714,-8.604250342815693,-0.5045126942092143
-3.538086153,-35.38086153,2.562170022001102,-1.1093509102379997,0.12261269999999999,0.007464713576998158,2.2182,12,10,191.42547573982856,295.3647,mp-34326,Li6Br3N,https://materialsproject.org/materials/mp-34326,14.951378166874207,-13.637101325527079,8.943863690414533,-0.8044335196520137
-6.019663410446428,-674.20230197,3.8015540053361945,-2.115284044196429,1.87866194375,0.0072382556009188675,0.041700000000000514,227,112,3024.76856100882,6924.7519999999995,mp-1232246,Ce2MgS4,https://materialsproject.org/materials/mp-1232246,44.12059814201419,6.107988959670826,-8.604250342815693,-0.5045126942092143
-4.721519231666666,-28.32911539,9.135690508017811,-0.5258965699999992,1.725e-05,1.574658632901551e-06,0.0,194,6,127.66742780066632,702.3804200000001,mp-1077167,TmCuSn,https://materialsproject.org/materials/mp-1077167,-5.356898927801383,55.71861599569905,-8.604250342815693,-0.5045126942092143
-5.2176488,-20.8705952,7.2482865551551825,-0.6444233187500004,0.0198387,0.0025677147762827213,0.0,225,4,90.04173553033417,393.034,mp-1183507,CaCePd2,https://materialsproject.org/materials/mp-1183507,14.548825538254723,45.7006051069699,-8.604250342815693,-0.5045126942092143
-6.181411249305556,-445.06160995,4.179060657515781,-2.224894113055556,5.9999997375,0.07912125551230664,0.0,13,72,883.7623357138209,2224.15512,mp-1195412,Ca2Co2O5,https://materialsproject.org/materials/mp-1195412,-32.88343379692788,-16.130271765040508,-8.604250342815693,-0.5045126942092143
-6.832502201612903,-423.6151365,4.789258590752972,-0.5933073076699664,6.15e-06,4.887350267502064e-08,0.0,167,62,1466.4899061526464,4229.590038,mp-685609,Cs10(Mo2N5)3,https://materialsproject.org/materials/mp-685609,-10.957343873798935,27.313642214923476,-8.604250342815693,-0.5045126942092143
-7.34026026025641,-286.27015015,4.155890926804632,-2.8789514415653845,16.999999600000002,0.4295055047874246,0.0,1,39,461.2725431073207,1154.4434250000004,mp-1247721,SrCa7Ti3Mn5O23,https://materialsproject.org/materials/mp-1247721,-36.188884832898495,5.855180578966554,-8.604250342815693,-0.5045126942092143
-3.8750391777777775,-34.8753526,3.2169076397035727,-1.5460985745066669,2.0,0.09384719766022366,0.0,225,9,248.3625523854969,481.1446,mp-23533,K2OsCl6,https://materialsproject.org/materials/mp-23533,5.89410149335773,-11.107340685174444,-8.604250342815693,-0.5045126942092143
-6.638170557647059,-112.84889948,4.988755961595336,-2.5203919767305885,10.770892199999999,0.5998756334426505,0.0,107,17,209.25116534018784,628.65309,mp-1218341,Sr3CaMn2FeO10,https://materialsproject.org/materials/mp-1218341,-35.94067255914647,4.6997294290553535,-8.604250342815693,-0.5045126942092143
-7.1659802775,-171.98352666,3.5414421416581576,-0.9957710420233332,1.657935375,0.058165149373415874,0.0,64,24,332.1866522670522,708.45658,mp-1029959,Ca2MnN3,https://materialsproject.org/materials/mp-1029959,2.582505110387268,8.692639387110157,-8.604250342815693,-0.5045126942092143
-4.26137812125,-204.54614982,2.6814868006924315,-0.31666943262666675,0.0001540625,2.9235768196260456e-06,1.0804999999999998,206,48,614.1293575628138,991.71397152,mp-1246847,Na3AlN2,https://materialsproject.org/materials/mp-1246847,4.679713320308454,1.6290024279652986,2.7541523756717807,-2.77037266180346
-5.1353218575,-20.54128743,13.171330326397946,-0.64368571375,0.0001062,1.3182934876649715e-05,0.0,225,4,93.8836223061413,744.681198,mp-866174,ThSnAu2,https://materialsproject.org/materials/mp-866174,-8.230416388599869,49.64907393326007,-8.604250342815693,-0.5045126942092143
-4.376944998333333,-26.26166999,7.05885441283018,-0.22521702625000015,0.0001125,1.3101164584337538e-05,0.0,187,6,100.07372081107708,425.4075386,mp-1220197,NdAlCu4,https://materialsproject.org/materials/mp-1220197,4.2773481525220935,43.790462329462365,-8.604250342815693,-0.5045126942092143
-5.608412975,-22.433651899999997,0.7847888551136993,3.36680473625,13.566789600000002,0.2039646190144043,0.0,71,4,775.1748588460989,366.35609,mp-1095786,Mn2GeW,https://materialsproject.org/materials/mp-1095786,8.622482277732317,24.12571300509466,-8.604250342815693,-0.5045126942092143
-3.28567475,-13.142698999999999,7.894829703806248,-0.3257387770833331,0.0001929,2.6392384796705405e-05,0.0,225,4,85.17870256678714,404.97172,mp-1184818,HoMgAg2,https://materialsproject.org/materials/mp-1184818,20.693545819492666,61.2620845346484,-8.604250342815693,-0.5045126942092143
-5.5661795,-22.264718,11.04205119553926,-0.6341404800000001,8.2e-06,1.1833038939164551e-06,0.0,225,4,80.75975379299862,537.02642,mp-867220,LiTm2Ir,https://materialsproject.org/materials/mp-867220,9.000622661950576,42.43374235935581,-8.604250342815693,-0.5045126942092143
-5.3710117375,-21.48404695,11.627866853407607,-0.6997066075000005,1.9e-06,2.67811619267918e-07,0.0,225,4,82.68021801440923,578.96535,mp-1206368,TbPd2Pb,https://materialsproject.org/materials/mp-1206368,27.765942777360625,40.43706751317056,-8.604250342815693,-0.5045126942092143
-5.711904685714287,-79.9666656,3.4679764401684747,-1.1106607851785721,2.99999955,0.1385557178569574,0.5827,74,14,252.33306581720655,526.9885899999998,mp-1247504,MgCrCoS4,https://materialsproject.org/materials/mp-1247504,18.248435565901453,10.103693334567444,-8.604250342815693,-0.5045126942092143
-6.09785235,-73.1742282,9.499405283673081,-0.6609182399999997,3.4175e-05,1.9210711040848226e-06,0.0,62,12,207.32062585052657,1186.01406,mp-1095599,HoCoGe,https://materialsproject.org/materials/mp-1095599,21.287301255103664,69.48881438741942,-8.604250342815693,-0.5045126942092143
-5.326696377749999,-213.06785511,2.6063869451599486,-0.9443306257019998,0.0,0.0,1.1111,206,40,755.591860941857,1185.9792,mp-844,Ca3N2,https://materialsproject.org/materials/mp-844,24.510022000177887,-9.522559830047623,6.1570119122712645,-4.30137949944776
-7.347143556666666,-22.04143067,6.751014028938727,0.053436062222221636,11.0056391,1.6208189062711846,0.0,187,3,79.13310391343367,321.720045,mp-1225294,EuMnIn,https://materialsproject.org/materials/mp-1225294,0.9036696249646288,50.697512383639534,-8.604250342815693,-0.5045126942092143
-1.696658615,-6.78663446,2.6741400111813736,0.01431092245833332,6.34e-05,6.728640901380181e-06,0.0,225,4,109.80935339092441,176.83750784,mp-1186017,Na3Ag,https://materialsproject.org/materials/mp-1186017,-16.59555113572724,46.365640363454325,-8.604250342815693,-0.5045126942092143
-6.8280673914999985,-136.56134783,4.627229525854028,-2.563632140393999,9.9999938,0.5083122093951878,0.0,2,20,229.26967583379601,638.878935,mp-1227588,Ca4Mn3SbO12,https://materialsproject.org/materials/mp-1227588,-32.014329503850654,-9.172081720000884,-8.604250342815693,-0.5045126942092143
-6.127502427142858,-171.57006796,3.761767092407949,-2.162766868806122,1.75e-07,6.363625369383294e-09,0.1753,14,28,320.4873349412133,726.02852512,mp-554777,NaCuPO4,https://materialsproject.org/materials/mp-554777,-57.6325340784666,-14.341437923420337,0.5386244460965144,-2.425142789892968
-8.109240405,-48.65544243,3.5224599142601347,-2.3525238467455565,0.0,0.0,1.5999000000000003,109,6,76.24858075281503,161.7442064,mp-1216730,TiNF,https://materialsproject.org/materials/mp-1216730,-11.125155067001927,27.07510868525213,-11.326330918168864,-0.30088871863770955
-6.4854757733333335,-38.91285464,10.294075523228805,-0.21945895166666676,1.87143525,0.239048566866241,0.0,227,6,91.23596893745476,565.5934199999998,mp-2396,HoCo2,https://materialsproject.org/materials/mp-2396,42.65578795882107,74.2229193992883,-8.604250342815693,-0.5045126942092143
-8.310203411363636,-182.82447505,7.7770453910793425,-0.2576585916881813,38.186309,1.6207425768414436,0.0,160,22,274.58137082957364,1285.9871,mp-1220094,NdSmFe17N3,https://materialsproject.org/materials/mp-1220094,61.46299109834446,75.29968199466795,-8.604250342815693,-0.5045126942092143
-5.480842028333334,-65.77010434,8.356180157035421,-0.016123345416666268,5.8221148000000005,0.37900938396190215,0.0,47,12,179.02275211027177,900.879975,mp-1220419,Nd2(CoCu)5,https://materialsproject.org/materials/mp-1220419,39.623473934300144,75.2319020392524,-8.604250342815693,-0.5045126942092143
-6.109051033125,-97.74481653,3.2194633512511843,-2.328274095625,1.00000005,0.06664747595128967,0.0,20,16,174.86131603514116,339.0222,mp-752888,Li2CuSiO4,https://materialsproject.org/materials/mp-752888,-58.579898356807796,-18.210216417973204,-4.60968509709048,-0.9637940684756421
-6.6460184406,-332.30092203,6.7174740511402256,-2.2729638857692,30.211334,0.5818114265173886,0.0,123,50,605.1528506563495,2448.05962,mp-720103,Ba4La6Mn(Co3O10)3,https://materialsproject.org/materials/mp-720103,-39.31346899910743,-4.449001781129163,-8.604250342815693,-0.5045126942092143
-4.79240874375,-38.33926995,6.391079903238093,-1.152905962148438,5e-08,2.3604083107423543e-09,0.0,63,8,246.86544102394004,950.1353,mp-30125,PrTe2Se,https://materialsproject.org/materials/mp-30125,-9.594973618678127,23.40129686521132,-8.604250342815693,-0.5045126942092143
-5.4078034825,-21.63121393,8.609279186729031,-0.05216021250000047,0.010129299999999999,0.0014076133885215915,0.0,225,4,83.86359440973601,434.80164,mp-867289,LiHo2Tc,https://materialsproject.org/materials/mp-867289,8.694637411813831,42.90566517687629,-8.604250342815693,-0.5045126942092143
-6.487830647272728,-142.73227424,5.4381391089472695,-0.4746939165363645,1.7124144000000001,0.06411339634199348,0.0,2,22,311.2701786785958,1019.3861699999999,mp-1247212,Sr3Co3N5,https://materialsproject.org/materials/mp-1247212,3.570966236602054,8.009745693804451,-8.604250342815693,-0.5045126942092143
-3.631566855,-14.52626742,4.271198709511595,-1.2695902582812502,0.0,0.0,0.7236000000000002,123,4,78.08408053812524,200.84599999999998,mp-1222003,MgCdS2,https://materialsproject.org/materials/mp-1222003,37.9074895743166,-3.823585763694113,5.820999216151954,-5.777147599243393
-6.534510365,-26.13804146,9.015217588344607,0.9464500925,1.6e-06,2.2605053059999672e-07,0.0,227,4,82.48820998828384,447.836,mp-1067260,CaW,https://materialsproject.org/materials/mp-1067260,13.386494627869215,45.585655902251695,-8.604250342815693,-0.5045126942092143