energy_per_atom,energy,density,formation_energy_per_atom,total_magnetization_uB,total_magnetization_T,band_gap,sgr,num_sites,cell_volume,weight,mp_id,formula,URL,tsne_cry_lin1_0,tsne_cry_lin1_1,tsne_cry_lin2_0,tsne_cry_lin2_1
-4.379394635,-43.79394635,9.408955259956,-0.3980347516666669,1.45e-06,8.257445208575021e-08,0.0,127,10,204.6443360309949,1159.55684,mp-1078916,Tm2InCu2,https://materialsproject.org/materials/mp-1078916,-8.033594265452656,54.87864670435607,-8.604250342815693,-0.5045126942092143
-3.964029043,-39.64029043,6.323541241314015,-0.6687792516666669,5e-08,2.2062198744934026e-09,0.0,15,10,264.11838881733695,1005.796,mp-20843,Sr2InPd2,https://materialsproject.org/materials/mp-20843,-13.301673272798936,51.11310297442145,-8.604250342815693,-0.5045126942092143
-7.49865517,-202.46368959,6.9156017141655495,-3.078905091111111,0.00019669999999999998,6.128170698125599e-06,0.0,1,27,374.06832375991837,1557.87216,mp-776310,La8Cu3O16,https://materialsproject.org/materials/mp-776310,-42.47693584064113,-4.195749429966615,-8.604250342815693,-0.5045126942092143
-5.61988561,-22.47954244,11.978705447206805,-0.7971497200000002,0.00010329999999999999,1.464115957482099e-05,0.0,225,4,82.22469571848346,593.1479999999998,mp-862940,Er2CuPt,https://materialsproject.org/materials/mp-862940,-9.765813505585788,55.285788545091975,-8.604250342815693,-0.5045126942092143
-4.6153251780952385,-193.84365748,4.893253567160329,-2.508975152221905,1.0,0.020004410571663786,0.0,15,42,582.5747642406249,1716.7232895999998,mp-29457,Ba2Cu5F14,https://materialsproject.org/materials/mp-29457,-61.112869072441654,-11.309876897628751,-8.604250342815693,-0.5045126942092143
-7.2575203166666675,-43.5451219,8.462282782729831,-0.4872937438888888,0.0,0.0,0.0,191,6,66.43064180590687,338.5375850000001,mp-4454,CeCo3B2,https://materialsproject.org/materials/mp-4454,7.908014075068332,39.5268368561239,-8.604250342815693,-0.5045126942092143
-5.3821740725,-21.52869629,8.585243391091218,-0.2859541800000001,1.0800000000000002e-05,1.5028158792493554e-06,0.0,225,4,83.75204260319148,433.011,mp-867111,LiDy2Ru,https://materialsproject.org/materials/mp-867111,9.869089673530267,42.9679778914221,-8.604250342815693,-0.5045126942092143
-6.090331344097222,-877.00771355,4.4245640421562085,-2.1830693450694443,21.020590025,0.13466724407785438,0.0,1,144,1819.115846516812,4847.09746,mp-1076470,Sr2Ca6Co7CuO20,https://materialsproject.org/materials/mp-1076470,-33.03488887627868,-16.078593056975222,-8.604250342815693,-0.5045126942092143
-6.019151204722222,-216.68944337,3.0192336643459923,-0.2459222402244434,3.225e-06,4.3651622299984426e-08,0.6818000000000001,33,36,861.0071495903697,1565.5047599999998,mvc-11312,BaCa2(CoN2)2,https://materialsproject.org/materials/mvc-11312,4.767068451494395,5.363903871333356,3.982833460426246,0.4607105341409615
-6.890248414285715,-48.231738899999996,5.880517641018074,-2.7603847753571435,1.9999974999999999,0.2686459710327616,0.0,107,7,86.76139947438487,307.25079500000004,mp-1227058,CaNdCoO4,https://materialsproject.org/materials/mp-1227058,-35.41903074270464,-18.368467064589304,2.044471464199765,1.902427723660284
-4.992290005,-69.89206007,3.265030326502868,0.2079263226190469,3.2868023999999996,0.14243792225182386,0.0,176,14,268.9214182476197,528.766,mp-1094365,Mg3Ti4,https://materialsproject.org/materials/mp-1094365,-17.698809849783565,38.9011729153476,-8.604250342815693,-0.5045126942092143
-5.541999456125,-443.35995649,3.8952713568676263,-0.6030589750769998,1.4999989125,0.00933562446844502,0.050400000000000215,11,80,1872.513675344508,4392.51876,mp-1246260,Sr5MnN4,https://materialsproject.org/materials/mp-1246260,6.522822285385868,6.49782668769105,-8.604250342815693,-0.5045126942092143
-8.704362318,-43.52181159,4.569540798129707,0.2586488730480013,6.4269715,1.1201738622795572,0.0,150,5,66.86492577140899,184.0017,mp-1097803,Cr3N2,https://materialsproject.org/materials/mp-1097803,16.684724725172526,46.399746897225064,-8.604250342815693,-0.5045126942092143
-6.5350037078846155,-339.82019281,3.9263673366695966,-2.0420304994230767,2.000000675,0.03613689705828027,0.17790000000000014,14,52,644.9955394350154,1525.1008,mp-560291,MgV2(CuO4)2,https://materialsproject.org/materials/mp-560291,-55.258599440937736,-10.950136131332203,1.8147005581657432,-1.3563181656975651
-5.777309118181818,-254.2016012,4.2502952624424,-0.5818711826836362,2.000048825,0.024619925349764725,0.0141,130,44,946.7412359580792,2423.2672,mp-1246863,Sr5(FeN2)2,https://materialsproject.org/materials/mp-1246863,5.640767941082232,7.390732486853842,-8.604250342815693,-0.5045126942092143
-6.964283648611112,-250.71421135,3.802183653673759,-2.5054180983811105,30.999999,0.7679573083074293,0.0,8,36,470.43760426153716,1077.174415,mp-1247700,Ca8Mn7CrO20,https://materialsproject.org/materials/mp-1247700,-30.465458605404077,-10.280113203419587,-8.604250342815693,-0.5045126942092143
-2.90437409,-26.13936681,3.4844828539804,1.9838011921666672,3.532104933333333,0.1088959298009011,0.0,189,9,378.0065953962191,793.2108000000002,mp-1080778,K2Re,https://materialsproject.org/materials/mp-1080778,-4.418042765389037,6.772275669350831,-8.604250342815693,-0.5045126942092143
-4.875818126,-24.37909063,8.700335442285478,-0.4735204969999998,3e-07,4.16674842976836e-08,0.0,139,5,83.90761983108905,439.631,mp-5083,Er(CuGe)2,https://materialsproject.org/materials/mp-5083,-3.26043772740045,57.807195306466596,-8.604250342815693,-0.5045126942092143
-7.090548512777778,-127.62987323,4.7653196449918465,-2.7508768865025925,11.999999699999998,0.5849446021972912,0.0,38,18,239.08037316554027,686.0991350000003,mp-1208742,Sr4Mn3BO10,https://materialsproject.org/materials/mp-1208742,-30.14688622493417,-9.23846527332589,-8.604250342815693,-0.5045126942092143
-4.055666733000002,-40.55666733,6.619105960970775,-0.2085431899999996,0.00057495,2.9537716370897863e-05,0.0,127,10,226.84572012428453,904.2339999999999,mp-1206905,Sm2MgCu2,https://materialsproject.org/materials/mp-1206905,-8.655559351467156,52.998289692164676,-8.604250342815693,-0.5045126942092143
-6.70525411142857,-93.87355756,4.474613501031876,-2.633659912142857,0.99999985,0.08650898142496016,0.0,74,14,134.7150646382188,363.01335439999997,mp-752645,Al2CuO4,https://materialsproject.org/materials/mp-752645,-50.489204990082186,-7.081035438105518,-8.604250342815693,-0.5045126942092143
-7.22927749825,-289.17109993,4.938775059932556,-0.3627495062899996,0.0,0.0,0.5909,80,40,687.8042144661638,2045.66723136,mp-1246353,Na3Re2N5,https://materialsproject.org/materials/mp-1246353,3.1281244687476804,2.9437953405437236,4.042079580071318,-5.620733867707112
-5.38897195975,-215.55887839,4.8340422565208625,-1.3940355830000002,3.000000025,0.08508331856372821,0.0,164,40,410.91714802877226,1196.2325544000003,mp-1261478,Al(NiO2)3,https://materialsproject.org/materials/mp-1261478,-62.7780528735049,-22.17834358233203,-8.604250342815693,-0.5045126942092143
-7.882079495,-31.52831798,9.403612036340123,-0.3603769143750002,2.1000000000000002e-06,5.37346753241207e-07,0.0,38,4,45.5451454293789,257.921595,mp-1001614,LuCoC2,https://materialsproject.org/materials/mp-1001614,3.118836451053272,5.4591876794958765,-7.0428196530574345,3.485962946009518
-7.5049359225,-30.01974369,7.0695409473122375,-0.2563611187500001,7e-07,1.5302922960396358e-07,0.0,38,4,53.30906626076678,226.9568,mp-5383,NdNiC2,https://materialsproject.org/materials/mp-5383,-21.833529355451784,11.602328192807484,-8.604250342815693,-0.5045126942092143
-4.480119496666666,-13.44035849,5.460372884076688,0.7625334049999998,2.9299999999999997e-05,4.723336463027107e-06,0.0,216,3,72.29298622041429,237.72200000000004,mp-631394,CaZrPd,https://materialsproject.org/materials/mp-631394,14.432342602063944,45.98221067811056,-8.604250342815693,-0.5045126942092143
-6.89497290925,-275.79891637,6.60013888099512,-2.650979530679333,3.06299185,0.06544554098612479,0.0,53,40,545.4352562429038,2167.93966,mp-697820,BaLaMnInO6,https://materialsproject.org/materials/mp-697820,-32.54915893751268,-21.50685102749876,-4.387076523089732,-1.2011948152145546
-8.003182525416667,-192.07638061,4.367524116358876,-3.1274854877083333,2.0000001,0.06662231871126771,0.02700000000000013,115,24,349.8546907612178,920.1824,mp-1227464,CaCe3V4O16,https://materialsproject.org/materials/mp-1227464,-27.515823091067443,21.49927795257735,-8.604250342815693,-0.5045126942092143
-3.8346178868333336,-230.07707321,8.000100696219738,-0.7395132634999996,1.056e-05,8.333112145339148e-08,0.0,62,60,1476.8422871527512,7115.09138,mp-29561,CaSnAu,https://materialsproject.org/materials/mp-29561,-10.743193519540222,49.28748364918221,-8.604250342815693,-0.5045126942092143
-4.4276129275,-17.71045171,12.941046213043133,-0.42241420750000014,0.0,0.0,0.0,225,4,77.22588892723773,601.8430000000001,mp-865845,Yb2CuIr,https://materialsproject.org/materials/mp-865845,14.000880205340138,47.946593948864276,-8.604250342815693,-0.5045126942092143
-4.299473793846154,-55.89315932,3.7598149939369465,-2.1857643184246154,2.9999993,0.22204839044149188,0.3171,2,13,157.45300423173305,356.5072256,mp-753387,Li2Cu3F8,https://materialsproject.org/materials/mp-753387,-60.04151446263886,-17.777168420393238,-2.9520917007648118,-0.4923689998333727
-6.5015725192857134,-91.02201527,4.2467370814199015,-0.9949610188771416,3e-07,1.2527297306227053e-08,0.0,176,14,279.0880863049376,713.7524000000002,mp-12906,Sr3CrN3,https://materialsproject.org/materials/mp-12906,4.472186029720484,8.495762954196296,-11.340672316353727,-0.6132461476113279
-6.987411498356163,-1020.16207876,3.819105900479357,-2.637911040166986,53.99999895,0.3413127931561429,0.04420000000000002,1,146,1843.8203844107184,4240.6382144,mp-1247609,Ca16Mn14Al2O41,https://materialsproject.org/materials/mp-1247609,-31.139646966919543,-11.003805642100463,-8.604250342815693,-0.5045126942092143
-4.1794636125,-16.71785445,8.595552700839217,-0.8457035824999997,1.91e-05,2.440076752706554e-06,0.0,225,4,91.22362110494619,472.20656900000006,mp-1183466,Ca2PtAu,https://materialsproject.org/materials/mp-1183466,-11.868286542597144,49.97826040160146,-8.604250342815693,-0.5045126942092143
-3.727930695,-22.36758417,9.746909846013432,-0.2816198155555553,4.68e-05,5.906200691756777e-06,0.0,216,6,92.34536037981523,542.0419999999999,mp-569661,YbInCu4,https://materialsproject.org/materials/mp-569661,3.2043528943856265,42.007719247748696,-8.604250342815693,-0.5045126942092143
-5.113385311666667,-30.68031187,9.061570911164413,-0.6835687549999996,1e-07,1.0479048464132585e-08,0.0,186,6,111.21300576525556,606.89,mp-9390,ErCuGe,https://materialsproject.org/materials/mp-9390,-4.7835058133429245,56.729874855252845,-8.604250342815693,-0.5045126942092143
-4.397960154,-43.97960154,9.863035568162251,-0.39752405066666585,4.2000000000000004e-06,2.4561279194375e-07,0.0,127,10,199.28551626887787,1183.688,mp-1080814,Lu2InCu2,https://materialsproject.org/materials/mp-1080814,-7.710908329405904,54.69446154999818,-8.604250342815693,-0.5045126942092143
-4.89103598,-24.4551799,8.609896654085633,-0.4866082329999998,3e-07,4.1453933744813504e-08,0.0,139,5,84.33987117580453,437.30232,mp-4539,Ho(CuGe)2,https://materialsproject.org/materials/mp-4539,-3.252116671942088,57.8279878469765,-8.604250342815693,-0.5045126942092143
-4.181401425,-16.7256057,10.336635360046497,-0.6599260624999994,0.5731191,0.07446336812212809,0.0,225,4,89.6973543130167,558.354138,mp-1183717,CeMgAu2,https://materialsproject.org/materials/mp-1183717,-14.085676668156374,45.09418610536722,-8.604250342815693,-0.5045126942092143
-5.834516625,-70.0141995,4.458085719853052,-0.2789161291266673,0.0,0.0,0.014899999999999913,62,12,144.88635233646738,388.97958,mp-1245705,MgCoN,https://materialsproject.org/materials/mp-1245705,10.600644739881384,26.00426138378475,-8.604250342815693,-0.5045126942092143
-3.894967693333333,-11.68490308,5.6428385121824105,-0.5805048433333333,0.0,0.0,0.0,164,3,110.27819106987124,374.747,mp-567510,BaSn2,https://materialsproject.org/materials/mp-567510,8.237756362702504,33.857273663782664,-8.604250342815693,-0.5045126942092143
-6.9492355591666675,-83.39082671,5.5265024276844255,-0.4362350386899993,3.9999998999999997,0.3281357886487717,0.0,36,12,142.06392456242915,472.80829000000006,mp-1245903,MnGa2N3,https://materialsproject.org/materials/mp-1245903,-0.5184723922106655,9.927980224517805,-8.604250342815693,-0.5045126942092143
-4.394614553103448,-127.44382204,8.955365647206213,-0.18604523068965467,9e-06,2.3421636423675384e-07,0.0,225,29,447.81919186062635,2415.1101,mp-1192934,Tb6Cu23,https://materialsproject.org/materials/mp-1192934,3.748036284698242,44.29566640747664,-8.604250342815693,-0.5045126942092143
-4.849147895,-29.09488737,8.609615129160234,-0.6037630933333329,1.2e-06,1.0626201377490109e-07,0.0,186,6,131.60749763971472,682.3627,mp-1206421,TbCuSn,https://materialsproject.org/materials/mp-1206421,-5.8540623671080665,54.45710424956143,-8.604250342815693,-0.5045126942092143
-6.77867016125,-108.45872258,8.909931421924231,-0.7738834652343751,4.0,0.1363940937763431,0.022800000000000157,14,16,341.77622945081026,1833.864,mp-17336,NpCuSe2,https://materialsproject.org/materials/mp-17336,-14.170342521026072,22.096804026115013,-8.604250342815693,-0.5045126942092143
-4.771535431666667,-28.62921259,9.527580098911988,-0.5600159200000002,2e-07,1.871852105290009e-08,0.0,186,6,124.51907647644106,714.446,mp-13200,LuCuSn,https://materialsproject.org/materials/mp-13200,-5.51942432033347,54.506588655415285,-8.604250342815693,-0.5045126942092143
-4.419759277,-44.19759277,7.4024560792680045,-0.3161981196666666,2.6e-06,1.2895671882767458e-07,0.0,127,10,234.96696166057063,1047.4506,mp-1079498,Pr2InCu2,https://materialsproject.org/materials/mp-1079498,-7.649509468688568,55.087514092427405,-8.604250342815693,-0.5045126942092143
-7.04746630888889,-253.70878712,3.945613271058032,-2.589845701482964,26.999999,0.6672074681991675,0.0,8,36,471.60703709497164,1120.5873150000002,mp-1247603,SrCa7TiMn7O20,https://materialsproject.org/materials/mp-1247603,-30.459042767109512,-10.154075571617588,-8.604250342815693,-0.5045126942092143
-4.5820959850000005,-91.6419197,3.0302945881556806,0.1686351716666664,0.67917527,0.02001365047608677,0.0,38,20,395.4876996556977,721.72,mp-1094357,MgTi,https://materialsproject.org/materials/mp-1094357,-17.503923997059754,38.841830646707415,-8.604250342815693,-0.5045126942092143
-6.401632474545455,-281.67182888,5.916001240022683,-2.6027874498599997,4.001396700000001,0.06669252333042787,0.0,14,44,699.216853611399,2491.09938,mp-1208471,Sr3MnBiO6,https://materialsproject.org/materials/mp-1208471,-32.28967987502152,-11.033194337674407,1.5189719289428525,-0.5330670808494071
-4.2062816,-50.4753792,2.7444788767070145,-0.4219641289283332,0.0,0.0,0.0562999999999998,166,12,131.71821346156986,217.6991,mp-1222572,Li7Cu2N3,https://materialsproject.org/materials/mp-1222572,8.27535253647912,0.4790518301153384,-0.5275986521702396,-0.18794383510200693
-8.22870918175,-329.14836727,2.755872822630409,-0.8448919790589997,1.3e-06,2.6161712587183443e-08,0.732,100,40,579.1013930697216,961.0914,mp-1246631,Li3V6N11,https://materialsproject.org/materials/mp-1246631,33.6303352757935,-8.258257033061438,5.806912014099795,-5.3665598737470255
-6.960359388333334,-250.57293798,3.941573501035181,-2.5062976348822223,29.999999199999998,0.739798860180272,0.0,1,36,472.59052787448763,1121.7744699999998,mp-1247604,SrCa7Mn6Cr2O20,https://materialsproject.org/materials/mp-1247604,-30.44745010594105,-10.430082505423233,-8.604250342815693,-0.5045126942092143
-4.579351776499999,-91.58703553,3.0999806698697667,0.17137938016666682,0.0002677,8.069877710363157e-06,0.005100000000000549,38,20,386.5973254598222,721.72,mp-1094367,MgTi,https://materialsproject.org/materials/mp-1094367,-17.80071746100859,38.995818020176344,-8.604250342815693,-0.5045126942092143
-7.499501805185185,-404.97309748,6.954469789675648,-3.079751726296296,0.4632626,0.007257011147565448,0.0,2,54,743.9553608672093,3115.74432,mp-1178189,La8Cu3O16,https://materialsproject.org/materials/mp-1178189,-42.475772518488064,-4.197433911185756,-8.604250342815693,-0.5045126942092143
-6.8366275,-41.019765,8.782239411600065,-0.6582979173809527,0.0,0.0,0.0,129,6,72.82298017641119,385.145324,mp-1018823,NiPRh,https://materialsproject.org/materials/mp-1018823,14.131609609698266,26.53119059946125,-8.604250342815693,-0.5045126942092143
-4.541652155,-27.24991293,8.006830975457842,-0.2722502272222223,3e-07,3.6815623807247266e-08,0.0,216,6,94.96564420781776,457.90785,mp-1071645,YInCu4,https://materialsproject.org/materials/mp-1071645,2.799196920649208,41.601732374381406,-4.7301451544983895,-0.5860115290342559
-6.906302342894738,-262.43948903,4.52780601221538,-2.4886191551363157,27.999999900000002,0.7091204892273536,0.0,10,38,460.1669496559199,1254.74116,mp-1247670,Sr3Ca5Mn8O22,https://materialsproject.org/materials/mp-1247670,-36.0168328391511,6.1757466372189045,-8.604250342815693,-0.5045126942092143
-5.579521006428571,-156.22658818,4.139071819468684,-1.509809039714286,0.0,0.0,0.19409999999999966,59,28,354.58820229884384,883.84916,mp-752629,K(CoO2)2,https://materialsproject.org/materials/mp-752629,-73.56730279434406,-22.71877529299676,-0.7359046893393212,-1.71521438808226
-6.561190641666666,-118.10143155,5.400339615748021,-0.5854450227244443,9.865e-05,4.3417606443190075e-06,0.0,15,18,264.79430442977275,861.1536,mp-1245511,Sr3(FeN2)2,https://materialsproject.org/materials/mp-1245511,1.427731829824449,10.052151242928947,-8.604250342815693,-0.5045126942092143
-3.8468824077777777,-34.62194167,9.078548610718881,-0.6784086477777775,5.833333333333333e-06,3.258604901705466e-07,0.0,189,9,208.6231579379821,1140.590757,mp-1205820,TbMgAu,https://materialsproject.org/materials/mp-1205820,-14.143034655540744,45.445629120840884,-8.604250342815693,-0.5045126942092143
-3.9667953225,-15.86718129,11.640666154708185,-0.7843853212499998,0.0002141,2.9993614988768683e-05,0.0,225,4,83.18888099148273,583.168458,mp-864653,HoMgAu2,https://materialsproject.org/materials/mp-864653,-14.990082676405413,44.68647128626622,-8.604250342815693,-0.5045126942092143
-4.7237870016666665,-28.34272201,3.858543260172384,-0.4880891510416667,4.5e-07,4.960815936513984e-08,0.0,194,6,105.71505201495351,245.6468,mp-849079,NiS2,https://materialsproject.org/materials/mp-849079,16.35806513583008,10.153590085140667,-1.7559793254426954,-2.3778947839533022
-5.733846145,-22.93538458,9.930685237981073,-0.5695666474999994,9.000000000000001e-07,1.2763488701767512e-07,0.0,225,4,82.17704845738011,491.4515,mp-864960,Dy2CuRh,https://materialsproject.org/materials/mp-864960,-9.593598683571916,55.19182151864344,-8.604250342815693,-0.5045126942092143
-7.110658049166666,-85.32789659,7.134671413713358,-0.8751319441666657,0.614215025,0.02836103181207785,0.0,198,12,252.39214613415496,1084.428,mp-1213785,CeSiRh,https://materialsproject.org/materials/mp-1213785,7.7570097122035575,45.95934782956388,-8.604250342815693,-0.5045126942092143
-8.36219215875,-66.89753727,6.993450256748004,-0.08178528218750003,0.38126895,0.04959990055199753,0.0,194,8,89.58350701545662,377.2858,mp-19821,Cr2GeC,https://materialsproject.org/materials/mp-19821,-0.4916073148575848,17.382891286346766,-8.604250342815693,-0.5045126942092143
-4.416796151785714,-123.67029225,9.202196420419575,-0.25803862392857113,6e-07,1.6174385015402417e-08,0.0,62,28,432.31559387742465,2395.76,mp-1212997,DyCu5Sn,https://materialsproject.org/materials/mp-1212997,3.092536135285304,42.24067070122877,-8.604250342815693,-0.5045126942092143
-5.9095269677777775,-53.18574271,8.531328518501981,-0.4541293751587305,5.333333333333333e-07,5.428418414864672e-08,0.0,189,9,114.49930232002548,588.261486,mp-1087499,NiPPd,https://materialsproject.org/materials/mp-1087499,14.6789858261062,25.41441015517608,-8.604250342815693,-0.5045126942092143
-0.5406999886956522,-24.87219948,9.253749206679878,-0.1598313295052474,0.0,0.0,0.0,223,46,1582.8902278682074,8821.032711400001,mp-11027,Cs3Hg20,https://materialsproject.org/materials/mp-11027,-22.84331284682987,44.03058115762561,-8.604250342815693,-0.5045126942092143