energy_per_atom,energy,density,formation_energy_per_atom,total_magnetization_uB,total_magnetization_T,band_gap,sgr,num_sites,cell_volume,weight,mp_id,formula,URL,tsne_cry_lin1_0,tsne_cry_lin1_1,tsne_cry_lin2_0,tsne_cry_lin2_1
-7.6682276425,-153.36455285,8.914196662825708,-0.5638915130000001,3.7431053999999997,0.14759900114153246,0.0,72,20,295.54666660845845,1586.56981,mp-21178,U2Co3Si5,https://materialsproject.org/materials/mp-21178,22.458261957876054,65.60202065951638,-8.604250342815693,-0.5045126942092143
-7.1951277775,-28.78051111,9.276654919007807,-0.1094964537499994,1.7517762,0.3461510487977044,0.0,225,4,58.97804837725475,329.48277,mp-4583,NbCo2Sn,https://materialsproject.org/materials/mp-4583,45.21571017440122,45.28430176450893,-8.604250342815693,-0.5045126942092143
-4.98069464,-19.92277856,5.545312663999212,-0.4108884462499995,1.5e-06,2.933109591712821e-07,0.0,225,4,59.59919536668679,199.0294506,mp-16497,ScAlCu2,https://materialsproject.org/materials/mp-16497,33.02403848288979,67.61838727198464,-8.604250342815693,-0.5045126942092143
-7.1032156875,-28.41286275,8.391050375632865,0.022917883750000808,4.9992827,1.2027328541695037,0.0,225,4,48.44131778737137,244.78409,mp-1008277,CrCo2As,https://materialsproject.org/materials/mp-1008277,46.468048261555474,48.35289050446817,-12.43457207010886,-0.5948942329002284
-9.061621325,-108.73945590000001,7.296745682109213,-0.2146802661111096,2.3211987,0.1656285398301705,0.0,164,12,163.325716857245,717.6863599999999,mp-1215230,ZrTiMn4,https://materialsproject.org/materials/mp-1215230,53.446702463195045,60.19144492586668,-8.604250342815693,-0.5045126942092143
-7.50563618125,-60.04508945,8.322293320223432,-0.5125626612500005,1.0,0.12372084418051553,0.0,146,8,94.19645371604295,472.09400000000005,mp-1225125,Fe3Si4Ir,https://materialsproject.org/materials/mp-1225125,49.706758300246705,47.292904240789525,-8.604250342815693,-0.5045126942092143
-6.059667811000001,-60.59667811,12.406186058283875,-0.8667489889999999,3.5e-07,2.183140109323131e-08,0.0,129,10,186.83742069401757,1395.896,mp-1079316,Dy(GePt)2,https://materialsproject.org/materials/mp-1079316,6.398221866393127,67.79155924622162,-8.604250342815693,-0.5045126942092143
-4.44069114,-26.64414684,8.205903040451922,-0.1756337316666675,4.3933333333333335e-05,4.8607088142784145e-06,0.0,191,6,105.334825002705,520.5342,mp-19876,InNi,https://materialsproject.org/materials/mp-19876,33.23215707529479,73.66126909638498,-8.604250342815693,-0.5045126942092143
-6.9282175271428565,-193.99009076,7.982466785894327,-0.4811726046428565,5.33889635,0.1846299123481332,0.0,140,28,336.99763535370397,1619.99951,mp-1213148,ErCo9Si4,https://materialsproject.org/materials/mp-1213148,48.8917679656551,50.443608515890006,-8.604250342815693,-0.5045126942092143
-6.8873633538888885,-123.97254037,6.804270624554389,-0.373605193703704,0.0002562,9.347962303259003e-06,0.0,193,18,319.4034483524668,1308.79639,mp-1208283,Ti5CoSn3,https://materialsproject.org/materials/mp-1208283,36.433019937886435,62.13066987611682,-8.604250342815693,-0.5045126942092143
-2.453565165,-19.62852132,7.092565475284685,-0.31232944812499985,3.16e-05,2.304864451613852e-06,0.0,194,8,159.77878723194632,682.4540000000002,mp-862732,PmZn3,https://materialsproject.org/materials/mp-862732,-0.2555156614125998,93.0279787362945,-8.604250342815693,-0.5045126942092143
-4.2621424125,-34.097139299999995,7.134727046737356,-0.7113458700000006,1e-06,7.508964463113923e-08,0.0,63,8,155.20202325910094,666.8461543999999,mp-1080600,YbAl2Pd,https://materialsproject.org/materials/mp-1080600,3.817104295013584,65.08191790560363,-8.604250342815693,-0.5045126942092143
-6.467133229444443,-116.40839813,8.282591167195772,-0.5430816561111114,3.247321633333333,0.14620343843379685,0.0,6,18,258.84819849389226,1291.107135,mp-1221623,MnSi2Pd3,https://materialsproject.org/materials/mp-1221623,52.06782133416878,47.16237021867938,-8.604250342815693,-0.5045126942092143
-2.781427198333333,-33.37712638,2.0169391592085137,0.09656849666666703,0.00011015,5.082480979996118e-06,0.0,4,12,252.57256047782207,306.782,mp-1074751,Mg2Si,https://materialsproject.org/materials/mp-1074751,-12.500080921876448,93.79612589239916,-8.604250342815693,-0.5045126942092143
-8.701526978888888,-156.62748562,6.365250447042848,-0.5948131673809516,1.9595893,0.09855369412465348,0.0,11,18,231.72323303203441,888.2515720000001,mp-18686,ZrCr5P3,https://materialsproject.org/materials/mp-18686,14.589105033360731,26.32212396958445,-8.604250342815693,-0.5045126942092143
-6.955017670344827,-201.69551244,7.679282499930119,-0.2820743634482763,18.1436717,0.7382960653782913,0.0,225,29,286.39936621566017,1324.4745158,mp-505537,Al3(Co10B3)2,https://materialsproject.org/materials/mp-505537,39.2873232170428,89.54593459867344,-8.604250342815693,-0.5045126942092143
-6.8607898800000005,-123.49421784,4.636139090730691,-0.4011823344444447,0.3219609666666667,0.016230480469480432,0.0,3,18,231.17947535963364,645.4411349999999,mp-1216867,TiMnSi4,https://materialsproject.org/materials/mp-1216867,50.21270403858455,52.91818933484498,-8.604250342815693,-0.5045126942092143
-7.390764571666666,-88.68917486,7.480963476873468,-1.0071042133333326,0.0,0.0,0.1227999999999998,62,12,200.41945045631172,902.918,mp-1103414,ZrSiPd,https://materialsproject.org/materials/mp-1103414,44.86503976994232,57.28874999602686,-8.604250342815693,-0.5045126942092143
-5.546652786666668,-16.63995836,8.66089832181595,-0.06766064777777814,3.5003739,0.617213471746727,0.0,187,3,66.09315257382619,344.723045,mp-1222265,LuMnIn,https://materialsproject.org/materials/mp-1222265,1.1971351359771325,55.75539754007889,-8.604250342815693,-0.5045126942092143
-3.275122595,-13.10049038,7.741539460481682,-0.3083410933333335,3.78e-05,5.101958433388538e-06,0.0,225,4,86.3440292888032,402.5414,mp-862680,DyMgAg2,https://materialsproject.org/materials/mp-862680,20.69090929487452,61.2850819872924,-8.604250342815693,-0.5045126942092143
-4.28816592,-25.72899552,10.30550548128378,-0.4117956783333335,2.1000000000000002e-06,2.7293128663545e-07,0.0,123,6,89.66922159812431,556.498,mp-1215509,ZnPd2,https://materialsproject.org/materials/mp-1215509,41.65731646857946,41.857520617960034,-8.604250342815693,-0.5045126942092143
-1.5389136291666663,-18.46696355,3.2278815840603445,-0.04508138083333317,5e-08,2.4835832171024617e-09,0.0,12,12,234.62199076534702,456.07599999999996,mp-1094503,Mg2Zn,https://materialsproject.org/materials/mp-1094503,1.5487166371881649,99.45742708211952,-8.604250342815693,-0.5045126942092143
-2.46043185625,-39.3669097,7.911658661172787,-0.3489455649999997,0.001217875,4.760185865652879e-05,0.0,62,16,298.16470481314883,1420.6094000000005,mp-1188983,TbZn3,https://materialsproject.org/materials/mp-1188983,-0.4220064640886135,93.409355871928,-8.604250342815693,-0.5045126942092143
-6.6988899275,-26.79555971,8.331485946480052,-0.09539623250000062,4.8e-06,1.236302276751277e-06,0.0,123,4,45.247438235965156,227.0217,mp-1216314,VNi3,https://materialsproject.org/materials/mp-1216314,36.95864190161927,80.6971321478312,-8.604250342815693,-0.5045126942092143
-6.440904706153847,-83.73176118,8.460904031055447,-0.16916617461538516,13.367713,0.7132900763803441,0.0,191,13,218.40790769661305,1112.84848,mp-6072,TmMn6(GaSn2)2,https://materialsproject.org/materials/mp-6072,46.373033796112956,40.905497552483055,-8.604250342815693,-0.5045126942092143
-8.730529392000001,-43.65264696,13.855595257456546,-0.7561925249999988,0.0107539,0.0015409337328704984,0.0,139,5,81.3316267171122,678.63391,mp-20260,U(SiIr)2,https://materialsproject.org/materials/mp-20260,22.897340303587303,63.26768325600282,-8.604250342815693,-0.5045126942092143
-7.7571601314,-775.71601314,4.538689101010782,0.1399672219333331,7.999999999999999e-09,5.3236874352683176e-11,0.006299999999999528,1,100,1751.2770859316715,4786.7,mp-1245164,Ti,https://materialsproject.org/materials/mp-1245164,59.70922341456573,55.210569571418475,-8.604250342815693,-0.5045126942092143
-7.262517000833332,-87.15020401,9.928450845551907,-0.5206656777083332,0.000102,5.292700874649928e-06,0.0,166,12,224.59508575188718,1342.86591,mp-569100,LaRh3,https://materialsproject.org/materials/mp-569100,32.01154215958413,65.11157199833785,-8.604250342815693,-0.5045126942092143
-8.3550590875,-100.26070905,9.920289418851164,-0.5176203991666668,1.425e-06,8.041612464861021e-08,0.0,38,12,206.5138350481873,1233.7421544000001,mp-1215317,ZrAlOs,https://materialsproject.org/materials/mp-1215317,33.169960661565945,59.50436430342626,-8.604250342815693,-0.5045126942092143
-7.6141615425,-30.45664617,10.894011169885145,-0.5757445574999993,1.5e-06,2.789960760235248e-07,0.0,225,4,62.65714345518445,411.06388,mp-866072,MgTaRh2,https://materialsproject.org/materials/mp-866072,38.917885142485204,55.22086603131621,-8.604250342815693,-0.5045126942092143
-3.7610398505,-75.22079701,2.2969170291754426,0.1358844325,0.00070235,2.130353849045357e-05,0.0,2,20,384.21938199023714,531.466,mp-1073035,Mg2Si3,https://materialsproject.org/materials/mp-1073035,-13.890862171262574,87.80320238320026,-8.604250342815693,-0.5045126942092143
-6.8685705475,-27.47428219,6.78012723272113,0.057770028333332675,0.0002723,4.8805142030297e-05,0.0461999999999998,216,4,65.02187485896539,265.490045,mp-1018041,Ti2MnIn,https://materialsproject.org/materials/mp-1018041,35.19937734144273,59.41397157088358,-8.604250342815693,-0.5045126942092143
-6.5598438375,-26.23937535,6.799138632379385,-0.5968093125000005,5e-07,1.0127239355275433e-07,0.0,225,4,57.538211370944396,235.5923386,mp-3944,ZrAlNi2,https://materialsproject.org/materials/mp-3944,32.156878040988595,75.51712643539146,-8.604250342815693,-0.5045126942092143
-5.92749707875,-47.41997663,8.66011320569575,-0.9457095462499998,2.1000000000000002e-06,1.8909821128822886e-07,0.0,139,8,129.4223560109307,674.9689272,mp-1078938,YAl2Pd5,https://materialsproject.org/materials/mp-1078938,64.26440268927097,49.336514608251534,-8.604250342815693,-0.5045126942092143
-9.5754803475,-38.30192139,14.249902190056595,-0.3410042587499991,0.9209272,0.2004436451765642,0.0,225,4,53.54395361428439,459.487,mp-865506,VSiOs2,https://materialsproject.org/materials/mp-865506,41.15789553523396,53.0775131850293,-8.604250342815693,-0.5045126942092143
-6.061842294545454,-133.36053048,9.101276172476975,-0.6779871313636363,3.825e-05,1.3422671173467828e-06,0.0,229,22,332.10079557900787,1820.2168,mp-1192164,Er3(SiNi3)2,https://materialsproject.org/materials/mp-1192164,18.479171327857586,76.23779439723675,-8.604250342815693,-0.5045126942092143
-6.100500028333332,-36.60300017,9.707310122269568,-0.13428676222222197,4.5128492,0.5992633402949604,0.0,216,6,87.7628136900676,513.05078,mp-1024940,DyInCo4,https://materialsproject.org/materials/mp-1024940,43.19781799697922,45.526352671997174,-8.604250342815693,-0.5045126942092143
-6.1396423725,-24.55856949,8.819942909761522,-0.4851125762500006,1.64e-05,2.247941907071815e-06,0.0,225,4,85.02295440496586,451.5989,mp-863714,Pm2NiRh,https://materialsproject.org/materials/mp-863714,15.03672167038923,50.97743223261828,-8.604250342815693,-0.5045126942092143
-6.6010164025,-26.40406561,15.06282459996748,-0.4790606674999998,6.900000000000001e-06,1.57486812044588e-06,0.0,225,4,51.060178237588026,463.169182,mp-867116,BeGaIr2,https://materialsproject.org/materials/mp-867116,39.572140710988215,52.19442623497379,-8.604250342815693,-0.5045126942092143
-10.078858075833333,-120.94629691,9.184702200374254,-0.3240328491666678,3.25e-07,1.823459241010604e-08,0.0,194,12,207.7135022213461,1148.896,mp-1095545,ZrTc2,https://materialsproject.org/materials/mp-1095545,66.25671491541235,59.809150425358354,-8.604250342815693,-0.5045126942092143
-8.140391826,-40.70195913,5.0572978947351315,0.10465082866666647,0.4302323,0.06272128595081619,0.0,69,5,79.94024700608178,243.4641,mp-1217156,Ti4Cr,https://materialsproject.org/materials/mp-1217156,59.64038454135622,55.023048662662276,-8.604250342815693,-0.5045126942092143
-5.55193413,-33.31160478,8.337011344561244,-0.1792793933333338,0.01685795,0.0017335699728665743,0.0,194,6,113.32893641882065,568.9866999999998,mp-1208368,TbGaFe,https://materialsproject.org/materials/mp-1208368,23.532784668597227,79.5345272691133,-8.604250342815693,-0.5045126942092143
-4.2496132654545455,-46.74574592,7.678577242387308,-0.4390616409090908,0.006,0.0003444818753043419,0.0,123,11,202.98423124172072,938.6289999999999,mp-1102259,Dy2Ga8Fe,https://materialsproject.org/materials/mp-1102259,16.672473632855567,82.99122889316605,-8.604250342815693,-0.5045126942092143
-6.237804124166666,-74.85364949,9.556933308398731,-0.5182339019444449,3.685e-05,2.938563631401144e-06,0.0,191,12,146.143606447636,841.1031999999999,mp-1101842,LuNi4B,https://materialsproject.org/materials/mp-1101842,30.444086553997913,85.07235888178289,-8.604250342815693,-0.5045126942092143
-6.1055081295,-122.11016259,7.532837625978282,-0.7541988390000007,1.86e-05,7.377474688591446e-07,0.0,72,20,293.8208722082332,1332.8834000000004,mp-1105977,Lu2Si5Ni3,https://materialsproject.org/materials/mp-1105977,14.514132452801045,73.07362503811603,-8.604250342815693,-0.5045126942092143
-6.633075635,-26.53230254,5.8014136660011175,-0.1746454312499992,0.0039453000000000005,0.0006094848575174058,0.0,225,4,75.43875976585144,263.559869,mp-1018017,Sc2MnSn,https://materialsproject.org/materials/mp-1018017,25.64422471055541,67.5075017460547,-6.733353976685723,-0.5959775278968243
-8.99305718125,-71.94445745,11.030292313675599,-0.24189648750000006,0.0018269000000000002,0.0001489499171551703,0.0,200,8,142.93939425833554,949.4888489999997,mp-1220356,Nb6PtAu,https://materialsproject.org/materials/mp-1220356,26.204861932849003,61.00233164277125,-8.604250342815693,-0.5045126942092143
-5.105694640833334,-61.26833569,10.347337977777087,-0.6433771241666667,0.0,0.0,0.0,62,12,181.38264885798938,1130.252,mp-1869,GaPd2,https://materialsproject.org/materials/mp-1869,41.79635428213095,40.82553696231919,-8.604250342815693,-0.5045126942092143
-7.3216502483333326,-87.85980298,7.147470456941663,-0.774129228333333,1.905e-05,1.0804514834348177e-06,0.0,38,12,205.47885520179005,884.4441544000001,mp-1215326,ZrAlRh,https://materialsproject.org/materials/mp-1215326,33.31861177536526,59.40008890115099,-8.604250342815693,-0.5045126942092143
-1.4571596633333332,-17.48591596,4.024819886098142,-0.01857877083333322,5e-08,2.6238156642355492e-09,0.0,38,12,222.08238428127368,538.2840000000001,mp-1094488,MgZn,https://materialsproject.org/materials/mp-1094488,2.070304574236655,98.90154639602041,-8.604250342815693,-0.5045126942092143
-6.080579763666665,-182.41739291,8.39430288637352,-0.26267383933333216,6.88688505,0.1481812720654249,0.0,186,30,541.6352777592338,2738.05702,mp-1209618,Pr3(Co2Sn)4,https://materialsproject.org/materials/mp-1209618,25.869887985031628,72.8167525309881,-8.604250342815693,-0.5045126942092143
-7.885182736153847,-102.50737557,8.450327323956985,-0.7376872714285707,0.0,0.0,0.0,87,13,199.27798218125236,1014.106948,mp-10388,Nb5(PPd)4,https://materialsproject.org/materials/mp-10388,46.229818122955145,61.35582334064239,-8.604250342815693,-0.5045126942092143
-8.201408023333334,-49.20844814,12.466731741792874,-0.8334814533333331,0.0,0.0,0.0,194,6,116.64090842990112,875.6981199999999,mp-568337,ThRh2,https://materialsproject.org/materials/mp-568337,29.477859744752607,62.58176901523813,-8.604250342815693,-0.5045126942092143
-7.564160565,-30.25664226,13.453593194172802,-0.7914456937499992,0.0,0.0,0.0,225,4,61.60409816041293,499.11291200000005,mp-867916,ScGaIr2,https://materialsproject.org/materials/mp-867916,41.636764165867476,52.09048191847821,-8.604250342815693,-0.5045126942092143
-6.78663921,-27.14655684,9.894489668123503,-0.7696884793749996,2e-05,2.7246211731320183e-06,0.0,225,4,85.54631291485606,509.73635,mp-980059,TbPmRh2,https://materialsproject.org/materials/mp-980059,15.688766865366182,50.94796448927718,-8.604250342815693,-0.5045126942092143
-7.3260413758333325,-175.82499302,8.178554551334036,-0.23177348833333275,3.2634011000000003,0.12681627780694654,0.0,141,24,299.89752463905927,1477.06751,mp-1192337,EuCo9Si2,https://materialsproject.org/materials/mp-1192337,48.8757381146586,50.45380605812972,-8.604250342815693,-0.5045126942092143
-3.680112631428572,-51.52157684,10.667783866011668,-0.8575630457142859,4.145e-05,1.2360215146474146e-06,0.0,15,14,390.8192366379613,2510.736,mp-1104662,Yb5Pt2,https://materialsproject.org/materials/mp-1104662,-27.32219818469595,69.9981381399614,-8.604250342815693,-0.5045126942092143
-5.299124291428571,-74.18774008,9.072258310904383,-0.7178969657142845,0.0001307,5.102536743239233e-06,0.0,63,14,298.5154918858243,1630.922,mp-1104514,Lu3Ge4,https://materialsproject.org/materials/mp-1104514,1.5382053760758334,73.63063025377788,-8.604250342815693,-0.5045126942092143
-10.01948096625,-80.15584773,11.448965728337882,0.01221965999999952,1.25e-06,1.4505229019036892e-07,0.0,223,8,100.42985840886,692.4366,mp-416,Cr3Os,https://materialsproject.org/materials/mp-416,43.95945001578183,53.47147659023384,-8.604250342815693,-0.5045126942092143
-4.327731814285714,-60.588245400000005,9.659319621639463,-0.6000069053571424,0.0,0.0,0.0,146,14,209.7410252441256,1220.0590000000002,mp-30662,Zn3Ga4Pd7,https://materialsproject.org/materials/mp-30662,41.742312946653925,40.791889913366866,-8.604250342815693,-0.5045126942092143
-5.002041143928572,-140.05715203,8.744697212901896,-0.1984999553571427,6.99904305,0.17158233706008613,0.0,72,28,475.38285378447677,2503.451600000001,mp-1213431,EuIn6Ni7,https://materialsproject.org/materials/mp-1213431,32.564189002737834,73.68714192061482,-8.604250342815693,-0.5045126942092143
-6.659611544594594,-492.81125430000003,13.940503087863865,-0.8937575478378375,0.03323975,0.00031158813071483144,0.0,225,74,1243.2379841779766,10437.1909,mp-1198014,Pr3Si11Pt23,https://materialsproject.org/materials/mp-1198014,60.486029409600576,43.71117708113193,-8.604250342815693,-0.5045126942092143
-6.988420494750001,-279.53681979,7.1762625254008165,-0.6323514802499993,0.067692425,0.001325322088608521,0.0,128,40,595.2454217298308,2572.4402200000004,mp-505330,Tm2Mn3Si5,https://materialsproject.org/materials/mp-505330,21.201300717267124,46.91444656918312,-8.604250342815693,-0.5045126942092143
-7.032387986923077,-91.42104383,8.213809899733294,-0.3201276803846145,11.571225,0.7151508323589459,0.0,191,13,188.5641455566085,932.72727,mp-3453,Er(MnGe)6,https://materialsproject.org/materials/mp-3453,49.884499417608424,45.52297299634442,-8.604250342815693,-0.5045126942092143
-5.005999138571427,-70.08398794,7.660770633447775,-0.31801711428571416,0.0,0.0,0.0,140,14,242.68898845874344,1119.6272,mp-18127,Sr(Ni2Sn)2,https://materialsproject.org/materials/mp-18127,27.619525041175685,78.67200710528611,-8.604250342815693,-0.5045126942092143
-8.900462205,-373.81941261,11.0409760332284,-0.5554295587499983,0.0,0.0,0.0,58,42,822.3142774516116,5467.59336,mp-21656,Ta11(FeSe4)2,https://materialsproject.org/materials/mp-21656,39.39590953819269,65.59465526153117,-8.604250342815693,-0.5045126942092143
-6.744791667837838,-499.11458342,13.956961097732366,-0.8856423920270262,2.535247,0.0238041975192798,0.0,225,74,1241.2068387731795,10432.441,mp-568452,Ce3Si11Pt23,https://materialsproject.org/materials/mp-568452,60.49255434931261,43.69909574364423,-8.604250342815693,-0.5045126942092143
-8.325578084090909,-183.16271785,8.042666495437972,-0.2833294144154557,37.9327217,1.6354020197891097,0.0,166,22,270.31298135995155,1309.2358,mp-1191945,Tb2Fe17N3,https://materialsproject.org/materials/mp-1191945,61.449680637155524,75.30290547176995,-8.604250342815693,-0.5045126942092143
-4.652499743333333,-27.91499846,5.80305403098091,-0.1992237975000002,4e-07,5.4456077274168706e-08,0.0,216,6,85.60340998405192,299.1566,mp-13434,CaMgNi4,https://materialsproject.org/materials/mp-13434,31.669121250462194,73.27786964972267,-8.604250342815693,-0.5045126942092143