energy_per_atom,energy,density,formation_energy_per_atom,total_magnetization_uB,total_magnetization_T,band_gap,sgr,num_sites,cell_volume,weight,mp_id,formula,URL,tsne_cry_lin1_0,tsne_cry_lin1_1,tsne_cry_lin2_0,tsne_cry_lin2_1
-7.524745215,-45.14847129,10.129545893108036,-0.6617186433333337,1.53751055,0.14090223096465532,0.0,129,6,127.16794770047741,775.74422,mp-1657,UAs2,https://materialsproject.org/materials/mp-1657,32.468915404219196,44.49137328353743,-8.604250342815693,-0.5045126942092143
-4.87074265,-48.707426500000004,10.154646358454603,-0.8252676909999999,4.1899999999999995e-05,2.2515698316992834e-06,0.0,127,10,216.873270859968,1326.23884,mp-1207238,Tm2CdPd2,https://materialsproject.org/materials/mp-1207238,11.003016890605581,46.67159238637078,-8.604250342815693,-0.5045126942092143
-7.768668228333333,-46.61200937,10.26889613679843,0.06622929833333302,0.0537998,0.007493301770812567,0.0,191,6,83.6729085692177,517.43945,mp-1217368,ThFe3Co2,https://materialsproject.org/materials/mp-1217368,44.241245448984785,76.40134522620447,-8.604250342815693,-0.5045126942092143
-7.374594433863637,-324.48215509,4.890589438400008,-1.1062873259262345,0.0,0.0,0.0,167,44,941.9524305239497,2774.2212,mp-15905,Rb2Mo9S11,https://materialsproject.org/materials/mp-15905,67.11908364885244,33.36754774949901,-8.604250342815693,-0.5045126942092143
-9.26275300875,-74.10202407,8.476290518415016,-0.4923181820833325,2.5e-08,3.4829098680086172e-09,0.0,141,8,83.65178266314857,427.004,mp-1890,BMo,https://materialsproject.org/materials/mp-1890,21.630324050164646,36.648395238598255,-8.604250342815693,-0.5045126942092143
-4.789295053333333,-57.47154064,11.195480822782958,-0.6460466533333337,7.5e-08,2.796431352505356e-09,0.0,62,12,312.56081332334537,2107.308836,mp-30385,Ho2Au,https://materialsproject.org/materials/mp-30385,-31.51133771254612,41.68517807605652,-8.604250342815693,-0.5045126942092143
-4.7347868433333336,-28.40872106,5.522303429864865,-0.2890950083333337,7.2999999999999996e-06,9.075197790385029e-07,0.0,129,6,93.74415280493444,311.75639,mp-1018808,MgCoGe,https://materialsproject.org/materials/mp-1018808,45.709054830685425,50.735565337513826,-8.604250342815693,-0.5045126942092143
-6.42157164,-25.68628656,1.19721674324443,3.7463874725,3.9999997000000005,0.06910691300389586,0.0,71,4,674.5527121344775,486.33954500000004,mp-1097345,MnVOs2,https://materialsproject.org/materials/mp-1097345,7.101752351065644,24.055055870676256,-8.604250342815693,-0.5045126942092143
-4.6419492925,-74.27118868,9.07230089647157,-0.4154601762499999,0.00484325,0.0001176725978754926,0.0,140,16,479.66604144680906,2620.639776,mp-569081,Tb5SbAu2,https://materialsproject.org/materials/mp-569081,-7.155303144585049,31.98178231410472,-8.604250342815693,-0.5045126942092143
-6.132391535357143,-171.70696299,4.490017663881538,-1.7220594408857142,19.000001,0.8151237214301105,0.0,8,28,271.64863015421935,734.524825,mp-756534,Li4Mn5Ni3O16,https://materialsproject.org/materials/mp-756534,-69.42720105063539,-29.7645860789629,-8.604250342815693,-0.5045126942092143
-7.901203709000001,-79.01203709,6.77155693621345,-0.23665667595199974,5.79322435,0.6833941139360485,0.0,59,10,98.793083581033,402.87098,mp-1247503,Mn2CuN2,https://materialsproject.org/materials/mp-1247503,2.7765962997163,17.9467939550236,-8.604250342815693,-0.5045126942092143
-6.9534528873333326,-104.30179331,7.154170724151772,-0.5006845152499996,0.0,0.0,0.0,148,15,328.3211672502113,1414.52,mp-22721,Mo6PbSe8,https://materialsproject.org/materials/mp-22721,63.29198832261222,33.244453102120325,-8.604250342815693,-0.5045126942092143
-6.51355792,-26.05423168,1.2916336215149324,4.0204877450000005,0.9737515999999999,0.017043813009398414,0.0,71,4,665.8230885615768,517.9038049999998,mp-1093886,Ta2MnRu,https://materialsproject.org/materials/mp-1093886,-57.864447554548846,40.080051647492546,-8.604250342815693,-0.5045126942092143
-7.748042536666666,-23.24412761,7.843574688713878,-0.08368713500000051,5.16e-05,1.2516826409404386e-05,0.0,216,3,48.043307672004005,226.9331,mp-1100404,VAsRu,https://materialsproject.org/materials/mp-1100404,46.446680340109474,54.20331368175786,-8.604250342815693,-0.5045126942092143
-7.0142017025,-28.05680681,8.02435259990791,-0.8027685125000001,1.95e-05,3.4174971645569883e-06,0.0,225,4,66.4972791848309,321.3400000000001,mp-864910,MgZrRh2,https://materialsproject.org/materials/mp-864910,38.551118189186504,55.7632437827081,-8.604250342815693,-0.5045126942092143
-8.504226697241378,-246.62257422,7.685775013689859,-0.43480086637931015,4.8672473,0.15935255324726294,0.0,225,29,355.9605048200918,1647.5567800000001,mp-542995,Nb6Fe16Si7,https://materialsproject.org/materials/mp-542995,49.69412754039021,64.28707889618491,-8.604250342815693,-0.5045126942092143
-6.057686006,-121.15372012,8.407802542773787,-0.7920232632500003,0.0909432,0.0017226531615809695,0.0,186,20,615.2474375347637,3115.18058,mp-1189501,La7Pt3,https://materialsproject.org/materials/mp-1189501,-28.71910495000589,64.57552990758072,-8.604250342815693,-0.5045126942092143
-7.647680682777778,-275.31650458,7.018669701625978,-0.8445035027777786,0.000420325,6.9322442078413776e-06,0.0,92,36,706.6246699712688,2986.7200000000007,mp-1200749,Zr5Ge4,https://materialsproject.org/materials/mp-1200749,3.742609711629109,78.86327400652775,-8.604250342815693,-0.5045126942092143
-7.917986931666667,-95.01584318,10.172663509359996,-0.15227566083333366,0.0098911,0.0005096737917411676,0.0,194,12,226.16725038591858,1385.5279999999998,mp-1102217,NdRu2,https://materialsproject.org/materials/mp-1102217,29.582322112467214,63.944565588053514,-8.604250342815693,-0.5045126942092143
-3.37552220125,-27.00417761,11.716340017185944,-0.20558982937500006,6.0599999999999996e-05,3.983135749095168e-06,0.0,25,8,177.30661712384526,1251.030276,mp-1223891,In3SnAu4,https://materialsproject.org/materials/mp-1223891,32.7464519159748,39.49284404778453,-8.604250342815693,-0.5045126942092143
-8.904741105000003,-53.42844663,12.848548185777364,-0.34250373833333353,1.55e-06,1.6812483198781268e-07,0.0,140,6,107.44278631473644,831.3468,mp-861,Hf2Ni,https://materialsproject.org/materials/mp-861,24.555929761136927,57.9098153250908,-8.604250342815693,-0.5045126942092143
-5.550182327000001,-55.50182327,9.449010890254693,-0.5948226859999999,1.665e-05,9.83923054792269e-07,0.0,127,10,197.2107244748784,1122.1936,mp-1079840,Dy2Ni2Sn,https://materialsproject.org/materials/mp-1079840,3.3018693219716733,57.39522847696568,-8.604250342815693,-0.5045126942092143
-8.02127108,-32.08508432,13.69656587138334,-0.8410443924999997,0.0130006,0.0019276261682183247,0.0,225,4,78.59917912516084,648.30685,mp-1187861,YLuIr2,https://materialsproject.org/materials/mp-1187861,17.20650316073992,49.768463721843034,-8.604250342815693,-0.5045126942092143
-5.879344918888888,-52.91410427,8.989834012531684,-0.7187717127777778,0.00037769999999999997,2.6383640669339952e-05,0.0,12,9,166.83596929482883,903.21735,mp-1078740,Ho3(CoGe2)2,https://materialsproject.org/materials/mp-1078740,19.20575682605046,68.79328985124559,-8.604250342815693,-0.5045126942092143
-5.9309361625,-23.72374465,12.809566821839947,0.07218484749999997,6.5e-07,9.135758201119682e-08,0.0,194,4,82.91749776428397,639.634,mp-10187,TeIr,https://materialsproject.org/materials/mp-10187,52.259971005414364,31.6634671814617,-8.604250342815693,-0.5045126942092143
-6.441281331000002,-64.41281331,7.733478239083526,-0.5152982801666667,3.55e-06,3.329276451535561e-07,0.0,15,10,124.26703082438509,578.7376,mp-1078891,Sm(NiB)2,https://materialsproject.org/materials/mp-1078891,-25.11163270210634,46.48104308928813,-8.604250342815693,-0.5045126942092143
-6.342122159600001,-158.55305399,6.988782226603616,0.34984743898333365,1.0123621999999999,0.028026892215370056,0.0,166,25,420.9576488691418,1771.7026,mp-1215809,Zr12Ti4Ni8O,https://materialsproject.org/materials/mp-1215809,9.9554538799959,57.61642230323999,-8.604250342815693,-0.5045126942092143
-6.302300835357142,-176.46442339,4.50797845728056,-1.8433231301028576,17.9999987,0.7726466174750255,0.0,8,28,271.4994746774657,737.05812,mp-774451,Li4Mn3Fe2Co3O16,https://materialsproject.org/materials/mp-774451,-69.37313823251921,-30.02314649640049,-8.604250342815693,-0.5045126942092143
-7.186761175263157,-136.54846233,8.248702600300112,-0.3448382521052637,6.5984103,0.4087371329615116,0.0,166,19,188.13632242061576,934.56434,mp-1106057,Dy(Co2B)6,https://materialsproject.org/materials/mp-1106057,39.004232739172394,88.01394815563471,-8.604250342815693,-0.5045126942092143
-8.223619313499999,-164.47238627,13.904986673229974,-0.8165430878333325,6.585e-05,2.9706095259649083e-06,0.0,127,20,258.3376100309864,2163.262012,mp-1208984,Sc2BeB2Ir5,https://materialsproject.org/materials/mp-1208984,29.657008683366765,49.68478645939099,-8.604250342815693,-0.5045126942092143
-5.39640312,-21.58561248,0.6759651850349991,3.2963511058333332,0.0006041,8.477824367971545e-06,0.08259999999999977,71,4,830.42773989287,338.04699999999997,mp-1096589,HfTiFe2,https://materialsproject.org/materials/mp-1096589,-60.609913581356494,35.467534390812176,-8.604250342815693,-0.5045126942092143
-9.715453845,-38.86181538,8.910971406844562,-0.5355688700000005,2.57e-05,4.212806169043157e-06,0.0,225,4,71.09500238953812,381.51800000000003,mp-1188003,Zr2TcRu,https://materialsproject.org/materials/mp-1188003,39.53918889228859,59.647299598100865,-8.604250342815693,-0.5045126942092143
-8.299382578888887,-74.69444321,14.02485840191524,-0.6902318638888877,3e-07,2.0111653205442667e-08,0.0,189,9,173.84047925119114,1468.2510000000002,mp-1079038,HfSnIr,https://materialsproject.org/materials/mp-1079038,32.12001651222466,53.88676965647074,-8.604250342815693,-0.5045126942092143
-7.179049086666668,-86.14858904,4.008297684576105,-2.463394878203126,0.0,0.0,0.0,12,12,277.1437033094511,668.98425,mp-15670,Y5S7,https://materialsproject.org/materials/mp-15670,47.25445977376447,17.865010340863652,-4.823913920569948,-0.9722522003263766
-7.182179446842105,-136.46140949,8.28170326496632,-0.3422582450000002,6.6903763,0.4139838835253427,0.0,166,19,188.34085541937569,939.32334,mp-1188589,Er(Co2B)6,https://materialsproject.org/materials/mp-1188589,39.007404905371054,88.0185025339991,-8.604250342815693,-0.5045126942092143
-4.4986693075,-71.97870892,9.69035697298752,-0.3145808456249997,0.0624082,0.001499327230837546,0.0,140,16,485.0903726550569,2830.827076,mp-567961,Dy5BiAu2,https://materialsproject.org/materials/mp-567961,-7.213054018488282,31.97203828480982,-8.604250342815693,-0.5045126942092143
-10.0993890375,-80.7951123,11.916598481945266,-0.16789669885416636,0.0,0.0,0.0,63,8,84.33311522271626,605.2034,mp-1228641,BMoWC,https://materialsproject.org/materials/mp-1228641,4.375145452601231,22.71851528152792,-8.604250342815693,-0.5045126942092143
-6.780467962222222,-61.02421166,7.816091466682822,-0.5510729788888887,9.516666666666667e-05,7.913989318057281e-06,0.0,189,9,140.14152066030164,659.640585,mp-1079246,ZrGaCo,https://materialsproject.org/materials/mp-1079246,40.54146048195807,45.297973800532674,-8.604250342815693,-0.5045126942092143
-5.148086495,-20.59234598,0.8429027959305581,3.04978558125,0.23248310000000003,0.004208689962614488,0.0,71,4,643.7568768411674,326.7761,mp-1096447,CrGeRu2,https://materialsproject.org/materials/mp-1096447,7.119045919368577,25.06504943491939,-8.604250342815693,-0.5045126942092143
-6.246551904375,-99.94483047,9.269317482158668,-0.4933333512499996,5e-08,1.2640800618979172e-09,0.0,62,16,460.9701997459728,2573.188,mp-7342,Sm3Ir,https://materialsproject.org/materials/mp-7342,-31.96611123080736,67.81361303581996,-8.604250342815693,-0.5045126942092143
-8.907884715,-35.63153886,11.818759673257999,-0.2377399712500008,0.0001349,2.2687629453301898e-05,0.0,225,4,69.29473795639315,493.2,mp-865039,HfTc2Sn,https://materialsproject.org/materials/mp-865039,56.29637154358584,43.812765452876135,-8.604250342815693,-0.5045126942092143
-9.1526388625,-36.61055545,14.861833153085218,-1.0157734825000002,0.0,0.0,0.0,63,4,94.80554421394434,848.5101199999999,mp-12774,ThIr,https://materialsproject.org/materials/mp-12774,13.026967350047144,53.19273186680916,-8.604250342815693,-0.5045126942092143
-6.6889294235294114,-113.71180020000001,10.686605007651528,-0.9672518970588232,1.9e-06,7.677730135150932e-08,0.13680000000000006,229,17,288.4019453417286,1856.0465,mp-18222,Lu4Ge6Rh7,https://materialsproject.org/materials/mp-18222,32.49677219000845,54.19579962752052,-8.604250342815693,-0.5045126942092143
-7.274009418333333,-87.28811302,7.521534770789727,-0.6314876641666677,0.0084262,0.0005752535830529677,0.0,194,12,170.70642144527162,773.2274,mp-1215663,Zr2SiNi3,https://materialsproject.org/materials/mp-1215663,36.64582916599449,67.52110246163197,-8.604250342815693,-0.5045126942092143
-4.914064013,-49.14064013,8.85660420048097,-0.7733207190000002,2.01e-05,9.97946873101223e-07,0.0,127,10,234.7286295917777,1251.942,mp-12975,Sm2CdPd2,https://materialsproject.org/materials/mp-12975,10.165323802991766,35.505139738674174,-8.604250342815693,-0.5045126942092143
-5.7781797953125,-184.90175345,4.163816536979079,-1.8428308319349995,21.9999991,0.8892080966375475,0.0,8,32,288.33454787148935,723.001465,mp-1100760,Li9Mn2Co5O16,https://materialsproject.org/materials/mp-1100760,-73.51342222405287,-52.09764879722248,3.532000962349324,1.1126582577502462
-7.942033538333334,-95.30440246,12.63173954191068,-0.3306285508333341,0.2629674,0.0190895312621548,0.0,194,12,160.54030193749668,1221.23192,mp-1218029,Ta2Ni3Ge,https://materialsproject.org/materials/mp-1218029,28.181386777812534,72.49059647744791,-8.604250342815693,-0.5045126942092143
-6.434816462000001,-32.17408231,6.8173048392089175,-1.0864876159760009,7.329999999999999e-05,6.383078690339064e-06,0.0,221,5,133.82929919406163,549.4331099999999,mp-1206994,La3SnN,https://materialsproject.org/materials/mp-1206994,-50.435821813145076,65.79000884504147,-8.604250342815693,-0.5045126942092143
-4.48234249,-17.92936996,10.006517670784095,-0.6305111612499994,1.3e-06,1.7911923292312297e-07,0.0,225,4,84.58211860939592,509.69742,mp-1187599,Tm2ZnPd,https://materialsproject.org/materials/mp-1187599,9.889853974677775,52.23438984709031,-8.604250342815693,-0.5045126942092143
-7.595303135,-15.19060627,14.911652450919053,-0.8743587974999993,2e-07,5.860527525514282e-08,0.0,221,2,39.771384817570684,357.1473200000001,mp-11476,HoIr,https://materialsproject.org/materials/mp-11476,16.825552593286336,49.10145667434762,-8.604250342815693,-0.5045126942092143
-6.775151113888889,-121.95272005,5.758059431189011,-0.2719940897222225,1.6899999999999997e-05,4.3485919793513117e-07,0.0,71,18,452.9137145804118,1570.516575,mp-1207809,Y12Co5Bi,https://materialsproject.org/materials/mp-1207809,-29.22732716913762,70.66058990963259,-8.604250342815693,-0.5045126942092143
-9.1538216925,-36.61528677,12.957913454652672,-0.03168963874999875,0.8772058,0.13230436022621933,0.0,225,4,77.26890628990098,602.96312,mp-865273,TmUTc2,https://materialsproject.org/materials/mp-865273,20.507300854274064,56.68987966251451,-8.604250342815693,-0.5045126942092143
-8.465004135,-101.58004962,7.224868809737805,-0.2194302550000001,3.75e-07,2.363852242798532e-08,0.0,38,12,184.87933427412446,804.3947800000002,mp-1215324,ZrVCo,https://materialsproject.org/materials/mp-1215324,61.80836550796872,64.18027945034476,-8.604250342815693,-0.5045126942092143
-6.667673023571429,-93.34742233,14.24355078702458,-1.223428785,7.85e-06,3.121133012230762e-07,0.0,148,14,293.1128154618668,2514.224100000001,mp-1104864,Tb3Pt4,https://materialsproject.org/materials/mp-1104864,15.89778968182285,56.19879536038346,-8.604250342815693,-0.5045126942092143
-7.4593974775,-29.83758991,13.279530541915536,0.7013474002083342,8.329999999999999e-05,1.2538158654637387e-05,0.0,216,4,77.42632888084941,619.18767,mp-631674,LaRe2Ag,https://materialsproject.org/materials/mp-631674,57.61909189812714,45.4585848597405,-8.604250342815693,-0.5045126942092143
-5.614185946,-84.21278919,9.925119957115411,-0.3897135164285713,5.7000000000000005e-06,2.8982154189290726e-07,0.0,6,15,229.2036981437918,1369.961286,mp-1220003,PPd4,https://materialsproject.org/materials/mp-1220003,26.371351594328843,46.70257661841578,-8.604250342815693,-0.5045126942092143
-8.469748272222223,-152.4554689,16.388750812887178,-0.7375649011111105,5.93660445,0.1987752186331157,0.0,46,18,348.0593469604661,3435.1844600000004,mp-1217211,U3SiPt5,https://materialsproject.org/materials/mp-1217211,22.928573126719822,61.45560884758169,-8.604250342815693,-0.5045126942092143
-6.866231671666667,-82.39478006,8.025302596698209,-0.4589522562500008,4.4606011,0.2455395351737771,0.0,99,12,211.7139063049866,1023.2027800000001,mp-1224163,Ho4Fe5Si3,https://materialsproject.org/materials/mp-1224163,16.068419764709528,73.78090021580411,-8.604250342815693,-0.5045126942092143
-6.326459351785713,-177.14086185,9.524455373107914,-0.9327879303571426,0.000563425,1.122779341349355e-05,0.0,57,28,584.8158407143654,3354.364,mp-1213229,Dy3(GeRh)2,https://materialsproject.org/materials/mp-1213229,13.315798136942187,65.15997185333383,-8.604250342815693,-0.5045126942092143
-6.325921078125,-303.64421175,3.2160796636288635,-2.076138636441667,10.000000300000002,0.2663217118187149,0.1649999999999996,2,48,437.5935045849568,847.5173044000002,mp-758231,LiMn3Al2(HO2)6,https://materialsproject.org/materials/mp-758231,-44.200371419509906,-17.32222578716945,-0.7042205328888141,-1.698535553439109
-3.2124741825,-12.84989673,0.612059536349455,2.52314555625,1.3919263000000002,0.0216869284503706,0.0,71,4,747.9897070694742,275.70218,mp-1095804,NbZnNi2,https://materialsproject.org/materials/mp-1095804,-65.29415018620367,40.63743298127963,-8.604250342815693,-0.5045126942092143
-5.307805836086956,-122.07953423,9.261426635720854,-0.6738613947826091,5.3897902,0.13102349180921136,0.0,229,23,479.40230590688265,2673.8,mp-1190285,Ce6Cd4Pd13,https://materialsproject.org/materials/mp-1190285,24.80040197068113,31.830888035420198,-8.604250342815693,-0.5045126942092143
-7.4034964950000015,-148.0699299,7.532678674561682,-0.3790705490000008,0.0,0.0,0.0,87,20,323.31375446597684,1466.6434,mp-30814,Zr9Ni11,https://materialsproject.org/materials/mp-30814,30.652893546213132,70.58477061503747,-8.604250342815693,-0.5045126942092143
-6.41816334,-25.67265336,0.8461183784678307,3.99474071,1e-07,1.3878034341147625e-09,0.06550000000000011,71,4,839.7489504695933,427.88938,mp-1093944,TaVTc2,https://materialsproject.org/materials/mp-1093944,-59.15304396043201,40.703868369280585,-8.604250342815693,-0.5045126942092143
-4.0814872822222235,-73.46677108,3.95846255793664,-2.2183377008316483,2.99999835,0.1315221846886244,0.0,227,18,265.82720756383657,633.6900383999998,mp-556497,RbNi2F6,https://materialsproject.org/materials/mp-556497,-68.6622714348227,-18.502643365977953,-8.604250342815693,-0.5045126942092143
-5.31014189,-21.24056756,9.907798724337134,-0.3863995112499996,4.7e-06,6.584524363869148e-07,0.0,225,4,83.18612158471022,496.33964000000003,mp-867320,Ho2ZnRu,https://materialsproject.org/materials/mp-867320,11.537723392992165,46.084216036471176,-8.604250342815693,-0.5045126942092143
-9.8428182025,-39.37127281,14.890867875997802,-0.6359113074999989,5e-07,8.063817028928603e-08,0.0,225,4,72.26146582165259,648.004,mp-1184588,Hf2MoPt,https://materialsproject.org/materials/mp-1184588,60.76190916699727,58.433475958660395,-8.604250342815693,-0.5045126942092143
-5.7854134865625,-185.13323157,4.194198495799342,-1.850064523184999,21.997013600000002,0.8955747968380094,0.018299999999999983,2,32,286.24590844046,723.001465,mp-1175721,Li9Mn2Co5O16,https://materialsproject.org/materials/mp-1175721,-73.18442425729339,-52.15388885770773,3.8808834019133136,3.0213679944757645
-7.428704456944446,-267.43336045,9.622744297796212,-1.1437893069444445,4.075e-06,5.6170280246530484e-08,0.0,62,36,845.470482606576,4899.460999999999,mp-12175,Y5Pt4,https://materialsproject.org/materials/mp-12175,15.180619520432995,56.57443009439274,-8.604250342815693,-0.5045126942092143