energy_per_atom,energy,density,formation_energy_per_atom,total_magnetization_uB,total_magnetization_T,band_gap,sgr,num_sites,cell_volume,weight,mp_id,formula,URL,tsne_cry_lin1_0,tsne_cry_lin1_1,tsne_cry_lin2_0,tsne_cry_lin2_1
-7.604916113333334,-45.62949668,9.603903931021408,-0.17240328166666666,0.0794059,0.009719312092937644,0.0,166,6,95.21265425727232,550.6725,mp-1226906,Ce2Fe3Rh,https://materialsproject.org/materials/mp-1226906,42.56796103771225,70.1079268298629,-8.604250342815693,-0.5045126942092143
-8.763414366666668,-52.58048620000001,10.724219002110322,-0.2937313416666664,6.9699717,0.7809074609759509,0.0,191,6,104.0180888439604,671.7775,mp-571283,GdRh5,https://materialsproject.org/materials/mp-571283,32.196808181607146,65.31572112487572,-8.604250342815693,-0.5045126942092143
-6.5662664375,-26.26506575,8.330750633335116,-0.3675725329166673,0.1191325,0.024508298444767374,0.0,216,4,56.64929675333671,284.203595,mp-1216950,TiCoNiSn,https://materialsproject.org/materials/mp-1216950,45.44168256172404,45.549089960459696,-8.604250342815693,-0.5045126942092143
-7.091559395999999,-283.66237584,7.798192147524817,-0.04479320024999965,26.39041105,0.4021384054838567,0.0,140,40,764.8002666671973,3591.6406,mp-1196608,Nd6TlFe13,https://materialsproject.org/materials/mp-1196608,53.75960230191589,81.1580349937625,-8.604250342815693,-0.5045126942092143
-10.095704086896554,-292.77541852,8.140245731988264,0.08233675034482688,57.7607118,1.4951380376920884,0.0,225,29,450.22403260198655,2207.0750350000003,mp-1194710,Gd6Mn23,https://materialsproject.org/materials/mp-1194710,56.21545117162908,68.13085966456924,-8.604250342815693,-0.5045126942092143
-8.0621517975,-32.24860719,7.347103617181357,-0.3669257750000003,0.0,0.0,0.32070000000000043,225,4,52.339560549816845,231.57791859999998,mp-865280,NbAlFe2,https://materialsproject.org/materials/mp-865280,46.493862044104674,70.60847105377438,-8.604250342815693,-0.5045126942092143
-5.123151414166666,-61.47781697,10.092888144014868,-0.7571704091666666,3.05e-06,1.6015236194009715e-07,0.0,62,12,221.94426061354096,1348.99484,mp-1207955,TmZnRh,https://materialsproject.org/materials/mp-1207955,17.251750735123867,59.18636367477532,-8.604250342815693,-0.5045126942092143
-7.8695997575,-31.47839903,6.753705815010625,-0.6465323254166666,0.9999998999999999,0.24851341741366936,0.0,216,4,46.8951082337504,190.730695,mp-998971,TiFeCoSi,https://materialsproject.org/materials/mp-998971,47.01768204960104,48.68664297241715,-8.604250342815693,-0.5045126942092143
-7.5749467975,-30.29978719,8.099626827042165,-0.9901702041666668,2.0300000000000002e-05,4.111587889536965e-06,0.0,225,4,57.539208996357964,280.6595386,mp-866153,TiAlRh2,https://materialsproject.org/materials/mp-866153,36.2343822278489,54.058243516928165,-8.604250342815693,-0.5045126942092143
-7.444634065,-14.88926813,7.5971352160274686,-0.01590315500000017,4e-07,1.945312420607502e-07,0.0,166,2,23.96337914486814,109.6349,mp-1216313,VNi,https://materialsproject.org/materials/mp-1216313,37.74875324469219,81.60517475007795,-8.604250342815693,-0.5045126942092143
-7.7338797999999995,-30.935519199999998,6.93962080918271,-0.15776260500000028,1.0290229,0.2628525105948971,0.0,123,4,45.623682657265924,190.6676386,mp-1228906,AlCrFe2,https://materialsproject.org/materials/mp-1228906,48.04333817802157,70.30272168390493,-8.604250342815693,-0.5045126942092143
-8.297321653181818,-182.54107637,8.395973389334918,-0.09071787255682036,33.8883479,1.4954118698158163,0.0,166,22,264.09914849096384,1335.3311,mp-974000,Lu2Fe17C3,https://materialsproject.org/materials/mp-974000,57.79901936662714,74.81768811024344,-8.604250342815693,-0.5045126942092143
-6.9497315325,-27.79892613,10.56776411067832,-1.0229887399999995,7.2999999999999996e-06,1.550966444385606e-06,0.0,225,4,54.85268436828556,349.0855772000001,mp-862694,Al2IrRh,https://materialsproject.org/materials/mp-862694,36.54993272750588,53.20753922611062,-8.604250342815693,-0.5045126942092143
-5.678289835555557,-102.20921704,8.174445504386552,-0.3157895397222224,0.5407839333333333,0.02262181092153661,0.0,191,18,278.5953347804826,1371.4597049999998,mp-1179854,PrGa2Co3,https://materialsproject.org/materials/mp-1179854,40.023050892735355,77.47881385907435,-8.604250342815693,-0.5045126942092143
-6.80296856923077,-88.4385914,7.539335157891371,-0.27773783807692304,11.0097212,0.7140340469028653,0.015500000000000291,191,13,179.69451813840215,815.865912,mp-19739,Sc(FeGe)6,https://materialsproject.org/materials/mp-19739,49.00184918777143,66.6807418986881,-8.604250342815693,-0.5045126942092143
-7.2673052844444435,-65.40574756,5.8885833184275125,-0.5624611111111099,2.120881966666667,0.16934010442883773,0.0,189,9,145.9600836898856,517.6018710000002,mp-1079729,ScMnGe,https://materialsproject.org/materials/mp-1079729,25.54740875762452,68.16529443194065,-8.604250342815693,-0.5045126942092143
-5.77014580375,-138.48349929,9.228435309641275,-0.4542719104166668,0.040476099999999994,0.0013320400768676284,0.0,194,24,354.12680093669564,1968.0574772,mp-1192283,Dy3AlNi8,https://materialsproject.org/materials/mp-1192283,26.93585368390035,80.77601712421553,-8.604250342815693,-0.5045126942092143
-8.9281999675,-35.71279987,9.791113953833854,-0.4241078702083332,0.00011599999999999999,2.3400758088863558e-05,0.0,225,4,57.77041532087291,340.6344,mp-865728,Ti2ReNi,https://materialsproject.org/materials/mp-865728,62.85676957686445,55.50726036744365,-8.604250342815693,-0.5045126942092143
-6.57381405,-39.4428843,8.861019619838926,-0.19319415666666728,3.8268767999999995,0.4538504116921098,0.0,166,6,98.2673342468212,524.3771786,mp-1223966,Ho2AlFe3,https://materialsproject.org/materials/mp-1223966,42.1557359178566,70.63639298724993,-8.604250342815693,-0.5045126942092143
-7.4599037325,-29.83961493,13.281058795831658,0.12095340749999915,0.0261267,0.00594430879543529,0.0,123,4,51.2224826420611,409.6795,mp-1224702,Fe2PtRh,https://materialsproject.org/materials/mp-1224702,49.85469363683246,77.53083051911334,-8.604250342815693,-0.5045126942092143
-9.12816091,-36.51264364,9.760392875061504,-0.5544645458333335,0.6666774000000001,0.13433835581844858,0.0,225,4,57.835318548202046,339.9471,mp-861656,Ti2CrIr,https://materialsproject.org/materials/mp-861656,62.88159685916408,55.31783298518736,-8.604250342815693,-0.5045126942092143
-5.975500375,-23.9020015,10.371786240893973,-0.2986092762499997,1.0161978,0.1824139021731021,0.0,225,4,64.92287507612426,405.5106,mp-1187580,TmCo2Sn,https://materialsproject.org/materials/mp-1187580,44.6864237255785,45.70841037333849,-8.604250342815693,-0.5045126942092143
-6.1554873275,-24.62194931,7.436712891041325,-0.21890024250000015,2.4703619,0.6334572742480131,0.0,225,4,45.44861786999036,203.5413286,mp-1214804,AlCo2Ni,https://materialsproject.org/materials/mp-1214804,44.25714685288433,47.623070450068205,-8.604250342815693,-0.5045126942092143
-7.4791376725,-29.91655069,8.456764994303354,-0.2431038441666677,1.0000056,0.21097891463215804,0.0,225,4,55.23836377507869,281.317,mp-998970,TiFe2Sb,https://materialsproject.org/materials/mp-998970,50.38644166365021,67.2753340973045,-8.604250342815693,-0.5045126942092143
-7.388274115,-29.55309646,7.96322810615044,-0.3595755379166663,1.9999999,0.4705022759188435,0.0,216,4,49.53882175,237.566795,mp-998974,TiFeCoAs,https://materialsproject.org/materials/mp-998974,46.62051113831247,48.45517098991933,-8.604250342815693,-0.5045126942092143
-7.10556458,-99.47790412,8.712573605351466,-0.2965820549999997,6.788659299999999,0.3889742683679419,0.0,136,14,203.3951385344651,1067.18064,mp-1212389,Ho(Fe2Ge)2,https://materialsproject.org/materials/mp-1212389,48.280671397915036,67.63455177193163,-8.604250342815693,-0.5045126942092143
-8.295345337272728,-182.49759742,8.263330013601134,-0.09307706119318353,34.3754283,1.5065534912668286,0.0,166,22,265.9138691821784,1323.26552,mp-1191478,Tm2Fe17C3,https://materialsproject.org/materials/mp-1191478,57.82859572858782,74.80273759331659,-8.604250342815693,-0.5045126942092143
-7.486707493333332,-44.92024496,7.4050401599395075,0.0283573541666667,7.721902799999999,0.8855160017460383,0.0,216,6,101.62611993590963,453.1935,mp-1219699,PrYFe4,https://materialsproject.org/materials/mp-1219699,42.876359102570156,69.90861238033929,-8.604250342815693,-0.5045126942092143
-8.707818195,-34.83127278,8.052322772948719,0.04623092249999949,3.0677607000000005,0.7897232753884534,0.0,221,4,45.2714045776696,219.5311,mp-1018081,CrFe3,https://materialsproject.org/materials/mp-1018081,51.18390242647601,70.72259061907985,-8.604250342815693,-0.5045126942092143
-5.2039450375,-20.81578015,6.851210431004543,-0.4134758275000001,2.5e-06,5.278056103882547e-07,0.0,225,4,55.20055368484501,227.751712,mp-972935,ScZnNi2,https://materialsproject.org/materials/mp-972935,34.92695122580223,75.59808876440538,-8.604250342815693,-0.5045126942092143
-7.7768886625,-31.10755465,8.587299656014615,-0.10147436125000107,3.0113194,0.7585026037643909,0.0,225,4,46.2676214482273,239.268045,mp-1018071,MnFe2Ge,https://materialsproject.org/materials/mp-1018071,49.85612887139769,65.99328984993822,-8.604250342815693,-0.5045126942092143
-7.9598841475,-31.83953659,5.425819075421708,-0.3651788645833341,0.9999985999999998,0.21302405898387874,0.0,216,4,54.70766312715395,178.757545,mp-999047,Ti2MnSi,https://materialsproject.org/materials/mp-999047,50.52457626752936,60.76729063211649,-8.604250342815693,-0.5045126942092143
-7.8271839175,-62.61747134,5.466413477509977,-0.2961734050000002,0.5354293000000001,0.06412689554467536,0.0,198,8,97.30593833252254,320.3264,mp-7576,CrSi,https://materialsproject.org/materials/mp-7576,46.50936508927153,63.989750361884525,-8.604250342815693,-0.5045126942092143
-7.5630735475,-30.25229419,9.78888356033663,-0.4441057212499997,4.756621099999999,0.9801865358483856,0.0,225,4,56.554511177756694,333.389045,mp-4664,MnGeRh2,https://materialsproject.org/materials/mp-4664,35.66620826591115,56.3053658120379,-8.604250342815693,-0.5045126942092143
-7.83027169125,-62.64217353,12.706547145046942,-0.6856996637499995,0.0,0.0,0.0,62,8,115.15981412848205,881.21,mp-1128,SiIr,https://materialsproject.org/materials/mp-1128,35.432177185520885,51.74287596381031,-8.604250342815693,-0.5045126942092143
-6.605696303333334,-59.45126673,8.988416576746667,-0.5189717250000001,2.3922378,0.16964926213099785,0.0,189,9,164.33489849804462,889.5367650000002,mp-11615,TmMnGe,https://materialsproject.org/materials/mp-11615,24.82728193296477,69.14867724530261,-8.604250342815693,-0.5045126942092143
-8.373636665,-133.97818664,6.054851486221754,-0.3162028156249992,0.00077125,4.760356361921086e-05,0.0,140,16,188.81354193847355,688.4739999999999,mp-7506,Cr5Si3,https://materialsproject.org/materials/mp-7506,46.17495388901539,64.04757000508972,-8.604250342815693,-0.5045126942092143
-5.79428885,-23.177155399999997,8.896418524344798,-0.037060397500000335,2.5319303,0.6418909077121353,0.0,123,4,45.9693062501509,246.28279,mp-1224797,GaCo2Ni,https://materialsproject.org/materials/mp-1224797,44.316630633052895,47.486467546742496,-8.604250342815693,-0.5045126942092143
-9.4308241425,-37.72329657,7.151617546299764,-0.1922331925000016,0.1043769,0.02508827830823905,0.0,225,4,48.485397778751214,208.817145,mp-864953,MnV2Cr,https://materialsproject.org/materials/mp-864953,55.99157463972107,56.427509512913254,-8.604250342815693,-0.5045126942092143
-7.257434578333334,-43.54460747,9.501325093480405,-0.08239936500000056,3.39934025,0.4133572358353931,0.0,227,6,95.83993703994378,548.38,mp-1757,DyFe2,https://materialsproject.org/materials/mp-1757,42.98758138744782,69.91348872789443,-8.604250342815693,-0.5045126942092143
-7.177645299999999,-28.710581199999996,8.611942749513284,-0.014544728749999791,5.279236,1.311668658729814,0.0,225,4,46.905564057014026,243.26319500000002,mp-30044,Fe2CoGe,https://materialsproject.org/materials/mp-30044,47.306029469070005,48.64163336653539,-8.604250342815693,-0.5045126942092143
-7.8378262025,-94.05391443,11.10264047162275,-0.7099260530555552,0.00183385,0.0001142344827298725,0.0,62,12,187.0871751894389,1250.8960000000004,mp-1103158,TiGeIr,https://materialsproject.org/materials/mp-1103158,36.07003837520625,57.72339924583639,-8.604250342815693,-0.5045126942092143
-6.587193801666667,-39.52316281,9.010336159138072,-0.2101241050000008,3.8325675,0.4581156383100634,0.0,166,6,97.49719536964784,529.0345386,mp-1225058,Er2AlFe3,https://materialsproject.org/materials/mp-1225058,42.150885690619404,70.6444174835204,-8.604250342815693,-0.5045126942092143
-7.2408037375,-28.96321495,15.616040769745558,0.06373458749999994,0.014334399999999999,0.0030803985567044727,0.0,225,4,54.23130254109079,510.00199999999995,mp-865247,GaFeIr2,https://materialsproject.org/materials/mp-865247,36.90629422723766,52.53654562517103,-8.604250342815693,-0.5045126942092143
-8.708804142413793,-252.55532013,10.578671571285787,-0.3951871967241388,4.5027553,0.1327491467395782,0.0,225,29,395.2974705301159,2518.29196,mp-642279,U6Fe16Si7,https://materialsproject.org/materials/mp-642279,49.95324540333675,64.04885191474067,-8.604250342815693,-0.5045126942092143
-6.0363797575,-24.14551903,5.6754362571185295,-0.6270914587499998,0.0,0.0,0.0,225,4,55.393153071841056,189.3242506,mp-10898,ScAlNi2,https://materialsproject.org/materials/mp-10898,31.90633047477461,76.6343127185089,-8.604250342815693,-0.5045126942092143
-7.421728027,-74.21728027,8.317170276947554,-0.03452691300000055,8.8572106,0.9072881236152904,0.0,123,10,113.7703705690419,569.8435999999998,mp-1225009,Fe3Ni2,https://materialsproject.org/materials/mp-1225009,49.57737645145724,75.75888026196928,-8.604250342815693,-0.5045126942092143
-6.86851309125,-54.94810473,7.968094806334072,-0.033006306249999014,1.98715005,0.2195104231753728,0.0,4,8,105.5001173087502,506.2422,mp-1226385,CrFeGe2,https://materialsproject.org/materials/mp-1226385,47.607463453202975,64.40973588373396,-8.604250342815693,-0.5045126942092143
-7.930982555,-63.44786044,16.123213600660634,-0.08719202374999924,4.9000000000000005e-06,3.8635685735609853e-07,0.0,194,8,147.80355595684398,1435.1173,mp-1186752,PrIr3,https://materialsproject.org/materials/mp-1186752,31.497859154237148,63.94254354644228,-8.604250342815693,-0.5045126942092143
-7.0926359250000015,-99.29690295,9.124517737780224,-0.2979224735714285,4.20950005,0.2507172395801059,0.0,136,14,195.6697765377197,1075.18842,mp-1103568,Tm(Fe2Ge)2,https://materialsproject.org/materials/mp-1103568,48.27642148033585,67.70398090296808,-8.604250342815693,-0.5045126942092143
-7.36302716,-29.45210864,7.0867822487696825,-0.2437327474999993,3.008877,0.7608208486704467,0.0,216,4,46.08923048302789,196.6977786,mp-1221633,MnAlFeCo,https://materialsproject.org/materials/mp-1221633,44.6895908406921,47.15107103793275,-8.604250342815693,-0.5045126942092143
-8.7931857075,-35.17274283,11.925065355472348,-0.16086987499999772,8.013886900000001,1.656070429780625,0.0,225,4,56.39516009288281,404.99859,mp-1185981,Mn2IrRh,https://materialsproject.org/materials/mp-1185981,56.05055994742583,59.073962801097714,-8.604250342815693,-0.5045126942092143
-6.442989935,-25.77195974,11.045360048105358,-0.8700010137499996,1.06e-05,1.8557237796235732e-06,0.0,225,4,66.56868222823063,442.793,mp-863711,ErGaRh2,https://materialsproject.org/materials/mp-863711,33.70283149513248,57.45927362764238,-8.604250342815693,-0.5045126942092143
-6.630571718888889,-59.67514547,12.724578064393285,-0.8467708505555555,4.14e-05,2.5682374176552e-06,0.0,189,9,187.86358234141528,1439.58363,mp-1080427,TmSnIr,https://materialsproject.org/materials/mp-1080427,15.535222306763025,60.954299065885685,-8.604250342815693,-0.5045126942092143
-8.8916108,-17.7832216,7.387049793948295,-0.12209269500000094,0.8134661999999999,0.3949321809225987,0.0,221,2,24.004596847340693,106.7865,mp-1335,VFe,https://materialsproject.org/materials/mp-1335,56.31346801643121,55.91666789036355,-8.604250342815693,-0.5045126942092143
-8.55686285,-119.79607990000001,7.289597367705732,-0.18710744159857126,18.0587333,1.2104723722153694,0.0,71,14,173.86406531807705,763.2455500000002,mp-1215812,YV2Fe10N,https://materialsproject.org/materials/mp-1215812,61.130415710318175,75.253130077122,-8.604250342815693,-0.5045126942092143
-9.226126945,-36.90450778,7.348433413435494,-0.16239059250000132,4.7e-05,1.1557731973406025e-05,0.0,225,4,47.391741352943676,209.7241,mp-865490,V2CrFe,https://materialsproject.org/materials/mp-865490,56.00021040087305,56.368641292348,-8.604250342815693,-0.5045126942092143
-8.46452348909091,-186.21951676,7.180030929343183,-0.08141831482954584,34.7470783,1.5052729796403124,0.0,166,22,269.01745174630423,1163.2088,mp-1190821,Y2Fe17C3,https://materialsproject.org/materials/mp-1190821,57.807410820120964,74.82274202008216,-8.604250342815693,-0.5045126942092143
-5.694552608333333,-34.16731565,7.595263625774397,-0.4235151629166669,2e-07,2.62590017683749e-08,0.0,187,6,88.762435642891,405.9971386,mp-1220221,NdAlNi4,https://materialsproject.org/materials/mp-1220221,24.979513583241037,79.80763429857151,-8.604250342815693,-0.5045126942092143
-5.772728758333333,-34.63637255,8.468217706796052,-0.4263924583333332,0.0168385,0.0022508263296641398,0.0,187,6,87.18441182533533,444.6126,mp-1226664,CeGaNi4,https://materialsproject.org/materials/mp-1226664,24.80152653413286,79.93633757095247,-8.604250342815693,-0.5045126942092143
-6.616436576666668,-79.39723892,8.684463333880263,-0.4999676900000007,2.7012810000000003,0.13960438046526796,0.019199999999999662,62,12,225.50083054676728,1179.3481800000002,mp-20172,ErMnGe,https://materialsproject.org/materials/mp-20172,24.66578620690869,69.19826395677843,-8.604250342815693,-0.5045126942092143
-9.5910949025,-230.18627766,10.939290552989213,-0.5600393249999994,2.3093073333333334,0.06341518796771574,0.0,194,24,424.39071939855967,2795.7990000000004,mp-1191219,GdRh3,https://materialsproject.org/materials/mp-1191219,32.08215629309491,65.28320838238834,-8.604250342815693,-0.5045126942092143
-8.34478077,-16.68956154,8.281565262171478,-0.722748133333333,2.3199999999999998e-05,8.943481531695137e-06,0.0,221,2,30.231437473784162,150.7725,mp-11563,TiRh,https://materialsproject.org/materials/mp-11563,62.731717959070366,55.40549909185458,-8.604250342815693,-0.5045126942092143
-7.389015290576923,-384.22879511,14.329870167445025,-0.6526032692307688,6e-06,7.914154394442513e-08,0.0,59,52,883.5358163401582,7624.604560000002,mp-30171,Ho4Ge9Ir13,https://materialsproject.org/materials/mp-30171,15.533441014701701,61.63487542285984,-8.604250342815693,-0.5045126942092143
-6.036763893333332,-144.88233344,6.868489452905124,-0.2554049374999998,1e-07,3.1578745697318333e-09,0.0376000000000003,194,24,369.04774129611343,1526.4925772,mp-13096,Y3AlNi8,https://materialsproject.org/materials/mp-13096,28.499490202436128,81.0207874487583,-8.604250342815693,-0.5045126942092143
-5.892287339166668,-70.70744807,8.554732332001644,-0.3269470960416676,6.666666666666667e-08,4.235761048993673e-09,0.018299999999999983,166,12,183.42339015761132,944.95701,mp-2764,LaNi3,https://materialsproject.org/materials/mp-2764,28.21340200284336,81.24135644931623,-8.604250342815693,-0.5045126942092143
-6.099248649142858,-426.94740544,7.481182334280584,-0.5891330141428568,0.13814405,0.0017064335334637745,0.0,71,70,943.4529239330037,4250.513344,mp-569969,Sc6Ni18Ge11,https://materialsproject.org/materials/mp-569969,36.70192389151744,71.7282573668094,-8.604250342815693,-0.5045126942092143
-8.347874950833333,-100.17449941,16.183474096296987,-0.5087308902083324,0.00012713333333333332,6.676786124772874e-06,0.0,166,12,221.9061796694124,2162.679,mp-1101882,NdIr3,https://materialsproject.org/materials/mp-1101882,31.49565576664701,63.975318594247256,-8.604250342815693,-0.5045126942092143
-7.5478520725,-30.19140829,7.8629324381452355,-0.9349195574999988,0.4506911,0.08919026568618711,0.0,225,4,58.88964710898506,278.852412,mp-972970,ScSiRh2,https://materialsproject.org/materials/mp-972970,34.51836937933014,57.6166827812796,-8.604250342815693,-0.5045126942092143