energy_per_atom,energy,density,formation_energy_per_atom,total_magnetization_uB,total_magnetization_T,band_gap,sgr,num_sites,cell_volume,weight,mp_id,formula,URL,tsne_cry_lin1_0,tsne_cry_lin1_1,tsne_cry_lin2_0,tsne_cry_lin2_1
-7.225648171538461,-93.93342623,6.411131997205121,-2.227652063596153,0.9928440000000001,0.060811472663247025,0.0,183,13,190.2711409263451,734.6129,mp-1223833,K(WO3)3,https://materialsproject.org/materials/mp-1223833,-17.107865018383606,0.8744029246357087,-8.604250342815693,-0.5045126942092143
-9.1368673875,-109.64240865,14.969046136703408,-0.06451295249999944,0.001481025,7.460720696217538e-05,0.0,194,12,231.3444234486721,2085.4706,mp-567339,PrOs2,https://materialsproject.org/materials/mp-567339,29.681952625379015,63.7332806554988,-8.604250342815693,-0.5045126942092143
-5.621820776,-56.21820776,6.981240162998894,-0.5605386099999997,0.05784205,0.0026909470726078997,0.0,194,10,250.5047401858949,1053.17232,mp-567727,Pr2Co2I,https://materialsproject.org/materials/mp-567727,-26.632153937550978,66.42762474791864,-8.604250342815693,-0.5045126942092143
-6.171988185,-24.68795274,8.588340163215237,-0.7843440391666663,4.05e-05,6.21370079403627e-06,0.0,225,4,75.95950286851108,392.86402400000003,mp-1186932,Sc2AgPt,https://materialsproject.org/materials/mp-1186932,19.281323301555823,56.934672780626535,-8.604250342815693,-0.5045126942092143
-7.351244898888888,-264.64481636,10.934105455535967,-0.17460399666666626,6.3665367,0.13933145770668745,0.0,194,36,532.5145684965963,3506.43394,mp-680606,Th2Co7,https://materialsproject.org/materials/mp-680606,44.43602948022551,76.46493377408396,-8.604250342815693,-0.5045126942092143
-7.6317972025,-30.52718881,15.782953520255774,-0.9488719849999994,0.0001182,1.7976402580337287e-05,0.0,225,4,76.62881658109316,728.33521,mp-972412,TmLuIr2,https://materialsproject.org/materials/mp-972412,17.557183682624224,49.78624470249737,-8.604250342815693,-0.5045126942092143
-3.9910142775,-15.96405711,5.670728879610862,-0.002169446250000373,2.44e-05,2.1723128413584388e-06,0.0,139,4,130.90157873975218,447.02795,mp-1186718,Pr3Mg,https://materialsproject.org/materials/mp-1186718,-42.89630993778857,70.30007341425927,-8.604250342815693,-0.5045126942092143
-9.381473304,-93.81473304,8.260062087158481,-0.4377846706666659,0.08616225,0.009406699423404498,0.0,127,10,106.74737197949716,530.9962,mp-1206931,Cr(BMo)2,https://materialsproject.org/materials/mp-1206931,21.584357580840226,36.67984822575597,-8.604250342815693,-0.5045126942092143
-6.7984100283333335,-40.79046017,7.0450985300991285,-0.5979109808333346,0.00011679999999999999,1.2324621094884156e-05,0.0,129,6,110.44516135266764,468.58099999999996,mp-1019100,SmFeSi,https://materialsproject.org/materials/mp-1019100,16.015531778205734,73.12764624066962,-8.604250342815693,-0.5045126942092143
-6.326272935,-25.30509174,4.681768230540951,-0.3665064650000005,0.0001742,2.891948262375387e-05,0.0,225,4,70.19966815424233,197.922824,mp-865795,LiSc2Ru,https://materialsproject.org/materials/mp-865795,7.9491132097218085,43.415017077549976,-8.604250342815693,-0.5045126942092143
-10.440573805,-20.88114761,12.88869142854801,0.0154753488099999,0.0012263,0.0005606671107663312,0.0,216,2,25.489955369517226,197.8467,mp-1001828,WN,https://materialsproject.org/materials/mp-1001828,-55.221304665242386,37.71626531411511,-8.604250342815693,-0.5045126942092143
-10.158083805,-40.63233522,10.96091404775423,-0.4905308787500005,2.72e-05,4.4454948743071095e-06,0.0,225,4,71.30602346336772,470.67800000000005,mp-1188002,Zr2TcOs,https://materialsproject.org/materials/mp-1188002,39.54908153556188,59.580598634286574,-8.604250342815693,-0.5045126942092143
-9.10807373,-54.64844238,14.956658391848805,-0.03571929499999982,5.55e-06,5.587040488173722e-07,0.0,227,6,115.7680164026317,1042.7352999999996,mp-2498,PrOs2,https://materialsproject.org/materials/mp-2498,29.69058305981832,63.754066385912274,-8.604250342815693,-0.5045126942092143
-7.41622918,-29.66491672,11.566683645698438,-0.03321324124999947,3.5907676,0.5069148134215598,0.0,225,4,82.55240739790325,575.028685,mp-983409,Ho2MnOs,https://materialsproject.org/materials/mp-983409,14.028746350141098,49.39922277977561,-8.604250342815693,-0.5045126942092143
-6.377512605714285,-446.4258824,3.890835016258712,-1.9896215667057133,54.0000007,0.8665047070397169,0.3174000000000001,1,70,726.273614861302,1701.743075,mp-760337,Li16Mn15(CuO12)3,https://materialsproject.org/materials/mp-760337,-69.26788118774519,-39.49196025213104,3.7586189856942975,0.7245901063451361
-5.6900415375,-45.5203323,13.294575380148599,-0.822301528333333,5e-08,3.49462561086998e-09,0.0,194,8,166.74267962081404,1334.9720000000002,mp-1025525,DyInPt2,https://materialsproject.org/materials/mp-1025525,22.791886535018534,51.80019825872323,-8.604250342815693,-0.5045126942092143
-7.88598738,-31.54394952,8.628149027763406,-0.3512365581250005,1e-07,2.4428448005393816e-08,0.0,38,4,47.70693893441969,247.884915,mp-9241,HoCoC2,https://materialsproject.org/materials/mp-9241,8.163447072781569,38.386649946532735,-8.604250342815693,-0.5045126942092143
-4.714022785714286,-32.9981595,11.35358005737868,-0.3079882221428574,0.023965900000000002,0.002364570996512311,0.0,123,7,118.11874176950056,807.6116,mp-1077915,HgAsPd5,https://materialsproject.org/materials/mp-1077915,34.74685743329636,40.664724075297904,-8.604250342815693,-0.5045126942092143
-1.56538295,-9.3922977,5.958320078509195,-0.0113793900000001,0.0004665,2.633421815306865e-05,0.0,12,6,206.447033467959,740.77,mp-1187902,Yb2Mg,https://materialsproject.org/materials/mp-1187902,-27.25354543112662,55.399808460068776,-8.604250342815693,-0.5045126942092143
-6.45530803,-25.82123212,13.250378073250143,-0.3633778212500003,6.2e-06,9.550364056265672e-07,0.0,225,4,75.65701282608791,603.71,mp-865830,Lu2CuOs,https://materialsproject.org/materials/mp-865830,-9.814008800770942,55.63757006281181,-8.604250342815693,-0.5045126942092143
-8.2808178935,-165.61635787,13.995750435586455,-0.6688660708333329,0.8121470000000001,0.03525710879623301,0.0,127,20,268.45121639274316,2262.624448,mp-1209056,Sc2NiB2Ir5,https://materialsproject.org/materials/mp-1209056,29.642989462974313,49.7730125557686,-8.604250342815693,-0.5045126942092143
-6.4102538475,-25.64101539,10.748607810051515,-0.8277567499999998,1.98e-05,3.4098707898428507e-06,0.0,225,4,67.67132736642975,438.034,mp-862666,DyGaRh2,https://materialsproject.org/materials/mp-862666,33.50357569152453,57.3696866467215,-8.604250342815693,-0.5045126942092143
-8.891336626666666,-26.67400988,13.114809858952626,-0.5291374366666659,3e-07,5.9587554312972474e-08,0.0,139,3,58.673652108704935,463.4,mp-11454,Hf2Pd,https://materialsproject.org/materials/mp-11454,31.494933299373216,60.722512367636305,-8.604250342815693,-0.5045126942092143
-4.2361614725,-33.88929178,6.555482624141109,-0.563195694375,4.5e-07,2.6638476105031357e-08,0.0,63,8,196.87046387241853,777.2059999999999,mp-974887,LiNdSn2,https://materialsproject.org/materials/mp-974887,-0.40909324742658704,45.68765149466314,-8.604250342815693,-0.5045126942092143
-7.4443930320430125,-692.32855198,6.306385923138388,-2.2446631184255006,4.4579835,0.03874096727820955,0.0,1,93,1341.0514015024212,5093.037547999999,mp-1217667,TlP4(W5O17)4,https://materialsproject.org/materials/mp-1217667,-18.77498537788385,-0.22889416717876784,-8.604250342815693,-0.5045126942092143
-5.774958158125,-184.79866106,4.177014641201927,-1.8396091947474995,19.9999998,0.8109333262246851,0.0,8,32,287.423497817626,723.001465,mp-1100660,Li9Mn2Co5O16,https://materialsproject.org/materials/mp-1100660,-84.14740393505299,-43.56985840245996,-4.774815917878502,-2.160269841370245
-6.5447619275,-26.17904771,10.074537467442047,-0.6823280081249994,0.1470753,0.02214818665184925,0.0,225,4,77.38895737094293,469.521,mp-862961,PmSnRh2,https://materialsproject.org/materials/mp-862961,31.7877888445352,56.308965004469115,-8.604250342815693,-0.5045126942092143
-6.87395773875,-54.99166191,5.692187618657184,-1.7507231663476557,3.4e-06,2.035091733631414e-07,0.0,139,8,194.70287049910166,667.425,mp-38494,Y4AsSe3,https://materialsproject.org/materials/mp-38494,14.73009458486589,32.744163061645196,-8.604250342815693,-0.5045126942092143
-5.267737360833333,-63.21284833,5.962527814931568,-1.7278043650468753,4.93e-05,1.8400537567523827e-06,0.0,15,12,312.24380873591497,1121.17953856,mp-36966,NaSm2Se3,https://materialsproject.org/materials/mp-36966,30.63906396898691,11.87553695581718,-8.604250342815693,-0.5045126942092143
-6.82090356,-27.28361424,10.529475784219263,-0.8264945243749997,2.26e-05,3.190692239527625e-06,0.0,225,4,82.54693467359992,523.4300000000002,mp-978558,SmErRh2,https://materialsproject.org/materials/mp-978558,16.503879420220596,51.18135424584798,-8.604250342815693,-0.5045126942092143
-7.57356687,-30.29426748,15.352247273138984,-0.8588252449999993,0.0247363,0.0036919634234878046,0.0,225,4,78.08269188136515,721.9010000000002,mp-1183808,DyLuIr2,https://materialsproject.org/materials/mp-1183808,17.119739940116435,49.54478273484021,-8.604250342815693,-0.5045126942092143
-7.534784255000001,-45.20870553,11.709473293340325,-0.30331795166666825,1.98418305,0.22073177693739676,0.0,12,6,104.75971383075192,738.7246200000001,mp-1216737,UNiGe,https://materialsproject.org/materials/mp-1216737,23.458827816794035,65.07568634924168,-8.604250342815693,-0.5045126942092143
-9.7433483775,-38.97339351,11.05600119451482,-0.15762662749999912,0.0117911,0.0019101126678734922,0.0,225,4,71.94038626669621,478.98482199999995,mp-867858,ScUTc2,https://materialsproject.org/materials/mp-867858,20.763723136711754,56.60082196834266,-8.604250342815693,-0.5045126942092143
-8.294789645,-49.76873787,12.751247931959648,-0.3241685177777782,0.0018244,0.00017588830956918191,0.0,123,6,120.88168806179287,928.2482,mp-1224331,Hf4AgPd,https://materialsproject.org/materials/mp-1224331,31.755371645924075,60.86584856658579,-8.604250342815693,-0.5045126942092143
-5.406601978333334,-32.43961187,13.272177706499908,-0.7271848250000001,5e-08,4.4146084098806784e-09,0.0,227,6,131.99432079270977,1054.99,mp-747,BaPt2,https://materialsproject.org/materials/mp-747,24.37710781422143,49.92229437936367,-8.604250342815693,-0.5045126942092143
-3.9282008225,-15.71280329,6.391072961826429,0.01014474812499966,4.7e-05,4.4346004465157465e-06,0.0,139,4,123.51530897009322,475.3850000000001,mp-978849,Sm3Mg,https://materialsproject.org/materials/mp-978849,-42.91303105500877,70.31043559478913,-8.604250342815693,-0.5045126942092143
-10.07764275,-40.310571,16.020931379940823,0.6158402643750005,0.0015757999999999998,0.0002548782344054247,0.0,216,4,72.05195575620601,695.15947,mp-631343,LaRe2W,https://materialsproject.org/materials/mp-631343,67.469222234624,42.61275016527507,-8.604250342815693,-0.5045126942092143
-7.814236513571428,-1312.79173428,9.245009996280368,-0.5915514119642861,0.00250885,1.4585550246581936e-05,0.0,191,168,2004.6072935430225,11160.60148,mp-1198832,Ta13Co40Si31,https://materialsproject.org/materials/mp-1198832,47.335982015687144,49.472674553191965,-8.604250342815693,-0.5045126942092143
-7.592058263999999,-37.96029132,7.516958990224849,0.1248945210479988,1.9488042,0.5096587125715025,0.0,164,5,44.562154664725895,201.72479,mp-1245567,Fe(CoN)2,https://materialsproject.org/materials/mp-1245567,2.1313859067376475,16.60000816544673,-8.604250342815693,-0.5045126942092143
-5.6118632625,-22.44745305,1.323105917808533,3.6483110691666663,1.5792328000000002,0.021685893306159387,0.0,71,4,848.6844919099289,676.22588,mp-1093892,TaInOs2,https://materialsproject.org/materials/mp-1093892,-61.227962351240386,40.63877740279582,-4.462497314088563,-0.8047689027435361
-7.12831767625,-57.02654141,11.920370565863301,-0.42028507875000104,6.895e-05,7.084416928011755e-06,0.0,194,8,113.42468607271915,814.2321599999999,mp-862852,PaNi3,https://materialsproject.org/materials/mp-862852,28.69552690045785,71.05303875660499,-8.604250342815693,-0.5045126942092143
-5.873067435,-82.22294409,10.197304559795509,-0.930930025,5.5e-07,2.180822707481789e-08,0.0,148,14,293.91365024391183,1804.9121,mp-1104088,Tb3Pd4,https://materialsproject.org/materials/mp-1104088,16.563178969196652,53.68549989176663,-8.604250342815693,-0.5045126942092143
-5.0148758575,-20.05950343,11.016237085107198,-0.9017426187500002,0.0020076,0.0002806108878117784,0.0,225,4,83.37773569600165,553.139,mp-865753,YbErPd2,https://materialsproject.org/materials/mp-865753,16.59654631728169,54.3123008019483,-8.604250342815693,-0.5045126942092143
-9.948936735,-39.79574694,14.263809767709164,0.44466961760416623,12.750706300000001,1.5456593050018224,0.0,221,4,96.13862293923157,825.818,mp-607223,Np3In,https://materialsproject.org/materials/mp-607223,7.533974350569844,75.7441145051163,-8.604250342815693,-0.5045126942092143
-8.08590380625,-64.68723045,19.066366655930352,-0.7199330750000001,0.029921899999999998,0.0024316854925201486,0.0,194,8,143.40331502190114,1646.56182,mp-30855,UPt3,https://materialsproject.org/materials/mp-30855,24.83839885469245,50.734907905392106,-8.604250342815693,-0.5045126942092143
-8.0963846625,-259.08430919999995,7.143067918323298,-0.5762250293749993,9.25e-07,1.959801275913458e-08,0.004000000000000448,15,32,550.0562759656937,2366.152944,mp-542607,Sc3Re2Si3,https://materialsproject.org/materials/mp-542607,19.822295957940863,44.886138216060594,-8.604250342815693,-0.5045126942092143
-7.081438945,-28.32575578,11.750923780860724,-1.0858628800000003,0.5765598000000001,0.07092685436832627,0.0,63,4,94.73513684338262,670.4000000000002,mp-21245,CePt,https://materialsproject.org/materials/mp-21245,12.72466227092505,54.66847192752515,-8.604250342815693,-0.5045126942092143
-7.277663235625,-116.44261177,4.348195106707834,-0.7535101856249993,1.5e-07,6.918539630966796e-09,0.0,63,16,252.6703334992204,661.628472,mp-4755,Sc3Fe2Si3,https://materialsproject.org/materials/mp-4755,15.29722795651295,74.40976721413865,-8.604250342815693,-0.5045126942092143
-4.95478968,-19.81915872,9.328157000334617,-0.7572583375000006,2.3e-06,3.814451363257333e-07,0.0,225,4,70.27052234845601,394.7480000000001,mp-977374,LiLuPd2,https://materialsproject.org/materials/mp-977374,28.500775426827,42.58337917535614,-8.604250342815693,-0.5045126942092143
-8.4682780775,-101.61933693,8.958789363381158,-0.26795932694444485,10.4186919,0.8111501214907666,0.0,191,12,149.68882705064743,807.5875599999998,mp-13268,GdCo4B,https://materialsproject.org/materials/mp-13268,42.47398644393749,83.14577416183725,-8.604250342815693,-0.5045126942092143
-10.0603752775,-80.48300222,16.24620172152039,0.17360973562499815,7.365e-05,4.775057767949236e-06,0.0,194,8,179.7510966799567,1758.62928,mp-973911,Pa3Re,https://materialsproject.org/materials/mp-973911,7.608846953616946,74.59784215838195,-8.604250342815693,-0.5045126942092143
-6.876367011428571,-96.26913816,7.494223265169302,-0.8077760720408165,2.78e-05,1.8845144284583142e-06,0.0,136,14,171.91855672986483,775.8902479999998,mp-505598,Zr(Ni2P)2,https://materialsproject.org/materials/mp-505598,17.563202085334346,28.656641799142424,-8.604250342815693,-0.5045126942092143
-6.24706694625,-99.95307114,11.024938305286915,-0.6055518275000003,0.0058479,0.0001630004244699472,0.0,62,16,418.1081466816496,2775.976,mp-1189478,Er3Ir,https://materialsproject.org/materials/mp-1189478,-32.68970913155305,70.57101763055968,-8.604250342815693,-0.5045126942092143
-7.70301279,-61.62410232,7.197997560958985,0.3455114318750008,9.72445365,0.7793358913908801,0.0,194,8,145.4179307879631,630.3482700000002,mp-979923,SmMn3,https://materialsproject.org/materials/mp-979923,55.84151739255637,68.62436858499312,-8.604250342815693,-0.5045126942092143
-6.661206838181817,-146.54655044,8.004879191813163,-0.1373940170845458,23.9607932,1.138176917321968,0.0,166,22,245.34027329576932,1182.699835,mp-1191845,Y2Co17H3,https://materialsproject.org/materials/mp-1191845,62.25741890266882,74.91004435564997,-8.604250342815693,-0.5045126942092143
-9.52596037,-114.31152444,12.081259298153427,-0.15034117333333322,3.5000000000000004e-06,1.733269953983942e-07,0.0,194,12,235.33106663624093,1712.15224,mp-1102354,ThTc2,https://materialsproject.org/materials/mp-1102354,67.13211909313986,59.86385130111682,-8.604250342815693,-0.5045126942092143
-7.285947385,-43.71568431,9.872475168389052,-0.12358973999999988,3.1958743999999997,0.3969074817536168,0.0,227,6,93.837805974354,557.8979999999998,mp-474,ErFe2,https://materialsproject.org/materials/mp-474,43.05686639084622,69.9137349362753,-8.604250342815693,-0.5045126942092143
-5.74593177,-22.98372708,14.349403526723833,-1.1784416825,2.44e-05,3.40278578460902e-06,0.0,225,4,83.56658292644461,722.1333500000002,mp-972424,TbYbPt2,https://materialsproject.org/materials/mp-972424,23.49954444367948,53.631446727613856,-8.604250342815693,-0.5045126942092143
-10.138966655,-40.55586662,14.914542567620547,0.7235412859375003,10.8935671,1.3107697232633209,0.0,139,4,96.85479785996046,869.92535,mp-1187386,TbNp3,https://materialsproject.org/materials/mp-1187386,7.516467073293134,75.90601244735147,-8.604250342815693,-0.5045126942092143
-5.87123947,-52.84115523,9.005548545813678,-0.7142164605555551,8.41e-05,5.83977421067523e-06,0.0,12,9,167.83300381384853,910.20339,mp-1078499,Er3(CoGe2)2,https://materialsproject.org/materials/mp-1078499,19.2036710662388,68.79411446282668,-8.604250342815693,-0.5045126942092143
-8.497476343125,-135.95962149,7.989592081711299,0.15376520468750066,5.598162925,0.43708255926195216,0.0,121,16,149.265515067582,718.1828,mp-1205436,Fe3C,https://materialsproject.org/materials/mp-1205436,42.079313935722865,87.6960544155075,-8.604250342815693,-0.5045126942092143
-8.632968046,-86.32968046,5.9444521002951785,-0.8691005504279999,0.0001774,1.3915000528671136e-05,0.5679000000000003,12,10,148.57571053570962,531.8762,mp-989616,CaWN3,https://materialsproject.org/materials/mp-989616,35.42779607747101,-9.781910201793124,4.801378798861892,-4.503356337129264
-6.4513099575,-25.80523983,6.994059728572209,-0.488275432500001,1.2e-06,2.5002173045519237e-07,0.0,123,4,55.934648966754224,235.5923386,mp-1215308,ZrAlNi2,https://materialsproject.org/materials/mp-1215308,32.228571452776215,75.42749964311041,-8.604250342815693,-0.5045126942092143
-6.560582852380952,-137.7722399,9.167289695632403,-0.3543221045238089,0.00011840000000000002,5.179332439177308e-06,0.0,65,21,266.41295674201666,1470.7782799999998,mp-863728,Ho4Ni13C4,https://materialsproject.org/materials/mp-863728,32.201994742531014,84.87189295046899,-8.604250342815693,-0.5045126942092143
-4.1421823025,-16.56872921,0.8631503066332555,1.4241224050000003,1.6854281000000002,0.01791657919442308,0.0,71,4,1096.3079521902393,569.8622690000001,mp-1097356,Y2PtAu,https://materialsproject.org/materials/mp-1097356,-68.37980887678718,39.753872504374726,-8.604250342815693,-0.5045126942092143
-5.82885624,-11.65771248,11.472578328689234,-0.9768508550000004,2e-07,5.7228891637466684e-08,0.0,221,2,40.7279066188659,281.387,mp-2205,LuPd,https://materialsproject.org/materials/mp-2205,16.92505688001372,54.308855705793725,-8.604250342815693,-0.5045126942092143
-6.20943947,-24.83775788,9.06304909328038,-0.9176896637500008,4.0600000000000004e-05,6.0516723059626096e-06,0.0,225,4,78.18583126183681,426.73012200000005,mp-1187564,TmScPd2,https://materialsproject.org/materials/mp-1187564,16.931574579996074,54.27120067930042,-8.604250342815693,-0.5045126942092143
-5.7856032959375,-185.13930547,4.286159872440451,-1.85025433256,16.0000002,0.665698401151695,0.0,2,32,280.1043811569522,723.001465,mp-1175681,Li9Mn2Co5O16,https://materialsproject.org/materials/mp-1175681,-84.00605974721655,-33.41935852671357,-8.604250342815693,-0.5045126942092143
-6.421852394615384,-83.48408113,9.411463833259766,-0.4614163998717953,4e-07,2.1434905882275618e-08,0.0,189,13,217.47825414426217,1232.605,mp-30060,Sn5(BRh3)2,https://materialsproject.org/materials/mp-30060,33.71120890996377,54.60039051009293,-8.604250342815693,-0.5045126942092143