energy_per_atom,energy,density,formation_energy_per_atom,total_magnetization_uB,total_magnetization_T,band_gap,sgr,num_sites,cell_volume,weight,mp_id,formula,URL,tsne_cry_lin1_0,tsne_cry_lin1_1,tsne_cry_lin2_0,tsne_cry_lin2_1
-4.541773588333333,-27.25064153,8.166850941696081,-0.2367957058333333,2.5e-07,2.5822906299409112e-08,0.0,74,6,112.826811953641,554.904,mp-1077154,SmCu2,https://materialsproject.org/materials/mp-1077154,1.3916955198243597,41.36046123552868,-8.604250342815693,-0.5045126942092143
-7.15337558388889,-257.52152102,8.234249664198117,-3.1210662198611114,1.016858825,0.02387283603805113,0.0,62,36,496.4026306807562,2461.552,mp-505808,BaEr2CuO5,https://materialsproject.org/materials/mp-505808,-47.025859984057206,-7.577711026577956,-8.604250342815693,-0.5045126942092143
-5.2188161525,-20.87526461,10.151581498574004,-0.6157519999999996,7.120000000000001e-05,1.0055290901528124e-05,0.0,225,4,82.52067691847166,504.48400000000004,mp-1184092,Er2CuPd,https://materialsproject.org/materials/mp-1184092,-10.03006162304565,55.01900650598178,-8.604250342815693,-0.5045126942092143
-6.9196360536842105,-131.47308502,4.099262402509297,-2.4768285421100003,14.0000019,0.7243398614222072,0.0,123,19,225.2491373844977,556.05758,mp-1247612,Ca4Mn4O11,https://materialsproject.org/materials/mp-1247612,-36.112066225086174,6.125015209604023,-8.604250342815693,-0.5045126942092143
-5.876975748235294,-99.90858772,10.556527868016104,-0.8604819770588233,3e-07,1.2025113398684043e-08,0.0,229,17,290.74315691280833,1848.3385,mp-570070,Yb4Ge6Rh7,https://materialsproject.org/materials/mp-570070,6.677584847612297,47.92069797891081,-8.604250342815693,-0.5045126942092143
-5.5171744275000005,-154.48088397,4.733439073926523,-2.4334830727678587,1.4396103,0.03579968289924257,0.0,1,28,468.64414220269686,1335.8906000000004,mvc-12056,Sr9Zn3(CuO7)2,https://materialsproject.org/materials/mvc-12056,-53.888511898417995,-2.3684750586487957,-8.604250342815693,-0.5045126942092143
-4.711595736666667,-28.26957442,9.483122461601976,-0.5000762250000003,4.55e-06,4.238592677723788e-07,0.0,194,6,125.10283187584484,714.446,mp-1072823,LuCuSn,https://materialsproject.org/materials/mp-1072823,-5.313283591322211,55.7272870871441,-8.604250342815693,-0.5045126942092143
-4.2207416875,-16.88296675,8.576847743731653,-0.3040436914583333,0.0,0.0,0.0,225,4,75.94627638072014,392.27,mp-21475,SmInCu2,https://materialsproject.org/materials/mp-21475,-8.013555778507698,53.93064264289898,-8.604250342815693,-0.5045126942092143
-5.2602166325,-126.24519918,3.016093253255145,0.20673938520666665,0.9993680125,0.027564850104428017,0.0,12,24,422.5199667393917,767.43731424,mp-1029528,NaCoN,https://materialsproject.org/materials/mp-1029528,2.041809565664616,6.651307131622382,-8.604250342815693,-0.5045126942092143
-7.210624416428572,-100.94874183,7.412436622746926,-2.8831063757142865,1.9275349,0.12122150999651105,0.0,38,14,185.31048307033882,827.2026,mp-1220220,Nd4CuNiO8,https://materialsproject.org/materials/mp-1220220,-42.86960113659409,-3.9987357651332456,-8.604250342815693,-0.5045126942092143
-4.273477505,-25.64086503,7.823037334178633,-0.13297438875000012,1e-06,1.3276060494428204e-07,0.0,187,6,87.7825524932698,413.556182,mp-1219080,SmBeCu4,https://materialsproject.org/materials/mp-1219080,3.8129157261053215,45.06203620418932,-8.604250342815693,-0.5045126942092143
-5.08984844,-50.8984844,3.6561493731945016,-0.447267126952,0.0,0.0,0.2810000000000006,12,10,127.32344177175042,280.3388,mvc-2126,Mg2CuN2,https://materialsproject.org/materials/mvc-2126,1.5542749760040602,4.7233762201968945,-8.604250342815693,-0.5045126942092143
-4.41306869,-44.1306869,9.20711349293625,-0.3960156366666666,2.0600000000000003e-05,1.1546330640983238e-06,0.0,127,10,207.92210250986363,1152.856,mp-1078738,Er2InCu2,https://materialsproject.org/materials/mp-1078738,-7.92940008322319,54.85853129951312,-8.604250342815693,-0.5045126942092143
-5.11186237,-61.34234844,3.639809061473368,-0.08881897229333369,0.0,0.0,0.1730999999999998,62,12,174.62098806646347,382.75947712,mp-1029466,NaNiN,https://materialsproject.org/materials/mp-1029466,-1.376778053170158,11.43794563467557,-8.604250342815693,-0.5045126942092143
-7.672640593333334,-46.03584356,8.348842363335416,-0.24530956333333384,7.2047023,0.7423344729205003,0.0,74,6,113.108134316971,568.684,mp-1077933,GdCu2,https://materialsproject.org/materials/mp-1077933,1.3616913024412616,41.3352635246478,-8.604250342815693,-0.5045126942092143
-7.139209298194443,-1028.04613894,6.463833727392353,-2.6334136823611107,14.472306525,0.08513172582843098,0.0,1,144,1981.17911988061,7711.96106,mp-1076880,La7SmCo5Cu3O20,https://materialsproject.org/materials/mp-1076880,-33.08667440897074,-18.949956957714427,-8.604250342815693,-0.5045126942092143
-6.980639494605264,-530.52860159,4.066888302932624,-2.5378319830310523,14.00000375,0.17965486286204727,0.0,1,76,908.1688517602942,2224.23032,mp-1247698,Ca4Mn4O11,https://materialsproject.org/materials/mp-1247698,-31.804653180177393,-9.850755230925234,-11.322804108018982,-0.29862017040586497
-3.97223547,-15.88894188,11.30062731866538,-0.7774747424999999,0.00027039999999999996,3.7156836170855295e-05,0.0,225,4,84.80967270759973,577.163488,mp-866068,TbMgAu2,https://materialsproject.org/materials/mp-866068,-14.798372684718744,44.71623094761639,-8.604250342815693,-0.5045126942092143
-5.1980381225,-20.79215249,9.968264654865457,-0.5896486749999994,7.950000000000001e-05,1.1127449344582409e-05,0.0,225,4,83.26240099844418,499.82664000000005,mp-983410,Ho2CuPd,https://materialsproject.org/materials/mp-983410,-10.0418881749061,55.00866155773725,-8.604250342815693,-0.5045126942092143
-7.143265846499999,-142.86531693,4.341714468214345,-0.7015045838389995,0.0,0.0,0.8073999999999999,176,20,419.91712592766345,1097.93279,mp-861914,Ba3Co(CN)3,https://materialsproject.org/materials/mp-861914,3.7076379752486255,4.890196533152411,5.46739281771716,-6.413478610660119
-4.37330528,-26.23983168,9.645457029753787,-0.2029169183333336,3e-06,4.121852859873141e-07,0.0,216,6,84.82154872155023,492.69699999999995,mp-580136,LuCu5,https://materialsproject.org/materials/mp-580136,4.4241319635472935,44.939046777856404,-8.604250342815693,-0.5045126942092143
-9.4050576825,-37.62023073,14.484359608157222,-0.292156409375,3.4e-06,5.69651094329446e-07,0.0,225,4,69.55805162341588,606.7330000000001,mp-977567,Hf2CuRe,https://materialsproject.org/materials/mp-977567,-9.980966609298141,53.335018943096934,-8.604250342815693,-0.5045126942092143
-6.016718504,-180.50155512,5.796411967275776,-2.236431796583333,6.0,0.1870886679875547,0.14430000000000032,71,30,373.74999452136564,1304.64198,mp-1218444,Sr3Co2TeO9,https://materialsproject.org/materials/mp-1218444,-33.93222110623659,-14.266338038321287,-8.604250342815693,-0.5045126942092143
-4.807796695714286,-67.30915374,3.0160399741975485,-1.6832736701785715,0.0,0.0,0.3980000000000001,227,14,360.21107057347,654.252,mp-1100332,Ca2SnS4,https://materialsproject.org/materials/mp-1100332,-10.074792461129288,13.183489804557713,-8.604250342815693,-0.5045126942092143
-7.0008893737500015,-1064.13518481,4.0324228069766805,-2.5542580529400007,27.000000399999994,0.17222603576840112,0.0,1,152,1827.0161774139222,4436.69286,mp-1247613,Ca8Mn7CrO22,https://materialsproject.org/materials/mp-1247613,-31.864743925090824,-10.063062768867187,-8.604250342815693,-0.5045126942092143
-5.99630788,-23.98523152,11.768620467452452,-0.7961140087499992,4.8e-06,7.290727178390762e-07,0.0,225,4,76.72692934401326,543.78132,mp-865783,YbHoRh2,https://materialsproject.org/materials/mp-865783,14.001760145214709,47.891455049448744,-8.604250342815693,-0.5045126942092143
-4.0923890654545465,-45.01627972,9.096730117914317,-0.5037829309090909,8e-07,4.80084319380596e-08,0.0,71,11,194.2002986074737,1063.864,mp-1095653,Yb3(CuGe)4,https://materialsproject.org/materials/mp-1095653,-4.420242287146039,46.985367738124275,-8.604250342815693,-0.5045126942092143
-5.24192611,-41.93540888,5.401586909891728,-1.9209764222916659,7.5e-07,7.900256450686304e-08,0.0,67,8,110.63626394888064,359.89,mp-997004,CaAgO2,https://materialsproject.org/materials/mp-997004,0.02566267014467313,-12.306631283819526,-8.604250342815693,-0.5045126942092143
-6.980091274324324,-258.26337715,4.014514001683282,-2.5321821306624326,27.999999600000006,0.6933673440408646,0.0,1,37,470.62183094508947,1137.77387,mp-1247586,SrCa7Mn6Cr2O21,https://materialsproject.org/materials/mp-1247586,-30.847984850825185,-10.470596496440297,-8.604250342815693,-0.5045126942092143
-7.472212657142856,-104.6109772,5.875639870431173,-3.0443976904942853,4.0,0.2387340311865765,0.10440000000000003,63,14,195.26440725079132,690.92223,mp-1218183,SrLaMnO4,https://materialsproject.org/materials/mp-1218183,-33.476765874633415,-10.284486438122126,-8.604250342815693,-0.5045126942092143
-6.973932608013699,-1018.19416077,3.919095534880402,-2.6331510932491784,54.00000105,0.3352163550087402,0.10420000000000007,1,146,1877.353239338764,4430.806214400001,mp-1247716,Sr2Ca14Mn14Al2O41,https://materialsproject.org/materials/mp-1247716,-30.96598525545489,-10.907933401698024,-8.604250342815693,-0.5045126942092143
-3.4857147612962964,-188.22859711,4.24848357353236,-0.4914349215385183,0.0,0.0,1.4489999999999998,159,54,913.8663357738473,2338.1239600000004,mp-707874,Ba7Cu3H17,https://materialsproject.org/materials/mp-707874,14.594772780364075,-16.817048628252632,7.483044501426713,-5.922290921493034
-5.991703776875,-862.80534387,4.697536432831291,-2.1336969150694443,10.7496961,0.06755786891545873,0.0,1,144,1854.375465743356,5245.88468,mp-1076273,Sr2Ca2Co3CuO10,https://materialsproject.org/materials/mp-1076273,-33.28099404098166,-16.027173816928826,-8.604250342815693,-0.5045126942092143
-3.0152386966666667,-18.09143218,7.396458777753506,0.18576428444444384,2.795e-05,2.4743816803907062e-06,0.0,194,6,131.64141691414812,586.364,mp-1018730,In2Cu,https://materialsproject.org/materials/mp-1018730,1.389616110830085,42.68264872654561,-8.604250342815693,-0.5045126942092143
-4.4479086955555545,-40.03117826,8.644318767339591,-0.4216138727777776,5.666666666666667e-07,3.3760646629590716e-08,0.0,189,9,195.61147955014417,1018.30065,mp-10079,TbAgGe,https://materialsproject.org/materials/mp-10079,-2.9013219161739308,55.91408801981339,-8.604250342815693,-0.5045126942092143
-6.125757655,-49.00606124,4.007574142430868,-3.0211153037500003,0.0,0.0,2.3279,221,8,133.23786160169712,321.5586,mp-1019541,BaCa3O4,https://materialsproject.org/materials/mp-1019541,32.07440489678524,-25.72589865149176,7.49413954724094,-0.4940467622558854
-7.0001808400000005,-35.0009042,4.498750332253854,0.2900549440480006,5.888546400000001,0.9417791297861864,0.0,115,5,72.86793579446102,197.4146,mvc-15532,Zn(CrN)2,https://materialsproject.org/materials/mvc-15532,4.3986383009321814,12.880586262321513,-8.604250342815693,-0.5045126942092143
-5.991491660588236,-101.85535823,10.613056811048883,-0.9661406400000002,7e-07,2.80014573736167e-08,0.0,229,17,291.33645552599705,1862.0281,mp-22062,Yb4As6Rh7,https://materialsproject.org/materials/mp-22062,13.676580392495616,47.93589555232746,-8.604250342815693,-0.5045126942092143
-6.606062657857143,-92.48487721,3.3223796343579286,-1.0312697710199987,2.0000003,0.10735778527405587,0.0,63,14,217.10705918382493,434.38429,mp-14763,Ca3MnN3,https://materialsproject.org/materials/mp-14763,5.703331034518257,8.204388064295232,-8.604250342815693,-0.5045126942092143
-7.442010155999999,-223.26030468,5.494787668639227,-0.9760968948333328,0.0033069,7.118767926056264e-05,0.0,1,30,541.3693380186902,1791.412,mp-675745,Cu(Mo3S4)2,https://materialsproject.org/materials/mp-675745,68.5624712848682,34.30470639449194,-8.604250342815693,-0.5045126942092143
-7.411374518571429,-51.87962163,6.847504064445922,-3.0261402128571437,4.88e-05,5.7103824781787965e-06,0.0,107,7,99.59374228857143,410.69107,mp-1222802,LaNdCuO4,https://materialsproject.org/materials/mp-1222802,-42.98392052680681,-2.4179967724777796,-8.604250342815693,-0.5045126942092143
-5.98907056,-23.95628224,11.616128177853895,-0.7820311599999998,5.479999999999999e-05,8.252610493138278e-06,0.0,225,4,77.38675538695028,541.351,mp-865751,YbDyRh2,https://materialsproject.org/materials/mp-865751,13.923086551162438,47.966912644713624,-8.604250342815693,-0.5045126942092143
-6.0090954975,-24.03638199,11.90051667138903,-0.8115642737499993,7.900000000000001e-05,1.2082063565487516e-05,0.0,225,4,76.2014793285907,546.11,mp-865749,YbErRh2,https://materialsproject.org/materials/mp-865749,14.006220389892265,47.88990936076184,-8.604250342815693,-0.5045126942092143
-5.96118493125,-143.06843835,2.9345129485046537,-0.9415215497416672,2.99999995,0.08432640235834281,0.0,193,24,414.6055417662066,732.693,mp-16916,Ca6FeN5,https://materialsproject.org/materials/mp-16916,6.142769171658915,6.2231353441315935,-8.604250342815693,-0.5045126942092143
-7.852226714375,-251.27125486,4.002107791108895,-0.6562246905349998,0.0,0.0,0.4931999999999999,14,32,600.5514853681822,1447.40456,mp-1196867,LaN3,https://materialsproject.org/materials/mp-1196867,33.69921036917784,-9.544911373062474,6.3366341580680885,-2.94278128972359
-7.275009924210527,-552.90075424,3.912780544238488,-2.8101640839892976,11.000000125,0.13755767713756356,0.0,1,76,931.934273844378,2195.94614,mp-1247725,Ca4TiMn3O11,https://materialsproject.org/materials/mp-1247725,-31.80064263274912,-10.11401587392353,-8.604250342815693,-0.5045126942092143
-5.765424755833332,-69.18509707,2.9640650983662336,-0.7192018416266664,3.00000055,0.1825259383707603,0.4604000000000004,136,12,191.5464784867829,341.9108,mp-1211085,LiCa2FeN2,https://materialsproject.org/materials/mp-1211085,6.852938298140073,8.080561418710344,-8.604250342815693,-0.5045126942092143
-5.312597172,-26.56298586,5.787448870262018,-0.4598758696250009,1.07e-05,1.8092885597485752e-06,0.0,160,5,68.92128532759706,240.2102,mp-1220109,Ni3S2,https://materialsproject.org/materials/mp-1220109,15.915424863851285,23.415451595866102,-8.604250342815693,-0.5045126942092143
-7.117799785277778,-256.24079227,7.540690435469373,-3.103765409027777,0.999999975,0.02378906396367709,0.0,62,36,489.89167875635474,2224.652,mp-17687,SrDy2CuO5,https://materialsproject.org/materials/mp-17687,-46.97869367165454,-7.616949516479934,1.728314329397433,-1.0412457844474012
-6.142305923928572,-171.98456587,3.238772890079181,-2.2101513946632663,1.25e-07,3.5944917613936348e-09,0.1816,4,28,405.2751246271201,790.4626480000002,mp-505349,KCuPO4,https://materialsproject.org/materials/mp-505349,-57.19966808947462,-15.090572790462327,1.2563466534055905,-2.2944132883576884
-5.78778339,-69.45340068,12.905111701018269,-0.782646405,0.003926275,0.00020302001639326879,0.0,62,12,225.38202871704087,1751.5880000000002,mp-568672,YbGeIr,https://materialsproject.org/materials/mp-568672,6.629730667405694,48.5133026374084,-8.604250342815693,-0.5045126942092143
-5.010855751428571,-70.15198052,3.2645728123502984,-1.5471504894642851,4e-07,1.3079981060463185e-08,0.0,69,14,356.39393417124734,700.6604,mp-8806,Sr2Cu2O3,https://materialsproject.org/materials/mp-8806,-45.046240351831294,-2.3653563248566454,-8.604250342815693,-0.5045126942092143
-6.294633461176471,-107.00876884,5.08859906914045,-2.461547327205882,0.0,0.0,0.10359999999999968,38,17,284.71344700433565,872.4833,mp-1228203,Ba4CaCu2CO9,https://materialsproject.org/materials/mp-1228203,3.772926301809184,6.149578077518663,-2.94297183873756,-1.5633751032849492
-2.5240374583333334,-15.14422475,5.463184057806283,-0.19855277333333307,1.5e-06,1.876318720254429e-07,0.0,74,6,93.16699220732129,306.52,mp-1221951,MgZnCu,https://materialsproject.org/materials/mp-1221951,3.087313356745107,40.03614887775813,-8.604250342815693,-0.5045126942092143
-7.306333365,-43.83800019,8.93763426626222,-0.3387069929166676,0.30102415,0.03963466792232398,0.0,131,6,88.51228296096755,476.40579,mp-8475,ErCoC,https://materialsproject.org/materials/mp-8475,-13.389585300537494,35.044216285110075,-8.604250342815693,-0.5045126942092143
-6.971824956756757,-257.9575234,3.9177400272272425,-2.519241848661352,28.999999900000002,0.7294117025886472,0.0,6,37,463.3430969634745,1093.173815,mp-1247711,Ca8Mn7CrO21,https://materialsproject.org/materials/mp-1247711,-30.775921622050646,-10.17542512571276,-8.139285328217818,2.224142013699704
-8.27866025,-49.6719615,8.24344942549947,-0.6768445750000005,7.007801400000001,0.6908371928589587,0.0,186,6,118.2179712861929,586.8720000000002,mp-13212,GdCuGe,https://materialsproject.org/materials/mp-13212,-4.39979320089879,56.5827190064335,-8.604250342815693,-0.5045126942092143
-8.95496911,-89.54969109999999,6.209058272810164,-0.24589320817857185,2.13415085,0.2336983049336014,0.0,63,10,106.42581360348271,397.94552400000003,mp-1078492,Cr3PC,https://materialsproject.org/materials/mp-1078492,14.511661152316199,26.05033381457613,-8.604250342815693,-0.5045126942092143
-4.233934085555556,-38.10540677,8.957470294234383,-0.4150692500000004,2.8e-06,1.7213506749149876e-07,0.0,189,9,189.56846991551393,1022.592,mp-1080594,DyInCu,https://materialsproject.org/materials/mp-1080594,-6.959774870901513,54.728660101469394,-8.604250342815693,-0.5045126942092143
-7.648816372500002,-152.97632745,6.815622701546693,-2.8574754528940014,12.9999977,0.6265568666737585,0.22449999999999992,2,20,241.80217837723092,992.468335,mp-1220253,Nd4Mn3NiO12,https://materialsproject.org/materials/mp-1220253,-31.69834923719429,6.0187692363723055,-8.604250342815693,-0.5045126942092143
-7.411120725625,-118.57793161,2.8134898583807364,-0.8304829154399993,0.0,0.0,0.9449999999999998,64,16,240.67348635371604,407.77867712,mp-1029711,NaVN2,https://materialsproject.org/materials/mp-1029711,32.782548975220145,-10.883119652681144,3.956006437168365,-5.2051394595109555
-6.297425812916668,-151.13821951,2.6441792663503207,-2.3657099499613103,0.99999995,0.03273285254446018,0.5228999999999999,15,24,356.03570370248184,566.9377251200002,mp-760251,Na2CuP2O7,https://materialsproject.org/materials/mp-760251,-56.82235989846275,-15.025501519233586,-1.6761026213348675,-0.01803586593237052
-6.874311319375,-109.98898111,3.841869756017453,-2.112915198208749,5.99999985,0.35176833733522833,0.07290000000000019,59,16,198.779649746054,459.90218,mvc-12542,CaMn2O5,https://materialsproject.org/materials/mvc-12542,-40.4210430822723,-23.255138872225636,-8.604250342815693,-0.5045126942092143
-4.6399535996428565,-129.91870079,4.287940936098978,-1.001014278142858,1.000000075,0.036812148738999406,0.0,7,28,316.5820536378535,817.49667712,mp-1176434,Na(NiO2)2,https://materialsproject.org/materials/mp-1176434,-62.65307770523317,-24.790718525104047,1.9077483421606571,-1.739594367563593
-4.0534697325,-32.42775786,6.276079390404669,-0.11915904999999948,0.4911206,0.03710368071369111,0.0,194,8,154.25831544055987,583.0260000000002,mp-22237,CeMgCu2,https://materialsproject.org/materials/mp-22237,-8.682704386735969,52.937414119099685,-8.604250342815693,-0.5045126942092143
-5.8098580575,-92.95772892,3.5813754811979424,-0.7567784158924988,2.0,0.12237010504102618,0.0,148,16,190.47241593283775,410.80229000000014,mp-570931,SrLi3MnN3,https://materialsproject.org/materials/mp-570931,2.5382147264903403,5.1232367113844015,-8.604250342815693,-0.5045126942092143
-4.3872006775,-17.54880271,3.92817836073933,-0.7471217852500001,0.0,0.0,1.8409,166,4,80.42538506364681,190.25464,mp-690794,Sr2HN,https://materialsproject.org/materials/mp-690794,25.647676328985074,-10.275345889954043,7.870759478469876,-2.211148362114644
-5.235352565,-94.23634617,4.191143692350079,-3.458608143571112,0.9999978999999999,0.04168985959017693,1.046,64,18,279.5413660200867,705.5528383999998,mp-557552,Sr2CuF6,https://materialsproject.org/materials/mp-557552,-51.74457556686041,-15.331458900534527,1.6382678758824774,0.2655939030327523
-2.377957388,-11.88978694,1.6283425549010682,-0.3214684417240001,0.6804445,0.02321438435612665,0.0,123,5,341.5961481243914,334.9728800000001,mp-1214100,Ca2HI2,https://materialsproject.org/materials/mp-1214100,-34.38342654545086,48.93596116058809,-8.604250342815693,-0.5045126942092143