energy_per_atom,energy,density,formation_energy_per_atom,total_magnetization_uB,total_magnetization_T,band_gap,sgr,num_sites,cell_volume,weight,mp_id,formula,URL,tsne_cry_lin1_0,tsne_cry_lin1_1,tsne_cry_lin2_0,tsne_cry_lin2_1
-6.2114553,-55.90309770000001,8.098065201844728,-0.356056677777777,7.330926600000001,0.5037223742336323,0.0,189,9,169.607501690316,827.136595,mp-567416,Ho3Mn3Ga2Si,https://materialsproject.org/materials/mp-567416,24.660857911714114,70.15576360392434,-8.604250342815693,-0.5045126942092143
-8.62439258,-86.24392579999999,7.350043737153141,-0.3588595760000004,14.278557000000001,0.8072817037660154,0.0,127,10,206.1278328994761,912.3836,mp-1205657,Gd2MgNi2,https://materialsproject.org/materials/mp-1205657,4.131020093648594,59.31214338109089,-8.604250342815693,-0.5045126942092143
-6.376787395,-25.50714958,10.662597316142175,-0.2564049537499997,1.0486715,0.2047806843750088,0.0,225,4,59.679874708089436,383.2144,mp-11519,NiSnRh2,https://materialsproject.org/materials/mp-11519,34.711273265402326,55.63693114090979,-8.604250342815693,-0.5045126942092143
-9.8121857075,-39.24874283,10.875796581826203,-0.7429445195833324,1.1e-06,2.1693667520884708e-07,0.0,225,4,59.093148899208614,387.034,mp-865842,Ti2OsRu,https://materialsproject.org/materials/mp-865842,63.19751006991087,55.777282255634965,-8.604250342815693,-0.5045126942092143
-9.08125971,-36.32503884,14.202613936974707,-0.2460761374999993,2.105748,0.4539461805658512,0.0,225,4,54.060425304378306,462.3795836,mp-864951,MnAlOs2,https://materialsproject.org/materials/mp-864951,41.50814928697504,52.57316233640059,-8.604250342815693,-0.5045126942092143
-5.01126606625,-40.09012853,7.850682915642933,-0.42466184500000015,6.05e-06,4.3083782557034816e-07,0.0,63,8,163.65111809913162,773.70842,mp-1078795,TmGe3,https://materialsproject.org/materials/mp-1078795,3.922199625350901,74.18757945467065,-8.604250342815693,-0.5045126942092143
-1.8090324614814812,-146.53162938,6.657350139279523,-0.16065036117283946,6.8e-06,5.672429124538075e-08,0.0,204,81,1397.0670891345746,5601.05156,mp-567204,Ho8Mg12Zn61,https://materialsproject.org/materials/mp-567204,0.961889733795644,97.32990706513432,-8.604250342815693,-0.5045126942092143
-7.3505857200000015,-88.20702864,12.273926383414615,-1.0948116116666664,5.75e-07,3.1813094203381126e-08,0.0,62,12,210.63927958034412,1556.94684,mp-1207675,TmSiIr,https://materialsproject.org/materials/mp-1207675,15.844798046216386,61.72149718448664,-8.604250342815693,-0.5045126942092143
-7.145283065,-28.58113226,8.743218447300181,-0.30433394000000025,2.0282939,0.44371512674547947,0.0,225,4,53.27262259856804,280.49577,mp-4364,NbGaCo2,https://materialsproject.org/materials/mp-4364,44.72814161773749,46.25573040038779,-8.604250342815693,-0.5045126942092143
-5.769216942000001,-57.69216942,7.85369780062116,-0.3316264410000002,2.6e-06,1.5786802296882813e-07,0.0,64,10,191.9360731757451,907.7822800000001,mp-1691,La2Ni3,https://materialsproject.org/materials/mp-1691,2.143800686979761,57.80962278821314,-8.604250342815693,-0.5045126942092143
-4.20211939,-16.80847756,6.5710933694001925,-0.2511322849999997,1.67e-05,3.243378478539167e-06,0.0,225,4,60.00621974571587,237.45691200000002,mp-867896,ScZnCu2,https://materialsproject.org/materials/mp-867896,33.03252795523652,67.63247338343929,-8.604250342815693,-0.5045126942092143
-5.05034674625,-40.40277397,7.787606481146352,-0.4414342937499995,6.5e-07,4.6116155463809024e-08,0.0,63,8,164.26222060311622,770.3580000000001,mp-513,ErGe3,https://materialsproject.org/materials/mp-513,3.877387021904748,74.17738750715627,-8.604250342815693,-0.5045126942092143
-7.2438345800000015,-86.92601496,7.965908045776883,-0.19363129500000065,1.9078546000000003,0.1499656771767773,0.0,164,12,148.26233244568718,711.2413971999998,mp-1220480,NbAlCo4,https://materialsproject.org/materials/mp-1220480,60.15205305531231,65.18382887505699,-8.604250342815693,-0.5045126942092143
-3.7719674041379303,-109.38705472,9.466817982185438,-0.2044932879310339,1e-06,2.6578315217229503e-08,0.0,225,29,438.4801924918437,2499.798,mp-1193632,Yb6Cu23,https://materialsproject.org/materials/mp-1193632,4.750105626808644,44.962335898968064,-8.604250342815693,-0.5045126942092143
-8.005618772,-160.11237544,8.892005361169836,-0.5710359356666658,3.75440775,0.17034228659821504,0.0,127,20,256.8599493107813,1375.457,mp-1189775,Ti2FeB2Rh5,https://materialsproject.org/materials/mp-1189775,39.92421464206828,56.50675962700456,-8.604250342815693,-0.5045126942092143
-4.876120556,-24.38060278,8.941627486606409,-0.4592667230000004,0.0,0.0,0.0,71,5,92.9744679852322,500.6465,mp-13535,Tb2ZnNi2,https://materialsproject.org/materials/mp-13535,20.10574785660041,78.36125508732475,-8.604250342815693,-0.5045126942092143
-4.59198612625,-36.73588901,3.0499467214649503,0.1587450304166662,0.02476915,0.0018365508662148,0.0,57,8,157.17576015533322,288.688,mp-1094342,MgTi,https://materialsproject.org/materials/mp-1094342,33.24740975553398,61.03435712235444,-8.604250342815693,-0.5045126942092143
-7.426961045,-89.12353254,9.59060638333334,-0.4895192683333332,7.13e-05,4.537688888857856e-06,0.0,38,12,183.11850782098333,1057.6189344,mp-1224502,HfAlCo,https://materialsproject.org/materials/mp-1224502,33.396139950289786,59.20382385865405,-8.604250342815693,-0.5045126942092143
-6.5533221315384615,-85.19318771,5.909175782632543,-0.2447432211538464,6.913986200000001,0.4352568905126296,0.0,71,13,185.1229578846744,658.7765016000002,mp-1225086,Er(MnAl)6,https://materialsproject.org/materials/mp-1225086,12.977400690899445,89.0454957999516,-8.604250342815693,-0.5045126942092143
-9.579144345,-19.15828869,13.788267431191475,-0.0964186050000002,1.612557,0.6505147130199974,0.0,221,2,28.88919089961741,239.881075,mp-1009826,TaCo,https://materialsproject.org/materials/mp-1009826,60.700510712524135,55.7550544303594,-8.604250342815693,-0.5045126942092143
-5.164469708333333,-30.98681825,8.386309037109966,-0.5899128149999994,1.65e-06,1.545351671160407e-07,0.0,63,6,124.43256272071878,628.4284200000001,mp-13037,TmGe2,https://materialsproject.org/materials/mp-13037,3.9071614966175066,74.20215322527316,-8.604250342815693,-0.5045126942092143
-3.4023155933333338,-40.82778712,9.63695715374525,-0.7423800483333336,2.5e-08,1.2257280499420836e-09,0.0,62,12,237.69678708728162,1379.476,mp-13025,YbZnPd,https://materialsproject.org/materials/mp-13025,17.719129830382787,59.72289001414404,-8.604250342815693,-0.5045126942092143
-7.338846567241379,-212.82655045,9.874842316176624,-0.7817882674137936,1.2e-06,3.768857034245053e-08,0.0,225,29,371.06416083179886,2206.6329,mp-580744,Hf6Si7Ni16,https://materialsproject.org/materials/mp-580744,37.276366843506686,70.91438274747509,-8.604250342815693,-0.5045126942092143
-8.277968748333334,-99.33562498,9.162012319480414,-0.7102443166666674,7.0780504,0.3494908621825193,0.0,62,12,236.0235037617756,1302.258,mp-1103440,GdZnRh,https://materialsproject.org/materials/mp-1103440,17.1054751424307,59.024480685928964,-8.604250342815693,-0.5045126942092143
-6.139102678333334,-36.83461607,10.420692938292026,-0.4563616195833345,0.9999418999999999,0.12857848757305254,0.0,65,6,90.63248363981162,568.76307,mp-1222871,LaNi4Pt,https://materialsproject.org/materials/mp-1222871,28.813985233475513,80.252091076267,-8.604250342815693,-0.5045126942092143
-5.0878056475,-40.70244518,7.456130830089308,-0.46387982125,3.25e-06,2.2564829763791822e-07,0.0,63,8,167.85285290117926,753.6907000000001,mp-1025491,TbGe3,https://materialsproject.org/materials/mp-1025491,3.819322125974197,74.14951634335289,-8.604250342815693,-0.5045126942092143
-8.02496077875,-128.39937246,8.406371365584299,-0.2191234060416658,20.9587763,1.4469631644766856,0.0,6,16,168.80522085862992,854.5655,mp-1225075,Fe9B4Rh3,https://materialsproject.org/materials/mp-1225075,54.63735501591821,74.5376793375342,-8.604250342815693,-0.5045126942092143
-5.003521591944446,-180.12677731,8.670181365407776,-0.5655621377777772,0.0002093,4.389764205927269e-06,0.0,6,36,555.6553023060386,2901.2459999999996,mp-1226188,Dy2(GaNi)5,https://materialsproject.org/materials/mp-1226188,23.69585468046904,80.0764941686941,-8.604250342815693,-0.5045126942092143
-6.335949460384616,-164.73468597,7.394681269523947,-0.0022632053846146725,0.042795230769230766,0.001403592646745442,0.0,166,26,355.3298690312297,1582.3483,mp-1182452,CrGa,https://materialsproject.org/materials/mp-1182452,45.8320903654442,65.30950349914863,-8.604250342815693,-0.5045126942092143
-9.547252555833332,-114.56703067,12.439313147068072,-0.2989429899999981,2.22924965,0.14546380763843675,0.0,194,12,178.5998884332877,1337.9149100000004,mp-1207954,U2Mn3Si,https://materialsproject.org/materials/mp-1207954,54.68369260954032,63.94291594589871,-8.604250342815693,-0.5045126942092143
-8.743282545333331,-262.29847636,10.8468210296211,-0.3992703784583341,5.94e-05,1.7870832505578305e-06,0.0,225,30,387.3638495990393,2530.3026600000003,mp-642273,U6Fe16Si7C,https://materialsproject.org/materials/mp-642273,49.8862680519309,64.16728532070081,-8.604250342815693,-0.5045126942092143
-7.2577685025,-29.03107401,6.070069620623644,-0.26172534833333394,5e-07,9.664740269644805e-08,0.03699999999999992,216,4,60.29166044514924,220.395045,mp-1064731,Ti2MnGa,https://materialsproject.org/materials/mp-1064731,35.91506035394824,58.889992290442855,-8.604250342815693,-0.5045126942092143
-7.25228126,-14.50456252,13.244934717559714,-0.9463162250000005,0.0,0.0,0.0,221,2,27.48127783322959,219.1985386,mp-1885,AlIr,https://materialsproject.org/materials/mp-1885,41.913285555020344,52.30971053434517,-8.604250342815693,-0.5045126942092143
-5.923171608333334,-71.07805929999999,8.341167301509488,-0.026016583333333898,1.6729750666666667,0.09269072027302712,0.0,10,12,210.34424732466232,1056.5945849999996,mp-1225200,FeCoSn2,https://materialsproject.org/materials/mp-1225200,44.99272060274398,45.03595763100994,-8.604250342815693,-0.5045126942092143
-7.782582091666666,-93.3909851,8.832301202615245,-0.4700885811111111,0.01441265,0.00110889209402216,0.0,191,12,151.47186777659164,805.6691999999998,mp-1102948,GdNi4B,https://materialsproject.org/materials/mp-1102948,30.39591400118766,85.04560358652151,-8.604250342815693,-0.5045126942092143
-6.66109101,-79.93309212,8.742546203430827,-0.8611844183333327,8.75e-07,4.6295803559948534e-08,0.022199999999999772,63,12,220.26416849607585,1159.6654,mp-20535,TbSiRh,https://materialsproject.org/materials/mp-20535,17.03003306097303,63.367640183430126,-8.604250342815693,-0.5045126942092143
-6.568656410625,-105.09850257,12.047629265026133,-0.9219690537499988,3e-07,1.1251204554671656e-08,0.0,63,16,310.7417890039364,2254.51,mp-30235,Lu3Ge3Ir2,https://materialsproject.org/materials/mp-30235,15.798889232284601,62.00331113281971,-8.604250342815693,-0.5045126942092143
-6.08949989875,-48.71599919,5.930897549871825,-0.4877130762500004,2.5e-08,2.997882698568993e-09,0.0,62,8,97.18579698033743,347.1156,mp-351,SiNi,https://materialsproject.org/materials/mp-351,36.91052445986389,71.85108947278997,-5.688671899140368,1.080697128584184
-3.208490755,-57.75283359,6.111792694300535,-0.3122760500000001,2.6666666666666667e-07,1.0780016816739937e-08,0.0,191,18,288.2881037059232,1061.0754000000004,mp-542953,CaZn3Ni2,https://materialsproject.org/materials/mp-542953,28.68742920240014,77.74963259858697,-8.604250342815693,-0.5045126942092143
-7.915302085,-31.66120834,5.6528108226678775,-0.3141268483333341,2.27e-05,4.118681065468036e-06,0.0,225,4,64.23106478312434,218.6555386,mp-861627,Ti2AlMo,https://materialsproject.org/materials/mp-861627,36.759008650747425,59.07123906432089,-8.604250342815693,-0.5045126942092143
-9.015217096923076,-117.19782226,8.922608679287746,0.00946713307692339,2.319057,0.1629334792512084,0.0,139,13,165.8740770372245,891.2946000000002,mp-31221,ThMn12,https://materialsproject.org/materials/mp-31221,56.84954874940983,67.8161217690858,-8.604250342815693,-0.5045126942092143
-7.875836228333332,-47.25501737,6.816094124488249,0.04458217500000098,6.3396502,0.7552310123472146,0.0,166,6,97.82793987305666,401.55903000000006,mp-1216070,Y2Mn3Co,https://materialsproject.org/materials/mp-1216070,42.317881654751844,72.75241637178443,-8.604250342815693,-0.5045126942092143
-9.253327660833332,-111.03993193,8.043992601382719,-0.4246034328571421,0.0,0.0,0.0,124,12,190.550323518364,923.064954,mp-21447,Nb4CoP,https://materialsproject.org/materials/mp-21447,46.29607957216122,61.29476002386616,-8.604250342815693,-0.5045126942092143
-5.719120974545453,-62.91033072,9.700583092339057,-0.9065993404545456,3e-07,1.6865226797112374e-08,0.0,71,11,207.3034340911752,1211.03096,mp-3354,Ho3(GePd)4,https://materialsproject.org/materials/mp-3354,27.553061334270378,53.61377422800803,-8.604250342815693,-0.5045126942092143
-6.195841763333332,-55.76257587,8.435442146957403,-0.3737376461111105,6.9375594,0.4894453444576458,0.0,189,9,165.18854970552644,839.148265,mp-570450,Tm3Mn3Ga2Si,https://materialsproject.org/materials/mp-570450,24.736280396034683,70.25531714475304,-8.604250342815693,-0.5045126942092143
-5.3698535875,-21.47941435,10.192683025760118,-0.6205107587499992,5.7000000000000005e-06,1.1959414907263356e-06,0.0,225,4,55.54466478393203,340.94300000000004,mp-977362,ZnGaRh2,https://materialsproject.org/materials/mp-977362,36.9874977629111,52.43644809692213,-8.604250342815693,-0.5045126942092143
-6.21695635137931,-180.29173419,5.360053389773677,-0.7417501293103446,0.8302296,0.0217000583124211,0.0,225,29,445.8766605690661,1439.2451176,mp-1194450,Ti6Al16Rh7,https://materialsproject.org/materials/mp-1194450,35.70029689064937,58.899193304546216,-8.604250342815693,-0.5045126942092143
-5.16564572625,-41.32516581,8.095752100037346,-0.3926325383333342,2e-06,1.522810271128278e-07,0.0,51,8,153.05997068072026,746.2248999999998,mp-1080775,PrInNi2,https://materialsproject.org/materials/mp-1080775,4.769637188796052,57.81530820827895,-8.604250342815693,-0.5045126942092143
-6.551320443846151,-85.16716577,5.9767539317356695,-0.2459371007692299,6.915568799999999,0.4352427688272447,0.0,71,13,185.17134001204326,666.4845015999999,mp-1222375,Lu(MnAl)6,https://materialsproject.org/materials/mp-1222375,12.978860433611596,89.04462980025394,-8.604250342815693,-0.5045126942092143
-5.62974633,-33.77847798,8.323561541298679,-0.2732613762499992,1.9600000000000002e-05,2.6187168781070616e-06,0.0,187,6,87.22579804323216,437.22507,mp-1222960,LaCuNi4,https://materialsproject.org/materials/mp-1222960,29.608714049460783,77.7935344576787,-8.604250342815693,-0.5045126942092143
-7.020345223333332,-42.12207134,6.888241860603144,-0.4053338091666656,0.6125553,0.07737973050036684,0.0,166,6,92.25619030736857,382.69678500000003,mp-1216065,Y2Co3Si,https://materialsproject.org/materials/mp-1216065,42.312758876235506,74.05833145007665,-8.604250342815693,-0.5045126942092143
-7.3678707375,-29.47148295,9.961423602639405,-0.28287645124999905,3.9862746,0.7401713196788036,0.0,225,4,62.764256266737185,376.5171,mp-1183708,CrSnRh2,https://materialsproject.org/materials/mp-1183708,34.79540169912216,55.804368236708,-8.604250342815693,-0.5045126942092143
-6.40784459,-25.63137836,8.265038393340486,-0.5919355050000004,4.1326593,0.8132702413523538,0.0,225,4,59.22051086614717,294.7595836000001,mp-10891,MnAlPd2,https://materialsproject.org/materials/mp-10891,46.08752321941631,39.15008532705214,-8.604250342815693,-0.5045126942092143
-8.92183963,-107.06207556,9.168282845587893,-0.3067265227777784,5.992006,0.4286471745187431,0.0,164,12,162.910734498526,899.4739999999998,mp-1224401,HfTiFe4,https://materialsproject.org/materials/mp-1224401,52.3284005655214,62.72390836667288,-8.604250342815693,-0.5045126942092143
-6.8296936575,-27.31877463,7.747608426195941,-0.7808591191666672,2.2899999999999998e-05,4.47933191645966e-06,0.0,225,4,59.579885632264116,277.983,mp-864919,MgTiRh2,https://materialsproject.org/materials/mp-864919,38.68490225786893,54.930647888838244,-8.604250342815693,-0.5045126942092143
-5.477097495,-21.90838998,10.325383345676393,0.20591888125000055,3.7000000000000006e-06,6.537433665767394e-07,0.0,225,4,65.9586649181078,410.13700000000006,mp-1184667,Ge3Ir,https://materialsproject.org/materials/mp-1184667,41.971931363089645,51.45311524923329,-8.604250342815693,-0.5045126942092143
-9.39246136,-18.78492272,15.375890681462009,-0.14219598499999894,1.4099999999999999e-05,6.230440828180212e-06,0.0,187,2,26.374107037476982,244.2131,mp-1226229,CrIr,https://materialsproject.org/materials/mp-1226229,56.14533694230876,58.275308199027464,-8.604250342815693,-0.5045126942092143
-5.1466189875,-61.75942785,9.606428597911584,-0.7382161058333327,0.0,0.0,0.0,62,12,228.73449238669332,1323.2579999999998,mp-13379,DyZnRh,https://materialsproject.org/materials/mp-13379,17.121205744151858,59.058808816642866,-8.604250342815693,-0.5045126942092143
-5.66836607357143,-79.35712503,8.332455587039863,-0.5370293360714291,5e-08,2.6856844723388884e-09,0.0,139,14,216.96638031366524,1088.7204000000004,mp-17658,Sm(NiGe)3,https://materialsproject.org/materials/mp-17658,19.777436711921442,70.04152211937644,-8.604250342815693,-0.5045126942092143
-6.3742136433333325,-19.12264093,6.125185161182113,0.4145715794444449,1.3073991000000003,0.2526841487634327,0.0,216,3,60.29865296081922,222.422,mp-22589,TiFeSn,https://materialsproject.org/materials/mp-22589,47.94999256105047,66.34584734023672,-8.604250342815693,-0.5045126942092143
-5.06164558375,-40.49316467,7.654827197604762,-0.45007048374999936,2e-07,1.4032489109994378e-08,0.0,63,8,166.10117679349275,765.70064,mp-1025422,HoGe3,https://materialsproject.org/materials/mp-1025422,3.8601112478842174,74.17760297425967,-8.604250342815693,-0.5045126942092143
-5.6681821779999995,-28.34091089,9.600669195477222,-0.9965887099999996,0.0,0.0,0.0,164,5,81.48399604695834,471.11261579999996,mp-10905,Al3Pt2,https://materialsproject.org/materials/mp-10905,42.54822472427157,51.89304175587326,-8.604250342815693,-0.5045126942092143
-6.233471093333333,-56.10123984,9.809538648056405,-0.905537741666667,2.243333333333333e-05,1.352845466058755e-06,0.0,189,9,193.2515769836897,1141.62255,mp-1084759,TbSnRh,https://materialsproject.org/materials/mp-1084759,8.796100026265288,55.624680986083916,-8.604250342815693,-0.5045126942092143
-6.14908741625,-49.19269933,10.39065756656845,-0.4709197337500006,0.0,0.0,0.0,198,8,141.66617935833045,886.462,mp-317,SnRh,https://materialsproject.org/materials/mp-317,33.939272449856894,55.4524283211436,-8.604250342815693,-0.5045126942092143
-5.11810952,-71.65353328,7.969401811569124,-0.5111733178571427,1.7e-06,6.81385770257642e-08,0.0,59,14,290.75908212553816,1395.4360000000001,mp-29777,Er2Ge5,https://materialsproject.org/materials/mp-29777,3.8337814082266255,74.17962001432623,-8.604250342815693,-0.5045126942092143
-6.1190618357894735,-116.26217488,4.782661270539754,-0.2582856789473685,5.4141233,0.2013856910447428,0.0,166,19,313.31195030537793,902.3966882000001,mp-1181563,Eu2Mn5Al12,https://materialsproject.org/materials/mp-1181563,12.699953741122597,88.98872908450785,-8.604250342815693,-0.5045126942092143
-7.335294359,-293.41177436,12.571104114479024,-0.0749702659999997,0.0,0.0,0.7418000000000005,60,40,632.3284521115453,4787.04,mp-16610,Ge3Os2,https://materialsproject.org/materials/mp-16610,35.62424224844744,50.70775703819418,-8.604250342815693,-0.5045126942092143
-8.230953422499999,-164.61906845,8.540313476686173,-0.30630918283333275,5.45e-06,2.7450262171087675e-07,0.0,127,20,231.38086119027275,1190.01423,mp-1209993,Nb3Co5B2,https://materialsproject.org/materials/mp-1209993,39.979228255368966,85.46590022486974,-8.604250342815693,-0.5045126942092143
-5.075431222857143,-71.05603712,3.3172140813775663,0.12478510476190405,0.116803,0.005142713290485728,0.0,176,14,264.6909618989711,528.766,mp-1094398,Mg3Ti4,https://materialsproject.org/materials/mp-1094398,33.40517360784791,61.273005948375555,-8.604250342815693,-0.5045126942092143