energy_per_atom,energy,density,formation_energy_per_atom,total_magnetization_uB,total_magnetization_T,band_gap,sgr,num_sites,cell_volume,weight,mp_id,formula,URL,tsne_cry_lin1_0,tsne_cry_lin1_1,tsne_cry_lin2_0,tsne_cry_lin2_1
-6.703851200363637,-368.71181602,3.9100306504858393,-2.0290397913352733,43.001356200000004,0.8782665365609179,0.0,8,55,570.6019409837223,1343.5824300000004,mp-766830,Li9Mn14O32,https://materialsproject.org/materials/mp-766830,-66.92650561571763,-37.35287717175874,-8.604250342815693,-0.5045126942092143
-6.971070389391893,-1031.71841763,3.960741316798708,-2.732653174378648,21.999999775,0.14055312504946768,0.13219999999999965,1,148,1824.1460108689319,4350.978988800001,mp-1247679,SrCa7Mn6Al2O21,https://materialsproject.org/materials/mp-1247679,-31.813964198845607,-10.71513425914072,-8.604250342815693,-0.5045126942092143
-6.67574017375,-106.81184278,5.831141277035821,-0.4408570799400007,2.675e-06,1.2203026406760958e-07,0.0,64,16,255.46632636413207,897.0943800000001,mp-1246830,BaCoN2,https://materialsproject.org/materials/mp-1246830,3.6527870909597033,7.8610921995445695,-8.604250342815693,-0.5045126942092143
-6.7990911657142865,-47.59363816,6.957245471627396,-2.3337122050000008,5.9999996,0.8175281010958502,0.0,160,7,85.53147455115311,358.3556,mp-1222330,LuFeCuO4,https://materialsproject.org/materials/mp-1222330,-49.94141108274149,-5.743593856815178,-8.604250342815693,-0.5045126942092143
-7.912948953333332,-379.82154976,6.3369689666970315,-3.201593459599166,11.99999095,0.2170928460441927,0.11600000000000055,7,48,644.1883016861907,2458.359110000001,mp-771258,LiLa6Mn3O14,https://materialsproject.org/materials/mp-771258,-33.7185769906,-10.31335552789259,-8.604250342815693,-0.5045126942092143
-6.4938971075,-207.80470744,7.286734580677936,-2.5059821229687493,0.0151974,0.0003777475730188638,0.0,38,32,468.8620036895754,2057.44815,mp-1228600,Ba3La5Tl2(Cu2O9)2,https://materialsproject.org/materials/mp-1228600,-47.00063330686409,-3.5434298775020925,-8.604250342815693,-0.5045126942092143
-6.211740606538461,-161.50525577,5.105369541835122,-2.1939680035576923,2.48411335,0.08283636703770364,0.0,8,26,349.4843982004113,1074.4986772,mp-1265131,Sr2AlCu2MoO7,https://materialsproject.org/materials/mp-1265131,-48.477468544606545,-4.927291975259144,-8.604250342815693,-0.5045126942092143
-6.342678755,-50.74143004,5.824802443694236,-1.8721052542187493,0.3207966,0.028220017317044536,0.0,99,8,132.47987459450866,464.71,mvc-7747,BaCuWO5,https://materialsproject.org/materials/mvc-7747,-52.95100808608901,-1.3114830925860987,-8.604250342815693,-0.5045126942092143
-6.6863655486363625,-147.10004207,5.307084809315767,-2.3361567725000003,6.9233727,0.2832447135360209,0.0,9,22,284.8612172954484,910.4168,mp-1228042,Ca2Eu(CuO3)2,https://materialsproject.org/materials/mp-1228042,-46.4714063712511,-5.077208517850488,-8.604250342815693,-0.5045126942092143
-7.0775495600000005,-49.54284692,5.655819235685806,-2.749964900714286,2.0000001,0.2651062218543307,0.0,107,7,87.9199686355649,299.45664500000004,mp-1217766,SrYCoO4,https://materialsproject.org/materials/mp-1217766,-35.47431560443415,-18.330140272098895,-2.9218156725725004,-0.5136428317028656
-6.892179724722222,-248.11847009,7.288272386698817,-2.609785469583334,1.982731775,0.04765106667659416,0.3435000000000001,33,36,484.9185158705415,2128.356,mp-771325,Dy2Cu2O5,https://materialsproject.org/materials/mp-771325,-48.694888928248176,-8.353175282554643,2.3449332953133992,-0.20072861149342625
-6.796365182777778,-122.33457329,7.8178349737485195,-2.4893253259722217,1.005e-05,5.429383366961808e-07,0.0,55,18,215.72127633669967,1015.618,mp-754173,Sm2Cu2O5,https://materialsproject.org/materials/mp-754173,-44.387449551463696,0.12618129478227771,-8.604250342815693,-0.5045126942092143
-3.2952691975,-13.18107679,3.454666500685883,-0.122786938625,0.0003484,4.099560669839124e-05,0.0,225,4,99.04173870706812,206.05126928,mp-1186124,NaCa2Rh,https://materialsproject.org/materials/mp-1186124,-12.930925525999436,47.57621402648199,-8.604250342815693,-0.5045126942092143
-7.129062887368421,-1083.61755888,3.999595823008356,-2.675236211470701,25.000000075,0.15876137287905367,0.0,1,152,1835.1543256683874,4420.1764600000015,mp-1247694,Ca8TiMn7O22,https://materialsproject.org/materials/mp-1247694,-31.867740131915642,-9.925849179436092,-8.604250342815693,-0.5045126942092143
-7.428838368571428,-52.00186858,8.526594318911155,-3.1122896778571425,4.1e-06,5.421598679649867e-07,0.0,139,7,88.13205917812517,452.5436,mp-1178367,Dy2CuO4,https://materialsproject.org/materials/mp-1178367,-45.537013736664385,-6.98842122603941,-8.604250342815693,-0.5045126942092143
-7.081116572368423,-269.08242975,4.180490654050708,-2.6356646710759644,25.0000001,0.6363883503325318,0.0,8,38,457.8204807287232,1152.586115,mp-1247581,SrCa7TiMn7O22,https://materialsproject.org/materials/mp-1247581,-31.297507743162946,-9.338209120687605,-8.604250342815693,-0.5045126942092143
-4.217365475,-16.869461899999997,8.230573311240601,-0.2884808627083335,0.0,0.0,0.0,225,4,77.90714536232326,386.152,mp-21360,NdInCu2,https://materialsproject.org/materials/mp-21360,-8.025890548860275,53.995507675755434,-8.604250342815693,-0.5045126942092143
-5.1858373975,-62.23004877,8.281126202863907,-0.24909349625000074,1.39e-05,9.087133340627121e-07,0.0,47,12,178.26468949711742,889.0079400000002,mp-1223292,La2(CuNi)5,https://materialsproject.org/materials/mp-1223292,29.975645197705568,77.20569397944186,-8.604250342815693,-0.5045126942092143
-6.934072309144738,-1053.97899099,4.452389627724712,-2.5163891213863154,27.999999975,0.17432729621046306,0.0,1,152,1871.8457776478413,5018.96464,mp-1247692,Sr3Ca5Mn8O22,https://materialsproject.org/materials/mp-1247692,-31.516738664081103,-9.472568476691427,-8.604250342815693,-0.5045126942092143
-6.9473056009210525,-527.99522567,4.302241020825232,-2.5212476385573668,14.000005400000001,0.1750823458247042,0.0,1,76,931.8870442319827,2414.39832,mp-1247640,SrCa3Mn4O11,https://materialsproject.org/materials/mp-1247640,-31.55436116858174,-9.535026273123869,-8.604250342815693,-0.5045126942092143
-4.21748367,-16.86993468,9.051001243707583,-0.32300677833333324,0.0,0.0,0.0,225,4,73.53912891679279,400.83535,mp-22685,TbInCu2,https://materialsproject.org/materials/mp-22685,-8.054578325240179,53.87149448790705,-8.604250342815693,-0.5045126942092143
-4.963986441666667,-29.78391865,9.140495731586073,-0.3941103945833333,0.0,0.0,0.0,44,6,99.5034043772788,547.72,mp-1220182,NdCu3Pd2,https://materialsproject.org/materials/mp-1220182,4.959504103276231,42.72013178643221,-8.604250342815693,-0.5045126942092143
-7.140474110555554,-257.05706798,7.949680276584503,-3.099713034305556,1.0092129,0.02323385916688589,0.0,62,36,506.2194972183448,2423.48,mp-22550,BaDy2CuO5,https://materialsproject.org/materials/mp-22550,-47.01424189608856,-7.594898039070751,-5.0465403859317055,-2.4788936455622417
-8.242963435,-32.97185374,8.568057797126645,-0.2360902575000008,13.7759999,1.7611058888610556,0.0,225,4,91.16226125687685,470.3795,mp-1183906,Eu2CuRh,https://materialsproject.org/materials/mp-1183906,-4.360945166786646,54.7279285262957,-8.604250342815693,-0.5045126942092143
-5.2361296005,-104.72259201,2.7934153002584607,-0.6440641009519993,1.0,0.030636162206606088,0.0,59,20,380.4022414415447,639.9256,mp-1246870,Ca5CuN4,https://materialsproject.org/materials/mp-1246870,5.505512458258419,4.0333688663726734,3.2597703422429483,-5.067807832305052
-6.459614442,-32.29807221,5.078374325874575,-0.5814473309519996,1.9966881,0.20065351893303346,0.0,139,5,115.96872345789845,354.6635,mp-1246729,Ba2CrN2,https://materialsproject.org/materials/mp-1246729,4.513745706378602,7.036197035741107,-8.604250342815693,-0.5045126942092143
-4.8379018175,-19.35160727,9.867293395180514,-0.2478151308333336,9.699999999999999e-06,1.4173181971683849e-06,0.0,225,4,79.75938537985111,473.94805999999994,mp-1187455,ThInCu2,https://materialsproject.org/materials/mp-1187455,-8.22007251376028,54.03249199032485,-8.604250342815693,-0.5045126942092143
-4.095290815833333,-49.14348979,5.090549297289966,0.22042735463770136,5e-08,2.1219602551013763e-09,0.0,62,12,274.60610406208855,841.8326076,mp-1246756,CsCuN,https://materialsproject.org/materials/mp-1246756,4.098502732364695,4.690046272161818,-8.604250342815693,-0.5045126942092143
-5.4087958774999985,-151.44628457,5.669189250284227,-1.4059753132142856,2.5e-08,6.112186399755318e-10,0.0029000000000003467,15,28,476.67332155586024,1627.394,mp-541202,TlCuAsO4,https://materialsproject.org/materials/mp-541202,-56.19732479964591,-6.559025850806142,-0.8901208782642959,-0.7055659246877651
-6.983368468581082,-1033.53853335,3.825835989696802,-2.736350133702973,21.999999475,0.14197091063195674,0.1477000000000004,1,148,1805.9292409738025,4160.810988800001,mp-1247683,Ca8Mn6Al2O21,https://materialsproject.org/materials/mp-1247683,-31.731242082902185,-10.759499264275117,-8.604250342815693,-0.5045126942092143
-8.32834057,-33.31336228,12.52866303383237,-0.4896691175000001,5.7000000000000005e-06,9.575204688836191e-07,0.0,225,4,69.37519495644767,523.4315,mp-1184615,Hf2CuRh,https://materialsproject.org/materials/mp-1184615,-10.028372731536177,53.448890156477354,-8.604250342815693,-0.5045126942092143
-5.976295225,-35.85777135,10.462486531993646,-0.2156122783333328,2.2535578999999997,0.2878506210505585,0.0,166,6,91.23867664228771,574.863585,mp-1225055,Er2Co3Cu,https://materialsproject.org/materials/mp-1225055,39.50421832996778,74.29811442483243,-8.604250342815693,-0.5045126942092143
-6.753412970416666,-324.16382258,4.741303966918836,-2.713262600524583,16.00000005,0.2679351720564144,1.1578,4,48,695.9334062509633,1987.0847600000002,mp-1218618,Sr6CaMn4O13,https://materialsproject.org/materials/mp-1218618,-32.52517480118889,-11.031231598331923,0.1352164523612209,1.689071618845348
-7.093712971153848,-1106.6192234999999,4.2820398875174615,-2.6538773957599138,23.000021725,0.14787229104309532,0.0,1,156,1812.6705217227786,4674.342060000001,mp-1247610,SrCa7TiMn7O23,https://materialsproject.org/materials/mp-1247610,-32.328353336940175,-9.196062309692033,-8.604250342815693,-0.5045126942092143
-6.964301110921053,-1058.57376886,4.1761609387214715,-2.529868373952104,28.000764825,0.17692363469574438,0.0,1,152,1844.4269897175602,4638.628640000001,mp-1268192,SrCa7Mn8O22,https://materialsproject.org/materials/mp-1268192,-31.63658857301261,-9.664591192509244,-8.604250342815693,-0.5045126942092143
-4.458726236666666,-13.37617871,4.403707436249589,-0.5248397341266665,1.18e-05,1.2634007851571293e-06,0.05479999999999974,166,3,108.84745832978192,288.6607,mp-1892,Ba2N,https://materialsproject.org/materials/mp-1892,7.41721145231234,2.428580458533277,-8.604250342815693,-0.5045126942092143
-7.924601785,-63.39681428,5.137421658197987,-0.28416661062500026,5e-08,7.060285734476848e-09,0.0,129,8,82.53252921231262,255.34142400000002,mp-1086667,ScNiC2,https://materialsproject.org/materials/mp-1086667,-10.994644891156527,29.29343293129857,-8.604250342815693,-0.5045126942092143
-7.120635406428571,-99.68889569,5.741378007139571,-3.1123964504257136,3.0007725,0.18312319863709592,0.0,123,14,190.97087284948532,660.289185,mp-1218803,Sr2La2MgMnO8,https://materialsproject.org/materials/mp-1218803,-34.14371806618292,-10.14531693882565,-8.604250342815693,-0.5045126942092143
-7.4006768664285705,-103.60947613,7.030224209080067,-2.992371709285714,0.0012684,7.719491779231293e-05,0.0,64,14,191.48949413074845,810.70908,mp-1180676,La2CuO4,https://materialsproject.org/materials/mp-1180676,-42.611555699702976,-4.0297651430804144,-8.604250342815693,-0.5045126942092143
-4.241993022222221,-38.1779372,8.758356768236231,-0.415787923333334,0.0,0.0,0.0,189,9,191.84493676341094,1011.86805,mp-19782,TbInCu,https://materialsproject.org/materials/mp-19782,-6.930875734675107,54.64277625271527,-8.604250342815693,-0.5045126942092143
-7.102548791081082,-262.79430527,3.8423766166778943,-2.6425758588415302,26.9999995,0.668569117849968,0.0,6,37,470.64654144358985,1089.044715,mp-1247724,Ca8TiMn7O21,https://materialsproject.org/materials/mp-1247724,-30.792930834603638,-10.223891989174358,-8.604250342815693,-0.5045126942092143
-3.96663956,-15.86655824,10.759335851499944,-0.7496577281249999,7e-07,9.296220322951267e-08,0.0,225,4,87.75443198835369,568.5981380000002,mp-867867,SmMgAu2,https://materialsproject.org/materials/mp-867867,-14.367002407352311,44.92724408422652,-8.604250342815693,-0.5045126942092143
-6.91218708,-62.20968372,5.850014366542051,-2.5399452015277784,4.8695992,0.4697378896708233,0.5511000000000004,99,9,120.81338495596728,425.62085,mp-505589,BaYFeCuO5,https://materialsproject.org/materials/mp-505589,-48.56001754829563,-3.9134541305890918,-8.604250342815693,-0.5045126942092143
-5.131131893333333,-92.36037408,5.610479420558653,-0.4723458541266667,0.0,0.0,0.013199999999999878,15,18,381.58892031151083,1289.2782,mp-29199,BaCuN,https://materialsproject.org/materials/mp-29199,-25.950784933913088,51.86316107526042,-8.604250342815693,-0.5045126942092143
-6.818659331428571,-95.46123064,2.601667738096941,-1.2642388399485711,0.0004328,2.493995220341879e-05,0.0,229,14,202.24093424174308,316.8632,mp-1213996,Ca5(BN2)3,https://materialsproject.org/materials/mp-1213996,26.188657853284997,-12.087976467490812,-5.606975106296452,-2.5662698973656433
-5.570395279090909,-61.27434807,6.848815091645897,-0.6349128836363637,9.800000000000001e-06,5.804995769290529e-07,0.0,71,11,196.7440448023676,811.46155,mp-1103265,Y3(CuGe)4,https://materialsproject.org/materials/mp-1103265,-4.689491432459847,55.46109777729249,-8.604250342815693,-0.5045126942092143
-6.947187120135137,-1028.18369378,4.279576482819083,-2.524334527065676,30.00076165,0.18185307121001268,0.0,1,148,1922.600576217128,4954.96704,mp-1247599,Sr3Ca5Mn8O21,https://materialsproject.org/materials/mp-1247599,-30.615987531659947,-9.844603335195572,-8.604250342815693,-0.5045126942092143
-7.278888308571429,-101.90443632,7.350746197819225,-2.9167248542857145,0.0,0.0,0.0,64,14,187.96188929022068,832.0552,mp-15742,Nd2CuO4,https://materialsproject.org/materials/mp-15742,-42.98595390431536,-4.050568682533581,-8.604250342815693,-0.5045126942092143
-6.031262878333332,-72.37515454,5.524032147200908,-2.0335179260416667,0.0069682,0.0004154913789935855,0.0,115,12,195.4501543325744,650.19425,mp-1228465,Ba2Y(CuO2)3,https://materialsproject.org/materials/mp-1228465,-51.238468464761645,-1.1551601497831112,-8.604250342815693,-0.5045126942092143
-6.452144950555557,-116.13860911,7.070406687518758,-0.36952146548611137,0.0,0.0,0.0,2,18,343.24538267371355,1461.504,mp-571054,Cu2Mo3Se4,https://materialsproject.org/materials/mp-571054,63.397324708999136,34.00565679474408,-8.604250342815693,-0.5045126942092143
-6.983385206513157,-1061.47455139,4.1710767292353115,-2.5451286603084213,26.999999675,0.17082594640782453,0.0,1,152,1841.9903515144697,4626.860860000002,mp-1247606,SrCa7Mn7CrO22,https://materialsproject.org/materials/mp-1247606,-31.886049020061485,-9.943066202678052,-8.604250342815693,-0.5045126942092143
-5.8413981075,-23.36559243,8.497007594367794,-0.6443698012499999,3.1e-06,5.752924359124203e-07,0.0,225,4,62.79867166623922,321.34191200000004,mp-973133,ScCuPd2,https://materialsproject.org/materials/mp-973133,14.02288896974154,47.8716414405877,-8.604250342815693,-0.5045126942092143
-6.628148622222222,-119.30667520000002,3.766013259240488,-2.8369527259722234,2.99999985,0.16111899709204625,0.6105,1,18,216.996091091578,492.13546720000005,mp-1254937,Ca2AlCoO5,https://materialsproject.org/materials/mp-1254937,-33.092968745365226,-16.685819492081382,-8.604250342815693,-0.5045126942092143
-6.9781399684666665,-1046.72099527,3.958006397743965,-2.6319217840625333,49.99999835,0.3226550035062828,0.08790000000000031,1,150,1805.9636858767362,4304.635814400001,mp-1247587,Ca16Mn14Al2O43,https://materialsproject.org/materials/mp-1247587,-31.87354605455277,-10.15012045592789,-11.331301721575613,-0.2896387260019153
-6.000446415,-24.00178566,12.043475136438243,-0.8252234224999997,3.2e-06,4.937644670701908e-07,0.0,225,4,75.52792831260913,547.78521,mp-865422,YbTmRh2,https://materialsproject.org/materials/mp-865422,14.047490772176836,47.86121008354455,-8.604250342815693,-0.5045126942092143
-4.077664725,-16.3106589,4.781656985451943,-0.2149597799999996,2e-07,2.721638693905628e-08,0.0,225,4,85.64005794491247,246.6075,mp-1183482,Ca2CuRh,https://materialsproject.org/materials/mp-1183482,-11.915783205869875,49.896384495059564,-8.604250342815693,-0.5045126942092143
-4.058970528,-20.29485264,5.906327545211151,-0.6210611153333332,1e-07,1.0340667943902909e-08,0.0,71,5,112.70127651116763,400.8642,mp-1068053,Ca2AgPd2,https://materialsproject.org/materials/mp-1068053,-12.289325914986735,50.17719944931603,-8.604250342815693,-0.5045126942092143
-7.450016582318841,-514.05114418,6.957907079145715,-3.037232977536232,0.2989782,0.0036590947390254657,0.0,2,69,952.2331496973732,3989.9994,mp-849992,La20Cu9O40,https://materialsproject.org/materials/mp-849992,-42.60143448593007,-4.0576968001820655,-8.604250342815693,-0.5045126942092143
-6.31440633,-25.25762532,11.113973834172194,-0.7556596375,7.4113375,1.004518458291022,0.0,225,4,85.98369354331713,575.4881379999998,mp-1184513,GdMgAu2,https://materialsproject.org/materials/mp-1184513,-14.423163370377349,44.91196850956481,-8.604250342815693,-0.5045126942092143
-4.257569138888889,-38.31812225,8.269819364427045,-0.4017359008333333,1.6066666666666666e-05,9.455782550341349e-07,0.0,189,9,198.0184855305283,986.172,mp-1179530,SmInCu,https://materialsproject.org/materials/mp-1179530,-7.142466928072453,54.66887184894044,-8.604250342815693,-0.5045126942092143
-7.085224499722222,-255.06808199,7.232288778814515,-3.019817821805556,1.0000001,0.02181861692748707,0.0,62,36,534.1340368501724,2326.36,mp-21568,BaSm2CuO5,https://materialsproject.org/materials/mp-21568,-47.0483362546136,-7.729681617509517,2.619594008450977,-0.4306578913216184
-7.0429965716666665,-126.77393829,3.8848183462052814,-2.5881672645188893,8.0000006,0.4038764443158501,0.0,46,18,230.84417644323972,540.05818,mp-1076014,Ca2Mn2O5,https://materialsproject.org/materials/mp-1076014,-29.70149359128601,-10.505368829334666,-8.604250342815693,-0.5045126942092143
-5.005121524285714,-35.03585067,8.268083043038867,-1.748526269982858,8.7e-06,9.213362121540643e-07,0.0,139,7,110.04708398926469,547.9416064,mp-1147757,CuPb2(OF)2,https://materialsproject.org/materials/mp-1147757,-46.02477758939081,-3.4789843817187776,-8.604250342815693,-0.5045126942092143
-5.502342840270272,-203.58668509,6.6423134932065695,-1.760011319831081,1.8393108,0.03822250268178876,0.0,6,37,560.8070036262062,2243.28115,mvc-13160,Ba6YTl3(Cu2O7)3,https://materialsproject.org/materials/mvc-13160,-51.833406419505614,-2.1039301262737875,-8.604250342815693,-0.5045126942092143
-6.6991870925,-26.79674837,13.601487468483949,-0.8953486649999993,0.000722,0.00010677011715892234,0.0,225,4,78.8070200697064,645.50888,mp-1185914,MgPaPt2,https://materialsproject.org/materials/mp-1185914,14.34615731833348,47.30181990736805,-8.604250342815693,-0.5045126942092143
-3.954430891875,-189.81268281,2.7845161842357373,-1.307243288791667,0.0,0.0,1.5217999999999998,92,48,1015.41124627047,1702.7176,mp-28273,K3CuO2,https://materialsproject.org/materials/mp-28273,16.525186241337632,-17.75018345461936,4.899784060350935,-3.0667077389024033
-6.0955846041666675,-146.2940305,4.313888182727776,-2.256936320520833,2.0000052,0.08647906104673693,0.2079,36,24,269.52408900068275,700.19238,mvc-3670,Ca3Co2O7,https://materialsproject.org/materials/mvc-3670,-35.654998461093115,-17.394592221727496,-4.575948912181547,-1.047420460993668
-5.334543274166666,-64.01451929,8.629098266849379,-0.2298440900000003,0.00027269999999999996,1.852644669512348e-05,0.0,47,12,171.54198620902062,891.429,mp-1226995,Ce2(CuNi)5,https://materialsproject.org/materials/mp-1226995,29.924425462289573,77.23046440494787,-8.604250342815693,-0.5045126942092143