energy_per_atom,energy,density,formation_energy_per_atom,total_magnetization_uB,total_magnetization_T,band_gap,sgr,num_sites,cell_volume,weight,mp_id,formula,URL,tsne_cry_lin1_0,tsne_cry_lin1_1,tsne_cry_lin2_0,tsne_cry_lin2_1
-9.0585053725,-36.23402149,13.699424271043297,-0.05881468468750128,0.0011074000000000001,0.00017337685646655427,0.0,225,4,74.43733605599323,614.107,mp-1185518,LuNpRu2,https://materialsproject.org/materials/mp-1185518,20.74526468138644,54.40620145395032,-8.604250342815693,-0.5045126942092143
-6.19727233625,-99.15635738,4.488612649862623,-2.1317521797916665,3.0,0.24842298471304225,1.0356999999999998,12,16,140.7365520467622,380.425785,mp-756719,Li4TiCo3O8,https://materialsproject.org/materials/mp-756719,-81.49118153167474,-44.72026681726378,-8.139285405354773,2.2241420300303614
-6.1465678875,-24.58627155,1.1396456664887316,3.904520083750001,2.9999024,0.04011382816102205,0.032200000000000006,71,4,871.5462593253155,598.1515,mp-1097240,Hf2VOs,https://materialsproject.org/materials/mp-1097240,-62.32815833523786,35.974538467454245,-8.604250342815693,-0.5045126942092143
-9.7082131375,-38.83285255,7.5514718724354415,-0.3008055136899994,9.000000000000001e-07,2.1691533762810353e-07,0.0,186,4,48.353696008745544,219.8934,mp-999503,MoN,https://materialsproject.org/materials/mp-999503,5.4407587643379935,21.25223282531185,-8.604250342815693,-0.5045126942092143
-9.263405139642858,-259.37534391,9.416517714858294,-0.08749674232142825,0.0,0.0,0.0,227,28,361.96738039338913,2052.63,mp-21536,Ni2Mo4C,https://materialsproject.org/materials/mp-21536,57.696701248856364,49.35699714905056,-8.604250342815693,-0.5045126942092143
-5.380722663999999,-80.71083996,4.461321328738009,-1.4626890995666677,7.0000026,0.5065308138071068,0.0,12,15,161.05334855216205,432.69728784,mp-690591,Na3(CoO2)4,https://materialsproject.org/materials/mp-690591,-77.47087717461851,-25.26132633370645,-5.608207983768488,-2.336409292144269
-8.498623640714285,-237.96146194,9.326841607871788,-0.04901332624999912,0.0,0.0,0.0,227,28,338.9222899827332,1903.6436,mp-569179,Ni3Mo3C,https://materialsproject.org/materials/mp-569179,57.71774799525723,49.4045619505269,-8.604250342815693,-0.5045126942092143
-8.041180914166667,-96.49417097,7.245621589472172,-0.2395196541666671,9.725e-06,6.155205039443518e-07,0.0,38,12,184.12998297679698,803.4356,mp-1215279,ZrVNi,https://materialsproject.org/materials/mp-1215279,61.941385557935845,64.01753783986136,-8.604250342815693,-0.5045126942092143
-7.4604165775,-29.84166631,13.660416120554542,-0.5804202312500006,0.0001686,2.561638129542659e-05,0.0,225,4,76.70385984629151,631.00392,mp-865375,Tm2OsRh,https://materialsproject.org/materials/mp-865375,18.5387868230594,53.43825288779932,-8.604250342815693,-0.5045126942092143
-7.655846745000002,-183.74032188,7.201276644952648,0.2347239821433339,5e-07,2.42091612381371e-08,0.0,15,24,240.69534375690898,1043.82596,mp-1246891,Co2RuN3,https://materialsproject.org/materials/mp-1246891,2.750627347101213,16.342531587958874,-8.604250342815693,-0.5045126942092143
-6.7001578075,-26.80063123,1.4969486486336383,3.297085551250001,0.1494676,0.0021236698238447076,0.0,71,4,820.2334808550818,739.427,mp-1095861,Hf2IrOs,https://materialsproject.org/materials/mp-1095861,-61.25429565313432,35.32216840172728,-8.604250342815693,-0.5045126942092143
-4.48272488,-17.93089952,0.7837013454444594,2.869242150833333,2.5731287,0.04117234133085695,0.0,71,4,728.3386751546725,343.7438,mp-1097535,HfTiNi2,https://materialsproject.org/materials/mp-1097535,-62.99141410732616,35.075157566222714,-8.604250342815693,-0.5045126942092143
-7.031200675625,-112.49921081,11.205241608180092,-0.4371205006249994,3.55e-06,1.2003168399509676e-07,0.0,62,16,344.67507715943515,2325.85168,mp-623836,ThNi,https://materialsproject.org/materials/mp-623836,2.7073122169662995,59.92139052662881,-8.604250342815693,-0.5045126942092143
-5.63112623,-22.52450492,0.5139382605474307,3.5008186450000007,14.9999063,0.17525113171312415,0.10740000000000016,71,4,997.4821725469924,308.72159,mp-1097644,Mn2MoRh,https://materialsproject.org/materials/mp-1097644,7.079600299239912,23.88304387903473,-8.604250342815693,-0.5045126942092143
-9.35049154,-37.40196616,14.903640926359975,-0.7128567925000002,8.900000000000001e-06,1.5313886970564825e-06,0.0,225,4,67.73014367622416,607.8904,mp-1184611,Hf2NiIr,https://materialsproject.org/materials/mp-1184611,31.111236402876425,56.72177661273785,-8.604250342815693,-0.5045126942092143
-5.0893646775,-20.35745871,1.3491472716556192,3.931088655625001,0.5390020999999999,0.009242349657201335,0.0,71,4,679.6502641567242,552.1991820000002,mp-1096396,Hf2BeRe,https://materialsproject.org/materials/mp-1096396,-60.3234331237809,39.91243953678817,-8.604250342815693,-0.5045126942092143
-3.9437893725,-15.77515749,0.7516294883383526,2.5008484900000005,0.7878771999999999,0.012961164102147866,0.0,71,4,708.4218554181699,320.66139,mp-1097072,HfMgCo2,https://materialsproject.org/materials/mp-1097072,-64.28382441863296,40.035788070384314,-4.514144108466029,-1.1865303536428446
-5.860270829285715,-164.08758322,4.98612333913871,-1.886562115322144,3.0001067999999997,0.0797959252232808,0.0,166,28,438.16070650179086,1315.6711599999999,mp-646670,Ba2Co4ClO7,https://materialsproject.org/materials/mp-646670,-72.41028678134435,-20.814549267264127,1.7479491116919694,-0.9956954886678986
-6.984695230833334,-167.63268554,9.179432733900917,-0.3999929008333337,3.49642655,0.14627408985145532,0.0,191,24,278.5700565806119,1539.93073,mp-569158,Dy2Co7B3,https://materialsproject.org/materials/mp-569158,42.246422879719375,83.65104410228071,-8.604250342815693,-0.5045126942092143
-6.464267765,-25.85707106,0.8402602730799871,4.180634230625,10.600291,0.16188852388938246,0.0,71,4,763.095956118504,386.1392,mp-1095837,Cr2ReMo,https://materialsproject.org/materials/mp-1095837,-58.38326079101795,35.203515428825504,-8.604250342815693,-0.5045126942092143
-9.0148874325,-36.05954973,10.760806536357773,-0.3906915975000018,0.0055611,0.0008044431716625496,0.0,225,4,80.56432311152511,522.08173,mp-865516,YPaRu2,https://materialsproject.org/materials/mp-865516,20.78742822673516,54.69168557359673,-8.604250342815693,-0.5045126942092143
-5.088328725,-20.353314899999997,0.5695369740172604,3.225254224166667,2.0000001,0.0274203737035882,0.1048,71,4,850.0296517649498,291.54587999999995,mp-1097302,Ti2NbRh,https://materialsproject.org/materials/mp-1097302,-59.34015247739225,36.51597852569203,-8.604250342815693,-0.5045126942092143
-7.28640773,-29.14563092,11.450613143965905,-0.36702992499999976,0.00047389999999999997,7.127459897668857e-05,0.0,225,4,77.48709042224668,534.3293199999998,mp-976311,HoErRu2,https://materialsproject.org/materials/mp-976311,19.57704754767823,53.243650280554284,-8.604250342815693,-0.5045126942092143
-5.8458052975,-23.38322119,0.7763978940227751,3.3340796775,0.5255137,0.007505535706936187,0.0,71,4,815.9804893084057,381.51800000000003,mp-1095941,Zr2TcRu,https://materialsproject.org/materials/mp-1095941,-62.71196149066054,38.238523329495,-8.604250342815693,-0.5045126942092143
-5.42790685,-21.711627399999998,1.187777369240533,3.466390567499998,1.4502541000000002,0.022260564588165787,0.0,71,4,759.2509682820622,543.08938,mp-1096211,NbGaOs2,https://materialsproject.org/materials/mp-1096211,-60.633621710653436,42.45400118459945,-8.604250342815693,-0.5045126942092143
-5.757861845,-23.03144738,1.0357804907836434,2.3940663537499995,1.0,0.013963050041185691,0.0,71,4,834.6360385578099,520.613912,mp-1096404,ZrScIr2,https://materialsproject.org/materials/mp-1096404,-63.005851276662455,37.709783606357476,-8.604250342815693,-0.5045126942092143
-7.766679184473684,-590.26761802,8.50408821429722,-2.833592214802631,0.997897875,0.012051549283488994,0.4676999999999998,55,76,964.98518141419,4941.96096,mp-16392,Tm4Mo4O11,https://materialsproject.org/materials/mp-16392,-20.92309702454225,-14.628514253357642,-1.4059492846546702,0.2088565750214629
-9.400410184,-47.00205092,14.395799048439017,-0.15510316774999922,1.7e-06,3.4321298382633383e-07,0.0,166,5,57.72482699365573,500.4369,mp-1226352,Cr2Ir2C,https://materialsproject.org/materials/mp-1226352,44.649277770681934,67.20657243119004,-8.604250342815693,-0.5045126942092143
-9.9643914325,-39.85756573,14.716471895692589,-0.4317491068749977,3.6000000000000003e-06,6.177664835188506e-07,0.0,225,4,67.9134176108709,601.8804,mp-977544,Hf2ReNi,https://materialsproject.org/materials/mp-977544,38.17754299468989,60.733318810217234,-8.604250342815693,-0.5045126942092143
-7.1266371175,-28.50654847,11.537285257193206,-0.6896922599999993,0.00054,8.119798688365615e-05,0.0,225,4,77.50432268966699,538.4934999999998,mp-863666,Er2RuRh,https://materialsproject.org/materials/mp-863666,18.96641871100425,52.897230892073225,-8.604250342815693,-0.5045126942092143
-7.4267206267857135,-623.84453265,4.846350165436311,-1.0831780169978966,0.0003778,2.3249657481641787e-06,0.0,148,84,1893.750767962771,5526.9879999999985,mp-669350,Rb5Mo18S19,https://materialsproject.org/materials/mp-669350,64.71822645968535,31.918893506544425,-8.604250342815693,-0.5045126942092143
-5.803715921428571,-81.2520229,5.099481918329043,-1.6634324350000005,0.0,0.0,1.4899999999999998,12,14,134.26919134740203,412.33797999999996,mvc-14150,Mg(CoO2)2,https://materialsproject.org/materials/mvc-14150,-73.54654930790555,-21.992021383476388,0.08445885396431825,1.7350126120121458
-8.29964421375,-66.39715371,4.8443161183131815,-0.5166473534374996,0.00010490000000000002,1.2658190882611368e-05,0.0,194,8,96.57868221286526,281.7504772,mp-1025497,AlV2C,https://materialsproject.org/materials/mp-1025497,6.048144201699297,22.338712865467254,-8.604250342815693,-0.5045126942092143
-3.545275135,-70.9055027,2.6875720509197967,-0.4275239523099998,5.75e-06,3.9959220874215757e-07,0.0,63,20,167.6981456999777,271.4184,mp-27796,Li4H5Rh,https://materialsproject.org/materials/mp-27796,-5.461727364280354,1.1102304866213024,-8.604250342815693,-0.5045126942092143
-8.82346142,-176.4692284,6.695032824339945,-0.038054015427998425,0.0,0.0,0.18110000000000026,2,20,282.5440275414096,1139.17318,mp-1247505,CoWN3,https://materialsproject.org/materials/mp-1247505,5.2905346529493205,18.338690824541754,-8.604250342815693,-0.5045126942092143
-6.84863403,-27.39453612,11.300606567732618,-0.9042595274999998,4e-07,5.904967768939346e-08,0.0,225,4,78.94413807886373,537.2452099999999,mp-1184158,DyTmRh2,https://materialsproject.org/materials/mp-1184158,17.732319703444308,51.177518067379395,-8.604250342815693,-0.5045126942092143
-8.933759975,-89.33759975,15.325922815360189,0.023559535249999892,0.18014560000000002,0.009718665233071334,0.0,127,10,216.02024975071183,1993.756,mp-19947,Pu2SnPt2,https://materialsproject.org/materials/mp-19947,21.870515384069645,55.798722031482,-8.604250342815693,-0.5045126942092143
-4.0794372425,-16.31774897,0.9913748688288856,2.2538171725000007,1.1769823,0.016550359745917783,0.0,71,4,828.7812573826104,494.798912,mp-1095875,ScZnIr2,https://materialsproject.org/materials/mp-1095875,-65.50906541227059,40.99454433011917,-8.604250342815693,-0.5045126942092143
-6.355901053030302,-209.74473475,3.2932537512134368,-2.6954383564284847,2.9999979666666667,0.1028606773710136,0.9377,1,33,339.89831211176863,674.1012192000001,mp-761180,Li3V2(O2F)2,https://materialsproject.org/materials/mp-761180,-41.50218271255788,-57.717296614792616,3.7276350120956,3.1683712727631845
-7.626083925,-30.504335700000002,13.191147625240694,-0.2163755212499998,2.8300000000000003e-05,4.2178722760487354e-06,0.0,225,4,78.19346141329875,621.1606400000002,mp-866110,Ho2OsRu,https://materialsproject.org/materials/mp-866110,19.33878309734709,52.99135495378722,-8.604250342815693,-0.5045126942092143
-9.5818823435,-191.63764687,6.800613139772498,-0.10967059499999862,0.0,0.0,0.0,62,20,175.81540269099182,720.0387999999998,mp-20937,Cr3C2,https://materialsproject.org/materials/mp-20937,-0.4408992511237848,17.111197967473693,-8.604250342815693,-0.5045126942092143
-9.3785841925,-37.51433677,16.057322157858266,-0.2540456937500011,0.0006137,8.880896319114008e-05,0.0,225,4,80.5335328093708,778.75488,mp-1184323,ErPaOs2,https://materialsproject.org/materials/mp-1184323,20.800287456314376,55.863744625297095,-8.604250342815693,-0.5045126942092143
-10.3987746425,-41.59509857,16.869904968802462,-0.06297094546875037,3.9854903,0.5977656197387484,0.0,225,4,77.70129390664512,789.39032,mp-1184889,HoPuOs2,https://materialsproject.org/materials/mp-1184889,20.745523963440412,56.01079224549656,-8.604250342815693,-0.5045126942092143
-9.363497435,-37.45398974,16.004887020985507,-0.2362962887499993,8.2e-06,1.1863002454535162e-06,0.0,225,4,80.55577118965877,776.4261999999999,mp-977364,HoPaOs2,https://materialsproject.org/materials/mp-977364,20.801770064217287,55.864244063216105,-8.604250342815693,-0.5045126942092143
-8.97749907847826,-412.96495761,5.20097296978822,-0.5427789797826096,0.00368635,8.534388992120059e-05,0.0,193,46,503.3864956705393,1576.6564316,mp-1214915,Al3(V3C2)4,https://materialsproject.org/materials/mp-1214915,5.678128704892024,22.02069146658906,-8.604250342815693,-0.5045126942092143
-6.981019534583332,-167.54446883,3.5513198376066857,-2.872069233125,0.0053319,0.0003017868722745953,0.0,12,24,205.9012954820364,440.3518,mp-766202,Li7Ti3(SiO6)2,https://materialsproject.org/materials/mp-766202,-50.70620428371524,28.930400220546176,-4.470587266602066,-0.9139079797184854
-7.01073167357143,-98.15024343,5.62580360855191,-0.7013228541116072,3.5e-07,1.2255391544621598e-08,0.0,176,14,332.82679346021945,1127.5966,mp-1104242,K(MoSe)3,https://materialsproject.org/materials/mp-1104242,63.943392781003425,31.709530181677817,-8.604250342815693,-0.5045126942092143
-4.3256342000000005,-17.302536800000002,0.9075345998792514,3.08464412875,2.0,0.026636740224248664,0.3921000000000001,71,4,875.0368607004287,478.234,mp-1096592,Hf2ZnFe,https://materialsproject.org/materials/mp-1096592,-65.3279955100744,40.58370722623806,-1.5786754832103072,-0.564600344422611
-5.5851835925,-22.34073437,0.8221276344786697,3.5520801975000005,3.3672404,0.03797517607285484,0.0,71,4,1033.3602575296693,511.6134,mp-1093970,Hf2NiMo,https://materialsproject.org/materials/mp-1093970,-62.453569941774866,35.12667442654393,-8.604250342815693,-0.5045126942092143
-6.900471535,-13.80094307,11.65931721218204,-0.9879134400000008,1e-07,3.0101529068106226e-08,0.0,221,2,38.71585641444254,271.83971,mp-11564,TmRh,https://materialsproject.org/materials/mp-11564,17.82249772879732,51.10940675512661,-8.604250342815693,-0.5045126942092143
-6.7515619325,-27.00624773,1.169183957214866,4.57111144375,0.5344725,0.006803866150931871,0.0,71,4,915.476141943034,644.58588,mp-1096000,ZrTaRe2,https://materialsproject.org/materials/mp-1096000,-61.75802874581657,37.20269944582936,-8.604250342815693,-0.5045126942092143
-7.574699744,-151.49399488,11.74472044841751,-0.25476873300000025,6e-07,1.3729750548593404e-08,0.0,186,20,509.29103473421685,3602.1320100000003,mp-30565,Th7Co3,https://materialsproject.org/materials/mp-30565,-30.332424931068825,68.92134016494018,-8.604250342815693,-0.5045126942092143
-9.6993701475,-38.79748059,7.646724529587838,-0.29196252368999964,0.0,0.0,0.0,12,4,47.751370397282656,219.8934,mvc-14624,MoN,https://materialsproject.org/materials/mvc-14624,5.277706290566504,21.2333562963884,-8.604250342815693,-0.5045126942092143
-4.9418309325,-19.76732373,0.8719518947552364,2.62787744,5.03e-05,7.777585813225748e-07,0.0,71,4,753.7036197825336,395.771062,mp-1097671,TaBeRh2,https://materialsproject.org/materials/mp-1097671,-61.127998946723935,40.461329263415244,-1.7762763865672382,-0.5271604055988737
-3.8751037975,-15.50041519,0.9295675271940236,1.0883633962500006,1e-07,1.1981883042341862e-09,0.0,71,4,972.6405049503724,544.48285,mp-1096632,YZnPt2,https://materialsproject.org/materials/mp-1096632,-70.34175564714441,42.218181535595996,-6.647977444062043,1.4094485990265309
-5.59109333125,-44.72874665,10.56998989293363,0.2842512212500008,0.47456235,0.03638082834105887,0.0,194,8,152.01908856144462,967.66182,mp-1080074,UCu2Sn,https://materialsproject.org/materials/mp-1080074,-9.361180869644619,54.327851237939825,-8.604250342815693,-0.5045126942092143
-7.536583960555557,-135.65851129,7.691499055776174,0.1874032872755546,0.0293137,0.002014075695418782,0.0,2,18,169.61813267517238,785.6591599999998,mp-1245575,Co4RuN4,https://materialsproject.org/materials/mp-1245575,2.7744928429558016,16.492387538240198,-8.604250342815693,-0.5045126942092143
-7.97307741109375,-510.27695431,7.2210547612905085,-0.4088838541587494,3.340625e-05,4.784398982161208e-07,0.0,61,64,813.7251988387877,3538.5824,mp-1245517,LiReN2,https://materialsproject.org/materials/mp-1245517,7.704200266462378,36.97642065617861,-8.604250342815693,-0.5045126942092143
-5.8426189275,-23.37047571,0.8115375590951069,4.102413543125,1.9999999,0.02643242888273092,0.0,5,4,881.8004763436928,430.952955,mp-1096523,Nb2CoRe,https://materialsproject.org/materials/mp-1096523,-59.47399987064119,42.295503680798696,-8.604250342815693,-0.5045126942092143
-10.545474725,-21.09094945,12.460214772198244,0.5470751256249997,2.5e-06,1.116268695854508e-06,0.0,216,2,26.100491789833946,195.8507,mp-1008635,WC,https://materialsproject.org/materials/mp-1008635,-55.397488123869046,37.75488429699654,-8.604250342815693,-0.5045126942092143
-5.882534395,-23.53013758,0.7287078239584429,3.939946545,1.0003684000000002,0.014840062186660275,0.0,71,4,785.6003555363533,344.75138,mp-1097634,NbFeTc2,https://materialsproject.org/materials/mp-1097634,-60.1762391159661,42.37838838890537,-8.604250342815693,-0.5045126942092143
-8.9286028725,-35.71441149,6.080926867847222,1.5079667375000003,0.9594674999999999,0.11946501139597047,0.0,155,4,93.59808584543501,342.75804500000004,mp-1180144,MnMo3,https://materialsproject.org/materials/mp-1180144,57.65931107328205,49.3245243960579,-8.604250342815693,-0.5045126942092143
-5.5265517059375,-176.84965459,4.452348259950796,-1.7313530406249995,14.000160500000002,0.5984639495446511,0.0,12,32,272.62924929291586,730.991765,mp-1175418,Li9Co7O16,https://materialsproject.org/materials/mp-1175418,-77.73764808854563,-28.13873740015448,-0.3853967502015931,0.2322627816634834
-5.650331587142857,-79.10464222,5.189021206570855,-1.6162126600000002,1.0000001,0.08160363982014637,0.0,166,14,142.8130652462515,446.276785,mp-755343,Li2Co3TeO8,https://materialsproject.org/materials/mp-755343,-72.73934982925135,-23.861031888178072,-8.604250342815693,-0.5045126942092143
-6.858774385,-27.43509754,11.41861491207124,-0.92124541125,1.4999999999999999e-05,2.2274106723244486e-06,0.0,225,4,78.48169794659765,539.67553,mp-1184850,HoTmRh2,https://materialsproject.org/materials/mp-1184850,17.748766354139377,51.19488229064684,-8.604250342815693,-0.5045126942092143
-6.199350835,-24.79740334,1.3735162049552565,4.133877523125,2.2125234000000003,0.032585564143499245,0.0,71,4,791.297977866927,654.52276,mp-1093866,Ta2RePd,https://materialsproject.org/materials/mp-1093866,-58.01349538094324,40.402470074509814,-8.604250342815693,-0.5045126942092143
-9.91525595,-39.661023799999995,14.374307323162114,-0.3494359862500005,0.00011939999999999999,1.834918382261063e-05,0.0,225,4,75.83418136173277,656.451792,mp-867151,ScPaOs2,https://materialsproject.org/materials/mp-867151,20.89032061742744,55.74114333487599,-8.604250342815693,-0.5045126942092143
-9.771675853333333,-29.31502756,8.56376577560065,0.5450440470833335,9.070000000000001e-05,2.673640355398569e-05,0.0,187,3,39.53499851753958,203.8907,mp-571589,Mo2C,https://materialsproject.org/materials/mp-571589,4.4611802281776605,22.259694532618266,-8.604250342815693,-0.5045126942092143
-8.125498165,-32.50199266,12.637264910719495,-0.21446592093749928,0.0015448,0.00024399879666899145,0.0,225,4,73.78396740650051,561.521,mp-864834,NpSnRh2,https://materialsproject.org/materials/mp-864834,31.58046158758513,56.657276889875575,-8.604250342815693,-0.5045126942092143