energy_per_atom,energy,density,formation_energy_per_atom,total_magnetization_uB,total_magnetization_T,band_gap,sgr,num_sites,cell_volume,weight,mp_id,formula,URL,tsne_cry_lin1_0,tsne_cry_lin1_1,tsne_cry_lin2_0,tsne_cry_lin2_1
-7.058168818333333,-84.69802582,9.31895025858464,0.0296130966666676,0.1109374,0.007981136041079024,0.0,38,12,161.99092944224162,909.0936,mp-1220128,NiGeMo,https://materialsproject.org/materials/mp-1220128,53.6383995763914,56.911154035378885,-8.604250342815693,-0.5045126942092143
-4.68940062875,-37.51520503,7.160423087163607,0.02893649687500055,0.50496265,0.021229744404803245,0.0,194,8,277.1991654073769,1195.31264,mp-1186276,Nd3Ho,https://materialsproject.org/materials/mp-1186276,-52.965119139735926,68.03309745067266,-8.604250342815693,-0.5045126942092143
-5.1153746,-20.4614984,0.7390633864111373,3.1685076325,0.3548763,0.0047834686153213355,0.0,71,4,864.5925622255811,384.80800000000005,mp-1097382,Zr2MoPd,https://materialsproject.org/materials/mp-1097382,-62.952189692358104,37.97173828500885,-8.604250342815693,-0.5045126942092143
-4.70352944,-18.81411776,7.188214196557242,0.014807685625000566,4.28e-05,3.6127806946370514e-06,0.0,139,4,138.0637283093279,597.65632,mp-976418,Nd3Ho,https://materialsproject.org/materials/mp-976418,-52.95598765336344,68.04502966787803,-8.604250342815693,-0.5045126942092143
-4.402272575,-17.609090300000002,0.8805615955824991,1.8134104050000008,0.0124637,0.0001534628603820684,0.0,71,4,946.5011061576988,501.91685,mp-1095755,YRh2Pb,https://materialsproject.org/materials/mp-1095755,-67.82835916399533,41.92117123621121,-8.604250342815693,-0.5045126942092143
-6.31528386,-25.26113544,12.831993019729593,-0.5969023499999997,0.0458586,0.0070967767928986035,0.0,225,4,75.30729940861222,581.9452100000002,mp-865787,TmRh2Pb,https://materialsproject.org/materials/mp-865787,31.3319745446944,56.534123904584376,-8.604250342815693,-0.5045126942092143
-4.99585912,-19.98343648,0.8086459853828003,3.04867576625,0.3683764,0.005607237694310771,0.0,71,4,765.6323238514066,372.8461,mp-1093725,CrSnRu2,https://materialsproject.org/materials/mp-1093725,7.1100888474176624,25.056306554051194,-8.604250342815693,-0.5045126942092143
-7.525784835833334,-90.30941803,11.225126233340216,-0.7407080041666667,1.7e-06,1.0806729604665231e-07,0.0185000000000004,62,12,183.32937750935062,1239.2936,mp-1102702,HfNiGe,https://materialsproject.org/materials/mp-1102702,36.45292238601016,67.609603054722,-8.604250342815693,-0.5045126942092143
-7.0068926399999985,-35.034463200000005,8.820769507175996,-0.5780020276666662,2.6899999999999997e-05,5.428829655507489e-06,0.0,139,5,57.746210928504475,306.74739,mp-568509,Er(CoB)2,https://materialsproject.org/materials/mp-568509,7.374280276397097,39.57987155867408,-8.604250342815693,-0.5045126942092143
-7.4958578265,-149.91715653,6.187237057749036,-2.816281583442,6.9999996,0.3663242702470702,0.0,26,20,222.6946325212652,829.7694,mp-1227160,CaTmMn2O6,https://materialsproject.org/materials/mp-1227160,-32.24596517908612,6.004592851611191,-8.604250342815693,-0.5045126942092143
-6.891841785,-27.56736714,11.250970115711837,-0.93200458,0.0008363,0.00012274332139354353,0.0,225,4,79.40386701809047,538.00032,mp-976286,HoErRh2,https://materialsproject.org/materials/mp-976286,17.535103702824138,51.29664270797655,-8.604250342815693,-0.5045126942092143
-7.219375346666666,-43.31625208,6.878933015959814,-0.3370363808333323,0.2733865,0.036339480560198936,0.0,160,6,87.6750005731493,363.201612,mp-1215264,ZrScVNi3,https://materialsproject.org/materials/mp-1215264,36.48852365204559,67.59476294164,-8.604250342815693,-0.5045126942092143
-7.420425961666666,-178.09022308,7.574945396025328,-0.15834906494791548,0.6352928000000001,0.025381625209824604,0.0,187,24,291.69698076997065,1330.64544,mp-1216386,Y4Fe4Co12B3C,https://materialsproject.org/materials/mp-1216386,42.44483863706018,83.33616582820241,-8.604250342815693,-0.5045126942092143
-7.275630855,-29.10252342,13.306820820176453,-0.9392340549999992,3.59e-05,5.3248139681074445e-06,0.0,225,4,78.57193281131559,629.6405,mp-861985,Er2IrRh,https://materialsproject.org/materials/mp-861985,16.985785351453558,49.487748278875344,-8.604250342815693,-0.5045126942092143
-9.042573568611113,-325.53264847,3.7600317320362535,-1.0001728677111117,1.35613305,0.030624780829609236,0.0,7,36,516.0677718100944,1168.5549999999996,mp-1247487,SrV7N10,https://materialsproject.org/materials/mp-1247487,6.746454923721947,18.42803225693324,-5.66348830062752,-2.1988523582261346
-7.0740787166666665,-21.22223615,10.943639033519675,0.13588546666666682,0.0006715,0.00014739632247607275,0.0,139,3,53.09294264138918,349.90445,mp-1062984,ThCo2,https://materialsproject.org/materials/mp-1062984,54.68926456108526,67.952523907054,-8.604250342815693,-0.5045126942092143
-5.316821653382354,-361.54387243,6.87517886811898,-0.3920244931617653,0.00010695,6.239855634710058e-07,0.0,186,68,1997.48567978396,8270.249,mp-568485,Nd23Mg4Rh7,https://materialsproject.org/materials/mp-568485,-30.818287305413538,68.21245753026187,-8.604250342815693,-0.5045126942092143
-6.23034866,-37.38209196,3.454771758793431,-2.7159268006149992,2.0,0.4186889470013556,1.8142,164,6,55.66932137103662,115.82070320000001,mp-763051,Li2VO2F,https://materialsproject.org/materials/mp-763051,-41.188404392324735,-57.970924734523756,4.626627295125059,1.0962767823440331
-7.809332780833333,-93.71199337,8.879674882148414,-0.5190076958333331,0.02202835,0.0015134869483864808,0.0,62,12,169.62142819024817,907.0447,mp-1101967,NbCoAs,https://materialsproject.org/materials/mp-1101967,46.43028972711812,50.843349328024594,-8.604250342815693,-0.5045126942092143
-6.251892821666668,-187.55678465,4.415622239388616,-1.8795799358586665,12.000000300000002,0.4993999042831646,0.3706999999999998,9,30,280.0336555283762,744.65147,mp-764043,Li3Mn3NiO8,https://materialsproject.org/materials/mp-764043,-69.31413573721619,-42.456541512070224,-11.322667287355547,-0.2969455587276343
-8.736360246956522,-401.87257136,5.498542145391056,-0.09603803396956448,25.730262399999997,0.6460986916614577,0.0,136,46,464.11198241781733,1536.81379,mp-1245334,Mn11(CN5)2,https://materialsproject.org/materials/mp-1245334,3.035232187292084,16.766002257438213,-8.604250342815693,-0.5045126942092143
-5.850491372857142,-81.90687922,4.603686670561479,-1.6317713214285712,3.0000002,0.2588083558247272,0.0,166,14,135.0891339542742,374.521785,mp-867710,Li2FeCo3O8,https://materialsproject.org/materials/mp-867710,-74.24478698689093,-23.100115214626516,-1.7918103003912549,-2.201039389579312
-7.0683326175,-28.27333047,15.087256535885775,-1.0990795350000004,6.35e-05,9.271987882949363e-06,0.0,225,4,79.81385679099273,725.1694200000001,mp-1187565,Tm2IrPt,https://materialsproject.org/materials/mp-1187565,18.350306443286854,51.17205516503443,-8.604250342815693,-0.5045126942092143
-9.6982081975,-77.58566558,12.554266535828669,0.02499905281250037,3e-06,3.249873185075928e-07,0.0,194,8,107.58018029205728,813.3444772,mp-1079892,AlW2C,https://materialsproject.org/materials/mp-1079892,56.999206124062326,47.41452045741217,-8.604250342815693,-0.5045126942092143
-7.6448867975,-30.57954719,11.048651857752128,-0.6511025500000001,1e-07,1.7276403136624345e-08,0.0,221,4,67.45654567329571,448.8325,mp-1518,CeRh3,https://materialsproject.org/materials/mp-1518,30.41358228828569,56.83855622823291,-8.604250342815693,-0.5045126942092143
-6.446950425714285,-90.25730596,9.012451479616992,-0.5107887624999989,0.0033984,9.720765412186524e-05,0.0,15,14,407.42855159754686,2211.288,mp-1104605,Nd5Ir2,https://materialsproject.org/materials/mp-1104605,-31.22409473095613,67.4985157372872,-8.604250342815693,-0.5045126942092143
-11.5014775096875,-368.04728031,17.700607212565952,0.2109811810156259,0.055245225,0.0011223396455446288,0.0,130,32,573.6511519311136,6114.866,mp-681150,Pu5Rh3,https://materialsproject.org/materials/mp-681150,19.997318481947374,56.48531066589989,-8.604250342815693,-0.5045126942092143
-8.0774606175,-32.30984247,11.869779692681362,-0.44745964375000025,7.240000000000001e-05,1.0067095008446137e-05,0.0,225,4,83.81308498881009,599.10838,mp-1184846,HoThRu2,https://materialsproject.org/materials/mp-1184846,20.51933801676189,54.40769198319547,-8.604250342815693,-0.5045126942092143
-7.9559505425,-31.82380217,12.545654612389658,-0.2896004971875001,0.002539,0.0004361759186657046,0.0,225,4,67.83884481299683,512.534,mp-864608,NpGaRh2,https://materialsproject.org/materials/mp-864608,32.52633127288993,57.18929923142274,-8.604250342815693,-0.5045126942092143
-9.94573067,-39.78292268,15.045414026049613,-0.5631169768749995,1.04e-05,1.6904997994002976e-06,0.0,225,4,71.69611831815487,649.607,mp-1184592,Hf2RePd,https://materialsproject.org/materials/mp-1184592,31.87172356052937,60.26304574447466,-8.604250342815693,-0.5045126942092143
-8.375994858333334,-50.25596915,10.58467518390225,-0.2355021150000004,1.8837909,0.275522055239436,0.0,216,6,79.68081229460947,507.90466,mp-1215205,ZrTaCo4,https://materialsproject.org/materials/mp-1215205,60.74390718656472,64.12167782155413,-8.604250342815693,-0.5045126942092143
-7.848241310833332,-94.17889573,12.087662238758874,-0.42942136916666607,0.0,0.0,0.0,62,12,171.59819546857716,1249.12512,mp-22636,TaNiGe,https://materialsproject.org/materials/mp-22636,43.86939631362967,62.06678981354721,-8.604250342815693,-0.5045126942092143
-6.930691704715447,-852.47507968,4.004919780033308,-2.0352132376793493,40.99481316666667,0.3563135602334521,0.0,8,123,1340.8308335789875,3233.84142,mp-705961,Li5Mn12O24,https://materialsproject.org/materials/mp-705961,-67.40441182008462,-37.92016737188272,2.7614354583030294,-1.0275327143802
-6.534565335,-26.13826134,1.3573904447636416,3.5632260812500007,0.0,0.0,0.17769999999999975,71,4,793.0616080317602,648.28,mp-1095999,Hf2OsRu,https://materialsproject.org/materials/mp-1095999,-60.89269613236235,35.20877796784788,-8.604250342815693,-0.5045126942092143
-8.066143225,-32.2645729,11.772931644577874,-0.42929672250000017,4.16e-05,5.760580117020673e-06,0.0,225,4,84.15976944857124,596.67806,mp-1184103,DyThRu2,https://materialsproject.org/materials/mp-1184103,20.36910493351646,54.194070742769526,-8.604250342815693,-0.5045126942092143
-5.68640731875,-90.9825171,10.021397957965616,-0.7016015762499999,8.325e-06,2.178723303494535e-07,0.0005999999999999339,62,16,445.3070707783101,2687.4402,mp-1208453,Tb3Pt,https://materialsproject.org/materials/mp-1208453,-31.882726512914033,69.9598162582287,-8.604250342815693,-0.5045126942092143
-7.90167803375,-189.64027281,5.687083153360603,-0.2639119065277787,7.475e-05,2.4374662518115813e-06,0.0,216,24,357.39626798991964,1224.0256,mp-1217277,Ti4FeNi,https://materialsproject.org/materials/mp-1217277,59.21064296247317,54.702942327252245,-8.604250342815693,-0.5045126942092143
-6.35419632,-25.41678528,0.9209068217512876,3.9257868850000013,0.6660716,0.009195166948750395,0.0,71,4,844.1871270882547,468.17188,mp-1093893,ZrTaTc2,https://materialsproject.org/materials/mp-1093893,-62.48824567243699,37.8529128826493,-8.604250342815693,-0.5045126942092143
-9.625205951666667,-115.50247142,6.143960410533363,-0.3114116912500009,9.65e-06,9.049852792115866e-07,0.0,18,12,124.26912087805063,459.7932,mp-1216390,VCrC,https://materialsproject.org/materials/mp-1216390,6.506924665460661,22.546294944899117,-8.604250342815693,-0.5045126942092143
-4.706186,-18.824744,7.227388081856231,0.012151125625000423,0.0010428,8.850324985904508e-05,0.0,221,4,137.3153953575776,597.65632,mp-976420,Nd3Ho,https://materialsproject.org/materials/mp-976420,-52.943679908201005,68.06017849912729,-8.604250342815693,-0.5045126942092143
-5.030697155,-20.12278862,0.5937388952219004,3.1355201274999995,0.0012524,1.755819282689026e-05,0.0,71,4,831.2672531310153,297.226195,mp-1096398,Zr2FeCo,https://materialsproject.org/materials/mp-1096398,-63.53773347697374,37.59646491369988,-8.604250342815693,-0.5045126942092143
-8.487974199473685,-161.27150979,6.129550553075321,-0.2519164665284204,18.3814275,1.0879164954486102,0.0,12,19,196.90697548323828,726.84305,mp-1246108,Mn10ZnN8,https://materialsproject.org/materials/mp-1246108,2.9435655209499934,17.73663191946461,-8.604250342815693,-0.5045126942092143
-5.9762766975,-23.90510679,0.9975684624728876,3.5110247531250005,1.9999977,0.035812017240295806,0.0,71,4,650.8458483188724,390.9955,mp-1093714,V2ReRh,https://materialsproject.org/materials/mp-1093714,-57.156446501924115,35.49068190282604,-8.604250342815693,-0.5045126942092143
-5.1748922114705875,-351.89267038,8.13368411950877,-0.5842624119117651,0.16360695,0.0009235726301430564,0.0,186,68,2064.4678396820827,10112.2159,mp-1210297,Pr23Cd4Pt7,https://materialsproject.org/materials/mp-1210297,-29.07895082215357,67.07462047639504,-8.604250342815693,-0.5045126942092143
-8.102779428,-81.02779428,4.403590917118277,-0.758368544427998,0.5365711999999999,0.04657144532864995,0.0,25,10,134.2718800278075,356.0762,mp-989401,CaMoN3,https://materialsproject.org/materials/mp-989401,-3.9986200495158575,-1.9988581513937853,-8.604250342815693,-0.5045126942092143
-6.3902516227272725,-70.29276785,7.5585101807029815,-0.4688352665151518,1e-07,8.484945230169681e-09,0.0,12,11,137.34991159544157,625.1949999999998,mp-31029,Nd2Ni5B4,https://materialsproject.org/materials/mp-31029,30.36492904318917,86.1661032430019,-8.604250342815693,-0.5045126942092143
-5.41041685875,-86.56666974,7.452411915385497,-0.05909659437500015,0.0156398,0.0004159414740343978,0.0,62,16,438.2040590037574,1966.63678,mp-1106011,Nd3Co,https://materialsproject.org/materials/mp-1106011,-30.13221313561433,68.2433613768049,-8.604250342815693,-0.5045126942092143
-6.2669469025,-25.06778761,1.175365422974344,3.3352996900000003,2.9999974999999997,0.041163107459820575,0.0,71,4,849.3567988433288,601.1931000000002,mp-1096515,Hf2CrIr,https://materialsproject.org/materials/mp-1096515,-61.25380297706195,35.30734922659079,-8.604250342815693,-0.5045126942092143
-4.5904082270833335,-110.16979745,7.392999944535268,-0.3981984612500001,0.4079977,0.006650332728757767,0.0,216,24,714.9765006936044,3183.1959999999995,mp-1209976,Nd4CdPd,https://materialsproject.org/materials/mp-1209976,-30.737041209563184,68.08674462383496,-8.604250342815693,-0.5045126942092143
-5.11368290525,-204.54731621,4.765143914908316,-1.4982876876250004,0.9610359,0.032894748110491395,0.21409999999999973,2,40,340.4791120374349,977.051385,mp-769555,Li10Co3Ni7O20,https://materialsproject.org/materials/mp-769555,-66.41975314189924,-25.70999184302903,-8.604250342815693,-0.5045126942092143
-7.034411650806452,-436.13352235,4.01145314389004,-2.14951860989828,27.99996725,0.4907662418340859,0.0,26,62,664.9060268317463,1606.24912,mp-769509,Li4TiMn8O18,https://materialsproject.org/materials/mp-769509,-68.84854553985039,-42.108141368271724,-8.139285427674041,2.224142034755567
-7.774045193947368,-590.82743474,8.365526133056715,-2.822172345328946,0.997503625,0.011915125807118036,0.4500000000000002,55,76,975.6482679912954,4915.1576,mp-16391,Er4Mo4O11,https://materialsproject.org/materials/mp-16391,-20.919224586555185,-14.614714305530493,-1.0684550714638823,0.454029950939625
-7.024160782580645,-435.49796852,4.128425067890887,-2.3880882043589238,7.01158635,0.12730776987131728,0.1092000000000004,55,62,641.8577716339811,1595.78405,mp-767219,Li4Ti4Mn(Co2O9)2,https://materialsproject.org/materials/mp-767219,-73.69932395883926,-24.02765026758817,0.3423957844549778,-2.3909444866078897
-6.3576732850000015,-139.86881227,3.282603155939855,-2.6972105883981814,3.00000025,0.1537921460010757,0.8664999999999998,2,22,227.33408786005702,449.40081280000004,mp-759574,Li3V2(O2F)2,https://materialsproject.org/materials/mp-759574,-41.4930978907199,-57.72318238422179,4.033159273346894,4.229102852542858
-6.3996138825,-25.59845553,12.661068124237161,-0.33152894874999905,0.00010549999999999999,1.5844931621418996e-05,0.0,225,4,77.59603278079273,591.64442,mp-865306,Tm2CuOs,https://materialsproject.org/materials/mp-865306,-9.956355236573328,55.37756943235901,-8.604250342815693,-0.5045126942092143
-6.492650954090909,-142.83832099,3.636357649943236,-2.054067268172727,16.0,0.8144059795805315,0.5112999999999999,2,22,228.95833409400538,501.388025,mp-771669,Li5Mn5O12,https://materialsproject.org/materials/mp-771669,-68.30081309959331,-41.97618857215654,3.892680744808194,1.732467838252409
-4.232406891666667,-25.39444135,6.125290138899237,0.005895245416666603,0.026361900000000004,0.0015201110786800462,0.0,155,6,202.10581610556497,745.5149999999999,mp-1186293,Nd5Mg,https://materialsproject.org/materials/mp-1186293,-47.9235723102166,68.38927557256686,-8.604250342815693,-0.5045126942092143
-7.7132450125,-30.85298005,9.610960892598412,-0.3188739687500002,2.6000000000000002e-05,3.8461511600398686e-06,0.0,225,4,78.78153288270947,455.97617,mp-979426,YHoRu2,https://materialsproject.org/materials/mp-979426,19.59773048749447,53.23586997135562,-8.604250342815693,-0.5045126942092143
-6.1236657125,-24.49466285,12.573994377686555,-0.3286189904166674,0.000106,1.4786560174988247e-05,0.0,225,4,83.54416789788023,632.6161999999998,mp-1184131,Er2AgOs,https://materialsproject.org/materials/mp-1184131,18.292202713071717,55.301354820538684,-8.604250342815693,-0.5045126942092143
-9.4550316025,-37.82012641,14.83371466973734,0.6516939059375009,3.6215685,0.5127520943644744,0.0,139,4,82.31266988694344,735.305,mp-1185969,MgNp3,https://materialsproject.org/materials/mp-1185969,6.6127570368346005,73.32939074658016,-8.139285404544589,2.224142029858836
-6.734787773928572,-188.57405767,4.400621584364898,-1.9918077012742856,7.00003975,0.2745476711838369,0.3480000000000003,62,28,297.13935035481467,787.45383712,mp-542710,NaMn2O4,https://materialsproject.org/materials/mp-542710,-66.84136720949576,-40.779457199776296,1.971170836132216,-2.1212694707399358
-6.189837591875,-99.03740147,3.737190734390762,-2.078188710180001,9.9999989,0.8008353574072553,0.0,12,16,145.5238381125327,327.514335,mp-1174546,Li5Mn3O8,https://materialsproject.org/materials/mp-1174546,-70.45830207733937,-42.33989301796386,-4.986794654469495,-2.514106997256254
-6.963097706428571,-97.48336789,5.962823046162338,-0.6211078578973215,1.1400000000000001e-05,4.3553241715209685e-07,0.0,176,14,305.04351266414307,1095.37953856,mp-1186069,Na(MoSe)3,https://materialsproject.org/materials/mp-1186069,63.981153873318036,31.625328806040834,-8.604250342815693,-0.5045126942092143
-6.090211929736843,-231.42805333,4.583104190456414,-1.8501685744431584,9.00000045,0.30508797868050513,0.0,2,38,343.7912848975473,948.86735,mp-778482,Li4Mn2Co3O10,https://materialsproject.org/materials/mp-778482,-66.089408567299,-45.67069914157061,3.1989159666352105,-0.7745571386265039
-6.9758649833333335,-125.5655697,9.402239693381103,-0.3855162223148143,7.517188099999999,0.4156908594855428,0.0,191,18,210.7474702073928,1193.2861449999998,mp-1181434,Er3Co11B4,https://materialsproject.org/materials/mp-1181434,42.389466433491705,83.5151912977822,-8.604250342815693,-0.5045126942092143
-8.587217059166667,-103.04660471,4.888101325362993,-0.7740624820233322,0.28289305,0.02804982678752253,0.0,63,12,117.5356252065526,345.9876772,mp-1245994,AlCr2N3,https://materialsproject.org/materials/mp-1245994,-0.9394811652617756,14.90596692769662,-8.604250342815693,-0.5045126942092143
-6.987382098666668,-104.81073148,3.971450453330277,-1.8640299386493324,16.0000006,1.0189141178611036,0.5250000000000001,1,15,183.00368999187083,437.6832282,mp-766870,Mn5O9F,https://materialsproject.org/materials/mp-766870,-77.03569367167347,-14.891092520611654,-8.604250342815693,-0.5045126942092143
-7.33378969,-29.33515876,11.951400409844327,-0.4274601262499997,6.2e-06,9.553177150109136e-07,0.0,225,4,75.63473434494476,544.366,mp-1184363,ErLuRu2,https://materialsproject.org/materials/mp-1184363,19.69165594070531,53.16804001934422,-8.604250342815693,-0.5045126942092143
-6.319566245,-25.27826498,1.1544454375926338,3.8055923925,1.1214396,0.01908868102538314,0.0,71,4,684.6638444811623,475.99425999999994,mp-1096449,TaNbRu2,https://materialsproject.org/materials/mp-1096449,-58.33335305867789,40.12785958956138,-8.604250342815693,-0.5045126942092143