energy_per_atom,energy,density,formation_energy_per_atom,total_magnetization_uB,total_magnetization_T,band_gap,sgr,num_sites,cell_volume,weight,mp_id,formula,URL,tsne_cry_lin1_0,tsne_cry_lin1_1,tsne_cry_lin2_0,tsne_cry_lin2_1
-9.64398469,-38.57593876,14.418003151686806,0.39896914000000017,0.0004055,5.817328074404006e-05,0.0,225,4,81.23528886166717,705.34364,mp-1184071,DyTa3,https://materialsproject.org/materials/mp-1184071,9.57049738942216,74.32197733904593,-8.604250342815693,-0.5045126942092143
-5.854056875,-35.12434125,10.522472453124992,-0.479415490000001,1.7e-06,2.20526243741378e-07,0.0,227,6,89.83923988922554,569.2916,mp-1939,ErNi2,https://materialsproject.org/materials/mp-1939,28.09297786642805,82.51892273585803,-8.604250342815693,-0.5045126942092143
-8.230198702000001,-41.15099351,8.114294521289361,0.12816043152400028,0.42209650000000004,0.10125919533928583,0.0,166,5,48.57968636614524,237.3867,mp-1225203,Fe4N,https://materialsproject.org/materials/mp-1225203,-1.6440079038889273,17.160107631184808,-8.604250342815693,-0.5045126942092143
-5.3355719825,-21.34228793,12.137548886833027,-0.8304907666666672,2.3800000000000003e-05,3.1803608503934376e-06,0.0,225,4,87.21234936362897,637.4702,mp-1184085,Er2AgPt,https://materialsproject.org/materials/mp-1184085,16.929679393172027,55.81765500382984,-8.604250342815693,-0.5045126942092143
-0.585495995,-2.34198398,0.1668200319564882,0.532955136125,1.0000018,0.005481272826468557,0.4192,71,4,2126.164144503041,213.59736928,mp-1095721,K2NaCd,https://materialsproject.org/materials/mp-1095721,-46.401917016407786,44.61689756469627,-11.33724704385493,-0.349233166152144
-6.690583883571428,-281.00452311,3.941362197821121,-1.9988657088228559,35.9999971,0.9603819852514164,0.0,12,42,436.8535691613675,1036.891095,mp-765632,Li7Mn11O24,https://materialsproject.org/materials/mp-765632,-67.33799118990834,-38.201202632713645,3.40784799669402,1.0459779935316789
-4.2725370725,-17.09014829,1.060615607772848,1.733654276666667,5.142813200000001,0.06836880402062308,0.0,71,4,876.6378029356198,559.924045,mp-1096173,MnInPt2,https://materialsproject.org/materials/mp-1096173,-56.774992618335936,34.925068572198555,-8.604250342815693,-0.5045126942092143
-6.428924133636364,-70.71816547,7.270292615823121,-0.4781448756060614,0.0,0.0,0.0,12,11,140.3571666545648,614.5219400000002,mp-3471,La2Ni5B4,https://materialsproject.org/materials/mp-3471,6.072829087066643,38.58034635477789,-8.604250342815693,-0.5045126942092143
-5.539014806666668,-99.70226652,9.755145784860757,-0.3025064191666671,2.78e-05,7.580584076469684e-07,0.0,71,18,427.3852745500317,2510.7543749999995,mp-1212883,Er12Co5Bi,https://materialsproject.org/materials/mp-1212883,-29.573761427596306,70.97149464398595,-8.604250342815693,-0.5045126942092143
-9.50349072,-38.01396288,12.786043255959642,-0.5746846174999991,0.9838142,0.17118069173061454,0.0,225,4,66.97854936237225,515.7305,mp-1184678,Hf2FeRh,https://materialsproject.org/materials/mp-1184678,39.36502947544536,60.859689253038795,-8.604250342815693,-0.5045126942092143
-3.010879405,-6.02175881,10.087193175082891,-0.4764863937499997,0.4896031,0.10051601739644304,0.0,221,2,56.76574130212141,344.832,mp-11467,NdHg,https://materialsproject.org/materials/mp-11467,-23.278178151672627,59.846723949341296,-8.604250342815693,-0.5045126942092143
-7.501213607380952,-630.10194302,6.09029197072789,-2.2794018287032323,1.18798795,0.011475388169605687,0.0,2,84,1206.4854202484148,4424.977848,mp-628817,P2W9O31,https://materialsproject.org/materials/mp-628817,-18.70382704118081,-0.5926923536578784,-8.604250342815693,-0.5045126942092143
-6.6829703525,-26.73188141,9.245457534694406,-0.6564517262499994,3.01e-05,4.086595195210215e-06,0.0,225,4,85.83853621351949,477.92706,mp-866282,CaThRh2,https://materialsproject.org/materials/mp-866282,13.444892220733914,46.24944231546292,-8.604250342815693,-0.5045126942092143
-6.893945745384616,-89.62129469,6.797392245478184,-0.2126209212820516,0.0,0.0,0.0,12,13,354.00351375703906,1449.1082,mp-29607,Ag(TeMo)6,https://materialsproject.org/materials/mp-29607,59.10651369918314,32.89857628367492,-8.604250342815693,-0.5045126942092143
-4.094423975,-16.3776959,0.4897575530082031,1.7901328787500006,0.0,0.0,0.02839999999999998,71,4,1058.9217058073662,312.3172,mp-1097423,Y2SiPd,https://materialsproject.org/materials/mp-1097423,-69.22635179593631,42.97484647006391,-8.604250342815693,-0.5045126942092143
-4.719786823333333,-113.27488376,5.9835299286991015,-0.07827763666666658,1.425e-06,2.3127275636526457e-08,0.0,216,24,718.0717072731621,2587.4751799999995,mp-645130,Pr4MgCo,https://materialsproject.org/materials/mp-645130,-29.093931703655876,67.24403607037725,-8.604250342815693,-0.5045126942092143
-6.6720628983333325,-40.03237739,14.887499971454432,-1.0458117741666666,5e-08,4.887823816511746e-09,0.0,227,6,119.2152705380935,1068.82,mp-2720,NdPt2,https://materialsproject.org/materials/mp-2720,24.171334432991124,52.63705629851079,-8.604250342815693,-0.5045126942092143
-6.384768315,-76.61721978,6.4350958857001554,-2.456331758619792,0.0006839,2.944125670658855e-05,0.0,12,12,270.71585215891787,1049.1065999999996,mp-1102510,Ho5S7,https://materialsproject.org/materials/mp-1102510,47.25148988209854,17.869996183003725,-4.607856949694765,-1.0533170854630498
-5.39082933875,-86.25326942,9.000465319921966,-0.15924782874999988,1.025e-06,2.9622390292510848e-08,0.0,62,16,403.2563298881971,2185.7327800000003,mp-646392,Dy3Co,https://materialsproject.org/materials/mp-646392,-29.572695326077927,70.54272205943447,-8.604250342815693,-0.5045126942092143
-5.8400338538888885,-210.24121874,4.475782229851868,-1.6786840562499998,11.0059236,0.3671221419172973,0.0,10,36,349.37622080320534,941.701365,mp-759810,Li6Fe3Co7O20,https://materialsproject.org/materials/mp-759810,-75.92321002637328,-24.24551340378984,-4.50684613467203,-1.6278151340320055
-6.6505908950000014,-159.61418148,3.660987895028513,-2.5758185302083336,8.9999994,0.5107649735545395,3.3583,12,24,205.35193560879242,452.7391,mp-752502,Li7Cr3(SiO6)2,https://materialsproject.org/materials/mp-752502,30.505771589756304,-25.49029879926374,10.353140425874466,0.8725776547655991
-7.184347589999999,-136.50260421,8.291131823313071,-0.3438658307894729,6.6169497999999995,0.4109253003402704,0.0,166,19,187.6602913038469,936.9946599999997,mp-1105128,Ho(Co2B)6,https://materialsproject.org/materials/mp-1105128,39.008795500111326,88.01392975200079,-8.604250342815693,-0.5045126942092143
-6.7920257025,-54.33620562,7.229225809155206,-0.07887330184250096,11.1362938,1.344807778742004,0.0,65,8,96.50679548631113,420.14635,mp-24813,LaFe5H2,https://materialsproject.org/materials/mp-24813,61.76112471022346,74.3679869240607,-8.604250342815693,-0.5045126942092143
-7.848120507500001,-156.96241015,8.438218455036148,-0.7264557308333337,4.40143935,0.19112570906691775,0.05600000000000005,127,20,268.3817866670858,1363.812648,mp-542023,Sc2FeB2Rh5,https://materialsproject.org/materials/mp-542023,29.766785596374646,50.57701734456297,-8.604250342815693,-0.5045126942092143
-8.084332495714285,-113.18065494,7.4306820366082365,-0.09544208704428517,21.051967,1.4538389571889103,0.0,44,14,168.75389519219618,755.1502899999998,mp-1215830,YVFe11H,https://materialsproject.org/materials/mp-1215830,61.2092768204372,74.99433688441012,-8.604250342815693,-0.5045126942092143
-4.7485712025,-18.99428481,0.7485668869582641,1.81944541,0.0005063,7.252492372522736e-06,0.0,71,4,813.5758979494847,366.758,mp-1097070,ZrGaRh2,https://materialsproject.org/materials/mp-1097070,-63.13373665029496,38.96320336996685,-8.604250342815693,-0.5045126942092143
-11.30035865,-90.4028692,12.717929949206647,-1.2302399249999991,7.1587762,0.4533869395330436,0.009400000000000295,62,8,184.01244996819835,1409.336,mp-11428,GdPt,https://materialsproject.org/materials/mp-11428,13.354734206744014,54.893342889258854,-8.604250342815693,-0.5045126942092143
-5.698886065,-22.79554426,0.6284672720062324,3.3455387400000003,1.4249768,0.01334858030527815,0.0,71,4,1244.085254521664,470.85124,mp-1093607,Hf2MnCo,https://materialsproject.org/materials/mp-1093607,-62.83511313601628,35.02800011377923,-8.604250342815693,-0.5045126942092143
-7.461907403333334,-134.31433326,11.312614760116515,-0.4373675383333335,1.6666666666666667e-08,6.192647765019078e-10,0.0,190,18,313.6532550312048,2136.79917,mp-22315,HfCoSn,https://materialsproject.org/materials/mp-22315,43.00547598160128,43.681166632155325,-8.604250342815693,-0.5045126942092143
-10.468131135,-41.87252454,14.222672875405856,0.2398599946874995,12.8199465,1.5423020885542142,0.0,221,4,96.87109159775876,829.71,mp-571075,Np3Sn,https://materialsproject.org/materials/mp-571075,7.504127539588713,75.69896836461763,-8.604250342815693,-0.5045126942092143
-8.88828514,-35.55314056,8.886514264402775,0.35746121062499897,2e-06,5.515327312236477e-07,0.0,166,4,42.260646060673935,226.1614,mp-999259,RuC,https://materialsproject.org/materials/mp-999259,48.90611899717928,54.13456619488312,-8.604250342815693,-0.5045126942092143
-5.860792987142857,-82.05110182,11.02020944113117,-0.9826354714285718,0.00022455,9.312375906972904e-06,0.0,148,14,281.01531454704127,1864.9652600000002,mp-1104675,Tm3Pd4,https://materialsproject.org/materials/mp-1104675,17.306927593576752,54.37494699002017,-8.604250342815693,-0.5045126942092143
-5.273239974,-26.36619987,5.1875110504073065,-1.6130207954285711,5.7100000000000006e-05,3.6951209661188383e-06,0.0,164,5,180.08804166758014,562.593642,mp-571647,La2PI2,https://materialsproject.org/materials/mp-571647,-31.2666463101602,39.41133602663054,-8.604250342815693,-0.5045126942092143
-12.980037535,-51.92015014,16.736216253570444,0.08529560984374918,5.7209441,0.8066252727043051,0.0,139,4,82.65579489973916,833.0699999999998,mp-1186843,Pu3Ru,https://materialsproject.org/materials/mp-1186843,19.964356512680357,56.49769493570568,-8.604250342815693,-0.5045126942092143
-6.41028721,-19.23086163,9.247525133359366,0.6167295066666666,2.0134428,0.3145523130385792,0.0,216,3,74.59742572029995,415.43231000000003,mp-672385,UNiSn,https://materialsproject.org/materials/mp-672385,24.582326740205986,62.58064744744183,-8.604250342815693,-0.5045126942092143
-7.256693351111113,-130.62048032,7.779091850083022,-0.4690925774074073,0.0,0.0,0.0,137,18,178.9206082107653,838.1855599999999,mp-22165,Ce(CoB)4,https://materialsproject.org/materials/mp-22165,8.294390850956903,39.489752367492095,-8.604250342815693,-0.5045126942092143
-3.6462218575,-14.58488743,10.312153453091083,-0.5624443725000003,3e-07,4.207368418622319e-08,0.0,225,4,83.09753470347925,516.0459999999998,mp-1187894,Yb2CuPd,https://materialsproject.org/materials/mp-1187894,16.038590661156746,54.269909173406894,-8.604250342815693,-0.5045126942092143
-5.311214729558825,-361.16260161,6.658434481233067,-0.3738447664705889,0.014314799999999999,8.241328411420394e-05,0.0,186,68,2024.256261588356,8116.868899999998,mp-1210296,Pr23Mg4Rh7,https://materialsproject.org/materials/mp-1210296,-29.16824478407723,67.24339036959339,-8.604250342815693,-0.5045126942092143
-6.6523068625,-26.60922745,1.2858292540526568,4.912752336458333,1.2865381,0.01929369041243881,0.0,71,4,777.1140735263124,601.754,mp-1095756,TiReW2,https://materialsproject.org/materials/mp-1095756,-60.26486730084701,35.303504906710096,-8.604250342815693,-0.5045126942092143
-10.1917988325,-40.76719533,13.322360136053641,-0.7883312324999991,2e-07,3.3519260478978134e-08,0.0,225,4,69.53652679699559,557.8855,mp-864916,Hf2TcRh,https://materialsproject.org/materials/mp-864916,40.223959951444954,60.90227735373721,-8.604250342815693,-0.5045126942092143
-5.220307830555557,-93.96554095,7.113626144832258,-0.3140318483333336,5.915e-05,1.3404184155278513e-06,0.0,71,18,514.2707107805941,2203.0976,mp-1209994,Nd6Ni2Sn,https://materialsproject.org/materials/mp-1209994,-29.962553201584768,69.09117898854328,-8.604250342815693,-0.5045126942092143
-4.07824578875,-32.62596631,8.273734183093604,-0.687535696666667,6.555e-05,4.094570475941026e-06,0.0,63,8,186.56998342804698,929.596,mp-21027,CaIn2Pt,https://materialsproject.org/materials/mp-21027,-14.423443040782864,51.53421876481948,-8.604250342815693,-0.5045126942092143
-1.677723425,-6.710893700000001,0.4255765774616085,2.0329750025,2.0000016,0.01483363343129736,0.07960000000000013,71,4,1571.3040435828327,402.7067,mp-1097221,Y2MgHg,https://materialsproject.org/materials/mp-1097221,-71.77440967509729,43.18838881182898,-8.9782031655106,2.2457657691202417
-6.763304176923077,-87.9229543,7.54892367236122,-0.2249194953846158,1.63e-05,7.802360243134587e-07,0.0,191,13,243.46639974727225,1106.81485,mp-1104337,Y(VSn)6,https://materialsproject.org/materials/mp-1104337,47.19836704050766,40.2951583986009,-8.604250342815693,-0.5045126942092143
-6.2338301825,-24.93532073,9.291748102903618,-0.9301577387500002,0.0003923,5.911450242151537e-05,0.0,225,4,77.33956005711346,432.762912,mp-974065,LuScPd2,https://materialsproject.org/materials/mp-974065,16.972408672025182,54.34321977122722,-8.604250342815693,-0.5045126942092143
-6.1265461275,-24.50618451,11.692616623563328,-0.1509091337500008,8.5e-06,1.2986593542055695e-06,0.0,225,4,76.27831751718696,537.110602,mp-979042,Tm2BeOs,https://materialsproject.org/materials/mp-979042,7.08137987011847,72.26042388681881,-8.604250342815693,-0.5045126942092143
-9.136552081,-91.36552081,8.46793200235736,-0.4282380456666672,1.81290095,0.20000351907530914,0.0,127,10,105.63646677426513,538.694,mp-1078299,Fe(BMo)2,https://materialsproject.org/materials/mp-1078299,21.310137313376114,36.779424225716056,-8.604250342815693,-0.5045126942092143
-7.9272684275,-158.54536855,8.315667798643936,-0.6879163518333329,2.7620066000000003,0.11886492192703127,0.0,127,20,270.79985665070546,1356.114848,mp-542021,Sc2CrB2Rh5,https://materialsproject.org/materials/mp-542021,29.77470642228753,50.61263132066053,-8.604250342815693,-0.5045126942092143
-6.945050885,-250.02183186,6.5056362580586145,-0.365797317777777,0.00361475,6.683972740482871e-05,0.0,62,36,630.2618558191007,2469.230944,mp-1209981,Sc3(Ge2Mo)2,https://materialsproject.org/materials/mp-1209981,51.59505231364199,59.18308540287683,-8.604250342815693,-0.5045126942092143
-4.3890689925,-17.55627597,0.8710311128899023,3.19606393375,3.0000071,0.03842096298368591,0.2907000000000002,71,4,909.9791974601063,477.327045,mp-1095963,Hf2MnZn,https://materialsproject.org/materials/mp-1095963,-65.30571509849577,40.542337608999226,-0.9626569922922764,-0.22241518223878373
-7.309355475,-29.237421899999998,9.340099824961396,-0.8676795024999997,1.64e-05,2.351264439994401e-06,0.0,225,4,81.28675746503187,457.21685,mp-979917,DyYRh2,https://materialsproject.org/materials/mp-979917,17.068184142653752,51.25906559651633,-8.604250342815693,-0.5045126942092143
-7.7049150499999985,-38.52457525,11.174845645212507,-0.5381753427500001,0.0082034,0.0013184273934217347,0.0,221,5,72.51287058523289,487.9862,mp-568727,ErRh3C,https://materialsproject.org/materials/mp-568727,22.390147294927612,43.3062031032009,-8.604250342815693,-0.5045126942092143
-9.284910914347826,-213.55295103,8.613323793558624,-0.5374324301863345,0.17486310000000002,0.005992327759527358,0.0,187,23,340.07917715958155,1764.012768,mp-30190,UMo13P9,https://materialsproject.org/materials/mp-30190,56.132043797065016,48.306935978330294,-8.604250342815693,-0.5045126942092143
-6.6161312225,-26.46452489,10.0582451763326,-0.6901982625,0.5517353,0.07293440155395563,0.0,38,4,88.16085121026023,534.0094,mp-1226780,Ce2NiPt,https://materialsproject.org/materials/mp-1226780,12.41448247859726,54.258269157743136,-8.604250342815693,-0.5045126942092143
-8.013334738333333,-96.16001686,7.234835269917281,-0.5701622633333336,2.528066625,0.1466675817071467,0.034800000000000615,62,12,200.87773899432042,875.2081800000002,mp-20059,ZrMnGe,https://materialsproject.org/materials/mp-20059,48.17790077347869,60.700913101961056,-8.604250342815693,-0.5045126942092143
-7.2770704075,-291.0828163,6.351130883680688,-0.4697913542265624,0.0,0.0,0.0,63,40,905.6928225021913,3464.04,mp-299,Mo9Se11,https://materialsproject.org/materials/mp-299,63.16672921782561,32.49605242330249,-8.604250342815693,-0.5045126942092143
-7.859577489999999,-94.31492988,8.665812166514806,-0.1391867070833328,3.7152049,0.29032870546135525,0.0,156,12,149.13178660418168,778.2702,mp-1220724,Nb3Co8Si,https://materialsproject.org/materials/mp-1220724,60.252307109637364,65.18843853667386,-8.604250342815693,-0.5045126942092143
-8.0149496475,-32.05979859,13.276502870685864,-0.82433736625,1.84e-05,2.676354876676475e-06,0.0,225,4,80.12195754898755,640.5988500000002,mp-979420,YErIr2,https://materialsproject.org/materials/mp-979420,16.524063244202598,49.044252411783546,-8.604250342815693,-0.5045126942092143
-7.796368863333334,-23.38910659,9.873537343595046,0.3134863399999996,3.9316883999999996,0.7926203427488403,0.0,139,3,57.808447257630796,343.72806,mp-1062988,ThFe2,https://materialsproject.org/materials/mp-1062988,56.18029406019434,67.77869051072379,-8.604250342815693,-0.5045126942092143
-7.432649417988506,-1293.28099873,4.656439737361741,-1.0964298088476998,0.00015759999999999998,5.011660439395279e-07,0.0,7,174,3664.814546727405,10276.7762,mp-685514,K7(Mo9S11)4,https://materialsproject.org/materials/mp-685514,67.17686870590893,33.402310246114034,-8.604250342815693,-0.5045126942092143
-7.621529415,-30.48611766,12.097397071072345,-0.7715389183333334,8.400000000000001e-06,1.4288790090058833e-06,0.0,225,4,68.51114998015787,499.119,mp-865066,HfInRh2,https://materialsproject.org/materials/mp-865066,32.06701566740577,55.95986303052286,-8.604250342815693,-0.5045126942092143
-7.006946783125,-224.22229706,12.224265944305015,-0.8046092618749991,0.00158065,2.4404920377516085e-05,0.0,130,32,754.806702820366,5556.604,mp-1200226,Dy5Ir3,https://materialsproject.org/materials/mp-1200226,16.163844665669767,47.7318350973824,-8.604250342815693,-0.5045126942092143
-6.085303498888888,-54.76773149,8.489690557722831,-0.6247316338888891,6.666666666666666e-07,6.853351940449708e-08,0.0,189,9,113.36608104398589,579.5967,mp-1080033,SiNiPd,https://materialsproject.org/materials/mp-1080033,52.86837653682961,51.42542350774958,-8.604250342815693,-0.5045126942092143
-7.170559364000001,-71.70559364,6.301982477300862,-2.8930803610000004,1.0,0.09180899796541307,0.0,87,10,126.9381545472274,481.7484,mp-1078868,Sr2MgReO6,https://materialsproject.org/materials/mp-1078868,-25.449011645929126,-6.387976493865201,-8.604250342815693,-0.5045126942092143
-7.484471128636364,-329.31672966,8.234709111970242,-0.08935938572090989,37.5320519,0.8458169561313801,0.0,194,44,517.1343051459597,2564.49892,mp-1212422,Ho2Fe17H3,https://materialsproject.org/materials/mp-1212422,61.74824290716546,74.68607453263266,-8.604250342815693,-0.5045126942092143
-4.391226978214286,-122.95435539,9.930434718797418,-0.41332585440476216,6.9702660000000005,0.12082222038452485,0.0,62,28,672.3260935566692,4020.6765520000004,mp-1192981,Eu(In2Au)2,https://materialsproject.org/materials/mp-1192981,-15.598868742559375,51.40625758426721,-8.604250342815693,-0.5045126942092143
-5.1980031675,-20.79201267,8.925270471818024,-0.2413255124999996,1.04e-05,1.4062864847890593e-06,0.0,225,4,86.1860473990127,463.24342,mp-865363,Tm2MgRu,https://materialsproject.org/materials/mp-865363,11.6031421428715,47.86568998595539,-8.604250342815693,-0.5045126942092143
-5.6839101125,-22.73564045,0.6681902937952984,3.9409386964583337,6.9999996,0.097710856570392,0.0,71,4,834.8964650363279,335.957,mp-1097679,TiV2Re,https://materialsproject.org/materials/mp-1097679,-60.47025663975982,36.51831673068108,-8.604250342815693,-0.5045126942092143
-5.56288223,-33.37729338,11.875728434753487,-0.40387243916666665,0.0002315,3.221167958330775e-05,0.0,216,6,83.75583110685238,598.9991689999998,mp-1025001,ErNi4Au,https://materialsproject.org/materials/mp-1025001,30.330962326150175,72.38099301303214,-8.604250342815693,-0.5045126942092143