energy_per_atom,energy,density,formation_energy_per_atom,total_magnetization_uB,total_magnetization_T,band_gap,sgr,num_sites,cell_volume,weight,mp_id,formula,URL,tsne_cry_lin1_0,tsne_cry_lin1_1,tsne_cry_lin2_0,tsne_cry_lin2_1
-3.6008993300000003,-43.21079196,1.910728468919877,-0.5037499212976192,2.25e-06,9.554372866274034e-08,1.3453,72,12,274.4465398751504,315.79674088,mp-5122,Na3AlP2,https://materialsproject.org/materials/mp-5122,35.92515629092012,17.173686941548414,7.546666863568209,-4.6620877958254745
-6.301721056818183,-138.63786325,4.5539481954979095,-2.402372329318182,8.0000011,0.35902550675929484,0.12099999999999955,148,22,259.68219317201783,712.165885,mp-1227118,Ca6Co3RhO12,https://materialsproject.org/materials/mp-1227118,-23.865017840185203,-11.145153971293388,-5.969835008639917,-1.9185595777691749
-6.480851935882352,-110.17448291,4.695716346052179,-2.628473450552941,10.9999995,0.5075815737669792,0.0,139,17,252.5598116569454,714.1953350000001,mp-23597,Sr4Mn3(ClO4)2,https://materialsproject.org/materials/mp-23597,-29.848002994942888,-9.218382906002207,-8.604250342815693,-0.5045126942092143
-5.129764065,-30.77858439,8.725695767704133,-0.687269939999999,0.0,0.0,0.0,186,6,113.6825708586308,597.3720000000002,mp-20010,DyCuGe,https://materialsproject.org/materials/mp-20010,-4.700951877510512,56.7576332142059,-8.604250342815693,-0.5045126942092143
-6.8881502825,-82.65780339,9.845332793292512,-0.7234138741666669,0.0,0.0,0.0,62,12,226.82415815085704,1344.84,mp-19986,DyGeRu,https://materialsproject.org/materials/mp-19986,15.5524418620979,63.11865165265046,-8.604250342815693,-0.5045126942092143
-7.5458647125,-30.18345885,8.135219977339808,-0.33169762937500025,0.0,0.0,0.0,38,4,49.322932117892705,241.64015,mp-3061,TbNiC2,https://materialsproject.org/materials/mp-3061,-21.553334875174023,11.277603085265195,-8.604250342815693,-0.5045126942092143
-6.94245402875,-55.53963223,6.196515772032442,-0.6312569212500003,0.00588915,0.0005078910364226136,0.0,63,8,135.1324017032093,504.264,mp-1025523,CeFeSi2,https://materialsproject.org/materials/mp-1025523,15.164381683774163,71.94823415920766,-8.604250342815693,-0.5045126942092143
-4.640812823,-46.40812823,7.716789579596484,-0.8371400045000008,0.91127645,0.06789091730049474,0.0,74,10,156.42850614320488,726.9482,mp-28235,Tl(CuO)2,https://materialsproject.org/materials/mp-28235,-51.618242095054185,-1.0766384768029629,-8.604250342815693,-0.5045126942092143
-4.938990971555556,-444.50918744,1.512668224009739,-0.8164451688158888,1.0000044,0.015959021916512817,0.6747,154,90,730.2525249612048,665.2236192,mp-1199050,CuH20N6OF2,https://materialsproject.org/materials/mp-1199050,-53.50993943558877,-15.511272499036664,3.7097174994007394,0.9797434372432284
-6.113087298636364,-134.48792057,3.9273448974005496,-2.0156561811363645,7.99891565,0.43090004336863896,0.7194000000000003,64,22,216.33759970544014,511.66058,mp-752511,Li2Co2SiO6,https://materialsproject.org/materials/mp-752511,-75.20279292468578,-56.35769005722495,3.5977723085358178,1.6082091479555956
-5.959446658125,-858.16031877,4.9520668787121656,-2.1191198760416667,6.2505548875,0.03861149778879202,0.0,1,144,1886.5979227697687,5626.220679999999,mp-1099678,Sr3CaCo3CuO10,https://materialsproject.org/materials/mp-1099678,-33.48464697988095,-15.992890569689546,-8.604250342815693,-0.5045126942092143
-5.957631625,-23.8305265,3.911385283906759,-1.6174650257812508,0.0,0.0,0.8817000000000004,156,4,73.28913124598185,172.631912,mp-6980,ScCuS2,https://materialsproject.org/materials/mp-6980,47.32465491937642,-6.98627266744101,6.837458759092,-6.448855951914037
-5.555116964545454,-61.10628661,4.12647332038344,-1.52203113476909,8.0000002,0.7365813104301335,0.0,8,11,126.57464857049726,314.54057856,mp-1221339,Na2MnCoNiO6,https://materialsproject.org/materials/mp-1221339,-66.08877500274738,-39.5467898455546,1.0253274820809313,-2.283822451930282
-4.405021101428573,-30.83514771,3.635055712322564,-1.9901728135207153,1.2e-06,8.189470027944733e-08,0.0,139,7,170.76657804902354,373.82199999999995,mp-1147579,Sr2Cu(SCl)2,https://materialsproject.org/materials/mp-1147579,16.282566471988574,-3.2446367541978836,-8.604250342815693,-0.5045126942092143
-6.5915562125,-26.36622485,9.56242343270116,-0.5369348937499998,8.5e-06,1.917839286481469e-06,0.0,225,4,51.651643213804064,297.4425,mp-978532,CuSiRh2,https://materialsproject.org/materials/mp-978532,34.28373066315816,66.79999743684283,-8.604250342815693,-0.5045126942092143
-6.945803071944443,-250.04891059,3.795124208736663,-2.4909737647966668,8.000000025,0.1972757828550171,0.0,8,36,472.59991633310653,1080.11636,mp-1247611,Ca2Mn2O5,https://materialsproject.org/materials/mp-1247611,-30.226733635410522,-10.26170989951972,-8.604250342815693,-0.5045126942092143
-8.602906138333333,-103.23487366,2.4870546974560517,-0.08902339325333249,5e-08,2.7269811152438757e-09,0.0,15,12,213.68070184669145,320.038,mp-1096903,CrN2,https://materialsproject.org/materials/mp-1096903,-4.696366031013588,9.610674659890595,-8.604250342815693,-0.5045126942092143
-7.3052298125,-116.883677,3.884169581248001,-0.6380976636899991,0.9804482,0.06229709333621122,0.0,33,16,183.41476651684945,429.02578,mp-1245719,MgMnN2,https://materialsproject.org/materials/mp-1245719,-1.475266766808084,9.371326252408439,-8.604250342815693,-0.5045126942092143
-8.108053279,-81.08053279,11.99696714633872,-0.7042472396666681,0.8906165,0.0686485100701848,0.0,70,10,151.19486741808132,1092.344,mp-8680,Ce(BIr)2,https://materialsproject.org/materials/mp-8680,12.343910738818614,40.054874763171966,-8.604250342815693,-0.5045126942092143
-7.22373322,-57.78986576,6.040800516881531,-1.3429029786899989,0.0,0.0,0.9146,5,8,140.60449835076204,511.4988,mp-675832,SrCeN2,https://materialsproject.org/materials/mp-675832,30.634833225105208,-8.285883664043832,5.915054009249436,-6.3480634990335325
-5.558620453333332,-66.70344544,7.259879564622588,-0.4055846916666663,4.7e-06,3.2050213349647513e-07,0.0,160,12,170.90090425757796,747.17905,mp-1226870,CeY(MgNi4)2,https://materialsproject.org/materials/mp-1226870,31.361923575536284,72.87453417883731,-8.604250342815693,-0.5045126942092143
-5.322755495,-31.93653297,9.806317491888011,-0.25273545166666683,1.804087,0.26615436878409376,0.0,191,6,78.9953095618298,466.507,mp-2645,YbNi5,https://materialsproject.org/materials/mp-2645,29.624976345605965,75.13015562286411,-8.604250342815693,-0.5045126942092143
-8.469828492222222,-152.45691286,15.07981880536882,-0.742624703703702,2.5e-07,1.04749533767893e-08,0.0,166,18,278.1412086850692,2525.8779999999997,mp-30898,Ce2B2Ir5,https://materialsproject.org/materials/mp-30898,14.917752781528055,41.5293594925217,-8.604250342815693,-0.5045126942092143
-5.691822294117648,-96.760979,10.59434528623024,-0.8501755764705888,3.7e-05,1.2837195580777143e-06,0.0,229,17,335.89921869726965,2143.0585,mp-569590,Yb4Sb6Rh7,https://materialsproject.org/materials/mp-569590,6.273918757830117,47.06558406017388,-8.604250342815693,-0.5045126942092143
-6.791048905,-27.16419562,1.2053858562003,4.109856996249999,1.0000001,0.017796701313647644,0.0,71,4,654.8441608686825,475.3516,mp-1096517,VCrRe2,https://materialsproject.org/materials/mp-1096517,-57.2905085079036,35.8185694053035,-8.604250342815693,-0.5045126942092143
-5.762304533636364,-253.54139948,3.379861131295213,-1.5340647808168186,0.026781599999999996,0.000669330663057975,0.0,9,44,466.308385883332,949.12408,mp-1204591,V2Cu3H6O11,https://materialsproject.org/materials/mp-1204591,-55.332290971904285,-10.912706315001689,-2.2885235560541077,-0.17733650257439054
-5.103253775,-91.85856795,4.483964291746878,-2.2550075137133327,19.0000002,1.03342726717343,0.8101,38,18,214.26494156195614,578.5810051999998,mp-754817,Co6OF11,https://materialsproject.org/materials/mp-754817,-41.49736435118939,-25.947688056906056,4.203981060129263,1.534722292870219
-6.9584969075,-27.83398763,10.772962335981433,-0.7659379925000005,7.8e-06,1.2545585266889043e-06,0.0,225,4,72.45712598668321,470.0750000000001,mp-865536,YbZrRh2,https://materialsproject.org/materials/mp-865536,30.06963361699788,57.247985814218104,-8.604250342815693,-0.5045126942092143
-1.7339868141052632,-164.72874734,3.927027410187892,-0.1031666852736844,1.8505610000000001,0.006298858073850313,0.0,187,95,3423.883743167087,8097.1810868799985,mp-1225049,K18Na46Tl31,https://materialsproject.org/materials/mp-1225049,-38.48299053866706,50.04094188096862,-8.604250342815693,-0.5045126942092143
-4.143955225208333,-198.90985081,6.04141148557393,0.006458767331666948,0.0091212125,0.00019667185604689083,0.0,206,48,540.4901515442916,1966.423752,mp-1246686,Li3AuN2,https://materialsproject.org/materials/mp-1246686,1.8197078342222888,1.965066273540762,-1.8318637966236684,-2.4017229440659724
-7.10435092,-28.41740368,8.472755086236349,-0.6973026024999989,1.7e-06,2.924382395796753e-07,0.0,225,4,67.7473306563032,345.674824,mp-867794,Sc2CuIr,https://materialsproject.org/materials/mp-867794,-10.445835620269106,55.84056226550569,-8.604250342815693,-0.5045126942092143
-3.601526482,-18.00763241,2.1393393570510733,-1.7024323331020002,0.0,0.0,2.0299,221,5,93.47041948848707,120.42170784,mp-28602,Na3ClO,https://materialsproject.org/materials/mp-28602,17.06459423473896,-15.656688309376626,8.994451190123918,-2.7174951155886284
-4.901501701818182,-53.91651872,2.75953232498582,-0.9122402398782468,0.0,0.0,0.6413000000000002,149,11,195.0047073950409,324.064524,mp-1222773,Li2Fe(PS3)2,https://materialsproject.org/materials/mp-1222773,23.51490988411514,-0.8028679181994839,5.1140221329903515,-6.27262462823025
-5.551005191666667,-66.6120623,5.743123624975027,-1.4407711986979177,5.5e-07,2.4315893785934462e-08,1.5987,63,12,263.6027152173014,911.6937,mp-865203,YCuPbS3,https://materialsproject.org/materials/mp-865203,48.13157263247506,-7.3323649384639475,9.752803659496212,-4.6945036330854
-5.901640914375,-94.42625463,4.423574504744701,-1.85320972625,14.996028200000001,1.2106527677899948,0.3300000000000001,166,16,144.35574643996287,384.554885,mp-756706,Li4CrCo3O8,https://materialsproject.org/materials/mp-756706,-35.39028943591118,-41.31113002693719,-4.5342145956442375,-0.7670040499581979
-3.52288645,-14.0915458,10.931570097742926,0.5221267624999997,3.0028547000000003,0.34691041880388523,0.0,221,4,100.87752134123384,664.0914,mp-1187482,Tl3V,https://materialsproject.org/materials/mp-1187482,-11.834536086336026,31.6703604856256,-8.604250342815693,-0.5045126942092143
-7.230355299,-144.60710598,5.176857659565521,-2.667108908692,13.0000006,0.6836282781005454,0.0,6,20,221.6158311307193,690.9043300000002,mp-1227679,Ca3TbMn4O12,https://materialsproject.org/materials/mp-1227679,-33.21997242929114,5.9266969472611235,-4.561532058401014,-2.8811236491953145
-3.9132286591666663,-93.91748782,6.974459258206445,-0.16082100229166646,1e-07,3.222711559947275e-09,0.0,194,24,361.62295494885547,1518.85894,mp-510643,LaMg2Cu9,https://materialsproject.org/materials/mp-510643,3.6132508316439553,41.30466885813846,-8.604250342815693,-0.5045126942092143
-6.427004715000002,-89.97806601,3.7080790650448727,-1.1334647737500012,12.000003300000001,0.5626530967693355,0.053399999999999885,216,14,248.55246782097117,555.0319386,mp-1228960,AlCr4CuS8,https://materialsproject.org/materials/mp-1228960,14.382713635166118,6.941678971314513,-8.604250342815693,-0.5045126942092143
-4.773719014166667,-114.56925634,1.3296482884920342,-0.5332486661749994,3.3e-06,1.7265224985890595e-07,2.5338,20,24,222.7507245395052,178.36383999999998,mp-974267,KH8N3,https://materialsproject.org/materials/mp-974267,27.68897571024704,-16.544287413067092,10.14637940296902,-0.2558036968158809
-3.6182459245238103,-151.96632883,8.504422215486452,-0.6161183764285718,0.00309245,3.5092678240848096e-05,0.0,139,42,1026.9838157850231,5259.6799999999985,mp-571643,Yb11Ge10,https://materialsproject.org/materials/mp-571643,-2.4112556868853843,52.57859657602711,-8.604250342815693,-0.5045126942092143
-3.49689651,-27.97517208,5.920138950804156,-0.9686801049999998,0.0,0.0,1.4838000000000005,38,8,336.7743432653884,1200.66488,mp-1217396,ThPbI6,https://materialsproject.org/materials/mp-1217396,69.54365329759207,-19.183996419559353,7.908434011069673,-4.350080021877352
-6.162824917272728,-135.58214818,4.352128434598758,-0.4260963024454544,2.59e-05,1.0797080500647294e-06,0.0,2,22,279.557309581234,732.6954000000002,mp-1247456,Ca3Ni3N5,https://materialsproject.org/materials/mp-1247456,0.4355803996602917,10.058202899801644,-8.604250342815693,-0.5045126942092143
-6.3465283415,-126.93056683,4.25710818737417,-1.712722944394001,9.9999996,0.5457176367587863,1.0692000000000002,2,20,213.55484084433832,547.48852,mp-754774,Li2Mn3(CoO4)3,https://materialsproject.org/materials/mp-754774,-75.80285503447476,-18.480785280770274,5.836626375050537,-5.646882740605035
-2.5465842325,-10.18633693,0.7509084705459542,1.9996849375000003,0.9934898000000001,0.01834541542891593,0.0,71,4,631.1219565967361,285.39818199999996,mp-1093749,BeCuPd2,https://materialsproject.org/materials/mp-1093749,-29.676818660186466,51.735505260891436,-8.604250342815693,-0.5045126942092143
-3.978578973333333,-23.87147384,9.07604175357969,-0.7267535233333339,0.0,0.0,0.0,186,6,131.12489761148285,716.692,mp-11701,YbCuSb,https://materialsproject.org/materials/mp-11701,2.7040034360500864,36.664775642312634,-8.604250342815693,-0.5045126942092143
-6.060978130294116,-206.07325643,2.622298377667604,-1.3788864572929411,1.00017315,0.03114713344290381,0.6989,7,34,374.22649808984715,590.97288,mp-742801,V2CuH6(NO3)2,https://materialsproject.org/materials/mp-742801,-52.908826498883904,-15.416898124446945,3.230030373468277,0.22712465206616875
-4.428384412708334,-212.56245181,1.6149566825312376,-0.5238088543216666,3.3725e-05,6.402578101985868e-07,2.1114,84,48,613.8673018805813,597.0164371200002,mp-866641,K2Na(H2N)3,https://materialsproject.org/materials/mp-866641,26.74820182049056,-16.30598193014055,9.542065539109544,-0.6839470428373399
-2.8886405258333334,-34.66368631,1.7665518483095222,-0.1940377649133337,1.2075e-05,1.421940645349928e-06,1.9997,62,12,98.9653348674252,105.28352,mp-23712,MgH2,https://materialsproject.org/materials/mp-23712,37.761647435359706,-6.111657630789671,3.8686115101071374,-5.489989193716765
-6.51447014,-26.05788056,8.893288446029542,-0.047235578750000506,0.9664756,0.13404975125298144,0.0,225,4,84.02379816611544,450.003195,mp-1186457,Pm2CoRu,https://materialsproject.org/materials/mp-1186457,14.538740855779743,51.171801992272265,-8.604250342815693,-0.5045126942092143
-9.7374000075,-194.74800015,5.4793318401131925,-0.7945660002613323,0.000664825,2.334992525431221e-05,0.0,2,20,331.8174909783118,1094.9084,mp-1246544,TiWN3,https://materialsproject.org/materials/mp-1246544,6.737299118715264,18.84009632709017,2.0909790196557703,-4.662126340689207
-5.590522683541668,-536.69017762,2.938800588174551,-2.246119705684167,5.47625e-05,4.158850480986217e-07,1.1674000000000002,8,96,1534.5724137597706,2715.866476800001,mp-685352,Ca2NF,https://materialsproject.org/materials/mp-685352,25.418744830004233,-10.815240663115466,6.713010665066338,-3.4402077176982044
-6.8188872783333325,-40.91332367,6.9035316636732285,-0.6623423666666662,1.2198200000000001,0.13010138925797973,0.0,129,6,109.2675594929655,454.26939000000004,mp-1018660,CeCoSi,https://materialsproject.org/materials/mp-1018660,18.61522476355652,69.66757173770121,-8.604250342815693,-0.5045126942092143
-8.283219921,-82.83219921,12.425667351455585,0.32262480925000003,0.08237645,0.004382739740836232,0.0,127,10,219.0457432570139,1639.1,mp-640044,Pu2SnPd2,https://materialsproject.org/materials/mp-640044,22.18523927595721,55.6068360464707,-8.604250342815693,-0.5045126942092143
-3.21200463,-19.27202778,2.2218586963726588,-1.1607506217760415,0.0,0.0,2.1787,123,6,151.70315965925727,202.98407712,mp-1221137,Na4SeS,https://materialsproject.org/materials/mp-1221137,79.12358737060075,10.311624957427187,9.65256122154626,0.1360418118536023
-4.423656075,-17.6946243,9.979499296401334,-0.5078791418750002,7.017900200000001,0.7048083687427403,0.0,225,4,116.04156126019615,697.3860000000001,mp-1186311,NdEuHg2,https://materialsproject.org/materials/mp-1186311,-22.22406950615889,58.657915356279204,-8.604250342815693,-0.5045126942092143
-5.283458883333334,-317.007533,4.607612279947624,-1.6368177321625004,9.775e-06,7.930478953204179e-08,1.431,63,60,1436.4641003901047,3985.8560800000014,mp-638086,K3Th2Cu3S7,https://materialsproject.org/materials/mp-638086,49.00547358735852,-7.0187840948672475,8.064924842320114,-5.238508266033907
-6.9611220175,-55.68897614,6.699505939498854,-0.9281481474999992,0.11581589999999999,0.009100360602088678,0.0,63,8,148.31566124780952,598.385,mp-1025411,CeSi2Rh,https://materialsproject.org/materials/mp-1025411,10.712395735389226,63.24271371433486,-8.604250342815693,-0.5045126942092143
-5.4826182075,-21.93047283,3.649421944168583,-2.1841606750312503,1.9e-06,2.1530250335794398e-07,2.6091999999999995,166,4,102.84470789942823,226.02523928,mp-1220714,NaLaS2,https://materialsproject.org/materials/mp-1220714,36.620422325390464,-8.71394408026964,10.225523021450297,-3.9542420354085728