energy_per_atom,energy,density,formation_energy_per_atom,total_magnetization_uB,total_magnetization_T,band_gap,sgr,num_sites,cell_volume,weight,mp_id,formula,URL,tsne_cry_lin1_0,tsne_cry_lin1_1,tsne_cry_lin2_0,tsne_cry_lin2_1
-8.3377837068,-416.88918534,6.970034716405825,-3.1493367855699987,8.47e-05,1.564325792388857e-06,0.0,2,50,631.0062079385795,2648.61895424,mp-1221175,Na4SrTa5O15,https://materialsproject.org/materials/mp-1221175,0.753000407161068,-37.71065579416265,5.301532093672071,-2.0599221185243795
-5.986154993333333,-35.91692996,8.058382517200165,-0.4103282566666664,0.0,0.0,0.0,216,6,82.10386679241749,398.43951200000004,mp-11808,ScNi4Sn,https://materialsproject.org/materials/mp-11808,31.164092176579288,74.67308458968049,-8.604250342815693,-0.5045126942092143
-6.6263072522,-331.31536261,6.832255787763707,-2.315250002050001,15.00000045,0.29189796283553243,0.0,2,50,598.8770018625323,2464.06785,mp-1229013,Ba2Pr3(CoO3)5,https://materialsproject.org/materials/mp-1229013,-39.864343235661615,-4.901452416431513,-8.604250342815693,-0.5045126942092143
-7.52922148,-30.11688592,6.6285104153389725,-0.3585950983333346,0.0001491,3.2509306846974895e-05,0.0,123,4,53.44995713897671,213.36059500000002,mp-1217078,Ti2CoNi,https://materialsproject.org/materials/mp-1217078,46.00063577304152,75.62172085101206,-8.604250342815693,-0.5045126942092143
-3.253755865,-13.01502346,4.3303644759917725,-0.09800154250000004,2.4299999999999998e-05,2.5904929208806e-06,0.0,225,4,109.32041994422165,285.0865,mp-1187090,Sr2LiRh,https://materialsproject.org/materials/mp-1187090,10.845440925972376,42.4694270493606,-8.604250342815693,-0.5045126942092143
-5.6609122525,-90.57459604,5.348113077768272,-2.330695783789063,0.0,0.0,0.5552000000000001,129,16,241.29606033982418,777.1444,mp-9425,Sr2GaCuSO3,https://materialsproject.org/materials/mp-9425,23.35372657253978,-5.793559639557338,2.272809219099829,-0.07690107962641249
-6.409032759285713,-89.72645863,3.2284263352185465,-0.934156785305713,2.19206545,0.11386463708651726,0.0,176,14,224.3582677963427,436.1982,mp-1029659,Ca3FeN3,https://materialsproject.org/materials/mp-1029659,5.760516201363983,7.480254674971093,-8.604250342815693,-0.5045126942092143
-3.2659924975,-13.06396999,6.981401298426894,-0.34873265083333305,2.01e-05,2.62958297907658e-06,0.0,225,4,89.08131205302726,374.5244,mp-865729,CaAg2Sn,https://materialsproject.org/materials/mp-865729,-6.488113246790315,49.7593402433575,-8.604250342815693,-0.5045126942092143
-6.138620995,-24.55448398,11.886985030566912,-0.5951192550000002,0.0,0.0,0.0,225,4,81.12903583269062,580.763,mp-864963,Dy2CuIr,https://materialsproject.org/materials/mp-864963,-8.516530722167227,55.24837087636831,-8.604250342815693,-0.5045126942092143
-5.317575082857141,-37.22302558,4.3478318351941,-2.5226274548599994,3.0,0.27157633801641257,0.5993000000000004,139,7,128.73799894733892,337.07799500000004,mp-23130,Sr2Co(ClO)2,https://materialsproject.org/materials/mp-23130,17.994792226431752,-6.295498486267103,5.023451649587616,-6.165959435528215
-5.507787135,-22.03114854,13.297868510996008,-0.5267407275,2e-06,3.1849671379791514e-07,0.0,225,4,73.18169555717394,586.0509999999998,mp-866027,YbRh2Pb,https://materialsproject.org/materials/mp-866027,30.227965530485353,57.11739572344621,-8.604250342815693,-0.5045126942092143
-3.876456226666667,-46.51747472,8.039168304674972,-0.17794182458333316,1.7303102,0.10596716396208997,0.0,10,12,190.29618603961933,921.281,mp-1226833,Ce2Zn3Cu7,https://materialsproject.org/materials/mp-1226833,2.496535572965608,43.52054298740318,-8.604250342815693,-0.5045126942092143
-6.974481883142857,-488.21373182,4.1105951837738255,-2.0705569861451423,76.0000007,1.1812314172851666,0.0,1,70,749.8182980165002,1856.1439450000007,mp-776365,Li9Mn21O40,https://materialsproject.org/materials/mp-776365,-67.48489834013883,-37.8703045545048,1.8433057245311342,-1.8553637995998349
-7.399320296666668,-88.79184356,8.966769294295615,-0.9940751008333338,2.25e-07,9.854642994911852e-09,0.0,198,12,266.0841772938712,1436.8318800000004,mp-3555,LaSiIr,https://materialsproject.org/materials/mp-3555,7.930357130899386,46.00206146198828,-8.604250342815693,-0.5045126942092143
-3.46982975,-20.8189785,3.1538828502740883,-0.6107291982142856,0.0,0.0,1.4255999999999998,115,6,111.90654730520019,212.54552400000003,mp-1222661,Li2MgCdP2,https://materialsproject.org/materials/mp-1222661,27.092675984126807,-11.487127869727779,8.177935420665237,-2.4063243346281564
-4.502960336666667,-216.14209616,4.078533038464706,-0.4395068930155552,4.5e-07,9.838460861757491e-09,1.0920999999999998,206,48,533.0436560495747,1309.2351999999996,mp-1029562,Li3InN2,https://materialsproject.org/materials/mp-1029562,26.758012589831385,-15.630345186451589,7.229854030849742,-5.212446465650373
-6.2257240475,-49.80579238,9.215269040844102,-0.7640141175000004,1.243098,0.08441127294388351,0.0,189,8,171.62570952188392,952.448,mp-1025404,Ce3Pd5,https://materialsproject.org/materials/mp-1025404,11.83283795205513,53.793538377533324,-8.604250342815693,-0.5045126942092143
-3.4731631577777784,-31.25846842,5.877557964546138,-0.5263745533333329,5.923333333333333e-05,3.0543478105929973e-06,0.0,156,9,226.0086755565874,799.9686,mp-1206764,CaAgSn,https://materialsproject.org/materials/mp-1206764,-10.929977141993618,49.25386292879427,-8.604250342815693,-0.5045126942092143
-6.897039273636364,-75.86743201,9.749507282446533,-0.7607480124999998,1.4000000000000001e-05,9.150281935780748e-07,0.0,187,11,178.30806521691542,1046.8984699999999,mp-1095552,La(Ge2Rh3)2,https://materialsproject.org/materials/mp-1095552,34.19969333933539,53.293278459720774,-8.604250342815693,-0.5045126942092143
-8.10051578,-32.40206312,6.337606703623166,-0.31406402,1.9975032,0.4730941005022399,0.0,225,4,49.205922566952495,187.7991286,mp-10895,Mn2AlV,https://materialsproject.org/materials/mp-10895,52.75832628986034,45.5252594214877,-8.604250342815693,-0.5045126942092143
-6.41425159590909,-141.11353511,5.94415730122387,-0.3364938888090902,6.45e-06,2.096897614194738e-07,0.0,2,22,358.4758610728676,1283.22,mp-1245919,Sr3Rh3N5,https://materialsproject.org/materials/mp-1245919,7.219228817101886,8.665995476475263,-8.604250342815693,-0.5045126942092143
-2.3175858116666666,-27.81102974,6.845287233151707,-0.3303036805555554,2.625e-06,1.0329659770923904e-07,0.0,62,12,296.15612427119663,1220.8528,mp-1207550,YbMgAg,https://materialsproject.org/materials/mp-1207550,-8.980112376233121,51.78234893999218,-8.604250342815693,-0.5045126942092143
-7.135729864999999,-42.81437919,6.932799955100738,-0.0709511350000002,6.405e-05,6.334343780382885e-06,0.0,12,6,117.84059636834692,491.98800000000006,mp-1077372,Zr2Cu,https://materialsproject.org/materials/mp-1077372,-10.003869437779631,53.72424573068358,-8.604250342815693,-0.5045126942092143
-6.689826340714285,-93.65756877,3.563986691051058,-1.9794272971314282,6.9999991999999995,0.4110644471536349,0.21660000000000013,11,14,198.45657937470853,425.94397999999995,mp-763541,KMn2O4,https://materialsproject.org/materials/mp-763541,-66.49654590448752,-37.44462992735776,-8.604250342815693,-0.5045126942092143
-6.79641264875,-163.11390357,4.153881639476009,-0.6084084366066662,0.000891375,2.910040491999475e-05,0.0,64,24,356.9758570439257,892.9844,mp-1245785,Ca2RuN3,https://materialsproject.org/materials/mp-1245785,8.275777865612435,6.854987870031263,-8.604250342815693,-0.5045126942092143
-3.43409509,-13.73638036,6.21297172084694,-0.3898988660416669,0.0007564,8.660852170087447e-05,0.0,225,4,101.78137694590328,380.819,mp-1185415,LiNdIn2,https://materialsproject.org/materials/mp-1185415,-35.37783920931368,60.04793978795766,-8.604250342815693,-0.5045126942092143
-7.4918668386,-749.18668386,5.624552344898684,-2.7806927702728,34.00477895,0.3445345156859144,0.0,1,100,1150.229885301666,3896.0410100000004,mp-699041,Ca5Nd5Mn9CrO30,https://materialsproject.org/materials/mp-699041,-32.68851520017279,6.216148531205253,-8.604250342815693,-0.5045126942092143
-4.8188061275,-19.27522451,7.837534890893086,-0.10691356999999968,0.0,0.0,0.0,225,4,61.39507231453597,289.777,mp-22725,TiInCu2,https://materialsproject.org/materials/mp-22725,24.090764589996127,37.508125147386174,-8.604250342815693,-0.5045126942092143
-5.704950871538463,-148.32872266,5.216092696402872,-1.6715731739423083,8.9999973,0.2874946014484154,0.0,186,26,364.8296383954255,1146.0045,mvc-1309,BaYNi4O7,https://materialsproject.org/materials/mvc-1309,-25.61157527620665,-28.970900385284505,-8.604250342815693,-0.5045126942092143
-5.21940574,-10.43881148,2.565498121719536,-2.4860490745312505,0.0,0.0,2.3891,225,2,46.69512986523882,72.143,mp-1672,CaS,https://materialsproject.org/materials/mp-1672,29.195438168763708,-12.02731980251376,-5.620790957211379,-3.123043139012933
-7.58533954,-75.8533954,10.898465879374832,-0.5387866450000004,2.2430822999999998,0.14561469944389527,0.0,129,10,179.52189246151073,1178.23982,mp-1079648,U(GeRh)2,https://materialsproject.org/materials/mp-1079648,8.925881852225373,64.79639949835769,-8.604250342815693,-0.5045126942092143
-3.37611673375,-243.08040483,3.3390087410628078,-1.3846028437899611,4.85e-06,2.903272000583668e-08,1.695,7,72,1946.8452881972962,3914.7128,mp-1201389,Rb4Cu5Cl9,https://materialsproject.org/materials/mp-1201389,48.224477646489774,-10.966422684791363,7.1851737802174505,-1.3747067382743436
-6.337601223541666,-912.61457619,4.4039740129453495,-2.3530668146527773,31.499999625,0.1959202854848701,0.006800000000000139,1,144,1873.7367345950781,4969.40312,mp-1099708,Sr3Ca5Fe4(CoO5)4,https://materialsproject.org/materials/mp-1099708,-32.36047248368754,-16.456013754384895,-8.604250342815693,-0.5045126942092143
-5.953197709375,-95.25116335,8.755301959114679,-0.70687003875,0.0042923,0.00016229412361312364,0.0,63,16,308.22275698966195,1625.1248800000005,mp-1188989,Tb3Co2Ge3,https://materialsproject.org/materials/mp-1188989,19.927944805711263,69.89798836089714,-8.604250342815693,-0.5045126942092143
-7.21230024,-86.54760288,6.482114469827034,-0.3746083233333337,0.0016688833333333333,0.00011874734771680464,0.0,2,12,163.78702209750168,639.3624,mp-640189,TiNi,https://materialsproject.org/materials/mp-640189,32.66299218165773,71.60385490184527,-8.604250342815693,-0.5045126942092143
-6.8839403123076925,-268.47367218,4.063579999606098,-2.637978548897692,18.536945000000003,0.4930589913453205,0.0,123,39,438.1438357425197,1072.2015472,mp-1247660,Ca8Mn6Al2O23,https://materialsproject.org/materials/mp-1247660,-36.65120618901809,5.768527807484418,-8.604250342815693,-0.5045126942092143
-6.289687465,-113.21437437,3.808989993143783,-2.678684664305556,1.00433085,0.054607681360281095,0.0,46,18,214.33865140249716,491.6558772,mp-1257498,Ca2AlNiO5,https://materialsproject.org/materials/mp-1257498,-39.383192160093614,-20.393652584864707,-8.604250342815693,-0.5045126942092143
-7.07269387,-155.59926514,8.22443357980378,-0.4705476842207798,1.23e-05,5.573091078922532e-07,0.0,59,22,257.2091406232637,1273.923372,mp-630883,Ni6Mo2P3,https://materialsproject.org/materials/mp-630883,14.849914078443087,26.08396976178793,-8.604250342815693,-0.5045126942092143
-3.021038465,-12.08415386,6.2847912051275205,-0.2595429883333336,0.0,0.0,0.0,225,4,78.63956163592711,297.63421,mp-865860,Li2TmIn,https://materialsproject.org/materials/mp-865860,-34.040724906671045,60.31750405626072,-8.604250342815693,-0.5045126942092143
-4.487352214137932,-130.13321421,7.814589401326907,-0.3737739627586209,0.0003602,8.999250751909226e-06,0.0,225,29,466.4604028491397,2195.1886902,mp-1193845,Ho6Al7Cu16,https://materialsproject.org/materials/mp-1193845,4.789675869672567,44.06764840939611,-8.604250342815693,-0.5045126942092143
-6.469559247142858,-45.28691473,2.7586410155511945,-1.2491553126866657,0.0,0.0,0.5682,123,7,104.17497361616051,173.0651,mp-30315,Ca3BN3,https://materialsproject.org/materials/mp-30315,25.23279946721777,-10.632203247237708,7.094873204218682,-4.041183352621156
-6.863184717083333,-164.71643321,4.0614014679553785,-2.650802305264167,6.0000002,0.2499568115868365,0.2279,63,24,279.74589098916766,684.2117800000002,mp-18395,Ca3Mn2O7,https://materialsproject.org/materials/mp-18395,-33.10975507352541,-8.632488698566897,3.0859834792155802,-0.41211939316306223
-6.1788197655555575,-111.21875578,4.122610984723591,-2.222302629305556,7.18599155,0.3739231154704508,0.0,46,18,223.96585692061774,556.03878,mp-1099786,Ca2Co2O5,https://materialsproject.org/materials/mp-1099786,-32.895440063766706,-16.112885202111062,-8.604250342815693,-0.5045126942092143
-7.06825042,-35.3412521,5.309429804037079,-0.7876184069999994,2.6600000000000003e-05,4.5261300147373e-06,0.0,139,5,68.49076848007432,218.993302,mp-4131,Sc(CoSi)2,https://materialsproject.org/materials/mp-4131,19.175682575686935,69.50141263434503,-8.604250342815693,-0.5045126942092143
-6.739354396,-134.78708792,8.300549804829021,-0.6628572509999998,0.0,0.0,0.0,72,20,377.7859949333305,1888.44188,mp-621852,La2Ge5Ru3,https://materialsproject.org/materials/mp-621852,14.096075986968962,63.95632974232643,-8.604250342815693,-0.5045126942092143
-8.93122694,-142.89963104,6.6780655228768495,-0.3512504580357145,0.0,0.0,0.0,82,16,185.9567276699364,747.8482479999999,mp-7806,Cr3P,https://materialsproject.org/materials/mp-7806,14.384533784151945,26.021530918244252,-8.604250342815693,-0.5045126942092143
-6.799152403333332,-40.79491442,10.18904164061399,-0.7368193716666658,7.06846165,0.5994960150160881,0.0,44,6,137.40927020047582,843.1411380000001,mp-9293,EuGeAu,https://materialsproject.org/materials/mp-9293,-6.1754907610184455,46.04256531006792,-8.604250342815693,-0.5045126942092143
-3.6764330725,-14.70573229,7.0695242948395824,-0.2756731532083334,0.0002522,2.100565260027214e-05,0.0,225,4,139.92210532899492,595.69976928,mp-976076,NaAc2Sn,https://materialsproject.org/materials/mp-976076,-23.750560280121345,55.47814825020364,-8.604250342815693,-0.5045126942092143
-6.0155674160000006,-240.62269664,4.741453260748665,-2.035701632749999,25.1952918,0.6611738138114653,0.0,38,40,444.1004112187516,1268.0709650000001,mp-1076626,Sr2Ca6FeCo7O24,https://materialsproject.org/materials/mp-1076626,-52.84790636933225,3.2616617579270173,-8.604250342815693,-0.5045126942092143
-5.3825886,-21.5303544,8.982965600106235,-0.07688708750000027,0.0001751,2.4929718151885024e-05,0.0,225,4,81.85518701987023,442.80942000000005,mp-862545,LiTm2Tc,https://materialsproject.org/materials/mp-862545,8.67967724348792,42.806442363228186,-8.604250342815693,-0.5045126942092143
-6.932407218888889,-249.56665988,3.9876680068328674,-2.4864179516022222,31.999998600000005,0.7941814637591922,0.0,8,36,469.5778904747864,1127.65836,mp-1247616,SrCa7Mn8O20,https://materialsproject.org/materials/mp-1247616,-30.398078438261813,-10.04107716572243,-8.604250342815693,-0.5045126942092143
-6.0708389742857145,-84.99174564,5.861185268043179,-2.0382297983757147,0.99999995,0.061693998094658364,0.7745,11,14,188.90110140009708,666.7620127999999,mp-555219,CuWO3F2,https://materialsproject.org/materials/mp-555219,-53.8788328074021,-10.257849971447598,-4.337666549637223,-0.6372383531575909
-5.772495788846153,-300.16978102,7.398722105598045,0.6185246615384608,0.260236,0.003938591826035943,0.0,137,52,770.0232301564138,3430.9268,mp-684000,Eu2Si3Ni8,https://materialsproject.org/materials/mp-684000,29.134736632234183,75.08669260265465,-8.604250342815693,-0.5045126942092143
-8.49357242,-25.48071726,7.083629374895139,-0.6242330916666662,7.2681533,1.4518295464445103,0.0,187,3,58.34261297583455,248.8815,mp-1224712,GdCuSi,https://materialsproject.org/materials/mp-1224712,-3.764552125199125,58.70275655492762,-8.604250342815693,-0.5045126942092143
-4.286985351132077,-227.21022361,6.999504152136159,-0.2001148420754716,2.3e-06,3.4524418255062015e-08,0.0,6,53,776.3881429908583,3272.631296,mp-1224683,MgSc8Ga15Cu29,https://materialsproject.org/materials/mp-1224683,4.515799101691001,44.77371552635462,-8.604250342815693,-0.5045126942092143
-8.630576291458334,-828.53532398,1.6549139696000053,-0.11669354637833253,1.2415625e-05,5.632235570183095e-08,0.10890000000000022,63,96,2569.0065008610377,2560.304,mp-1097018,CrN2,https://materialsproject.org/materials/mp-1097018,-4.864264712615934,9.687447491902887,-8.604250342815693,-0.5045126942092143
-6.185782996,-61.85782996,7.141715177643638,-2.462456033749999,0.0,0.0,1.6618000000000004,225,10,163.08222558955546,701.3908,mp-545603,Ba2BiSbO6,https://materialsproject.org/materials/mp-545603,0.7805772955263421,-29.697121359102226,8.489757142141093,-0.6220066776516913
-7.913114223819443,-1139.48844823,5.938552737777612,-2.9081453434505544,34.48166405,0.19001675902053128,0.0,1,144,2114.8215998196397,7563.194420000002,mp-1076513,La7SmMn7CuO20,https://materialsproject.org/materials/mp-1076513,-31.15996711870368,-20.403789663691448,-8.604250342815693,-0.5045126942092143
-9.081611911666666,-108.97934294,7.0815518337843,-3.0552247041666667,2.0000004000000002,0.16796972339432234,1.831,109,12,138.76390182549494,591.77396,mp-755190,TaVO4,https://materialsproject.org/materials/mp-755190,-23.360720182861353,-9.462019152641707,-8.604250342815693,-0.5045126942092143
-8.114500005909091,-178.51900013,7.896836343870023,-2.397769923181819,1.0000118,0.04095527024142112,0.0,13,22,284.5592819147667,1353.24616,mvc-683,Ta(WO4)2,https://materialsproject.org/materials/mvc-683,-2.810927442812344,-39.64039182754336,3.8412553937980527,-0.3338338479508708
-4.082700773333333,-48.99240928,3.036730865997984,-1.3214795684999998,0.0,0.0,1.7274999999999998,167,12,179.9185444834026,329.02821568,mp-779545,Na3CuO2,https://materialsproject.org/materials/mp-779545,15.705436501582005,-18.309407610430494,6.318765510430514,-4.313913225902178
-7.173063094285713,-100.42288332,8.146053405307287,-2.8827108857142854,0.00184595,9.793952746535683e-05,0.0,139,14,219.65412151407486,1077.5502179999999,mp-1232326,La2AuO4,https://materialsproject.org/materials/mp-1232326,-1.3838230688943431,-19.96039289609636,3.5697410873322832,-5.097930331602835
-3.5137895620000004,-35.13789562,6.093426209803174,-0.41126055999999983,0.2020019,0.010126032031253687,0.0,127,10,232.4842761225853,853.112,mp-13357,Yb2MgSi2,https://materialsproject.org/materials/mp-13357,-13.794227922729258,44.70452865553798,-8.604250342815693,-0.5045126942092143
-2.33381613,-4.66763226,2.61059703884752,-0.20568156448241395,5.3500000000000006e-05,1.1335160477365872e-05,2.9687,225,2,55.005173202173694,86.47574,mp-24721,RbH,https://materialsproject.org/materials/mp-24721,36.27826889290349,-24.08416740813703,7.591298305811223,-2.388545445309462
-5.124180868,-25.62090434,4.050548980830611,0.09698387404800073,1.4998789,0.2184517569131212,0.0,115,5,80.01622920591706,195.1834,mvc-13426,Ca(CuN)2,https://materialsproject.org/materials/mvc-13426,12.799609001190886,-16.26577110257798,5.205541694605652,-1.3600630548485853
-6.5881546439999985,-32.94077322,7.243477164513575,-0.6857996259999993,0.0,0.0,0.0,139,5,100.77732822644285,439.6032,mp-4404,Sr(AsRu)2,https://materialsproject.org/materials/mp-4404,8.454634130700775,35.064913908412464,-8.604250342815693,-0.5045126942092143
-8.621339849166667,-827.64862552,1.7584960973315151,-0.10745710408666537,0.0,0.0,0.1477999999999997,11,96,2417.682218754826,2560.304,mp-1016048,CrN2,https://materialsproject.org/materials/mp-1016048,-4.856741309463481,9.676152066667829,-8.604250342815693,-0.5045126942092143
-4.61630118,-55.39561416,8.284036612961913,-0.919703731666667,0.0,0.0,0.029300000000000107,62,12,244.45736727828614,1219.54,mp-31152,CaGaPt,https://materialsproject.org/materials/mp-31152,-12.441340961907224,51.36557838593004,-8.604250342815693,-0.5045126942092143
-5.551162585555557,-49.96046327,6.160353120876549,-1.478696556418822,0.0005356,2.162667969175924e-05,0.0,71,9,288.6211467108116,1070.7415719,mp-1229164,Cs(ThSe3)2,https://materialsproject.org/materials/mp-1229164,48.76823077250766,4.7996049425603005,-8.604250342815693,-0.5045126942092143