energy_per_atom,energy,density,formation_energy_per_atom,total_magnetization_uB,total_magnetization_T,band_gap,sgr,num_sites,cell_volume,weight,mp_id,formula,URL,tsne_cry_lin1_0,tsne_cry_lin1_1,tsne_cry_lin2_0,tsne_cry_lin2_1
-6.222725775555557,-56.00453198,10.140467923819394,-0.9112600588888892,1e-07,6.137112672480009e-09,0.0,189,9,189.8949130397875,1159.63746,mp-11971,HoSnRh,https://materialsproject.org/materials/mp-11971,8.702765721124916,55.61240825656108,-8.604250342815693,-0.5045126942092143
-4.040762905,-24.24457743,3.936834415749392,0.11746677499999987,3e-07,2.768872578163488e-08,0.0,63,6,126.26870081854211,299.36,mp-1077234,Mg2Ru,https://materialsproject.org/materials/mp-1077234,36.465882497669114,51.58861235405836,-8.604250342815693,-0.5045126942092143
-5.791732238888889,-52.12559015,8.087600088076204,-0.19327830222222211,3.0920780000000003,0.20372844311266505,0.0,189,9,176.87897057102998,861.4831350000002,mp-1206383,DyMnGa,https://materialsproject.org/materials/mp-1206383,24.419562723841487,70.15013338893651,-8.604250342815693,-0.5045126942092143
-6.01025102,-24.04100408,9.821596990876758,-0.8042311150000003,8.7e-06,1.4804225161379499e-06,0.0,225,4,68.48745031639433,405.083,mp-865271,LuMgRh2,https://materialsproject.org/materials/mp-865271,38.447267181829076,55.951873511991025,-8.604250342815693,-0.5045126942092143
-6.937253743333333,-41.62352246,6.354563668846757,-0.09956182666666652,1.1033333333333333e-05,1.5392306926969128e-06,0.0,183,6,83.53730336458909,319.6812,mp-1216890,TiNi,https://materialsproject.org/materials/mp-1216890,29.624132836686076,80.26016544955729,-8.604250342815693,-0.5045126942092143
-7.52930543,-30.11722172,14.846744417066793,-0.8209812449999996,0.285637,0.0417844812339709,0.0,225,4,79.66670881468984,712.2935600000002,mp-1187388,TbTmIr2,https://materialsproject.org/materials/mp-1187388,17.06152942494148,49.19378334329428,-8.604250342815693,-0.5045126942092143
-5.667724783636364,-124.68994524,8.678268286804464,-0.5888176177272726,1.5e-07,5.031348825435817e-09,0.0,229,22,347.443553713955,1815.8009544,mp-17141,Er3(AlNi3)2,https://materialsproject.org/materials/mp-17141,25.06187760327743,79.58146471402527,-8.604250342815693,-0.5045126942092143
-6.07926098125,-97.2681757,9.435756681397148,-0.9824997399999996,2.25e-07,9.233455301674331e-09,0.0,62,16,283.9851916920467,1613.7020000000002,mp-1105784,DySiPd2,https://materialsproject.org/materials/mp-1105784,27.758466986550175,53.80892450797914,-8.604250342815693,-0.5045126942092143
-7.702667723333334,-46.21600634,10.62552482270357,-0.2715806616666671,2.2344432,0.2570039930798124,0.0,74,6,101.32272838001678,648.3480000000001,mp-1225543,ErFeRu,https://materialsproject.org/materials/mp-1225543,42.72395157832013,69.14913388337705,-8.604250342815693,-0.5045126942092143
-5.96263182,-35.77579092,7.719302960834991,-0.06085739333333251,1.2616542,0.1699224292202704,0.0,140,6,86.53007042591162,402.25,mp-21117,FeGe2,https://materialsproject.org/materials/mp-21117,49.03631392110702,66.41257345776562,-8.604250342815693,-0.5045126942092143
-5.85734876,-23.42939504,8.749937020217407,-0.6271095087499994,1.67e-05,3.3873258511599783e-06,0.0,225,4,57.45620299124719,302.756,mp-865162,MgGeRh2,https://materialsproject.org/materials/mp-865162,38.337244240819565,54.73734566927574,-8.604250342815693,-0.5045126942092143
-7.400891664137932,-214.62585826,8.266472304300231,-0.24435885793103446,18.1158855,0.7484003263267955,0.0,225,29,282.0999612139211,1404.346095,mp-1193908,V2(Co7B2)3,https://materialsproject.org/materials/mp-1193908,39.4310092203651,89.39066930658376,-8.604250342815693,-0.5045126942092143
-3.1573238025,-12.62929521,7.7058216825610195,-0.52274239125,5.400000000000001e-06,9.447955339073099e-07,0.0,225,4,66.60906779645761,309.103,mp-978266,Mg2ZnPt,https://materialsproject.org/materials/mp-978266,36.60330203488332,56.6851639482795,-8.604250342815693,-0.5045126942092143
-4.424172342222223,-39.81755108,10.026020398200568,-0.7652264772222218,0.00019086666666666668,1.2908972497182612e-05,0.0,189,9,172.31212606126198,1040.388,mp-1087473,LuZnPd,https://materialsproject.org/materials/mp-1087473,17.849648958882295,59.646087559331754,-8.604250342815693,-0.5045126942092143
-6.1514748575,-24.60589943,10.214763400703822,-0.4827050625,2.9531931,0.7898388659320801,0.0,225,4,43.57433542177186,268.04640900000004,mp-864944,MnBe2Pt,https://materialsproject.org/materials/mp-864944,39.527322697241566,69.75093248317576,-8.604250342815693,-0.5045126942092143
-5.8931449625,-23.57257985,9.803219816394757,0.22495457499999996,2.9966803,0.6773192748435898,0.0,139,4,51.56136495143792,304.399585,mp-1183699,Co3Te,https://materialsproject.org/materials/mp-1183699,45.883069565833615,44.89978434785381,-8.604250342815693,-0.5045126942092143
-7.786735740833333,-93.44082889,14.419809268619757,-0.9088014358333336,2.5e-08,1.4175052569326052e-09,0.0,62,12,205.5382989862481,1784.856,mp-21340,HfGePt,https://materialsproject.org/materials/mp-21340,44.89846494131393,57.48521040552221,-8.604250342815693,-0.5045126942092143
-5.779433099999999,-23.117732399999998,9.008467998399963,-0.2900541887500001,1e-07,2.5419571121777263e-08,0.0,221,4,45.846819038482955,248.7202,mp-21008,Ni3Ge,https://materialsproject.org/materials/mp-21008,37.069298976504726,80.37042136604867,-8.604250342815693,-0.5045126942092143
-6.067501160625,-97.08001857,8.791087469501173,-0.9430136175,5.75e-07,2.2666529883790183e-08,0.0,62,16,295.63798598982106,1565.142,mp-1190170,SmSiPd2,https://materialsproject.org/materials/mp-1190170,27.634612608458088,53.70400123754086,-8.604250342815693,-0.5045126942092143
-5.039579459285714,-70.55411243,7.469161316110343,-0.3288659039285723,4.34e-05,2.1220743947685965e-06,0.0,97,14,238.3452777979749,1072.0852,mp-1218470,SrCa(Ni2Sn)4,https://materialsproject.org/materials/mp-1218470,27.73218353539033,78.58562916066852,-8.604250342815693,-0.5045126942092143
-6.781078551538461,-88.15402117,6.311236451698992,-0.3809376199999996,10.033419199999999,0.6579593063706196,0.0,71,13,177.71633612425705,675.4492316000002,mp-1224395,Hf(AlFe)6,https://materialsproject.org/materials/mp-1224395,23.939749778945995,89.57181769263332,-8.604250342815693,-0.5045126942092143
-5.37252691,-42.98021528,7.491358125009335,-0.9094043450000004,2.5e-08,2.4632476369989002e-09,0.0,198,8,118.2794676985708,533.6061543999999,mp-7189,AlPd,https://materialsproject.org/materials/mp-7189,42.762803301912044,52.11767841852662,-8.604250342815693,-0.5045126942092143
-6.020138068333334,-36.12082841,9.174831909252275,-0.3053090683333342,3.4e-06,4.1402772772159607e-07,0.0,166,6,95.7033009473876,528.7811236,mp-1225315,Dy2AlCo3,https://materialsproject.org/materials/mp-1225315,41.705568895200614,74.45674624507905,-8.604250342815693,-0.5045126942092143
-6.3533436675,-25.41337467,8.731589229986545,-0.1720537512499991,4.0846160000000005,0.8600582744549508,0.0,225,4,55.3478535686445,291.034845,mp-20440,MnNi2Sn,https://materialsproject.org/materials/mp-20440,34.6087719770809,72.65535147515642,-8.604250342815693,-0.5045126942092143
-4.6852664326666655,-70.27899649,9.047733271076037,-0.6347418319999998,1.86e-05,6.6170921200511e-07,0.0,160,15,327.584384253572,1784.9,mp-1222154,Mg4Sn6Pt5,https://materialsproject.org/materials/mp-1222154,31.150730734751377,52.424214851038684,-8.604250342815693,-0.5045126942092143
-7.6677954725,-30.67118189,6.823928644101372,-0.2357035750000005,0.839733,0.2343021168010257,0.0,225,4,41.767880321655824,171.643682,mp-867304,BeVFe2,https://materialsproject.org/materials/mp-867304,39.539941547983176,71.3329935990158,-8.604250342815693,-0.5045126942092143
-6.48841127875,-51.90729023,9.196488491783393,-0.4910214462500005,3.3725e-05,3.060161800981805e-06,0.0,62,8,128.4354749897463,711.3084,mp-22079,AsRh,https://materialsproject.org/materials/mp-22079,34.79518109584248,50.823037597949885,-6.1978859959889725,-3.7667287798359306
-6.092148514,-182.76445542,8.571120837343145,-0.2779597661666656,6.9582053,0.1517605850891981,0.0,186,30,534.3375239315682,2758.06312,mp-1210125,Nd3(Co2Sn)4,https://materialsproject.org/materials/mp-1210125,25.887450973983693,72.81114285819882,-8.604250342815693,-0.5045126942092143
-8.07956437,-48.47738622,6.945393932814946,-0.6630732016666675,5e-08,5.6730920707718396e-09,0.0,139,6,102.71351696019735,429.611,mp-10311,ZrVGe,https://materialsproject.org/materials/mp-10311,53.63507634672474,53.29272992555369,-8.604250342815693,-0.5045126942092143
-8.262694964000001,-165.25389928,9.02477616111869,-0.444295887666668,0.0358462,0.0016595307159798134,0.0,55,20,251.7301624052681,1368.115,mp-1217361,Ti2FeB2Ru2Rh3,https://materialsproject.org/materials/mp-1217361,40.33688955774181,56.583843173944565,-8.604250342815693,-0.5045126942092143
-9.07211548047619,-190.51442509,8.222558849194717,-0.12502565832190546,37.797512100000006,1.6884060716315634,0.0,12,21,260.8937871381521,1291.8784,mp-1225193,Gd2Fe17N2,https://materialsproject.org/materials/mp-1225193,61.22896050440649,75.27565414608381,-8.604250342815693,-0.5045126942092143
-5.267752724736842,-200.17460354,9.235824499902431,-0.3443759536842111,0.0009413000000000001,2.1746266487016778e-05,0.0,194,38,504.45308287562204,2805.7396,mp-1201787,Lu2Ga5Ni12,https://materialsproject.org/materials/mp-1201787,34.33860542405129,77.44372664118872,-8.604250342815693,-0.5045126942092143
-6.94174143047619,-291.55314008,5.819007224741719,-0.5552655004761892,3.03183625,0.050396676725618025,0.0,69,42,701.1021030149319,2456.863768,mp-1219675,Sc7Cr5Ge9,https://materialsproject.org/materials/mp-1219675,25.177669410932317,67.98792990017857,-8.604250342815693,-0.5045126942092143
-8.359686628333334,-100.31623954,6.1568850524350225,-0.14267476999999928,0.0025623,0.00017877164585100908,0.0,194,12,167.03549393742492,619.328008,mp-2039,ScMn2,https://materialsproject.org/materials/mp-2039,42.166765877707135,71.92439011212379,-8.604250342815693,-0.5045126942092143
-8.62408733078125,-551.94158917,8.26324229212899,-0.5604346951562515,7.34625e-05,7.725886819144902e-07,0.0,62,64,1108.1404030313292,5514.3736,mp-623038,Nb5As3,https://materialsproject.org/materials/mp-623038,48.28054582746446,59.168003459336425,-8.604250342815693,-0.5045126942092143
-7.947254786666666,-95.36705744,10.013749677540446,-0.8946543016666659,0.0,0.0,0.07900000000000063,62,12,175.95381499732,1061.0756,mp-1101952,HfSiNi,https://materialsproject.org/materials/mp-1101952,36.81966817631435,66.14375201283002,-8.604250342815693,-0.5045126942092143
-5.83559392375,-93.36950278,13.99468784328631,-1.0686407175,2.5e-08,1.0381699770064436e-09,0.0,62,16,280.63961178505934,2365.174,mp-864645,YbSiPt2,https://materialsproject.org/materials/mp-864645,25.84051015793952,54.914822931352866,-8.604250342815693,-0.5045126942092143
-5.374583662307692,-139.73917522,7.5397512203096815,-0.9114610973076924,3.846153846153847e-07,1.173566798680774e-08,0.0,148,26,381.94098621989946,1734.2200017999999,mp-669546,AlPd,https://materialsproject.org/materials/mp-669546,42.7510283688354,52.117951479357025,-8.604250342815693,-0.5045126942092143
-5.956513661071428,-166.78238251,8.570263818610673,-0.37769515660714204,0.6242741,0.01966206867441564,0.0,42,28,370.01858338019633,1909.71534,mp-1224721,LaFe(Ni2Ge)4,https://materialsproject.org/materials/mp-1224721,26.986961989132,77.90064433800555,-8.604250342815693,-0.5045126942092143
-5.5345335252380945,-116.22520403,7.650218593758361,-0.17708106666666654,5.598493066666666,0.22444070216498124,0.0,12,21,290.7012863455552,1339.281,mp-540538,Ga4Fe3,https://materialsproject.org/materials/mp-540538,46.73660585772605,71.3837004744323,-8.604250342815693,-0.5045126942092143
-7.915185033333334,-23.7455551,10.447029540823406,0.026528721666666158,0.0001153,2.3713682320915705e-05,0.0,216,3,56.66406634329261,356.49338,mp-961727,TaGeRh,https://materialsproject.org/materials/mp-961727,30.680088777122194,52.94398543123288,-8.604250342815693,-0.5045126942092143
-5.203088643333333,-15.60926593,9.646187679604916,-0.5078271733333336,5.04e-05,1.5379806675531416e-05,0.0,139,3,38.19065329809897,221.85218199999997,mp-13452,BePd2,https://materialsproject.org/materials/mp-13452,43.642654099812695,52.57193248806129,-8.604250342815693,-0.5045126942092143
-6.140929726666666,-36.84557836,8.654744289373022,-0.6169652291666665,1.6e-06,2.284792855920507e-07,0.0,65,6,81.61135302825133,425.3591,mp-1077126,DySiNi4,https://materialsproject.org/materials/mp-1077126,25.950850266724075,78.3660028286388,-8.604250342815693,-0.5045126942092143
-6.367625842307692,-82.77913595,5.931792846520718,-0.3772359199999996,10.297460800000001,0.6536075175293676,0.0,71,13,183.60755030744,655.8845816,mp-1217840,Tb(AlFe)6,https://materialsproject.org/materials/mp-1217840,23.735960345559416,89.53744691242655,-8.604250342815693,-0.5045126942092143
-6.0096503425000005,-168.27020959,8.247151485200126,-0.3588510025000003,2.01275035,0.06092609604513944,0.0,42,28,385.0028882945887,1912.1364,mp-1228034,CeFe(Ni2Ge)4,https://materialsproject.org/materials/mp-1228034,27.05146811515934,77.95110071454226,-8.604250342815693,-0.5045126942092143
-5.4704293275,-21.88171731,9.424170945753602,-0.1343876062499998,5.0999999999999995e-06,1.1442703021122974e-06,0.0,225,4,51.94203697355198,294.7902,mp-11523,Ni3Sn,https://materialsproject.org/materials/mp-11523,34.57857128078083,72.78271571900031,-8.604250342815693,-0.5045126942092143
-5.721012808333334,-68.6521537,3.5470411128553887,0.07851708055555544,0.00038705,2.0066853079504726e-05,0.0,63,12,224.7839136683686,480.156,mp-1094275,MgTi2,https://materialsproject.org/materials/mp-1094275,33.49822129913097,61.371380304326465,-8.604250342815693,-0.5045126942092143
-5.806513011428572,-162.58236432,8.438024396922856,-0.41923553482142895,2.835e-05,8.765161880209537e-07,0.0,140,28,376.93854468112687,1915.41214,mp-1194233,LaNi9Ge4,https://materialsproject.org/materials/mp-1194233,26.944224678111876,77.95467071128161,-8.604250342815693,-0.5045126942092143
-8.024821691666666,-48.14893015,7.5469789190729974,-0.05612792416666679,0.0218632,0.003379203946259011,0.0,216,6,75.40093850135952,342.6895,mp-1215254,ZrFe4Si,https://materialsproject.org/materials/mp-1215254,54.754374447411095,62.404077918360116,-8.604250342815693,-0.5045126942092143
-6.0838932075,-73.00671849,6.222592333799664,-0.4425735384722221,1.1e-06,6.608456796959192e-08,0.0,119,12,193.9858524264606,726.9295386,mp-1217144,Ti4AlGe7,https://materialsproject.org/materials/mp-1217144,41.80398685689265,62.97756372020329,-8.604250342815693,-0.5045126942092143
-6.784029789375,-325.63342989,6.189537453937879,-0.4803464581249995,0.3660523583333333,0.005470373239920563,0.0,55,48,779.8367144372119,2906.784144,mp-1197663,ScCrGe2,https://materialsproject.org/materials/mp-1197663,25.213930588279144,67.98607070589699,-8.604250342815693,-0.5045126942092143
-7.780793345833334,-93.36952015,10.164456328562599,-0.7643703758333326,1.0875e-05,6.289262651764968e-07,0.0,38,12,201.51480613712317,1233.5081544000002,mp-1224494,HfAlRh,https://materialsproject.org/materials/mp-1224494,33.22118700499296,59.0085747892572,-8.604250342815693,-0.5045126942092143
-5.080494797857143,-71.12692717,7.280148252188963,-0.3470497114285718,2.5e-07,1.2467468908100011e-08,0.03639999999999954,140,14,233.68946933944508,1024.5431999999996,mp-510484,Ca(Ni2Sn)2,https://materialsproject.org/materials/mp-510484,27.842048431597053,78.51648216492866,-8.604250342815693,-0.5045126942092143
-6.670942484444446,-60.03848236,12.449896541355095,-0.8538471111111109,1.8433333333333332e-05,1.1282359839925884e-06,0.0,189,9,190.40631896940238,1427.57196,mp-1079423,HoSnIr,https://materialsproject.org/materials/mp-1079423,10.294620539970119,56.30765900272638,-8.604250342815693,-0.5045126942092143
-7.350608232758621,-213.16763875,8.449108893274202,-0.11789119344827514,13.157798499999998,0.5540050417046496,0.0,225,29,276.7877987381894,1408.344035,mp-1193450,Mn3(Co10B3)2,https://materialsproject.org/materials/mp-1193450,39.47840867831172,89.30016063909856,-8.604250342815693,-0.5045126942092143
-8.237807723809524,-172.9939622,7.830275907435047,-0.18281880094095354,38.9922276,1.6765602217739342,0.0,12,21,271.04182729325373,1278.0984,mp-1219235,Sm2Fe17N2,https://materialsproject.org/materials/mp-1219235,61.22121064559373,75.28445340670959,-8.604250342815693,-0.5045126942092143
-5.6439278716666665,-67.72713446,12.782808875183933,-1.1061390816666663,1.4825e-05,7.560661481227126e-07,0.0,62,12,228.5137493355355,1759.096,mp-1102327,LuGaPt,https://materialsproject.org/materials/mp-1102327,4.17959397322369,69.14975141312154,-8.604250342815693,-0.5045126942092143
-8.311536776363637,-182.85380908,7.3792853558479345,-0.3884166431818182,0.0018840999999999997,6.909664967451036e-05,0.0,72,22,317.7784095381368,1412.17852,mp-17806,Ta2V4Si5,https://materialsproject.org/materials/mp-17806,53.396338139941825,52.56054526063818,-8.604250342815693,-0.5045126942092143
-5.703969511666667,-68.44763414,7.797496579296085,-0.33283475,2.73852695,0.1463163316170242,0.0,62,12,218.1230905941259,1024.2541800000001,mp-21439,YbMnSi,https://materialsproject.org/materials/mp-21439,23.691343372659173,68.44023488448879,-8.604250342815693,-0.5045126942092143
-10.321866236666667,-61.93119742,10.997497320578358,-0.7294381066666666,7.01956945,0.7461447402539683,0.027899999999999814,227,6,109.63893817429633,726.1220000000002,mp-20084,GdRh2,https://materialsproject.org/materials/mp-20084,30.27905008133331,65.34328936633443,-8.604250342815693,-0.5045126942092143
-7.485277631666666,-359.29332632,5.143235369795919,-0.6833794933333337,3.3333333333333334e-08,6.271334229207952e-10,0.0107999999999997,55,48,619.4356919182283,1918.596,mp-21662,TiFeSi2,https://materialsproject.org/materials/mp-21662,48.378058014434785,65.48772013110776,-8.604250342815693,-0.5045126942092143
-6.121189281666666,-36.72713569,7.706223218328582,-0.5437001787499997,6.96e-05,9.369308215256946e-06,0.0,65,6,86.57233698954691,401.76457,mp-1071627,LaSiNi4,https://materialsproject.org/materials/mp-1071627,25.89497202788241,78.62356415022502,-8.604250342815693,-0.5045126942092143
-8.0252244825,-32.10089793,9.628098833298218,-0.3697263000000008,0.8694905999999999,0.1852478823017213,0.0,225,4,54.70021921776989,317.16153860000003,mp-983358,HfAlFe2,https://materialsproject.org/materials/mp-983358,31.89902030453336,75.89223983053975,-8.604250342815693,-0.5045126942092143
-8.035141023333333,-48.21084614,6.656031735009299,0.11025013499999996,4.9878347000000005,0.5847351932431678,0.0,166,6,99.41003951928631,398.47083500000014,mp-1216095,Y2Mn3Fe,https://materialsproject.org/materials/mp-1216095,42.31067653623997,72.46954529968848,-8.604250342815693,-0.5045126942092143
-6.62541931125,-106.00670898,5.163780844612178,-0.4814630031249996,0.0,0.0,0.2597000000000005,2,16,196.64560808348,611.5091543999998,mp-29110,Al2(FeSi)3,https://materialsproject.org/materials/mp-29110,24.23088061113012,88.39737629529672,-8.604250342815693,-0.5045126942092143
-4.597835,-41.380515,9.798254352169712,-0.6054054672222217,0.0,0.0,0.016499999999999737,189,9,180.73028913188918,1066.4256,mp-1205963,LuAgGe,https://materialsproject.org/materials/mp-1205963,18.580073146022663,61.6021071923908,-8.604250342815693,-0.5045126942092143
-7.594054620833332,-273.38596635,7.1554844762498355,-0.6136496474999996,0.121274075,0.002432860726614667,0.0,62,36,580.9358134729409,2503.33,mp-1202025,Zr2V3Ge4,https://materialsproject.org/materials/mp-1202025,53.54877913245949,52.92415137572242,-8.604250342815693,-0.5045126942092143
-1.445182923333333,-8.67109754,3.8937719868108047,-0.006602030833333218,1.9333333333333336e-06,1.9630172540147807e-07,0.0,166,6,114.77836910263731,269.14200000000005,mp-1094477,MgZn,https://materialsproject.org/materials/mp-1094477,1.7558817918287488,99.30735098014036,-8.604250342815693,-0.5045126942092143
-8.5151717275,-102.18206073,9.38856635993362,-0.3269470441666667,2.525e-06,1.3799683776531301e-07,0.0,38,12,213.2404917912539,1205.6461544000001,mp-1224402,HfAlMo,https://materialsproject.org/materials/mp-1224402,33.271932302631924,59.28617007866071,-8.604250342815693,-0.5045126942092143