energy_per_atom,energy,density,formation_energy_per_atom,total_magnetization_uB,total_magnetization_T,band_gap,sgr,num_sites,cell_volume,weight,mp_id,formula,URL,tsne_cry_lin1_0,tsne_cry_lin1_1,tsne_cry_lin2_0,tsne_cry_lin2_1
-5.9799979875,-23.91999195,11.445450379708015,-0.76745339,1.7199999999999998e-05,2.5691411876178827e-06,0.0,225,4,78.02214804468753,537.77635,mp-865258,TbYbRh2,https://materialsproject.org/materials/mp-865258,13.941251636840903,47.94710170745901,-8.604250342815693,-0.5045126942092143
-5.072829675555556,-45.65546708,10.278060270574109,-0.7777719338888889,2e-06,1.218512751743159e-07,0.0,189,9,191.2834273730467,1183.9665,mp-11973,YbSnRh,https://materialsproject.org/materials/mp-11973,6.390331682751827,48.47242194601078,-8.604250342815693,-0.5045126942092143
-6.297097912083332,-151.13034989,4.8524054673350125,-2.398858050520834,1.0000004999999998,0.02859509379092332,0.1878,113,24,407.5549003196949,1190.9516,mp-22067,Ba2CuGe2O7,https://materialsproject.org/materials/mp-22067,-49.15696713189888,-7.049923518840325,-4.826698667544574,-1.6681848409385518
-5.72659049125,-320.68906751,3.210378201876312,-0.8093839890557136,1.00000035,0.013299992377587055,0.023099999999999454,60,56,876.246280495741,1694.07758,mp-1246283,Ca7CoN6,https://materialsproject.org/materials/mp-1246283,5.449139284429736,6.198945365140022,-8.604250342815693,-0.5045126942092143
-6.6977267000000005,-120.55908059999999,6.1380806439582285,-2.3800222137500007,2.9999998,0.15072646395486705,0.1633,129,18,231.95788628953088,857.41809,mp-1227472,BaYCoCuO5,https://materialsproject.org/materials/mp-1227472,-48.85465739020058,-3.2942186761493426,-8.604250342815693,-0.5045126942092143
-6.722080977,-470.54566839,3.9508960735983485,-2.0568886425325714,29.0029998,0.4697040875608546,0.0,12,70,719.6080409326743,1712.15281,mp-867994,Li6Mn9O20,https://materialsproject.org/materials/mp-867994,-67.08946942905203,-37.36765279439076,-8.604250342815693,-0.5045126942092143
-4.034777173,-40.34777173,7.485466106739826,-0.24296855899999986,0.0004291,2.342060271288678e-05,0.0,127,10,213.51966280328827,962.5152800000001,mp-1205563,Ho2MgCu2,https://materialsproject.org/materials/mp-1205563,-8.677718869261938,54.025956226537744,-8.604250342815693,-0.5045126942092143
-7.2567261844186035,-312.03922593,7.434680604234798,-2.8977196664825584,1.04e-05,2.1601098215261522e-07,0.0,12,43,561.0931093725109,2512.165,mp-662567,Nd12Cu6O25,https://materialsproject.org/materials/mp-662567,-42.9970036212768,-4.047461270137819,-8.604250342815693,-0.5045126942092143
-3.5098434375,-14.03937375,5.102390400892938,-0.5069921591666668,4.5e-06,5.472824627406557e-07,0.0,225,4,95.82490769738087,294.4442,mp-1183456,Ca2AgPd,https://materialsproject.org/materials/mp-1183456,-12.006225306305954,49.9041882862989,-8.604250342815693,-0.5045126942092143
-4.371286398333333,-26.22771839,9.197072343429637,-0.18763552333333305,4e-07,5.3763637475386823e-08,0.0,216,6,86.70592482061849,480.23,mp-30578,DyCu5,https://materialsproject.org/materials/mp-30578,4.233566989181199,44.93177382489842,-8.604250342815693,-0.5045126942092143
-3.967376625,-15.8695065,10.5395761091823,-0.7428664718749998,8.8e-06,1.1556919799301462e-06,0.0,225,4,88.73970900509676,563.2381379999998,mp-862933,PmMgAu2,https://materialsproject.org/materials/mp-862933,-14.426654673500275,44.83225665335975,-8.604250342815693,-0.5045126942092143
-5.223382,-20.893528,5.336167767887671,-1.9178295896425,0.0,0.0,1.1005000000000005,166,4,95.73910980636603,307.65910319999995,mp-1018096,Ba2NF,https://materialsproject.org/materials/mp-1018096,26.627155564991842,-7.2740896581411265,7.49770487197892,-4.209999676209788
-3.557281235,-14.22912494,3.434722542180741,-0.24240619500000005,6e-07,7.61223053755054e-08,0.0,225,4,91.85794924421506,190.0025,mp-862764,LiCa2Rh,https://materialsproject.org/materials/mp-862764,-12.84872569636257,47.562834222047556,-8.604250342815693,-0.5045126942092143
-4.884784278,-48.84784278,4.498409016711019,-0.5334989799519996,0.0,0.0,0.0,59,10,253.04151550742725,685.4907999999998,mp-1245724,Ba2CaN2,https://materialsproject.org/materials/mp-1245724,7.2678829889212135,2.3908280627052556,-8.604250342815693,-0.5045126942092143
-5.747075792777778,-103.44736427,5.311919731600795,-0.3672355938355554,0.00031075,1.327706400670007e-05,0.0,15,18,272.76366418399346,872.5472,mp-1246162,Sr3(NiN2)2,https://materialsproject.org/materials/mp-1246162,0.859485430516006,9.852076480762644,-8.604250342815693,-0.5045126942092143
-5.786393355294117,-196.73737408,6.48509788836366,-2.282697706397059,2.62e-05,5.640909761272689e-07,0.0,223,34,541.2894550048156,2113.9612,mp-653337,Ba4Yb(CuO3)3,https://materialsproject.org/materials/mp-653337,-50.09939689019703,-1.8050647616709437,-8.604250342815693,-0.5045126942092143
-5.0923035625,-20.36921425,9.070510814823669,-0.5394867849999994,1.12e-05,1.5924893543128632e-06,0.0,225,4,81.96320126044954,447.71492,mp-867162,LiTm2Rh,https://materialsproject.org/materials/mp-867162,8.84677630838959,42.523563971858735,-8.604250342815693,-0.5045126942092143
-3.8762011875,-15.50480475,5.316752883706488,-0.33115091666666663,0.00012319999999999999,1.5801468911537227e-05,0.0,225,4,90.863753744504,290.9297,mp-1183516,Ca2AgRh,https://materialsproject.org/materials/mp-1183516,-12.050323507956769,49.9309256114561,-8.604250342815693,-0.5045126942092143
-6.961639249935898,-1086.01572299,4.197265612958291,-2.5243802593956413,26.000217499999998,0.1697299860369448,0.0,1,156,1785.2368100689341,4512.45824,mp-1247706,Ca8Mn8O23,https://materialsproject.org/materials/mp-1247706,-32.303246361323616,-9.158008602440676,-9.060385653969467,-3.2334549417487817
-7.146075055555557,-257.258702,8.100242634333089,-3.111398893750001,0.9999998999999999,0.02327108440386675,0.0,62,36,500.7958978145755,2442.92256,mp-17878,BaHo2CuO5,https://materialsproject.org/materials/mp-17878,-47.033820438337,-7.567806450670152,-8.604250342815693,-0.5045126942092143
-4.074875982368422,-309.69057466,2.1992985902565687,-0.4251132248055263,0.010725700000000001,0.00014853112284936242,0.0,191,76,841.5610151807324,1114.6043,mp-676829,Li49Cu8N19,https://materialsproject.org/materials/mp-676829,8.267405554290061,0.4775330277248762,-6.001858605581738,0.31739567985087425
-6.674154207777778,-60.06738787,6.331456920032418,-2.4889904065277784,4.941378599999999,0.4597219174676335,0.0,99,9,125.26517462416771,477.62265,mp-1206136,BaPrFeCuO5,https://materialsproject.org/materials/mp-1206136,-48.84443986439506,-3.5979000361125646,-8.604250342815693,-0.5045126942092143
-4.059767911000001,-40.59767911,6.24075378876658,-0.19314578199999985,1.5e-07,7.467778806802222e-09,0.0,127,10,234.08697031728397,879.762,mp-16638,Nd2MgCu2,https://materialsproject.org/materials/mp-16638,-8.700863299488287,52.828728181794126,-8.604250342815693,-0.5045126942092143
-7.401308082857143,-51.80915658,6.998499141175457,-2.9930029257142854,8.400000000000001e-06,1.0178352682928795e-06,0.0,139,7,96.17876992383076,405.35454,mp-19735,La2CuO4,https://materialsproject.org/materials/mp-19735,-42.610246909087955,-4.027487026206905,-8.604250342815693,-0.5045126942092143
-5.736895345277778,-619.58469729,6.716345133397768,-2.0538308110879626,0.2679714,0.0016852062042807482,0.0,1,108,1853.1595984281287,7495.4332,mp-667638,Sr10Cu5Bi10O29,https://materialsproject.org/materials/mp-667638,-44.920781341920346,-5.7186977821439084,-8.604250342815693,-0.5045126942092143
-6.6406906341428575,-464.84834439,3.9168113280600365,-2.055075820518858,51.9977744,0.8589181318191533,0.0,12,70,705.5217586373383,1664.155765,mp-759819,Li13Mn17O40,https://materialsproject.org/materials/mp-759819,-66.27713147723436,-38.20133654211221,-8.604250342815693,-0.5045126942092143
-7.110534611923077,-1109.24339946,4.149651732608136,-2.6625389997342737,22.99999945,0.14937755610392714,0.0,1,156,1794.402655594728,4484.17406,mp-1247628,Ca8TiMn7O23,https://materialsproject.org/materials/mp-1247628,-32.35702870919557,-9.262884859602114,-5.351557671346739,-3.0626483054548594
-5.025251950833334,-60.30302341,3.4220191961980015,-0.07823095429333371,0.0,0.0,0.1734,62,12,217.00124653397103,447.1936,mp-1245791,KNiN,https://materialsproject.org/materials/mp-1245791,-1.5518325829072637,11.543036738635376,-8.604250342815693,-0.5045126942092143
-6.0873210916666665,-146.0957062,2.9202189577839817,-1.0093728443249994,1.99999985,0.05608260511330404,0.7419999999999995,193,24,415.60351467126236,730.87909,mp-17577,Ca6MnN5,https://materialsproject.org/materials/mp-17577,6.344334623838407,6.876630085823798,-8.604250342815693,-0.5045126942092143
-6.944252158205129,-1083.30333668,4.354975548755428,-2.515153204459743,26.000116725,0.16898528670191912,0.0,1,156,1793.0971998867014,4702.626240000001,mp-1247632,SrCa7Mn8O23,https://materialsproject.org/materials/mp-1247632,-32.37073739340186,-9.035216453623354,-8.604250342815693,-0.5045126942092143
-6.9470257828947375,-263.98697975,4.205899480279009,-2.5087692366900005,27.0,0.6890084402689852,0.0,8,38,456.6848974103571,1156.7152150000004,mp-1247598,SrCa7Mn7CrO22,https://materialsproject.org/materials/mp-1247598,-31.20689305200606,-9.343131341947359,-8.604250342815693,-0.5045126942092143
-6.710242985,-161.04583164,1.95333930446879,-0.3650697923766657,0.0,0.0,4.1662,161,24,484.40637740055166,569.821,mp-6610,K3Cu(CN)4,https://materialsproject.org/materials/mp-6610,13.1312360615734,-18.94138124490704,7.870190289563341,-1.7638805804691629
-4.054375911,-40.54375911,6.0286795175740275,-0.18031942900000006,2.24e-05,1.0938752053832631e-06,0.0,127,10,238.64792768007962,866.4245999999998,mp-1205577,Pr2MgCu2,https://materialsproject.org/materials/mp-1205577,-8.656997593973797,52.75660381711217,-8.604250342815693,-0.5045126942092143
-1.7945122625,-7.17804905,0.3775250586021711,1.6645021625000005,1.0,0.0185225547027158,0.12539999999999996,71,4,629.1823649386205,143.045182,mp-1097607,LiBeCu2,https://materialsproject.org/materials/mp-1097607,-48.396591476997315,-1.5464939430343998,-5.203884124882657,-3.52806040362623
-6.956723193333333,-20.87016958,6.438096049747287,-0.1087426655555556,1e-07,2.229805803549527e-08,0.0,107,3,52.26493156492872,202.637,mp-1215181,ZrTiCu,https://materialsproject.org/materials/mp-1215181,-9.931486358226293,53.362425690351365,-8.604250342815693,-0.5045126942092143
-4.840641201666666,-29.04384721,7.3418544392696035,-0.2438241454166666,6.2e-06,6.474150264240806e-07,0.0,44,6,111.60569131205223,493.44985,mp-1218988,SmYCu4,https://materialsproject.org/materials/mp-1218988,1.4541082581899143,41.312241278718304,-8.604250342815693,-0.5045126942092143
-5.11332197,-15.33996591,7.376293394490738,-0.6176106208333328,0.0022321,0.00041205841955806177,0.0,187,3,63.129490247353324,280.428,mp-1220173,NdCuGe,https://materialsproject.org/materials/mp-1220173,-3.765596346635218,58.78015790646971,-8.604250342815693,-0.5045126942092143
-6.036309255,-338.03331828,4.635731549356164,-1.6924771864971422,2.0000001,0.0435404120842196,0.6339999999999999,212,56,535.3217756745452,1494.45932,mp-757572,Li2MnCo3O8,https://materialsproject.org/materials/mp-757572,-72.5942204870041,-22.343464361623678,-8.604250342815693,-0.5045126942092143
-7.305875248571428,-102.28225348,6.757438899845309,-3.188871173035714,1.0000001,0.06418642922298165,0.1902000000000008,38,14,181.56588673098338,738.8687386,mp-1218168,SrNd3AlCuO8,https://materialsproject.org/materials/mp-1218168,-45.197697847704106,-5.203940932979808,-8.604250342815693,-0.5045126942092143
-6.98454524054054,-258.4281739,3.8804149488992734,-2.5280349770137835,27.9999995,0.6994322549272729,0.0,6,37,466.5409773510791,1090.2318699999998,mp-1247719,Ca8Mn6Cr2O21,https://materialsproject.org/materials/mp-1247719,-30.864914255818572,-10.4832080964664,-6.4032360097628915,-2.8144639355863648
-6.342899135714285,-88.80058790000001,4.378649253064604,-0.9044954353057132,1.09323815,0.04668423188389916,0.0,176,14,272.91159558153583,719.63629,mp-9325,Sr3MnN3,https://materialsproject.org/materials/mp-9325,5.41881441947661,7.442227168603593,-8.604250342815693,-0.5045126942092143
-6.605529041111112,-118.89952274,4.312478883016248,-2.6923839104166682,1.00000005,0.04917270592952228,0.0,46,18,237.0027261051353,615.5045,mvc-6231,Ca2YNiO5,https://materialsproject.org/materials/mvc-6231,-39.29416950050006,-20.4143190862669,-8.604250342815693,-0.5045126942092143
-7.2642107014285715,-101.69894982,7.120850608795624,-2.896736995,0.0,0.0,0.0,64,14,190.92001002852825,818.7177999999999,mp-16115,Pr2CuO4,https://materialsproject.org/materials/mp-16115,-42.96212159066123,-4.120249232260084,-8.604250342815693,-0.5045126942092143
-6.963031101959459,-1030.52860309,4.1636773013914485,-2.5315773890251343,30.000000025,0.1839848514374294,0.0,1,148,1900.275706052048,4764.79904,mp-1247589,Sr2Ca6Mn8O21,https://materialsproject.org/materials/mp-1247589,-30.78676678596134,-9.966529796957259,-8.604250342815693,-0.5045126942092143
-4.681890963214286,-131.09294697,8.076837569768701,-0.2571419710714287,1.275e-06,3.4393357473357137e-08,0.0,62,28,432.0291380835413,2101.3834,mp-1207691,YCu5Sn,https://materialsproject.org/materials/mp-1207691,3.1155730228072787,42.06509742772354,-8.604250342815693,-0.5045126942092143
-4.371124778333333,-26.22674867,11.515628079672682,-0.3314244608333325,2.13e-05,2.7836803864024096e-06,0.0,216,6,89.1738796120673,618.4095689999998,mp-1077290,ErCu4Au,https://materialsproject.org/materials/mp-1077290,4.577556446533446,41.725265163373344,-8.604250342815693,-0.5045126942092143
-6.7423024950000014,-121.36144491,7.362962929921651,-2.4352626381944447,0.36560215,0.018601985549133712,0.0,46,18,229.04819089516528,1015.618,mp-1076393,Sm2Cu2O5,https://materialsproject.org/materials/mp-1076393,-44.909752489280024,0.6012130795358779,-8.604250342815693,-0.5045126942092143
-4.6735849325,-18.69433973,7.492702776894893,-0.3191281758333337,0.0,0.0,0.0,225,4,73.31568465117164,330.81585,mp-19946,YInCu2,https://materialsproject.org/materials/mp-19946,-8.18872618052286,53.96213638660245,-8.604250342815693,-0.5045126942092143
-7.33474960357143,-102.68649445,7.247544686899325,-2.9495152978571433,0.0071845,0.00044490832535447247,0.0,12,14,188.19299075095051,821.3821399999998,mp-1222994,LaNdCuO4,https://materialsproject.org/materials/mp-1222994,-42.743891096232204,-4.042707935353781,-8.604250342815693,-0.5045126942092143
-6.408132313333333,-38.44879388,7.380030196414128,-0.2501386833333328,7.060258,0.7308730588613636,0.0,44,6,112.57865240123763,500.33985,mp-1224747,GdYCu4,https://materialsproject.org/materials/mp-1224747,1.4488974444810334,41.31348270463907,-8.604250342815693,-0.5045126942092143
-6.108477333333332,-54.976296,7.356800827201334,-2.3074815234722226,3.04e-05,2.732356402680307e-06,0.0,99,9,129.66228297973132,574.45177,mp-1218170,SrLaTlCuO5,https://materialsproject.org/materials/mp-1218170,-46.9970213143301,-3.3194056701123285,-8.604250342815693,-0.5045126942092143
-4.489292530681818,-197.52887135,3.634869115842797,-2.69378208453,1.0000871999999998,0.020427260360749957,0.0,15,44,570.5650587096136,1248.94944384,mp-21552,Na2GaCuF7,https://materialsproject.org/materials/mp-21552,-51.641714515276966,-14.791241348089494,-8.139285405817823,2.2241420301283927
-6.937936476666668,-270.57952259,4.191605555338298,-2.4932259604361544,23.9999998,0.6291263116044771,0.0,25,39,444.58091650514467,1122.23067,mp-1247648,Ca8Mn6Cr2O23,https://materialsproject.org/materials/mp-1247648,-36.227447255621335,6.031299852567803,-8.604250342815693,-0.5045126942092143
-3.857862445,-15.43144978,6.830539323284527,-0.7437741524999999,3e-07,3.7496524443433536e-08,0.0,225,4,93.24115991182677,383.542569,mp-863744,Ca2PdAu,https://materialsproject.org/materials/mp-863744,-11.916675218493744,49.90898155611149,-8.604250342815693,-0.5045126942092143
-5.677228415625,-90.83565465,4.253945176242335,-2.03862405375,2.5e-08,1.3758387484597304e-09,0.01990000000000025,2,16,211.76291163493127,542.4911999999998,mvc-2461,CaCuO2,https://materialsproject.org/materials/mvc-2461,-52.92575748324644,-3.0706754304006907,-8.604250342815693,-0.5045126942092143
-2.9294348408333337,-35.15321809,2.902872171512984,-0.0787894961950002,2.2e-06,1.7825440806717247e-07,0.0,139,12,143.83342761414173,251.44248,mp-1147754,K3Cu2H7,https://materialsproject.org/materials/mp-1147754,-47.80705959560721,-1.6083624071140712,-8.604250342815693,-0.5045126942092143
-7.254713031794872,-1131.73523296,4.086038970407613,-2.795980797957521,20.000000475,0.12871418109502047,0.0,1,156,1810.843987849384,4455.8898800000015,mp-1247681,Ca8Ti2Mn6O23,https://materialsproject.org/materials/mp-1247681,-32.25272366356941,-9.492594055821352,-5.420768646629059,-2.990415406626048
-5.919210413684209,-112.46499786,4.058396692975182,-0.8089600841600001,2.001023,0.056401990430145175,0.0,12,19,413.4615015451271,1010.5096900000001,mp-1247555,Sr9(MnN4)2,https://materialsproject.org/materials/mp-1247555,5.812256524428197,6.89848119620645,-8.604250342815693,-0.5045126942092143
-5.473081773333334,-32.83849064,6.897993505678728,-0.614390485,5e-08,4.46336638851593e-09,0.0,186,6,130.55240997630344,542.3237,mp-13202,YCuSn,https://materialsproject.org/materials/mp-13202,-6.078656902016071,54.33861209182969,-8.604250342815693,-0.5045126942092143
-7.3160059916666675,-87.79207190000001,4.987101354498439,-2.859932185055834,7.0000003,0.5556504014956392,0.0,139,12,146.81615757777425,440.93335999999994,mp-1214095,Ca2LaMn2O7,https://materialsproject.org/materials/mp-1214095,-34.92403013725406,5.499516822214212,-8.604250342815693,-0.5045126942092143
-5.922304982000001,-29.61152491,4.715653181245037,-0.6456958949520001,1.0015841,0.1264291249292776,0.0,139,5,92.32466002667759,262.186595,mp-1246735,Sr2CoN2,https://materialsproject.org/materials/mp-1246735,6.472426962586289,8.029728824382586,-8.604250342815693,-0.5045126942092143
-3.962405216666667,-23.7744313,9.077183672750648,-0.545446438333333,1e-07,1.030085946241663e-08,0.0,194,6,113.13681945744743,618.452,mp-5111,YbCuGe,https://materialsproject.org/materials/mp-5111,-4.655194882503668,47.03082424021345,-8.604250342815693,-0.5045126942092143
-6.714063334756098,-550.55319345,3.9137505766591585,-2.0223809576848777,64.00000039999999,0.8737644858253546,0.0,8,82,853.6169210412685,2011.903145,mp-530398,Li13Mn21O48,https://materialsproject.org/materials/mp-530398,-66.73695197918063,-37.59127217247955,-8.604250342815693,-0.5045126942092143
-6.759661966625002,-540.77295733,3.2247023107982784,-1.006244175196001,4.0000064,0.03701036011356088,0.0,14,80,1259.5482327980035,2445.993740000001,mp-1245450,Ca8(MnN3)3,https://materialsproject.org/materials/mp-1245450,5.4024312050616325,7.632769597898508,-8.604250342815693,-0.5045126942092143
-7.037809724285713,-98.52933614,5.866230448235122,-2.2028049249999992,3.0000001,0.2280753983072409,0.2719000000000005,88,14,153.29226976066874,541.53968,mvc-4610,Y(CoO2)2,https://materialsproject.org/materials/mvc-4610,14.017468541990695,-15.162207786247858,5.287718612314147,-5.4641087328613365
-6.725602459622643,-356.45693036,3.9396715792581336,-1.946382040819623,40.9999689,0.8525464976324442,0.0,160,53,560.4577516422248,1329.70043,mp-757896,Li7Mn14O32,https://materialsproject.org/materials/mp-757896,-66.99006404265239,-37.09351272450135,-8.604250342815693,-0.5045126942092143
-3.961415915,-23.76849549,9.087535487176963,-0.5444571366666663,7.5e-07,7.734455087166429e-08,0.0,186,6,113.00794278219709,618.452,mp-567768,YbCuGe,https://materialsproject.org/materials/mp-567768,-4.63815962997651,47.02938177532176,-8.604250342815693,-0.5045126942092143
-4.771670043,-47.71670043,4.708149665853205,-0.48403303195200004,1.665e-05,7.048201449704955e-07,0.0,59,10,275.3045295991669,780.5748,mp-1245616,Ba2SrN2,https://materialsproject.org/materials/mp-1245616,7.419114404835709,2.399428072743581,-8.604250342815693,-0.5045126942092143
-6.008335846666666,-90.1250377,7.408926230725671,-2.1489457288333327,6.7e-06,3.4885582081539e-07,0.0,139,15,223.8237957264014,998.648,mp-1208767,Sr2SmCu2(BiO4)2,https://materialsproject.org/materials/mp-1208767,-44.99055084910965,-5.7102243259304055,-8.604250342815693,-0.5045126942092143