energy_per_atom,energy,density,formation_energy_per_atom,total_magnetization_uB,total_magnetization_T,band_gap,sgr,num_sites,cell_volume,weight,mp_id,formula,URL,tsne_cry_lin1_0,tsne_cry_lin1_1,tsne_cry_lin2_0,tsne_cry_lin2_1
-5.994158121111112,-269.73711545,6.1084583420353535,-2.0348112525555546,0.0012396,2.2634133686878615e-05,0.0,65,45,638.256311989524,2347.88945,mp-1228560,Ba6Nd2Y(CuO2)12,https://materialsproject.org/materials/mp-1228560,-49.03286443113146,0.4380517704198909,-8.604250342815693,-0.5045126942092143
-6.489476516041666,-311.49487277,5.11124268034431,-2.5000989754585405,6.384632466666668,0.11430367528549065,0.0,1,48,650.9582489773702,2003.6900699999999,mp-1218681,Sr4Mn2CuO9,https://materialsproject.org/materials/mp-1218681,-33.66419728857175,-9.683959172955085,-8.604250342815693,-0.5045126942092143
-5.112120075909091,-112.46664167,6.075558933062212,-1.6473913511363634,0.0444985,0.0011185688275809832,0.0,10,22,463.6177841673335,1696.2788,mp-1218644,Sr5CaCu4(BiO2)4,https://materialsproject.org/materials/mp-1218644,-45.09761741894434,-2.695566647231513,-8.604250342815693,-0.5045126942092143
-6.3411257625,-253.64503050000002,6.155241819149323,-2.2352611310624995,8.704404199999999,0.18794095595274854,0.0,2,40,539.7529763488313,2000.7419350000002,mp-1228789,Ba6Y3Co3(Cu3O11)2,https://materialsproject.org/materials/mp-1228789,-49.06787772952132,-2.8855909701703437,-8.604250342815693,-0.5045126942092143
-6.824650473666668,-614.21854263,6.732192125032683,-2.8853464574166665,3.0490046000000004,0.026350551757493068,0.0,55,90,1348.4839872519242,5467.052,mp-532816,Ba5Sr2Nd8(CuO5)5,https://materialsproject.org/materials/mp-532816,-46.413246474954654,-8.147206333944528,-8.604250342815693,-0.5045126942092143
-6.055734571538461,-78.72454943,6.532421313397767,-2.171344876057693,8e-07,5.083212184439965e-08,0.0,47,13,183.41260367975238,721.5298,mp-22719,Ba2NdCu3O7,https://materialsproject.org/materials/mp-22719,-47.04256442074358,0.7684135387088947,-8.604250342815693,-0.5045126942092143
-5.994341056666667,-269.74534755,6.130060408741437,-2.034994188111112,5.1e-05,9.34513593547044e-07,0.0,10,45,636.0071244599011,2347.88945,mp-1228347,Ba6Nd2Y(CuO2)12,https://materialsproject.org/materials/mp-1228347,-49.048016923505976,0.43631820352482414,-8.604250342815693,-0.5045126942092143
-6.240714718846153,-162.25858269,6.7183240412561425,-2.2470749498076934,9.000000000000001e-07,2.9266541179181647e-08,0.0,42,26,358.3839385422384,1449.9746,mp-1228353,Ba3Nd3(Cu3O7)2,https://materialsproject.org/materials/mp-1228353,-46.66394655205724,0.8314511858845259,-8.604250342815693,-0.5045126942092143
-6.2312134944,-155.78033736,5.83185470069163,-2.2192368157000013,0.05162050000000001,0.0016651368529065295,0.0,8,25,361.2848094388354,1268.8413,mp-772817,Ba4Y2Cu5O14,https://materialsproject.org/materials/mp-772817,-49.39493629444078,-1.8513802973603588,-8.604250342815693,-0.5045126942092143
-5.561815427692308,-72.30360056,6.222852544256367,-2.0602122304807717,2e-07,1.3258715075516306e-08,0.0,123,13,175.79478412776544,658.7891,mp-20824,Sr2CaTlCu2O7,https://materialsproject.org/materials/mp-20824,-46.598258403264104,-2.32519374315338,-8.604250342815693,-0.5045126942092143
-6.04676219375,-193.49639019999998,7.187224462193299,-2.0574675893750003,1.595e-05,3.668383641181083e-07,0.0,17,32,506.71454052848185,2193.1861,mp-1200772,Ba2YCu3(PbO4)2,https://materialsproject.org/materials/mp-1200772,-47.62521852360329,-3.818479680142445,-8.604250342815693,-0.5045126942092143
-7.187460383333333,-129.3742869,5.938359494887807,-2.8806737153240736,5e-07,2.4197720263583944e-08,0.0,100,18,240.80914742407228,861.1729399999998,mp-14970,BaLaCuBO5,https://materialsproject.org/materials/mp-14970,-47.87093328143149,-5.643814491182865,-8.604250342815693,-0.5045126942092143
-6.3837696328,-159.59424082,6.462216427627759,-2.0710181021500005,12.2610155,0.3854953920438613,0.0,69,25,370.6676441883393,1442.5042,mp-1228334,Ba4Eu2Cu6O13,https://materialsproject.org/materials/mp-1228334,-49.493614102743095,-0.7133455285179011,-8.604250342815693,-0.5045126942092143
-6.048490963076923,-78.63038252,6.344052253547504,-2.1826043675961553,0.0010505,6.962038275358778e-05,0.0,25,13,175.84785603527948,671.8228,mp-1227498,BaSrNdCu3O7,https://materialsproject.org/materials/mp-1227498,-46.926457272575,0.7560638207967743,-8.604250342815693,-0.5045126942092143
-6.891756915,-179.18567979,5.385307256454791,-2.73126723048077,0.00014435,4.606823608354794e-06,0.0,46,26,365.1679319494866,1184.279,mvc-10780,Sr2Y2Cu2O7,https://materialsproject.org/materials/mvc-10780,-46.58205038309371,-4.390570601327163,-8.604250342815693,-0.5045126942092143
-6.4233051923076925,-83.50296750000001,7.132914049880233,-2.151097761634616,6.6779532999999995,0.4329393076772317,0.0,123,13,179.7603011005637,772.1678,mp-1209074,Sr2GdCu2HgO7,https://materialsproject.org/materials/mp-1209074,-46.93652641767847,-3.3483636439169597,-8.604250342815693,-0.5045126942092143
-6.557088667777778,-59.01379801,6.718856814668883,-2.388023004305555,8.599999999999999e-06,7.006909047699958e-07,0.0,99,9,143.03733124224374,578.7562499999998,mvc-7260,BaYCuBiO5,https://materialsproject.org/materials/mvc-7260,-47.6176951863831,-3.958518970078264,-8.604250342815693,-0.5045126942092143
-5.2608255680000005,-26.30412784,4.740848144569115,-0.5863568949519994,0.9384219000000001,0.11703012458915657,0.0,139,5,93.44969634939491,266.7994,mp-1246496,Sr2CuN2,https://materialsproject.org/materials/mp-1246496,5.541662118845976,4.89511643679537,-8.604250342815693,-0.5045126942092143
-6.059828487352941,-206.03416857,6.167871733689628,-2.3686321768382355,0.52365555,0.010958033130538529,0.0,223,34,556.9170694696062,2068.6012,mp-1214478,Ba4Sm(CuO3)3,https://materialsproject.org/materials/mp-1214478,-50.038904595400716,-1.9547254600920312,-8.604250342815693,-0.5045126942092143
-5.165089816428571,-72.31125743,4.5712692421626855,-0.4495371145914281,0.6181403,0.026913601182525164,0.0,176,14,267.66567007788217,736.8522,mp-1246848,Sr3CuN3,https://materialsproject.org/materials/mp-1246848,5.575967276610963,4.963832168757634,-8.604250342815693,-0.5045126942092143
-5.3481817028571434,-74.87454384,4.885991144255779,-2.087722247554286,2.8999999999999998e-06,1.478574451237746e-07,0.0,229,14,228.57684178250958,672.5674,mp-1147678,Sr4Cu3ClO6,https://materialsproject.org/materials/mp-1147678,-45.91728123215438,-1.1924596595195258,-8.604250342815693,-0.5045126942092143
-5.4579643383333325,-65.49557206,5.323013365229137,-1.6976504260416665,0.0,0.0,0.0,59,12,163.9073635079739,525.4204,mp-3255,SrCu2O3,https://materialsproject.org/materials/mp-3255,-50.8808141868665,-0.03643616502921867,-8.604250342815693,-0.5045126942092143
-6.72462809,-47.07239663,4.589905911550528,-2.714569800137144,3.0113642999999994,0.3933173425119855,0.0,107,7,89.22727480521519,246.63364500000003,mp-1218332,SrCaMnO4,https://materialsproject.org/materials/mp-1218332,-34.52810515590795,5.1252932977243875,-8.604250342815693,-0.5045126942092143
-6.0613671286666655,-181.84101386,6.991609564397043,-2.1879608491666667,0.00038480000000000003,9.563311424061643e-06,0.0,66,30,468.92586946377617,1974.3869399999999,mp-1209034,Sr2LaCu2(BiO4)2,https://materialsproject.org/materials/mp-1209034,-45.732893993194544,-4.825779438295678,-8.604250342815693,-0.5045126942092143
-6.8743655240384625,-357.46700725,3.523756831170692,-2.8227732038126927,9.02138195,0.15953406491698713,0.0,9,52,659.0176815090108,1398.4724244000001,mp-1255429,Ca6Mn3Al2O15,https://materialsproject.org/materials/mp-1255429,-32.681326036397394,-10.669246293862127,-8.604250342815693,-0.5045126942092143
-6.181948962307692,-160.73067302,5.4860001605425825,-2.2036201916346156,0.00018945,6.434792075030878e-06,0.0,46,26,343.11327319008035,1133.5593,mvc-270,Sr2YCu3O7,https://materialsproject.org/materials/mvc-270,-47.45783648491685,0.6621959045404262,-8.604250342815693,-0.5045126942092143
-5.457413986666666,-32.74448392,5.323718873375938,-1.697100074375,0.0,0.0,0.0,65,6,81.94282111473967,262.7102,mp-5938,SrCu2O3,https://materialsproject.org/materials/mp-5938,-50.880821004325455,-0.03729616373859622,-8.604250342815693,-0.5045126942092143
-5.935487439375,-189.93559806,7.565786622570827,-2.0943430203124995,1e-07,2.473832789954939e-09,0.0,14,32,471.09347163160425,2146.40704,mp-18089,Sr2HoCu3(PbO4)2,https://materialsproject.org/materials/mp-18089,-46.75283072744765,-4.440557881576803,-8.604250342815693,-0.5045126942092143
-7.039894503571429,-98.55852305,6.060428187504008,-2.85344431114,3.7463199,0.2277875830492284,0.0,123,14,191.66916031544082,699.530185,mp-1218754,Sr2La2MnCuO8,https://materialsproject.org/materials/mp-1218754,-43.49727754261949,-2.8573507816661614,-8.604250342815693,-0.5045126942092143
-5.9357515361538455,-77.16476997,6.836245341924883,-2.220195518942308,9.9e-06,6.252957775485495e-07,0.0,123,13,184.51306628147339,759.61875,mp-1208792,Sr2PrTlCu2O7,https://materialsproject.org/materials/mp-1208792,-46.699651206858604,-2.3779250027788548,-8.604250342815693,-0.5045126942092143
-7.047083644545454,-232.55376027,5.6913281406642815,-2.8072968847727275,0.3294844,0.00783587469188052,0.0,25,33,490.03240737460686,1679.53608,mp-1228428,Ba4La4Cu4(BO6)3,https://materialsproject.org/materials/mp-1228428,-47.84374856053167,-5.6862361812763345,-8.604250342815693,-0.5045126942092143
-6.856431501785713,-191.98008205,5.869592012116149,-2.6903970347114283,3.94041955,0.11536213753931646,0.0,12,28,398.0673871538651,1407.06909,mp-697818,Sr2Pr2MnCuO8,https://materialsproject.org/materials/mp-697818,-44.362010127609224,-3.2035367711810165,-8.604250342815693,-0.5045126942092143
-5.940429564444446,-106.92773216,3.448089840468096,-0.7260893121688888,0.9966947,0.043810381273459084,0.0,2,18,265.1322415973541,550.54399,mp-1246126,Ca4CoN4,https://materialsproject.org/materials/mp-1246126,5.198330633181207,6.552838186518451,-8.604250342815693,-0.5045126942092143
-7.030630394285715,-98.42882552,6.52079526817605,-2.692249813392858,1.89e-05,1.1278669464319457e-06,0.0,123,14,195.2906102073349,766.88958,mp-10062,Ba2NdNb(CuO4)2,https://materialsproject.org/materials/mp-10062,-47.65914001643297,-6.283395878056709,-8.604250342815693,-0.5045126942092143
-5.135951074285714,-35.95165752,3.554337730031353,-2.412463332002857,7e-07,7.080762390393407e-08,0.0,139,7,115.21139802487477,246.6068,mp-23143,Ca2Cu(ClO)2,https://materialsproject.org/materials/mp-23143,-45.259001371280185,-3.665154559650741,-8.604250342815693,-0.5045126942092143
-7.312286794285713,-51.18600756,7.241544145658642,-2.9501233400000006,9.000000000000001e-07,1.0994611440021274e-07,0.7073999999999998,12,7,95.39817166365843,416.0276,mp-33916,Nd2CuO4,https://materialsproject.org/materials/mp-33916,-43.123311237978285,-2.5903242176563817,-8.604250342815693,-0.5045126942092143
-6.665145087272728,-73.31659596,6.7681335075835545,-2.5950250697727277,4e-06,3.170961353815585e-07,0.0,107,11,147.00986195920018,599.1923999999998,mp-1218159,SrNd2(CuO3)2,https://materialsproject.org/materials/mp-1218159,-44.43036101861859,-1.90484292110528,-8.604250342815693,-0.5045126942092143
-6.266946147142857,-87.73724606,5.369302591886071,-2.731084329572857,0.000258,1.4406070720242398e-05,0.0,129,14,208.71400465190888,674.8704,mp-620364,CaSmCuClO3,https://materialsproject.org/materials/mp-620364,-45.219923127713365,-3.845282306543976,-8.604250342815693,-0.5045126942092143
-6.579753780000001,-118.43556804,5.429776458349839,-2.6696512018055563,1.255e-05,6.096234325758052e-07,0.0,8,18,239.9161598458361,784.4989400000002,mp-1227198,CaLaGaCuO5,https://materialsproject.org/materials/mp-1227198,-45.74897131436792,-4.6350323541267695,-8.604250342815693,-0.5045126942092143
-5.67809737,-73.81526581,7.048782174817621,-2.0426505754807702,6.979999999999999e-05,4.6020020953397075e-06,0.0,47,13,176.76083240996866,750.3278,mp-1214570,Ba2YbCu3O7,https://materialsproject.org/materials/mp-1214570,-49.40539226412738,-0.6398648809122942,-8.604250342815693,-0.5045126942092143
-4.752423443333333,-42.77181099,5.802353635301179,-1.5850441554398145,2.57e-05,1.9005927336539463e-06,0.0,139,9,157.5873985790571,550.6511999999999,mp-1094045,Sr2CuAg2(SO)2,https://materialsproject.org/materials/mp-1094045,-50.102543626658004,-4.5801589162002525,-8.604250342815693,-0.5045126942092143
-5.62349974375,-44.98799795,5.642491826965137,-2.004320665625,1.6e-06,1.3604179782599093e-07,0.0,63,8,137.06451939091528,465.7436,mp-997034,BaCuO2,https://materialsproject.org/materials/mp-997034,-51.209464117785714,-0.9868395667133808,-8.604250342815693,-0.5045126942092143
-6.2240650569230755,-80.91284574,6.316650584094483,-2.2398139745192305,2.5884771,0.16126328457018446,0.0,47,13,187.06229298311612,711.5804650000001,mp-1214652,Ba2LaCoCu2O7,https://materialsproject.org/materials/mp-1214652,-48.899504648842296,-2.790046115744392,-8.604250342815693,-0.5045126942092143
-7.063047826428572,-197.76533914,6.458765258292937,-2.7131318198214296,7.285e-05,2.1680896500053524e-06,0.0,140,28,391.58833615523116,1523.1061,mp-1214654,Ba2LaNb(CuO4)2,https://materialsproject.org/materials/mp-1214654,-47.61351562892554,-6.272686305418325,-8.604250342815693,-0.5045126942092143
-5.746473705769231,-149.40831635,5.0482413891011815,-2.0146308397115393,3.0,0.10628875651184057,0.062400000000000226,46,26,328.9359614794655,1000.0054772,mp-1249552,Sr2AlCu2NiO7,https://materialsproject.org/materials/mp-1249552,-48.93113053519473,-4.868692532566239,-8.604250342815693,-0.5045126942092143
-6.016105345,-132.35431759,5.0827397681204936,-0.3661698488090908,1.47e-05,5.15131620448784e-07,0.0,2,22,332.5650093220401,1017.9474,mp-1245839,Sr3Ni3N5,https://materialsproject.org/materials/mp-1245839,0.6293913452526436,10.01094480153538,-8.604250342815693,-0.5045126942092143
-2.837613954285714,-19.86329768,2.4374653776962174,-0.08348430292571406,2.71e-05,3.1802037116451825e-06,0.0,139,7,99.30972477639963,145.77436,mp-1147780,K2CuH4,https://materialsproject.org/materials/mp-1147780,-47.81045639694943,-1.7843157288124234,-8.604250342815693,-0.5045126942092143
-6.356774023846151,-82.63806231,6.754290073639152,-2.047343121634616,5.8310930999999995,0.37903604421663,0.0,47,13,179.28621227216885,729.2518,mp-622211,Ba2EuCu3O7,https://materialsproject.org/materials/mp-622211,-49.29172276901601,-0.3678899035315236,-8.604250342815693,-0.5045126942092143
-6.910203681666667,-124.38366627,6.487537038491796,-2.5564432859722235,0.7164605,0.03363708193793217,0.0,84,18,248.22834184568973,969.79988,mp-1147637,La2Cu2O5,https://materialsproject.org/materials/mp-1147637,-44.82256640474386,-2.418637284436112,-8.604250342815693,-0.5045126942092143
-4.7870961324999985,-57.44515359,4.32617749510903,-1.94226799671,2.5e-07,1.3028081856998116e-08,0.0,99,12,223.63354982874242,582.62913856,mp-1232325,BaNaCuClO2,https://materialsproject.org/materials/mp-1232325,-50.853030396154395,0.16223644791958944,-8.604250342815693,-0.5045126942092143
-6.3577875,-82.6512375,6.426471738201522,-2.0668596977884617,5.9617092000000005,0.395688687025586,0.0,25,13,175.58789889656975,679.5448,mp-1227782,BaSrEuCu3O7,https://materialsproject.org/materials/mp-1227782,-49.24450433381976,-0.2811849687218401,-8.604250342815693,-0.5045126942092143
-5.533332245833333,-66.39998695,4.691424062664753,-2.175558151875,1.625e-05,9.328271482687124e-07,0.0,63,12,203.01569578627036,573.5684,mp-1218830,Sr2CuO3,https://materialsproject.org/materials/mp-1218830,-45.15960950788188,-1.5152824425052422,-8.604250342815693,-0.5045126942092143
-6.9653889428571425,-97.5154452,6.268202305442093,-2.8020096018542864,3.829279,0.23719509263337846,0.0,123,14,188.1432916792254,710.203245,mp-1218751,Sr2Nd2MnCuO8,https://materialsproject.org/materials/mp-1218751,-43.602316913155775,-2.8966727809433457,-8.604250342815693,-0.5045126942092143
-6.938403268611111,-249.78251767,5.386972062066112,-2.9839459020833328,2.225e-06,5.296608516141649e-08,0.0,57,36,489.56410578432593,1588.2000344,mp-1208690,SrLaAlCuO5,https://materialsproject.org/materials/mp-1208690,-45.71525514076657,-4.748445413734348,-8.604250342815693,-0.5045126942092143
-6.692879171111112,-60.23591254,6.007927104551582,-2.51146322875,5e-07,4.315896368218145e-08,0.0,99,9,135.01326003074504,488.48585,mvc-7191,BaYCuSnO5,https://materialsproject.org/materials/mvc-7191,-46.83423739423222,-4.445821379924217,-8.604250342815693,-0.5045126942092143
-5.064135856428571,-141.79580398,4.691465291191572,-0.6238102915642847,0.0,0.0,0.4832000000000001,105,28,556.684833169679,1572.783,mp-29136,Sr6Cu3N5,https://materialsproject.org/materials/mp-29136,5.370196146388548,4.653630614533559,-8.604250342815693,-0.5045126942092143
-6.292321480769231,-163.6003585,4.973763041578682,-2.2632368740161546,3.9999606,0.14068277159276849,0.009800000000000251,46,26,331.35400584106014,992.4947672,mp-1262567,Sr2MnAlCu2O7,https://materialsproject.org/materials/mp-1262567,-48.88191391355624,-4.9538398491728035,-8.604250342815693,-0.5045126942092143
-6.265141334615384,-162.8936747,6.336018291552942,-2.522030217788462,7.2999999999999996e-06,2.4856181539572724e-07,0.0,46,26,342.2676677197626,1305.9700200000002,mp-1208765,Sr2TmGaCu2O7,https://materialsproject.org/materials/mp-1208765,-46.657310776503095,-4.4480388532895585,-8.604250342815693,-0.5045126942092143
-4.950847031428571,-34.65592922,4.171487818646666,-2.120169631071428,3e-07,2.617801159825854e-08,0.0,139,7,133.55557654350218,335.5088,mp-545481,Ca2Cu(BrO)2,https://materialsproject.org/materials/mp-545481,-45.308376664438704,-3.6916940080323104,-5.088581467383563,-2.539175994169905
-5.449919357142859,-76.29887099999999,3.3364362833489447,-0.597977468877143,0.00689515,0.00035752034878439384,0.0,176,14,224.76070240403232,451.6002,mp-1246500,Ca3CuN3,https://materialsproject.org/materials/mp-1246500,5.440842798769995,4.4794722287311135,-4.673883417111698,-1.6202777647610458
-5.659999366666668,-815.0399087999999,5.5767843153675045,-1.936926194305556,2.2559998375,0.012842098600589637,0.0,1,144,2047.295309810344,6875.673559999999,mp-1099812,Ba2Sr2CoCu3O10,https://materialsproject.org/materials/mp-1099812,-49.30580521828136,1.5497661804225966,-8.604250342815693,-0.5045126942092143
-5.833461032567568,-431.67611641,5.042873267941359,-2.0763209542905403,0.01457145,0.00016732472159288869,0.0,9,74,1014.8926023214259,3082.1165,mvc-15173,Sr6YGa3(Cu2O7)3,https://materialsproject.org/materials/mvc-15173,-47.35222819762042,-4.7306985564246435,-4.825682863750936,-0.8904730434918977
-6.210962629230768,-80.74251418,5.607549394094501,-2.2326338585576933,9.800000000000001e-06,6.804767196676512e-07,0.0,47,13,167.8379751578654,566.7796500000002,mp-985569,Sr2YCu3O7,https://materialsproject.org/materials/mp-985569,-47.37102034121714,0.752059813099619,-8.604250342815693,-0.5045126942092143
-7.154249804444443,-128.77649648,6.331393642840903,-2.8708234058796287,1.5e-07,7.539219080067729e-09,0.0,100,18,231.8688046226997,884.082,mp-1214336,BaSmCuBO5,https://materialsproject.org/materials/mp-1214336,-47.93733628651132,-5.563786664078148,-8.604250342815693,-0.5045126942092143
-6.008773155555557,-108.15791680000001,4.125504768281176,-0.52285247828,1.02064085,0.050317832558213815,0.0,15,18,236.3896449963189,587.2952,mp-1246169,Ca3(NiN2)2,https://materialsproject.org/materials/mp-1246169,0.8625895160333955,9.743919691933122,-8.604250342815693,-0.5045126942092143
-5.408737084444443,-97.35726752,6.8194637105699645,-1.8798690185144442,7e-07,2.7049820561773264e-08,0.0,6,18,301.5859318608727,1238.5462,mp-1218799,Sr3Cu3Pb3ClO8,https://materialsproject.org/materials/mp-1218799,-46.913535826396654,-4.023796002586469,-8.604250342815693,-0.5045126942092143
-6.778868321071428,-189.80831299,4.386909876644547,-2.6612574592442857,13.999993,0.4772342692238608,0.0,6,28,341.8799440005193,903.1985800000001,mp-1218239,SrCa5Mn4(GaO8)2,https://materialsproject.org/materials/mp-1218239,-31.942997198152646,-9.17913888348408,-8.604250342815693,-0.5045126942092143