energy_per_atom,energy,density,formation_energy_per_atom,total_magnetization_uB,total_magnetization_T,band_gap,sgr,num_sites,cell_volume,weight,mp_id,formula,URL,tsne_cry_lin1_0,tsne_cry_lin1_1,tsne_cry_lin2_0,tsne_cry_lin2_1
-6.960714051749999,-278.42856207,4.026873723331201,-1.990547939288,10.000000025,0.26387873198800305,0.4556,9,40,441.6447174008968,1071.00614,mp-1176672,LiMn3O6,https://materialsproject.org/materials/mp-1176672,-67.26757926302179,-37.760896805956286,2.7714515784502356,-0.6723307354019673
-7.966066409,-79.66066409,12.326833578620429,0.3882704995833336,0.01061375,0.0005628732735039802,0.0,127,10,219.75342550862962,1631.316,mp-19825,Pu2InPd2,https://materialsproject.org/materials/mp-19825,22.242624483344564,55.368207899752385,-8.604250342815693,-0.5045126942092143
-8.438826441,-84.38826441,15.04111094983619,-0.2893809371666677,0.036532,0.001969587248778692,0.0,127,10,216.16015971628002,1957.9720000000002,mp-647347,Np2InPt2,https://materialsproject.org/materials/mp-647347,22.30291397826901,55.044520710675144,-8.604250342815693,-0.5045126942092143
-9.500122655,-19.00024531,13.277645060548597,-0.8495397899999997,1.4e-06,4.6361798975669405e-07,0.0,221,2,35.1921000523427,281.3955,mp-11457,HfRh,https://materialsproject.org/materials/mp-11457,39.46775337179115,60.63611089958763,-8.604250342815693,-0.5045126942092143
-6.0503661875,-24.20146475,0.9783521140895541,3.786168267499999,5.9999998,0.08143134814360939,0.0,71,4,858.691252184958,505.9215,mp-1093586,Hf2VTc,https://materialsproject.org/materials/mp-1093586,-62.110610673536776,35.92121013452286,-8.604250342815693,-0.5045126942092143
-7.9283372275,-31.71334891,14.359188187083399,0.7483905981250007,0.0650238,0.010530549394236869,0.0,225,4,71.96125753635316,622.2709699999998,mp-631522,LaOs2Rh,https://materialsproject.org/materials/mp-631522,27.61036577922379,47.7023066795575,-8.604250342815693,-0.5045126942092143
-7.184924008666668,-107.77386013,7.3968148869385395,-0.6803752139166667,0.053504199999999995,0.00201819116912063,0.0,148,15,308.960529579405,1376.25421,mp-1105008,Tm(Mo3Se4)2,https://materialsproject.org/materials/mp-1105008,63.02638480099473,33.064322758537514,-8.604250342815693,-0.5045126942092143
-5.597937725833333,-134.35050542,8.525961759121559,-0.7912576274999997,0.40660935,0.008796574984075569,0.0,62,24,538.6928106230857,2765.8936,mp-1213457,Dy3NiGe2,https://materialsproject.org/materials/mp-1213457,1.6622441062209743,75.75731685201062,-8.604250342815693,-0.5045126942092143
-5.857486145,-23.42994458,10.328292422910238,-0.7826057893750002,1e-07,1.563886569934504e-08,0.0,221,4,74.51988524364508,463.502,mp-2333,NdPd3,https://materialsproject.org/materials/mp-2333,61.280052701931524,49.96286811836134,-8.604250342815693,-0.5045126942092143
-7.195787252000001,-107.93680878,7.329865275998938,-0.6852895955833332,0.1508878,0.005646882499669668,0.0,148,15,311.40300771122804,1374.579,mp-1104287,Er(Mo3Se4)2,https://materialsproject.org/materials/mp-1104287,63.031271014645526,32.992135681925284,-8.604250342815693,-0.5045126942092143
-8.943329315,-35.77331726,16.317233562145482,-0.8810061187499993,0.0001665,2.611303719313801e-05,0.0,225,4,74.30777853527847,730.183,mp-1184155,ErHfIr2,https://materialsproject.org/materials/mp-1184155,39.40327445224985,60.74193585190457,-8.604250342815693,-0.5045126942092143
-8.467762315833333,-101.61314779,8.497705878585707,-0.2532006491666673,4e-07,2.620412241277604e-08,0.0,194,12,177.89666204394857,910.37517,mp-1215796,Zr2Co3Mo,https://materialsproject.org/materials/mp-1215796,61.71872921733781,64.31876899946968,-8.604250342815693,-0.5045126942092143
-9.0611401825,-72.48912146,13.408967676744814,0.6938163690624997,0.038759825,0.0026022955067533915,0.0,62,8,173.5811747554484,1401.68,mp-1079174,PuPd,https://materialsproject.org/materials/mp-1079174,21.89514244858289,55.64776240302341,-8.604250342815693,-0.5045126942092143
-9.045250685769233,-235.17651783,9.749949354248916,-0.040673917980768685,3.1631109,0.11497679293876473,0.0,227,26,320.61338961700244,1882.4997399999997,mp-1193869,Co6Mo6C,https://materialsproject.org/materials/mp-1193869,55.620166427210805,60.28223852359658,-8.604250342815693,-0.5045126942092143
-6.286816765,-25.14726706,1.2436927036528589,3.784367488333333,0.0,0.0,0.2038000000000002,71,4,810.2028062688826,606.817,mp-1097138,HfTiOs2,https://materialsproject.org/materials/mp-1097138,-60.89651032292704,35.18563336201567,-8.604250342815693,-0.5045126942092143
-3.75635418,-15.02541672,0.7586165458597769,3.20238112125,7.0000003,0.1416039431888072,0.027099999999999902,71,4,576.1030029747468,263.192409,mp-1097375,MnBe2Os,https://materialsproject.org/materials/mp-1097375,8.232428982965642,24.617774887447638,-8.604250342815693,-0.5045126942092143
-7.486648339999999,-89.83978008,11.433928629056954,-0.2185033045833329,0.7089486,0.05467721106421404,0.0,156,12,151.10743112175737,1040.4763400000004,mp-1218043,Ta3SiNi8,https://materialsproject.org/materials/mp-1218043,28.315037965898984,72.42749705254779,-8.604250342815693,-0.5045126942092143
-5.4421250720000005,-54.42125072,9.008890954574131,-0.36755614000000064,1.5e-07,7.839472180000897e-09,0.0,12,10,222.98819049878358,1209.7736,mp-7281,Dy3Ni2,https://materialsproject.org/materials/mp-7281,2.1237599147789656,58.93009396475899,-8.604250342815693,-0.5045126942092143
-7.361330748333334,-176.67193796,8.072712103356835,-0.15197172958333385,1.6150696000000002,0.05714746528509436,0.0,160,24,329.36063982353744,1601.18706,mp-1216240,YZrCo6,https://materialsproject.org/materials/mp-1216240,61.07997562548621,64.70055626402093,-8.604250342815693,-0.5045126942092143
-7.2389658734285725,-253.36380557,7.1574795400792715,-2.209626116285716,2.9999495,0.08034867237995102,0.0,12,35,435.1236274581165,1875.5286,mp-1222771,Li3(WO3)8,https://materialsproject.org/materials/mp-1222771,-17.670487717092378,1.7781240937209002,-8.604250342815693,-0.5045126942092143
-7.18857687,-28.75430748,12.3488906776163,-0.7724031999999994,2.23e-05,3.4891716272536056e-06,0.0,225,4,74.48347980309646,553.9095,mp-865601,Lu2RuRh,https://materialsproject.org/materials/mp-865601,19.15302254365604,52.67586173273482,-8.604250342815693,-0.5045126942092143
-8.44886555125,-135.18184882,4.741278158746273,-1.4694162384374998,5.5e-07,2.866767648121364e-08,0.0,193,16,223.5875526608592,638.4016,mp-554032,Ti3O,https://materialsproject.org/materials/mp-554032,-6.234485490919383,19.7755498695158,-8.604250342815693,-0.5045126942092143
-8.2059777574,-820.59777574,4.553156363319577,-1.2265284445875,0.038169348,0.0003056903008679212,0.0,1,100,1455.1592008493833,3990.01,mp-1244956,Ti3O,https://materialsproject.org/materials/mp-1244956,-6.192326802101709,19.67394531602437,-8.604250342815693,-0.5045126942092143
-8.109714968333334,-97.31657962,10.653215750112551,-1.0622887557142855,3e-07,2.0911294686118577e-08,0.0,62,12,167.19287276309976,1072.628648,mp-1102032,HfNiP,https://materialsproject.org/materials/mp-1102032,18.552291825736503,28.684229666651103,-8.604250342815693,-0.5045126942092143
-8.117071417,-81.17071417,7.264867715427095,-0.5465837736666657,6.9732248,0.6770499479722032,0.0,123,10,120.03015986666328,525.13263,mp-1224503,GdY(CoB)4,https://materialsproject.org/materials/mp-1224503,7.391062064139347,39.529248691890416,-8.604250342815693,-0.5045126942092143
-10.08422971,-40.33691884,17.779601487180066,-0.3805527575000003,0.00020990000000000003,3.556835935022905e-05,0.0,225,4,68.77427692611654,736.3748800000002,mp-866127,LuTaOs2,https://materialsproject.org/materials/mp-866127,41.36127177954571,58.954556454573186,-8.604250342815693,-0.5045126942092143
-8.659159982,-86.59159982,12.990818516076114,0.006329129833332559,0.04775945,0.002739868776726573,0.0,127,10,203.14539460054274,1589.2579999999998,mp-647240,Np2InRh2,https://materialsproject.org/materials/mp-647240,17.908821948024187,52.13558639109771,-8.604250342815693,-0.5045126942092143
-4.552879248333333,-27.31727549,4.351826013068257,-1.8246722175,1.00000025,0.051122862953439874,0.5882999999999998,194,6,227.96195308329703,597.4269400000002,mp-28572,LaBr2,https://materialsproject.org/materials/mp-28572,-31.46529558212407,39.61060256354819,-6.9708131241348665,1.6818509067381393
-8.661053855,-34.64421542,13.175321252501444,-0.4027740562499993,4.14e-05,6.9081501781503124e-06,0.0,225,4,69.84189242295206,554.151,mp-862684,LiHf2Os,https://materialsproject.org/materials/mp-862684,28.098472523664807,44.53880797105999,-8.604250342815693,-0.5045126942092143
-8.161682305833333,-293.82056301,5.742653455669968,-0.7224187558333328,0.008799125,0.0001809084846530832,0.0,62,36,566.8367234875385,1960.295296,mp-1195505,Sc2Si4Mo3,https://materialsproject.org/materials/mp-1195505,51.78506273112882,58.75020483245966,-8.604250342815693,-0.5045126942092143
-7.02728172,-28.10912688,15.136290835006545,-0.8223457333333329,5.6e-06,8.703873266303325e-07,0.0,123,4,74.98128790431298,683.4760000000001,mp-1224456,HfInPt2,https://materialsproject.org/materials/mp-1224456,31.983998833099356,42.11972818065376,-8.604250342815693,-0.5045126942092143
-7.027847368611112,-506.00501054,6.0356870742371225,-0.5985056085911459,0.19152335,0.0013442939366454323,0.0,167,72,1660.3701508372822,6035.073199999999,mp-1204618,K2Mo15Se19,https://materialsproject.org/materials/mp-1204618,63.35279143694014,32.42953626661721,-8.604250342815693,-0.5045126942092143
-5.2884228106896565,-153.36426151,2.677047780951648,-2.036927284376552,5.000000099999999,0.2313905787041885,0.0,1,29,251.82669646501975,405.98389,mp-758672,Li15Mn2O12,https://materialsproject.org/materials/mp-758672,-70.30238814013804,-42.433324437572594,2.5043953113909447,-0.13042527340690133
-5.3535323236842105,-101.71711415,7.171023777014128,-0.3082647871052631,3e-07,6.857375577593794e-09,0.0,204,19,509.84803037355385,2201.7744,mp-542879,Nd12Ni6Sn,https://materialsproject.org/materials/mp-542879,-29.853168200264587,68.68384322405721,-8.604250342815693,-0.5045126942092143
-9.6378053975,-38.55122159,15.20008683337986,-0.6672361849999984,0.023558900000000004,0.0041326901688175524,0.0,225,4,66.43540535457392,608.1301950000002,mp-864835,Hf2CoIr,https://materialsproject.org/materials/mp-864835,31.25832190430072,57.97187684802064,-8.604250342815693,-0.5045126942092143
-5.83710673,-46.69685384,13.393225223597605,-0.9693667208333334,1.6e-06,1.1265781789085974e-07,0.0,194,8,165.51451097836642,1334.9720000000002,mp-1078790,DyInPt2,https://materialsproject.org/materials/mp-1078790,22.78575015307449,51.779238100219146,-8.604250342815693,-0.5045126942092143
-5.736629799999999,-22.946519199999997,8.403267327515378,-0.5602377800000005,1.6e-06,2.588099841787189e-07,0.0,225,4,72.04708000453077,364.5990000000001,mp-861935,CaSnRh2,https://materialsproject.org/materials/mp-861935,32.78293171193908,56.931371304207175,-8.604250342815693,-0.5045126942092143
-5.760424380000001,-40.32297066,6.39456250149558,-0.05993915816285725,0.0010358,0.0001790375327411706,0.0,221,7,67.423182762848,259.6396386,mp-1147771,Al(CuN)3,https://materialsproject.org/materials/mp-1147771,-3.1324923153837663,14.295833584239904,-8.604250342815693,-0.5045126942092143
-6.1354070854166665,-147.24977005,5.359377184041407,-0.4566204974600001,0.0,0.0,0.0928,141,24,291.30156612714376,940.1736,mp-1246502,Li3ReN2,https://materialsproject.org/materials/mp-1246502,2.25165151930354,6.663946250378702,3.4364252780434197,-0.44319074286955534
-3.805103225,-15.220412900000001,0.9066425405011124,2.46861640625,2.7138846,0.05122003323656352,0.0,71,4,617.4886058268838,337.1444,mp-1097160,NiGeRh2,https://materialsproject.org/materials/mp-1097160,7.33691727952466,24.73519857997703,-8.604250342815693,-0.5045126942092143
-8.0961943975,-32.38477759,12.677611062426505,-0.7335149899999998,2e-07,3.290755123924111e-08,0.0,221,4,70.82912178930303,540.75456,mp-2509,ThRh3,https://materialsproject.org/materials/mp-2509,66.97201694042728,52.918018214563,-8.604250342815693,-0.5045126942092143
-7.82888156,-125.26210496,7.671785819687155,-0.34059742556499994,2.7925e-05,1.575880800539553e-06,0.0,33,16,206.51292830162328,954.1016,mp-1245716,MgReN2,https://materialsproject.org/materials/mp-1245716,8.490984087266021,70.21146825063327,-8.604250342815693,-0.5045126942092143
-7.725493251666666,-139.05887853,7.9747836665520175,-0.6761130949999988,6.285e-05,2.409274062126909e-06,0.0,14,18,304.0160446955388,1460.0452799999996,mp-1105923,Ho2Si4Mo3,https://materialsproject.org/materials/mp-1105923,51.844124930999826,58.839416646089106,-8.604250342815693,-0.5045126942092143
-7.553303040789475,-287.02551555,6.477144314500574,-2.2705700942763176,0.036248699999999995,0.0007351493010243938,0.0,183,38,574.6379641964278,2241.44867,mp-766003,LaW9O28,https://materialsproject.org/materials/mp-766003,-17.751502058178,-0.2295530642907781,-8.604250342815693,-0.5045126942092143
-5.282579135714286,-73.9561079,2.642362166744288,-2.183519582207143,3.0,0.2747091052716557,1.2787000000000002,1,14,127.26987801553024,202.5204482,mp-753538,Li7MnO5F,https://materialsproject.org/materials/mp-753538,-48.181179219390174,-48.70846082948123,4.4376855985523775,3.832814392334272
-7.080579165,-28.32231666,8.822525855725438,-0.5062860149999988,0.0007586,0.0001220423564560362,0.0,225,4,72.44020677074136,384.878393,mp-862378,Sc2TcAu,https://materialsproject.org/materials/mp-862378,19.402104767413316,56.8665747292751,-8.604250342815693,-0.5045126942092143
-7.740999485,-30.96399794,13.133959632233159,-0.35144022250000084,1.52e-05,2.3112147126458986e-06,0.0,225,4,76.64445175676208,606.21588,mp-865828,YbPaRu2,https://materialsproject.org/materials/mp-865828,20.894666684744422,55.24890814378668,-8.604250342815693,-0.5045126942092143
-6.326729454166667,-75.92075345,6.762484946796715,-2.439911029036459,1.06e-05,4.705563106335479e-07,0.0,12,12,262.52561871460233,1069.12605,mp-1102847,Tm5S7,https://materialsproject.org/materials/mp-1102847,47.25641160203619,17.873485500644783,-5.836414862827228,-0.5045722192853337
-7.58625412263158,-144.13882833,7.451215472870126,0.09159981584000017,1.6639588,0.11585819878249848,0.0,12,19,167.37601514481713,751.0541599999998,mp-1246348,Fe3(CoN)8,https://materialsproject.org/materials/mp-1246348,2.6618180667998232,16.369203983387198,-8.604250342815693,-0.5045126942092143
-9.92840007375,-79.42720059,14.54767732074002,-0.03445785749999963,0.00010125,7.81307457071344e-06,0.0,223,8,151.0255722689104,1323.1072800000004,mp-30871,Ta3Sn,https://materialsproject.org/materials/mp-30871,32.22203582817655,52.916775635452225,-8.604250342815693,-0.5045126942092143
-7.6668361175,-30.66734447,9.201806775741623,-0.9900753799999996,3.229999999999999e-05,5.368566907435221e-06,0.0,225,4,70.11671804487428,388.548824,mp-862336,Sc2IrPd,https://materialsproject.org/materials/mp-862336,21.03191548737268,52.912468039880686,-8.604250342815693,-0.5045126942092143
-9.031275340714286,-252.87570954,9.422884254565158,-0.010920229107142632,0.9446399,0.03276701303028383,0.0,227,28,335.9749199955976,1906.52114,mp-1194380,Co3Mo3C,https://materialsproject.org/materials/mp-1194380,57.71578843112385,49.33644757927991,-8.604250342815693,-0.5045126942092143
-5.1057538025,-20.42301521,13.31090541597661,-0.5979968287499995,0.00021339999999999998,3.864853304942013e-05,0.0,225,4,64.34855934335525,515.819,mp-1185434,LiSnPt2,https://materialsproject.org/materials/mp-1185434,32.61297877276058,37.96554742371424,-8.604250342815693,-0.5045126942092143
-6.3477804183333335,-38.08668251,14.988988787869765,-0.6376252350000003,0.0075596000000000005,0.0008081747404233559,0.0,187,6,109.01116262120705,983.998,mp-1226665,CeCuPt4,https://materialsproject.org/materials/mp-1226665,24.04158498483121,52.98015302691138,-8.604250342815693,-0.5045126942092143
-8.622386437000001,-86.22386437,7.034563204846848,-0.07072016374999919,0.2781915,0.02853732882632185,0.0,63,10,113.60775144396744,481.27799999999985,mp-29804,Cr3GeC,https://materialsproject.org/materials/mp-29804,45.35620163736147,64.35909330154989,-8.604250342815693,-0.5045126942092143
-8.0750077925,-32.30003117,12.132680978080915,-0.3796934108333332,3.2e-06,4.97232360449795e-07,0.0,225,4,75.0011669362305,547.99388,mp-1186458,PaInRu2,https://materialsproject.org/materials/mp-1186458,21.041080107823085,53.64573592930147,-8.604250342815693,-0.5045126942092143
-7.7837346225,-62.26987698,10.543171342390373,-0.5215069762499995,1.0242933,0.08540587808245559,0.0,129,8,139.77001035893687,887.4342200000001,mp-1087511,UFeAs2,https://materialsproject.org/materials/mp-1087511,45.113506528906726,50.71407083495079,-8.604250342815693,-0.5045126942092143
-5.796038786875,-185.47324118,4.220536867456051,-1.8606898234974996,22.0000003,0.9013211139527288,0.3735,2,32,284.4595832978339,723.001465,mp-1232429,Li9Mn2Co5O16,https://materialsproject.org/materials/mp-1232429,-72.58917445576427,-51.64670785623887,3.863367192131272,4.240422335672195
-8.457707889444443,-304.47748402,7.598984585647035,-3.4929969037500004,7.0000012,0.1762751853136222,0.3349000000000002,33,36,462.7904219624232,2117.828728,mp-1220624,Nd2EuBeO5,https://materialsproject.org/materials/mp-1220624,-11.51108400362465,53.30308358616315,-8.604250342815693,-0.5045126942092143
-11.65055955625,-186.4089529,15.843995278440905,-0.4218917480468747,14.31554965,0.4408930353025668,0.0,193,16,378.40094879567033,3610.5040000000004,mp-669556,Pu5Pt3,https://materialsproject.org/materials/mp-669556,21.905260061850637,56.022124759536716,-8.604250342815693,-0.5045126942092143
-7.0039542875,-28.01581715,1.1703157747353916,4.995999038125,10.065440800000001,0.13645057057728452,0.0,71,4,859.6761343780927,605.8831,mp-1093584,CrReW2,https://materialsproject.org/materials/mp-1093584,-58.301485757176245,35.204942195858884,-8.604250342815693,-0.5045126942092143
-4.57950015,-18.3180006,0.956204401483816,2.4958905274999994,3.0,0.04815075909493592,0.07569999999999988,71,4,726.0985075800413,418.11638999999997,mp-1097490,HfCo2Sb,https://materialsproject.org/materials/mp-1097490,-63.83247160722188,37.41501605906076,-1.0885025314024592,-0.3858887559939248
-6.17537339,-148.20896136,10.457035269251767,-0.5601688061111112,0.0002877,1.1027165101626684e-05,0.0,194,24,304.05588418829615,1914.7536,mp-865190,Lu3Ni7B2,https://materialsproject.org/materials/mp-865190,30.30932641698854,85.04522302456431,-8.604250342815693,-0.5045126942092143
-8.64545282,-60.51816974,7.9588807593094195,-0.2406235230357134,4e-06,4.2265576326133966e-07,0.0,12,7,110.29367902269594,528.6321,mp-13264,Sm2Mo2C3,https://materialsproject.org/materials/mp-13264,-14.71037329250659,32.82152264056062,-8.604250342815693,-0.5045126942092143
-5.957654030357142,-166.81431285,5.045292550592227,-1.8173705439285717,0.0,0.0,0.06899999999999995,59,28,271.42264064919976,824.6759599999999,mp-770890,Mg(CoO2)2,https://materialsproject.org/materials/mp-770890,-75.08127254401899,-24.543869422813287,-8.604250342815693,-0.5045126942092143
-7.5353097325,-90.42371679,6.122623151229612,-0.06774579541666625,0.3089215,0.023606337134313947,0.0,123,12,152.5095210727587,562.3224157999999,mp-1228973,Al3ZnCr8,https://materialsproject.org/materials/mp-1228973,51.86465878352818,54.11857957917938,-8.604250342815693,-0.5045126942092143
-5.428228886666667,-81.4234333,9.406830193838696,-0.3700892236666666,0.00029330000000000003,1.054350241517629e-05,0.0,148,15,324.19371316989503,1836.53328,mp-1104814,Ho3Ni2,https://materialsproject.org/materials/mp-1104814,2.1687019520280706,58.96516910271365,-8.604250342815693,-0.5045126942092143
-7.223478995428572,-252.82176484,7.1801192873510775,-2.1941392382857154,2.9996221000000003,0.08059402580669629,0.0,47,35,433.75163229154634,1875.5286,mp-1222776,Li3(WO3)8,https://materialsproject.org/materials/mp-1222776,-17.517506657821137,1.6837198346294189,-8.604250342815693,-0.5045126942092143
-7.173277855,-28.69311142,11.356168080599888,-0.3960661350000008,0.0001636,2.6713244103628746e-05,0.0,225,4,71.37302341095184,488.10900000000004,mp-866285,ErSnRu2,https://materialsproject.org/materials/mp-866285,42.33108266745274,58.664397366354216,-8.604250342815693,-0.5045126942092143