energy_per_atom,energy,density,formation_energy_per_atom,total_magnetization_uB,total_magnetization_T,band_gap,sgr,num_sites,cell_volume,weight,mp_id,formula,URL,tsne_cry_lin1_0,tsne_cry_lin1_1,tsne_cry_lin2_0,tsne_cry_lin2_1
-10.1480908625,-40.59236345,10.124038608507774,0.6808468831249996,6.491011599999999,0.7182779284129059,0.0,225,4,105.31671186525787,642.0989999999998,mp-1006150,Eu3Re,https://materialsproject.org/materials/mp-1006150,-10.7311318877003,51.5255165593755,-8.604250342815693,-0.5045126942092143
-5.875339437857143,-82.25475213,4.608871838320074,-0.7376630667342852,7.52e-05,2.4375171683680248e-06,0.19280000000000008,176,14,359.54030694407373,997.914024,mp-1245831,Ba3ScN3,https://materialsproject.org/materials/mp-1245831,7.092686844136878,3.202071831204976,-6.263732282939526,-3.71076489214546
-5.710439916666666,-34.2626395,6.487215718606127,-0.5574623616666662,0.98461435,0.09671810621047544,0.0,194,6,118.64127473630104,463.495,mp-22740,CeCuSi,https://materialsproject.org/materials/mp-22740,-3.6723672134962495,58.57237594958258,-8.604250342815693,-0.5045126942092143
-6.975895517222222,-502.26447724,4.0651792957292185,-2.538746289796668,16.0000043,0.1942165476531373,0.13629999999999987,1,72,960.0885646801449,2350.40072,mp-1247699,SrCa3Mn4O10,https://materialsproject.org/materials/mp-1247699,-30.700784124010816,-10.947192846974547,-8.604250342815693,-0.5045126942092143
-3.8330385375,-15.33215415,10.97206914373478,-0.5247167341666663,0.0,0.0,0.0,225,4,84.27556336959951,556.8537,mp-866206,Yb2AgRh,https://materialsproject.org/materials/mp-866206,13.358579929369828,48.41770669960555,-8.604250342815693,-0.5045126942092143
-8.692888904,-86.92888904,6.5050736964704665,-0.475721742750001,9.699999999999999e-06,9.324037995645157e-07,0.0,63,10,121.2397765288248,474.9504,mp-1079313,V3GeC,https://materialsproject.org/materials/mp-1079313,53.575516674727716,50.73527269053886,-8.604250342815693,-0.5045126942092143
-3.896948745,-31.17558996,3.3219406423768185,-0.5656907655357144,0.0,0.0,0.0,194,8,108.37361481389758,216.803524,mp-12029,Li2CuP,https://materialsproject.org/materials/mp-12029,26.89005873243439,18.21391025047329,-8.604250342815693,-0.5045126942092143
-6.61154394,-26.44617576,12.039364505288,-0.6483011474999998,5e-07,7.335791573211466e-08,0.0,225,4,79.43290547619642,575.9104,mp-864886,Dy2NiIr,https://materialsproject.org/materials/mp-864886,15.224558591108488,47.719409973272285,-8.604250342815693,-0.5045126942092143
-5.365681595000002,-32.19408957,7.90565238656333,-0.6683413850000003,1e-07,1.0715685073077369e-08,0.0,194,6,108.75706679585008,517.781,mp-8122,ErCuSi,https://materialsproject.org/materials/mp-8122,-4.7172588254010615,56.91251446955381,-8.604250342815693,-0.5045126942092143
-4.521930775357143,-126.61406171,4.038047238820221,-1.6446928988690481,0.000235175,3.652409137460887e-06,0.0,62,28,750.3936661356784,1824.784,mp-541277,CaYbInS4,https://materialsproject.org/materials/mp-541277,-10.153367020230453,13.114524487576046,-8.604250342815693,-0.5045126942092143
-2.0658210440909093,-45.44806297,9.225044853552626,-0.3084073722727273,1.4000000000000001e-05,2.2688961588090767e-07,0.0,2,22,719.1025740969797,3994.9398,mp-570438,Yb8Tl3,https://materialsproject.org/materials/mp-570438,-42.446304704812796,51.241960232138794,-8.604250342815693,-0.5045126942092143
-2.5852707975,-10.34108319,7.741661770720245,-0.06484646987499998,0.008572399999999999,0.0008461242984800935,0.0,225,4,118.07166516284737,550.46636928,mp-1186187,NaTl2Sn,https://materialsproject.org/materials/mp-1186187,-36.83709788604904,47.439252805084685,-8.604250342815693,-0.5045126942092143
-3.787976330454545,-333.34191708,7.453912204419563,-0.4136865034090901,5.675e-06,3.17777797835563e-08,0.0732999999999997,14,88,2081.2283940144666,9342.324,mp-1182665,LiYb8Ge13,https://materialsproject.org/materials/mp-1182665,-2.5731035278031262,52.43037028442874,-8.604250342815693,-0.5045126942092143
-5.9096933429545455,-260.02650709,3.149690016849465,-0.8150250333654544,4.00000085,0.059060337028885974,0.3523999999999998,130,44,789.2990683983763,1497.13276,mp-569383,Ca5(CoN2)2,https://materialsproject.org/materials/mp-569383,6.701844759694378,8.114833784641355,-8.604250342815693,-0.5045126942092143
-5.6193323525,-22.47732941,11.586669350142927,-0.6634480574999992,5.6e-06,8.293347466037591e-07,0.0,225,4,78.69290777167406,549.092,mp-861964,LiLu2Ir,https://materialsproject.org/materials/mp-861964,8.16208371482447,43.36169930633859,-8.604250342815693,-0.5045126942092143
-6.271077105972222,-903.03510326,4.228295202843706,-2.2961313134722223,28.499999925,0.1833083732106175,0.0,1,144,1811.924023581146,4613.77268,mp-1099745,SrCa7Fe2(Co3O10)2,https://materialsproject.org/materials/mp-1099745,-32.78108232975982,-16.205858279517376,-8.604250342815693,-0.5045126942092143
-6.877751544166667,-82.53301853,6.773215816076945,-0.9781360049999996,1.2975e-05,5.713120992286542e-07,0.0,198,12,264.67405578862633,1079.58588,mp-1103155,LaSiRh,https://materialsproject.org/materials/mp-1103155,7.748202931537503,45.945354363080035,-8.604250342815693,-0.5045126942092143
-5.9263861464285705,-82.96940605,4.604068683895304,-1.7861026599999994,3.99999985,0.31345612963848124,0.5904000000000003,141,14,148.71700673358356,412.33797999999996,mvc-10891,Mg(CoO2)2,https://materialsproject.org/materials/mvc-10891,-34.61939822697309,-34.74474548488536,5.088230430656443,-0.2990910466686339
-5.77891443375,-46.23131547,9.43785691635615,-0.6640830537499998,9.5e-07,1.0158218812564128e-07,0.0,67,8,108.98920114063864,619.4521543999999,mp-1079890,Al2CuIr,https://materialsproject.org/materials/mp-1079890,34.16976960576612,66.93195333290454,-8.604250342815693,-0.5045126942092143
-3.3085732533333334,-9.92571976,7.408002285926648,-0.10794919833333337,4e-07,7.006152652152281e-08,0.0,216,3,66.53617385273259,296.8314000000001,mp-30449,MgCuBi,https://materialsproject.org/materials/mp-30449,2.8254080732705225,39.57731819336111,-8.604250342815693,-0.5045126942092143
-5.020346878,-50.20346878,5.814082231091615,0.09177159504800016,0.98354925,0.09214851713973046,0.0,12,10,124.3899199063773,435.52919,mvc-2146,Zn2CoN2,https://materialsproject.org/materials/mvc-2146,0.8832994206083843,8.004429118258027,-8.604250342815693,-0.5045126942092143
-6.8712049690909085,-75.58325466,8.595185230866019,-0.9001407699999995,1.2258423999999999,0.0658749441156281,0.0,71,11,216.86616850063976,1122.5300000000002,mp-1206300,Ce3(GeRh)4,https://materialsproject.org/materials/mp-1206300,10.581552647065301,63.79550457550952,-8.604250342815693,-0.5045126942092143
-4.3784683766666666,-52.54162052,3.2185191843160084,-1.2331211155833337,0.0,0.0,1.1815000000000002,119,12,244.84862064529406,474.5748,mp-1103519,KCuO,https://materialsproject.org/materials/mp-1103519,13.185805491178998,-16.294789346942533,6.965035639643934,-4.831499116838568
-4.0722826450000005,-24.43369587,2.843574756605575,-1.3490726407500002,0.0,0.0,1.5182,107,6,105.476721559704,180.62263856,mp-545359,KNa2CuO2,https://materialsproject.org/materials/mp-545359,15.343664928316256,-18.167989416573352,7.618704670522113,-2.8030987189026995
-6.071729485,-170.00842558,4.346406779111938,-1.8745945935714283,7.9998652,0.2748792191413914,0.9284,59,28,339.1705910099752,887.76796,mvc-11997,Ca(CoO2)2,https://materialsproject.org/materials/mvc-11997,-34.65904594375041,-34.8048250690036,6.4879876615456284,-1.1067252462206818
-3.825219551111111,-34.42697596,9.502725760781015,-0.6767636227777779,3.8933333333333336e-05,2.2276741863116213e-06,0.0,189,9,203.6795107948758,1165.591707,mp-1205975,ErMgAu,https://materialsproject.org/materials/mp-1205975,-14.298985850684574,45.37197203879352,-8.604250342815693,-0.5045126942092143
-4.5841732291304345,-105.43598427,4.577560286467175,-1.1452806725000004,4.9999986,0.2437135256445813,0.0,2,23,239.09344954488103,659.1020464,mp-765679,Na5(NiO2)6,https://materialsproject.org/materials/mp-765679,-64.52063471058966,-23.488033491155928,0.6723995522910504,-2.3257258063994177
-6.0113782032500005,-240.45512813,4.636999930096653,-2.023556384125,25.1262638,0.6699544114272906,0.0,160,40,437.0791516900125,1220.528965,mp-1076861,SrCa7FeCo7O24,https://materialsproject.org/materials/mp-1076861,-52.80291973419596,3.2545313764595285,-8.604250342815693,-0.5045126942092143
-7.218469702,-144.36939404,4.98056214231325,-2.648341767567,13.0000024,0.6719879600135925,0.0,6,20,225.45473881699746,676.2209799999999,mp-1227759,Ca3NdMn4O12,https://materialsproject.org/materials/mp-1227759,-33.108618303548944,6.165930572425661,-8.604250342815693,-0.5045126942092143
-6.2029612725,-173.68291563,3.72773978080419,-2.156858410663265,0.9999998999999999,0.039529850329405036,0.2124999999999999,62,28,294.81679060353326,661.8334480000001,mp-758828,LiCuPO4,https://materialsproject.org/materials/mp-758828,-57.05833012653486,-15.027304419087598,1.7486455850280396,-2.015037342295689
-7.0855841844444445,-127.54051532,4.76061205410957,-2.745912558169258,12.0000151,0.5843674937576313,0.0,38,18,239.3167907883276,686.0991350000003,mp-1208718,Sr4Mn3BO10,https://materialsproject.org/materials/mp-1208718,-30.162027345562873,-9.23079415165199,-8.604250342815693,-0.5045126942092143
-4.089670255833333,-147.22812921,4.1862234818176285,-0.6889624794097221,1.5e-07,3.0246096866689487e-09,0.009999999999999787,62,36,577.9620833685732,1457.044,mp-766453,Li2Cu4S3,https://materialsproject.org/materials/mp-766453,16.896399010061835,-1.896253963014772,-4.626958336320022,-1.4849379792377642
-5.8185332800000005,-34.91119968,10.382412700112653,-0.12353596000000047,1.2538031,0.15518513745924345,0.0,74,6,94.15787348368777,588.716,mp-1222314,LuFeCu,https://materialsproject.org/materials/mp-1222314,39.39609457712997,74.39168215263336,-8.604250342815693,-0.5045126942092143
-6.40457458,-32.022872899999996,7.698191519965673,-0.5371722150000003,6.8707463,0.7793575239864793,0.0,107,5,102.74119380595594,476.304,mp-1068422,EuGe3Pd,https://materialsproject.org/materials/mp-1068422,8.166303412922096,64.3694238714168,-8.604250342815693,-0.5045126942092143
-6.898753971428572,-96.58255559999999,5.5112209187360905,-2.063749172142857,1.0,0.07142428034451374,0.0,166,14,163.1667090847331,541.53968,mvc-15446,Y(CoO2)2,https://materialsproject.org/materials/mvc-15446,-0.8735657964740777,-39.04798375022526,-4.529273638145243,-0.8320851678773338
-6.058580144583334,-145.40592347,5.146242759770545,-2.3917070946875008,6.3e-05,1.9141054022553045e-06,0.2557999999999998,5,24,383.57662007859057,1188.7576,mvc-10810,Sr2GaSn2O7,https://materialsproject.org/materials/mvc-10810,1.3618907831848834,-27.00940419578323,2.505212537830231,-3.616931360628648
-5.28345993,-21.13383972,9.949055888608484,-0.660134505416667,2.01e-05,2.5127206496221367e-06,0.0,225,4,93.22433115025177,558.55,mp-1183243,AcSnPd2,https://materialsproject.org/materials/mp-1183243,27.22025053465724,40.27642874452377,-8.604250342815693,-0.5045126942092143
-4.46673189,-13.40019567,9.053950424527585,-0.6552517033333339,0.0,0.0,0.0,216,3,64.83242822847286,353.4934,mp-568931,YbNiSb,https://materialsproject.org/materials/mp-568931,21.296582460758177,25.17812462687357,-8.604250342815693,-0.5045126942092143
-4.4192100144444435,-79.54578026,3.8814402948543583,-2.321974471942759,5.00000025,0.21153869755948806,0.0,74,18,275.459419239017,643.8748284,mp-1219629,RbCoCuF6,https://materialsproject.org/materials/mp-1219629,-62.614180636854094,-14.376237835358829,-8.604250342815693,-0.5045126942092143
-6.892718262222222,-868.48250104,4.047100980618938,-2.0683708860679366,7.0009693111111115,0.061097625969677535,0.0,70,126,1335.3996743324217,3254.66442,mp-641353,LiMn2O4,https://materialsproject.org/materials/mp-641353,-67.4686719481175,-37.79454773443,2.1166646495867933,-1.7668616127489405
-4.55920640875,-36.47365127,3.037415841367445,0.19152474791666665,0.483536825,0.03570535976823675,0.0,187,8,157.82418984280534,288.688,mp-1094341,MgTi,https://materialsproject.org/materials/mp-1094341,-17.503778562576144,38.85050830264167,-8.604250342815693,-0.5045126942092143
-4.916665945,-49.16665945,3.1770514363527744,-0.6004046578660721,1.9850082999999998,0.1190676904793636,0.0,12,10,194.28793158861183,371.724324,mp-676040,NiPS3,https://materialsproject.org/materials/mp-676040,17.162247071847858,5.621106631201013,-8.604250342815693,-0.5045126942092143
-5.87754200125,-47.02033601,7.595183712735909,-0.6508418921549994,0.1493243,0.01459440980116371,0.0,129,8,119.2398382686482,545.39427,mp-644499,CeCoGeH,https://materialsproject.org/materials/mp-644499,20.379322814921718,66.955550786999,-8.604250342815693,-0.5045126942092143
-7.0294851452777785,-253.06146523,3.728467378304292,-2.781894500854446,12.000000300000002,0.306587010554249,0.0,6,36,456.14711632471534,1024.2033472,mp-1247677,Ca4Mn3AlO10,https://materialsproject.org/materials/mp-1247677,-31.11302994401041,-11.435919956756592,-8.604250342815693,-0.5045126942092143
-6.021944523999999,-90.32916786,7.7840949244522,-2.175253092,7.58e-05,4.046893641191355e-06,0.0,139,15,218.2854772283981,1023.255,mp-1208811,Sr2LuCu2(BiO4)2,https://materialsproject.org/materials/mp-1208811,-44.870552910847394,-5.809467325370414,-8.604250342815693,-0.5045126942092143
-4.384981858333333,-26.30989115,7.947285472656528,-0.14780637791666607,8.400000000000001e-06,1.026022284604848e-06,0.0,191,6,95.41132347549684,456.63547000000005,mp-2613,LaCu5,https://materialsproject.org/materials/mp-2613,2.4496326919537528,43.6300241046776,-8.604250342815693,-0.5045126942092143
-5.751397096964285,-322.07823743,4.545344396149106,-0.8128320608414279,0.27992445,0.0029790378440727296,0.0,60,56,1095.070906270603,2997.5052,mp-1247406,Sr7CrN6,https://materialsproject.org/materials/mp-1247406,5.697796948824048,6.850589033668093,-8.604250342815693,-0.5045126942092143
-7.144685952000001,-71.44685952,8.69406693802774,-0.617917654,0.6879664000000001,0.04499529126902933,0.0,115,10,178.18764499171718,932.9351949999999,mp-1227056,Ce2CoGe4Ru3,https://materialsproject.org/materials/mp-1227056,10.892712819589894,64.52357183961502,-8.604250342815693,-0.5045126942092143
-5.077280186,-50.77280186,8.090145771328933,0.07646251799999959,0.0332198,0.0012525966102813464,0.0,227,10,309.07452387606367,1505.8110000000001,mp-1212808,Dy4Rh,https://materialsproject.org/materials/mp-1212808,-30.590370749743194,65.44359976307516,-8.604250342815693,-0.5045126942092143
-5.34701252,-21.38805008,10.7719555504631,-0.6412996693749999,1.84e-05,2.465156614436385e-06,0.0,225,4,86.98627525704897,564.2819999999998,mp-1186317,NdPd2Pb,https://materialsproject.org/materials/mp-1186317,27.55101100319889,40.3854922748208,-8.604250342815693,-0.5045126942092143
-5.041609839166667,-120.99863614,2.2566035675605933,-1.7075670543750003,0.0,0.0,1.0596,39,24,516.6386048345688,702.0904,mp-1224071,K5CuCO5,https://materialsproject.org/materials/mp-1224071,-43.557783469916245,-10.533462272108816,-2.147471603791266,-0.5566095269875103
-5.710283398095237,-119.91595136,5.353550203570432,-1.5147808090773809,5.0000003,0.14313491760590905,1.1272000000000002,2,21,407.1007154204861,1312.485925,mp-560796,La4Mn(Cu3S5)2,https://materialsproject.org/materials/mp-560796,46.9307797743135,-3.51422160714432,-4.830955423694983,-2.849947594860979
-7.0536631483333325,-42.32197889,9.470211276169806,-0.5261274022222212,2.3800000000000003e-05,4.306040070833574e-06,0.0,191,6,64.41341395441944,367.355795,mp-5714,TmCo3B2,https://materialsproject.org/materials/mp-5714,7.793791636043508,39.614673153286,-8.604250342815693,-0.5045126942092143
-4.8730872925,-19.49234917,5.838454520021122,-0.2963654437500001,7.120000000000001e-05,9.51038323203136e-06,0.0,225,4,87.248788146786,306.7667,mp-1187716,Y2ZnCu,https://materialsproject.org/materials/mp-1187716,-8.661881685722033,56.0921271833399,-8.604250342815693,-0.5045126942092143
-4.584214688214286,-128.35801127,9.770888839175324,-0.2044684658333326,0.0,0.0,0.0,62,28,451.77920503818774,2658.34424,mp-21670,ThInCu5,https://materialsproject.org/materials/mp-21670,-7.334098199389015,53.35575888073089,-8.604250342815693,-0.5045126942092143
-5.916559239166666,-70.99871087,4.9557812064803795,-0.02548500583333298,7.244099975,0.2680813092551765,0.0,198,12,314.91643547289885,939.8496,mp-1103210,EuMgNi,https://materialsproject.org/materials/mp-1103210,-23.166039069048505,44.908447092550276,-8.604250342815693,-0.5045126942092143
-3.6926515583333335,-22.15590935,7.1037317702519225,-0.16743118972222248,6e-07,7.312365562839161e-08,0.0,216,6,95.62485359143986,409.08,mp-570769,CaInCu4,https://materialsproject.org/materials/mp-570769,2.804302001130749,40.82017567189599,-8.604250342815693,-0.5045126942092143
-6.0986303203409085,-536.67946819,2.7727211782858427,-1.1770800880354542,1.08214285,0.010375844192962476,0.0,201,88,1215.4541483589487,2029.531,mp-683928,K5CeCu2(NO2)12,https://materialsproject.org/materials/mp-683928,-55.21128763393899,-0.7794831042500836,-8.604250342815693,-0.5045126942092143
-3.966606143333333,-23.79963686,8.488173267873611,-0.3814410016666668,1e-05,8.073618593079868e-07,0.0,156,6,144.34747738205922,737.8606400000001,mp-1223982,Ho2In3Cu,https://materialsproject.org/materials/mp-1223982,-6.618517581898816,53.88350428337484,-8.604250342815693,-0.5045126942092143
-6.948997062777778,-125.08194713,4.78639666715595,-2.5648880745188896,8.00000025,0.36801847880225935,0.0,46,18,253.3365210285776,730.22618,mp-1076718,Sr2Mn2O5,https://materialsproject.org/materials/mp-1076718,-30.55880415613771,-10.748253347712277,-8.604250342815693,-0.5045126942092143
-6.815503160882352,-231.72710747,5.778260520300544,-2.5568135209047065,9.00000145,0.208770390068772,1.0699999999999998,64,34,502.40170465208206,1748.23227,mp-18791,Ba4Mn3O10,https://materialsproject.org/materials/mp-18791,-32.890558587024515,-23.63852264986644,-11.245665952919607,-1.1624802797164142
-5.030235205555557,-271.6327011,3.350387818367888,-1.7596071872633328,1.0000041666666666,0.016491211797226558,0.4439000000000002,31,54,706.6862929456078,1425.8461200000004,mp-1194841,SrCuH3ClO3,https://materialsproject.org/materials/mp-1194841,-53.571318101310865,-15.308261281418373,3.8554945311356494,0.8304876289923887
-6.133715777727272,-134.94174711,2.5511536572992237,-1.281257999103636,0.9999996999999999,0.03910553129125207,0.3385,69,22,298.01567429278936,457.8536,mp-7680,K2CaCu(NO2)6,https://materialsproject.org/materials/mp-7680,-55.074045601391795,-0.8624770316722603,1.9775913366562057,-0.6047692175188443
-7.246917312222222,-65.22225581,5.680570340895348,-2.6890782704166662,1.5620082,0.14801753455608313,0.0,99,9,122.98370455003128,420.71735,mvc-7668,BaYVCuO5,https://materialsproject.org/materials/mvc-7668,-45.37374174123703,-5.176170174214035,-8.604250342815693,-0.5045126942092143
-7.7148181725,-92.57781807,10.750088010040685,-0.9291989708333344,6.9576344,0.28176149737336065,0.0,62,12,287.77786431885886,1863.0320000000002,mp-608517,EuSnPt,https://materialsproject.org/materials/mp-608517,3.881190371565855,48.839064019502146,-8.604250342815693,-0.5045126942092143
-6.37288856325,-254.91554253,4.270778497446918,-2.3578751815000003,3.00097875,0.0894163615797411,0.0,12,40,391.1320044305977,1005.961386,mvc-11911,Al5(NiO4)3,https://materialsproject.org/materials/mvc-11911,-41.105501637799584,-20.114189728832677,-3.3462353026178837,-1.7347426295939268
-8.620046049166666,-103.44055259,1.9674079244511824,-0.10616330408666504,1.25e-07,5.3930099139429255e-09,0.0,15,12,270.11967710344885,320.038,mp-1096909,CrN2,https://materialsproject.org/materials/mp-1096909,-4.856990825239759,9.677625323218,-8.604250342815693,-0.5045126942092143
-7.1889486147222215,-258.80215013,6.159280560103233,-0.045398658611110435,16.88402235,0.28005034829561865,0.0,62,36,702.6146951281042,2606.1423000000004,mp-623463,TbMn5Ge3,https://materialsproject.org/materials/mp-623463,48.043547963137605,44.622265271279204,-8.604250342815693,-0.5045126942092143