energy_per_atom,energy,density,formation_energy_per_atom,total_magnetization_uB,total_magnetization_T,band_gap,sgr,num_sites,cell_volume,weight,mp_id,formula,URL,tsne_cry_lin1_0,tsne_cry_lin1_1,tsne_cry_lin2_0,tsne_cry_lin2_1
-5.62811801875,-45.02494415,8.332988205805576,-0.19388237145833376,2.05176305,0.1591731341965688,0.0,51,8,150.22245810097309,753.8527799999998,mp-1078606,NdInCo2,https://materialsproject.org/materials/mp-1078606,41.32217928129549,79.00731889572405,-8.604250342815693,-0.5045126942092143
-7.703061201904762,-161.76428524,7.908806372235272,-0.04389711964285782,29.7338868,1.267727407870514,0.0,8,21,273.3400260622522,1301.8624,mp-1219412,Sm2Ga2Fe15C2,https://materialsproject.org/materials/mp-1219412,56.60654747070932,74.9304885323856,-8.604250342815693,-0.5045126942092143
-6.075754036666668,-36.45452422,8.373585709306957,-0.21748540458333449,2.3271256,0.3161264270017348,0.0,65,6,85.7899566749382,432.61226500000004,mp-1222949,LaCoNi4,https://materialsproject.org/materials/mp-1222949,29.326920511609178,80.3790297528983,-8.604250342815693,-0.5045126942092143
-9.123279006029412,-620.38297241,8.063189308216176,-0.10663336642156863,16.96455545,0.21677777362262216,0.0,136,68,912.0216743076128,4428.5639999999985,mp-1198327,Gd2Fe14B,https://materialsproject.org/materials/mp-1198327,56.27092236090114,77.85679942990738,-8.604250342815693,-0.5045126942092143
-8.099420285441179,-550.76057941,7.329793027765223,-0.07891213862745036,31.47377355,0.3945943831344365,0.0,136,68,929.5555417564316,4103.1554,mp-1220544,NdYFe14B,https://materialsproject.org/materials/mp-1220544,56.26244199317493,77.85298806794181,-8.604250342815693,-0.5045126942092143
-7.972288436176472,-542.11561366,7.692088233530668,-0.05082162436274603,31.185483825,0.3905086673729253,0.0,136,68,930.6775465577293,4311.162599999999,mp-1219983,PrNdFe14B,https://materialsproject.org/materials/mp-1219983,56.251535697711475,77.85931749596149,-8.604250342815693,-0.5045126942092143
-6.879703156666667,-82.55643788,8.241531346631112,-0.2055205756944455,3.24686345,0.24361446717835805,0.0,191,12,155.32393208098497,770.8984999999999,mp-1095566,LaCo4B,https://materialsproject.org/materials/mp-1095566,42.38889677817228,83.25011960871066,-8.604250342815693,-0.5045126942092143
-7.777496929473684,-295.54488332,8.10815307275259,-0.12555145065789475,55.224813100000006,1.2987671702286256,0.0,2,38,495.54189825002226,2419.65378,mp-1224868,Ho4Fe29Si5,https://materialsproject.org/materials/mp-1224868,51.03110319455742,70.19602443756999,-8.604250342815693,-0.5045126942092143
-6.328223848333334,-37.96934309,7.394271996650603,-0.16626351583333351,4.313814900000001,0.5546390826588496,0.0,187,6,90.64178820654007,403.6219686,mp-1219821,PrAlCo4,https://materialsproject.org/materials/mp-1219821,40.76535731396577,77.77991844030875,-8.604250342815693,-0.5045126942092143
-7.8536057633333325,-47.12163458,8.925263547431955,-0.2442282066666669,3.2083477000000005,0.4487249304980517,0.0,187,6,83.32563975706104,447.8686,mp-1224630,GdFeNi4,https://materialsproject.org/materials/mp-1224630,29.75199828409548,80.86128001473293,-8.604250342815693,-0.5045126942092143
-7.993434228970589,-543.55352757,7.865787494156269,-0.07879558259803918,31.185640075,0.3936421892145497,0.0,136,68,923.2736717905386,4373.444,mp-1196306,Sm2Fe14B,https://materialsproject.org/materials/mp-1196306,56.26377518014717,77.88832386420661,-8.604250342815693,-0.5045126942092143
-7.898369105,-63.18695284,6.219231225065428,0.029638311250000268,6.7521402,0.6934835056820091,0.0,194,8,113.47044104072279,424.981824,mp-1186986,ScFe3,https://materialsproject.org/materials/mp-1186986,51.98394373740046,72.8157254263451,-8.604250342815693,-0.5045126942092143
-8.032244465588235,-546.19262366,7.466772033012173,-0.057220252450979864,49.68459405,0.6061942584562625,0.0,35,68,955.1846939817416,4295.079000000001,mp-1220671,Nd4V3Fe25B2,https://materialsproject.org/materials/mp-1220671,56.11316743067889,77.95893180616879,-8.604250342815693,-0.5045126942092143
-8.245379632794117,-560.68581503,7.900732542256848,-0.03762950213235386,28.226356199999998,0.3642980491218957,0.0,136,68,902.9743207273481,4296.2908,mp-1215108,Ce2Fe14C,https://materialsproject.org/materials/mp-1215108,56.28550471746701,77.57456636957255,-8.604250342815693,-0.5045126942092143
-7.989346869705884,-543.27558714,7.874674543551494,-0.07706927936274444,31.274310425,0.3943248043903672,0.0,136,68,924.2960000286313,4383.233399999999,mp-1217651,TbNdFe14B,https://materialsproject.org/materials/mp-1217651,56.273466620464255,77.87129502776612,-8.604250342815693,-0.5045126942092143
-8.28960435642857,-232.10892198,7.642711606967588,0.17022651357142848,2.376311542857142,0.08151487371456143,0.0,136,28,339.73785860495457,1563.66,mp-1194030,Fe,https://materialsproject.org/materials/mp-1194030,50.66954608856071,73.31885516399295,-8.604250342815693,-0.5045126942092143
-6.7747016575,-27.09880663,8.867163075138352,0.0023582175000003147,5.3882269,1.4239047333723227,0.0,187,4,44.10038384599495,235.492985,mp-1226559,Co3Ni,https://materialsproject.org/materials/mp-1226559,47.35552670616486,79.5651483089505,-8.604250342815693,-0.5045126942092143
-7.780190931315789,-295.64725539,8.17630572273827,-0.12936656723684187,55.2394494,1.3050072287714056,0.0,2,38,493.3031075346632,2428.9685,mp-1226270,Er4Fe29Si5,https://materialsproject.org/materials/mp-1226270,51.041404226781395,70.18640713007936,-8.604250342815693,-0.5045126942092143
-8.118550067500001,-97.42260081,8.943478277813119,-0.3621439369444453,7.1100899,0.5532690643009681,0.0,35,12,149.76700050637092,806.62838,mp-1225353,GdCo2Ni2B,https://materialsproject.org/materials/mp-1225353,42.39519001852009,83.32338283811113,-8.604250342815693,-0.5045126942092143
-8.15152903105263,-154.87905159,8.06788996247386,0.03813249447368381,28.604458500000003,1.3036621773677892,0.0,166,19,255.70904635438282,1242.3872,mp-3890,Sm2Cr2Fe15,https://materialsproject.org/materials/mp-3890,51.36613024002613,70.63225828733059,-8.604250342815693,-0.5045126942092143
-8.099042877894737,-153.88181468,8.108868494507595,0.04036026868420986,21.9605374,1.001204160365076,0.0,166,19,255.62171576124726,1248.27109,mp-1188192,Sm2Mn2Fe15,https://materialsproject.org/materials/mp-1188192,51.46422707829167,70.64391762528709,-8.604250342815693,-0.5045126942092143
-8.016833586764706,-545.1446839,7.736730465215527,-0.06207101340686282,60.92744445,0.7664650854064013,0.0,65,68,926.3988635181507,4316.248,mp-1227197,CeNd3(Fe14B)2,https://materialsproject.org/materials/mp-1227197,56.22799053432107,77.86251181765287,-8.604250342815693,-0.5045126942092143
-8.916038025,-35.6641521,8.348069691554995,-0.042880080000001534,5.0474625,1.1354748418133067,0.0,225,4,51.80515916858839,260.44138,mp-999389,NbFe3,https://materialsproject.org/materials/mp-999389,52.040785355333576,72.74851565676202,-8.604250342815693,-0.5045126942092143
-7.935663755,-47.61398253,9.474224718029069,-0.0977497833333345,9.0985646,1.1767592388332822,0.0,187,6,90.10786377241374,514.11146,mp-1217349,ThFe4Ni,https://materialsproject.org/materials/mp-1217349,51.72285595482219,70.58117755467492,-8.604250342815693,-0.5045126942092143
-8.23346464,-263.47086848,7.393605895485952,-0.11590702062500036,35.5591037,0.926295120637428,0.0,12,32,447.38236069816816,1991.985,mp-1214504,Ce3Ti6Fe23,https://materialsproject.org/materials/mp-1214504,50.866757511180154,71.07724682580289,-8.604250342815693,-0.5045126942092143
-7.73853285875,-61.90826287,8.471721717917447,0.0076635287500002045,1.13856875,0.1501222128877168,0.0,6,8,88.38767898017046,450.93539000000004,mp-1012640,CrFeCoNi,https://materialsproject.org/materials/mp-1012640,37.398338414894866,80.41442156407199,-8.604250342815693,-0.5045126942092143
-6.47556706736842,-123.03577428,7.752740452946748,-0.14127268789473652,16.4931824,0.7555021624302626,0.0,166,19,254.41702956473526,1187.8246458,mp-1106291,Pr2Al3Co14,https://materialsproject.org/materials/mp-1106291,40.95784269188096,77.90935237691339,-8.604250342815693,-0.5045126942092143
-7.099661955,-28.39864782,7.9010377198667685,0.002878359999999525,6.9552378,1.6255621937105862,0.0,65,4,49.86385149911211,237.258,mp-1224892,GaFe3,https://materialsproject.org/materials/mp-1224892,48.22748287325482,71.39064856555764,-8.604250342815693,-0.5045126942092143
-8.067723297205884,-548.60518421,8.210530003225918,-0.09122211677696074,61.2174068,0.788640568046389,0.0,65,68,904.6347004727901,4472.9634,mp-1226156,Dy4Fe28BC,https://materialsproject.org/materials/mp-1226156,56.29929336065632,77.70552530151465,-8.604250342815693,-0.5045126942092143
-7.509797418571429,-157.70574579,7.888398131984539,-0.10452235011904808,25.771373800000003,1.094566689578078,0.0,12,21,274.3928372777544,1303.5044,mp-1220755,Nd2Ga3(Fe7C)2,https://materialsproject.org/materials/mp-1220755,55.87383044840883,74.53881610841852,-8.604250342815693,-0.5045126942092143
-7.9099761292307695,-102.82968968,7.735628045314886,0.26189460519230706,28.3071184,1.8730138653222903,0.0,139,13,176.12949773938348,820.5,mp-985581,SmFe12,https://materialsproject.org/materials/mp-985581,51.26689712816622,71.88596055703181,-8.604250342815693,-0.5045126942092143
-6.4615701915,-258.46280766,7.632808287439426,-0.16162653849999986,14.92719675,0.2326850305719469,0.0,140,40,747.6308955915099,3436.54871,mp-1199127,La6Co13Sn,https://materialsproject.org/materials/mp-1199127,42.846777523725116,80.8687074801403,-8.604250342815693,-0.5045126942092143
-8.012452313970588,-544.84675735,8.220768056464253,-0.11309855700980286,31.000810575,0.3983878933821188,0.0,136,68,906.8685581174823,4489.5999999999985,mp-1226057,DyErFe14B,https://materialsproject.org/materials/mp-1226057,56.29127723179063,77.85292819993569,-8.604250342815693,-0.5045126942092143
-6.280731443333334,-37.68438866,9.205973080475623,-0.2555783475000008,3.8352687000000008,0.5439497887622371,0.0,187,6,82.17021271701942,455.54892,mp-1223882,HoFeNi4,https://materialsproject.org/materials/mp-1223882,30.04283896399338,80.88593573749998,-8.604250342815693,-0.5045126942092143
-7.998544817058824,-543.90104756,7.915765564682996,-0.08756256730392205,31.029589675,0.3920020018214328,0.0,136,68,922.4974522021124,4397.531999999998,mp-1220576,NdDyFe14B,https://materialsproject.org/materials/mp-1220576,56.26806966931952,77.87099983907207,-8.604250342815693,-0.5045126942092143
-7.5896408825,-30.35856353,8.78351238430758,0.04976775749999973,8.125907000000002,1.828475608649322,0.0,65,4,51.791692525638936,273.955,mp-1224754,Fe3Pd,https://materialsproject.org/materials/mp-1224754,49.97834880320246,74.12252322325479,-8.604250342815693,-0.5045126942092143
-6.155954528333332,-36.93572717,7.3352501406972035,-0.2853179525000004,1.2202238,0.18561924370141988,0.0,191,6,76.61149199106528,338.422912,mp-570673,ScNi5,https://materialsproject.org/materials/mp-570673,30.48591348417203,80.55956937358035,-8.604250342815693,-0.5045126942092143
-6.2715538466666665,-37.62932308,8.666096244648784,-0.22335286375000032,3.8294288,0.528163432924784,0.0,187,6,84.49735156780741,440.9786,mp-1219065,SmFeNi4,https://materialsproject.org/materials/mp-1219065,29.690822332990045,80.82536008057006,-8.604250342815693,-0.5045126942092143
-8.2364462275,-32.94578491,6.660378382472455,-0.395426248333334,0.9642301999999999,0.21410692271426732,0.0,225,4,52.48406293454882,210.512195,mp-1187429,Ti2FeCo,https://materialsproject.org/materials/mp-1187429,46.04643111417529,75.63335967911027,-8.604250342815693,-0.5045126942092143
-7.0587937799999985,-84.70552536,7.917797144324063,-0.2562118142361112,6.6333058000000005,0.5113148147847767,0.0,191,12,151.18860868902303,720.89888,mp-1222740,LaY(Co4B)2,https://materialsproject.org/materials/mp-1222740,42.45396006598872,83.23878875588217,-8.604250342815693,-0.5045126942092143
-8.008404601029412,-544.57151287,8.297564617815416,-0.1142998396568624,30.877089025,0.3999078863864357,0.0,136,68,899.8162020183839,4496.300839999999,mp-1225933,DyTmFe14B,https://materialsproject.org/materials/mp-1225933,56.31193985672679,77.85987950446503,-8.604250342815693,-0.5045126942092143
-6.343958555,-38.06375133,7.639005772526263,-0.1850958695833332,4.2417708,0.5588105251740368,0.0,187,6,88.46267102459566,406.95631860000003,mp-1220149,NdAlCo4,https://materialsproject.org/materials/mp-1220149,40.89281111739303,77.81005384161091,-8.604250342815693,-0.5045126942092143
-8.625797627999999,-43.12898814,7.782326785557253,-0.04209186399999965,7.973068700000001,1.5874624439542886,0.0,69,5,58.53282351323704,274.3215,mp-1216329,VFe4,https://materialsproject.org/materials/mp-1216329,52.949463239149075,72.14585637920202,-8.604250342815693,-0.5045126942092143
-5.64262625375,-45.14101003,9.142595264746893,-0.2483035245833332,2.1169518,0.17186166865823713,0.0,51,8,143.55204153549556,790.36878,mp-1095190,DyInCo2,https://materialsproject.org/materials/mp-1095190,41.260174676236,78.77979797357247,-8.604250342815693,-0.5045126942092143
-8.176158403823527,-555.97877146,8.605062173927468,-0.10959919539215647,30.167564275,0.3836598717393181,0.0,136,68,916.3709159817712,4748.716239999999,mp-1226066,DyThFe14B,https://materialsproject.org/materials/mp-1226066,56.294897549397994,77.82542672489096,-8.604250342815693,-0.5045126942092143
-7.66664514,-490.66528896,8.48481279213058,0.07955124750000042,2.31628625,0.03823477360963093,0.0,1,64,706.0104569963993,3607.4831200000003,mp-1096923,CrFeCoNi,https://materialsproject.org/materials/mp-1096923,37.42274049564033,80.43309966722394,-8.604250342815693,-0.5045126942092143
-7.37753825,-29.510153000000003,6.423142292404098,-0.5737743141666671,0.0,0.0,0.125,216,4,49.02313849451144,189.6267336,mp-998980,TiAlFeCo,https://materialsproject.org/materials/mp-998980,46.76783988701314,70.49650699718221,-8.604250342815693,-0.5045126942092143
-8.011046715882353,-544.75117668,8.375245786873004,-0.12442816803921547,30.75662635,0.3997886109406341,0.0,136,68,896.5731035333122,4522.0376799999985,mp-5861,Tm2Fe14B,https://materialsproject.org/materials/mp-5861,56.34792176775718,77.85456801358167,-8.604250342815693,-0.5045126942092143
-7.966688935441176,-541.73484761,7.600694380145006,-0.04412883642156791,31.02060695,0.3850198762980522,0.0,136,68,938.9545447766907,4297.825199999998,mp-569428,Pr2Fe14B,https://materialsproject.org/materials/mp-569428,56.254323982187,77.92321141974665,-8.604250342815693,-0.5045126942092143
-7.601354685,-30.40541874,8.399630149373593,-0.10079498125000086,5.692524,1.3972225034037975,0.0026000000000001573,225,4,47.48065770035628,240.175,mp-20711,Fe3Ge,https://materialsproject.org/materials/mp-20711,49.9152728625113,68.23051774924154,-8.604250342815693,-0.5045126942092143
-6.692186001666666,-40.15311601,6.8382844737780895,-0.24960855333333265,4.2942812,0.5861276407776537,0.0,187,6,85.38384436193165,351.6201686,mp-1215955,YAlCo4,https://materialsproject.org/materials/mp-1215955,41.00199771785135,77.64360663951389,-8.604250342815693,-0.5045126942092143
-7.9993935489705885,-543.95876133,7.518440346441751,-0.0520731162009808,125.6125122,1.561086868150371,0.0,38,68,937.7417639527127,4245.823399999998,mp-1220130,Pr7Y(Fe14B)4,https://materialsproject.org/materials/mp-1220130,56.25706869722503,77.91572643969256,-8.604250342815693,-0.5045126942092143
-8.5724825,-34.28993,8.155963624749548,0.06220296750000109,7.3471243,1.8903560236897372,0.0,123,4,45.29509860111974,222.473045,mp-999542,MnFe3,https://materialsproject.org/materials/mp-999542,52.30650090773548,70.11113156830362,-8.604250342815693,-0.5045126942092143
-7.7989482984210525,-148.18001767,7.852173533880077,-0.05259063552631759,28.0293435,1.2930669224796485,0.0,166,19,252.62094250691516,1194.566,mp-1188924,Sm2Fe15Si2,https://materialsproject.org/materials/mp-1188924,51.24117292954233,70.35829201583343,-8.604250342815693,-0.5045126942092143
-6.466100914,-32.33050457,7.5949414605819525,-0.02848480600000016,5.7264591,1.1618637111543149,0.0,166,5,57.439202746517445,262.71431859999996,mp-1228933,AlCo4,https://materialsproject.org/materials/mp-1228933,47.53995642880904,79.47305026643129,-8.604250342815693,-0.5045126942092143
-6.287924454444445,-226.36528036,7.131055171522242,-0.3864945133333337,0.83191335,0.020785751343070005,0.0,194,36,466.43356335971487,2003.062496,mp-1197416,Sc2Ni7,https://materialsproject.org/materials/mp-1197416,30.790355279495703,80.33441102953292,-8.604250342815693,-0.5045126942092143
-8.01237318985294,-544.84137691,8.101770865676839,-0.10819153377451084,30.8790167,0.3952723606799027,0.0,136,68,910.4255610378414,4441.9668,mp-5759,Tb2Fe14B,https://materialsproject.org/materials/mp-5759,56.30700766209821,77.87143240908956,-8.604250342815693,-0.5045126942092143
-5.843046839473684,-222.03577990000002,8.969397974050366,-0.17657008289473713,6.90658525,0.16740963503945905,0.0,194,38,480.79545625754247,2597.0156,mp-1203310,Sm2Ni17,https://materialsproject.org/materials/mp-1203310,30.948053843073215,79.99609713831931,-8.604250342815693,-0.5045126942092143
-7.836575546617646,-532.88713717,7.565305444878467,0.2336183890441181,30.690926075,0.3763979385623922,0.0,136,68,950.2550459600957,4329.2988,mp-568729,Nd2Fe14C,https://materialsproject.org/materials/mp-568729,56.24985797909626,77.3903672271491,-8.604250342815693,-0.5045126942092143
-8.155636769200001,-203.89091923,7.597456170767255,-0.10998189835000176,39.70021679999999,1.4446372491936854,0.0,2,25,320.2664878882903,1465.3137000000004,mp-1227651,Ce2Fe20Si2C,https://materialsproject.org/materials/mp-1227651,56.5100490000995,75.70723503529612,-8.604250342815693,-0.5045126942092143
-5.8165023599999985,-221.02708968,8.826559620963108,-0.14489439657894745,0.00275865,6.642837911415647e-05,0.0,194,38,483.9721548763556,2572.5436,mp-570596,Nd2Ni17,https://materialsproject.org/materials/mp-570596,30.935885230907374,80.01712036497149,-8.604250342815693,-0.5045126942092143
-9.511204948275862,-275.8249435,9.039237627419565,0.11212475206896452,48.0279203,1.3675757953125818,0.0,225,29,409.2793218379544,2227.935,mp-1194558,Gd6Fe23,https://materialsproject.org/materials/mp-1194558,51.953849864873774,71.5041498545186,-8.604250342815693,-0.5045126942092143
-8.224123604761905,-172.70659569999998,8.005172484025099,-0.05498873547619117,36.2629279,1.5780975246105282,0.0,8,21,267.79746118261073,1291.0054,mp-1219129,SmErFe17C2,https://materialsproject.org/materials/mp-1219129,57.28885576755681,75.24112890897764,-8.604250342815693,-0.5045126942092143
-7.8155455675,-31.26218227,6.696733332005311,-0.3788030025000007,4e-07,9.914781227298084e-08,0.0,123,4,47.01693161104912,189.6130386,mp-1228816,AlVFe2,https://materialsproject.org/materials/mp-1228816,47.778320218258706,70.39926743582237,-8.604250342815693,-0.5045126942092143
-8.6127213275,-34.45088531,12.809328004944005,-0.04031904250000018,0.8844651,0.220476339529615,0.0,221,4,46.75156339432939,360.639585,mp-1008274,Co3W,https://materialsproject.org/materials/mp-1008274,47.267833147326115,78.26348496835139,-8.604250342815693,-0.5045126942092143
-8.6680341975,-34.67213679,7.683792492308577,-0.05335971000000049,5.7829553,1.4274111027540974,0.0,65,4,47.21480413945443,218.4765,mp-1216352,VFe3,https://materialsproject.org/materials/mp-1216352,52.97576249229575,72.15490037182322,-8.604250342815693,-0.5045126942092143
-7.1156400825,-28.46256033,9.67178781924605,0.05359015250000088,5.5706279,1.3518823110901694,0.0,187,4,48.022270753787545,279.705085,mp-1226422,Co3Rh,https://materialsproject.org/materials/mp-1226422,47.6207298137781,79.27290850055759,-8.604250342815693,-0.5045126942092143
-6.717480047894736,-127.63212091,7.947502247042276,-0.08042678973684235,26.0213043,1.0999853264488637,0.0,166,19,275.68910101527956,1319.475,mp-1205466,Sm2Ga5Fe12,https://materialsproject.org/materials/mp-1205466,47.80062866474211,71.20959417461684,-8.604250342815693,-0.5045126942092143
-5.855744553684211,-222.51829304,9.394652461133926,-0.204945472105264,7.09972715,0.1756777660517331,0.0,194,38,470.9798054310149,2664.6116,mp-30608,Er2Ni17,https://materialsproject.org/materials/mp-30608,30.99309950145976,79.99077800576346,-8.604250342815693,-0.5045126942092143