energy_per_atom,energy,density,formation_energy_per_atom,total_magnetization_uB,total_magnetization_T,band_gap,sgr,num_sites,cell_volume,weight,mp_id,formula,URL,tsne_cry_lin1_0,tsne_cry_lin1_1,tsne_cry_lin2_0,tsne_cry_lin2_1
-4.32309888,-21.6154944,3.2388715629045497,0.3950587757439997,0.0,0.0,0.007400000000000073,1,5,105.27558241438813,205.3394,mp-1179931,Pd(NCl)2,https://materialsproject.org/materials/mp-1179931,0.03001792954140403,-3.6434285505294706,-8.604250342815693,-0.5045126942092143
-6.15276654,-141.51363042,2.7255722342486965,-0.941094229513043,2.0000001,0.05538128605267169,0.000500000000000167,8,23,420.8665484647306,690.80109,mvc-13041,Ca11(MnN5)2,https://materialsproject.org/materials/mvc-13041,6.3206094290056996,7.000520698673262,-8.604250342815693,-0.5045126942092143
-4.967600344210528,-94.38440654,7.236970859372665,-1.5101915003947377,2.0399999999999998e-05,8.894829833521583e-07,0.0,1,19,267.28214683123645,1164.8706,mvc-2616,Ba2Tl2Zn2Cu3O10,https://materialsproject.org/materials/mvc-2616,-47.63214172136693,-4.788792454379862,-6.301142168609373,0.9765442872071696
-5.620317105,-22.48126842,11.505612532668646,-0.7785648624999997,2.1e-05,2.9054925664268884e-06,0.0,225,4,84.2319691510083,583.63,mp-1184094,Dy2CuPt,https://materialsproject.org/materials/mp-1184094,-9.522524427095282,55.41748392000327,-8.604250342815693,-0.5045126942092143
-5.474105888333334,-131.37854132,6.85852918270786,-2.2108424724305564,0.0,0.0,1.8622,63,24,460.08207927016167,1900.2783379999998,mp-556896,Ba4AgAuO6,https://materialsproject.org/materials/mp-556896,-1.604902549462952,-19.347015255737556,7.98090384176695,-2.397730585503421
-6.100478990357144,-170.81341173,3.3061368246239935,-2.2343466728954087,2e-07,6.77000905484069e-09,0.023499999999999854,2,28,344.28505717364754,685.4722944,mp-1193249,Na5Cu3(PO4)4,https://materialsproject.org/materials/mp-1193249,-56.92014055906536,-15.475034833177073,3.0443337311324963,-0.6519148884479091
-3.31964434875,-53.11430958,5.676680090823358,-0.27389013770833337,0.0005297,1.130203466467748e-05,0.0032999999999998586,81,16,546.198829960944,1867.2226,mp-1224343,In4CuAg3Te8,https://materialsproject.org/materials/mp-1224343,57.6924532046981,16.988097719659258,-8.604250342815693,-0.5045126942092143
-5.921198073095237,-248.69031907,6.111488017462972,-1.9866682291726188,1.675e-05,1.7255629515220553e-07,0.0,122,42,1131.2573949747314,4163.5070585600015,mp-37312,Na(La2Se3)4,https://materialsproject.org/materials/mp-37312,33.219561379668285,11.675850347534617,-6.9709409311984585,1.6819503231526896
-7.334868249852941,-997.54208198,3.4513145618759666,-2.1608435913235287,6.0000002375,0.031117618442194617,2.6785,14,136,2247.099710830795,4670.44,mp-704707,Cr2(MoO4)3,https://materialsproject.org/materials/mp-704707,-1.628592511540589,-50.612813009853745,8.179323676253986,-0.28224008508815795
-5.535662358888889,-99.64192246,3.0879395707430284,-0.7235993209015277,0.0,0.0,1.6765,2,18,317.59377062366633,590.5975999999998,mp-1246129,Ca4SeN4,https://materialsproject.org/materials/mp-1246129,31.09820181774532,-12.33907532331394,7.69667799417704,-4.052965879142326
-5.45554287625,-87.28868602,8.661530695303767,-0.8771568556250005,5.0999999999999995e-06,1.838942203606942e-07,0.0,62,16,323.20608131933614,1685.87388,mp-1189429,LaGaPd2,https://materialsproject.org/materials/mp-1189429,26.549341584633726,51.20119155037772,-8.604250342815693,-0.5045126942092143
-5.4322429988888885,-48.89018699,8.394027485552549,-0.3286318905555545,3.6790611666666666,0.2403252658580127,0.0,189,9,178.4082792355011,901.8541349999999,mp-21062,YbMnGe,https://materialsproject.org/materials/mp-21062,23.637982136427865,68.33965524949912,-8.604250342815693,-0.5045126942092143
-6.965136185789473,-264.67517506,3.8436188477678863,-2.914991403587895,6.072352099999999,0.16375706497925532,0.0,12,38,432.1498110884784,1000.2891344000001,mp-1227726,Ca4Mn2Al2O11,https://materialsproject.org/materials/mp-1227726,-32.92901315449838,-9.391849617394302,2.9660255933347965,1.1285271261550802
-3.160585765652174,-72.69347261,6.7847470063948485,-0.3247154121324639,1.6e-06,3.8471271315684234e-08,0.0,229,23,484.6864425947258,1980.3659,mp-542496,Ca6Ag16N,https://materialsproject.org/materials/mp-542496,-14.732139466973743,49.15476384904315,-8.604250342815693,-0.5045126942092143
-5.585701662857144,-78.19982328,6.908953805625514,-1.5346778321428576,1.91201425,0.049934510987686094,0.0,122,14,446.2392336444846,1856.65388,mp-1226163,La2CeTe4,https://materialsproject.org/materials/mp-1226163,-10.550096904747713,24.831248998496193,-8.604250342815693,-0.5045126942092143
-6.749712715,-80.99655258,6.295515760505689,-0.7279535149999994,8.8e-06,5.506377844135285e-07,0.0,62,12,186.24906045587682,706.116428,mp-1095261,ScCoGe,https://materialsproject.org/materials/mp-1095261,23.58572058985989,66.56966054832712,-8.604250342815693,-0.5045126942092143
-7.319612549166666,-439.17675295,5.424806720171916,-2.7126133272753328,9.999996175,0.17372367490744522,0.0,62,60,670.8389240032396,2191.56034,mp-1227626,Ca2TbMn3O9,https://materialsproject.org/materials/mp-1227626,-33.04565569323893,6.034912231237713,-8.604250342815693,-0.5045126942092143
-3.264238095,-13.05695238,8.297553300424777,-0.317350363333333,4.2499999999999996e-05,5.963626429285937e-06,0.0,225,4,83.05311519874863,415.00840000000005,mp-1185500,LuMgAg2,https://materialsproject.org/materials/mp-1185500,20.685513908007128,61.274569563163936,-8.604250342815693,-0.5045126942092143
-4.675330090714286,-130.90924254,2.4552615871044154,-1.0244808387704094,1.15e-06,1.6256135198263702e-08,1.4769999999999999,136,28,824.4379322014447,1219.008248,mp-866637,KPPdS4,https://materialsproject.org/materials/mp-866637,17.238142485503445,-4.915942292659028,2.9511428283530083,-4.902642775264006
-6.087565770625,-97.40105233,3.9147096304497775,-2.950548886770833,0.007953,0.0005206540136359367,2.383,123,16,178.01606193124698,419.67167,mp-1030894,LiLaMg6O8,https://materialsproject.org/materials/mp-1030894,25.793662592472486,-20.93070705535152,7.066484532245124,-2.078042640517324
-4.153581921111111,-37.38223729,8.3150470604972,-0.5494886477777775,0.5474257666666666,0.02946617877771754,0.0,189,9,216.5104403603859,1084.162707,mp-759835,CeMgAu,https://materialsproject.org/materials/mp-759835,-13.768314186179529,45.78393311735871,-8.604250342815693,-0.5045126942092143
-8.246088188095237,-346.3357039,7.743628689566768,-0.20449696800444409,73.4763377,1.5670528487269726,0.0,1,42,546.4384940826346,2548.2188,mp-1219360,Sm4TiFe33N4,https://materialsproject.org/materials/mp-1219360,61.240319499336856,75.2898163638111,-8.604250342815693,-0.5045126942092143
-6.148271309999998,-36.88962786,10.667595802258438,-0.3297173049999991,0.01635435,0.0021489568293483413,0.0,74,6,88.69170920986271,569.7711899999998,mp-1225599,ErCoNi,https://materialsproject.org/materials/mp-1225599,42.48344638126591,74.02713241936306,-8.604250342815693,-0.5045126942092143
-6.53420779,-19.60262337,3.548856861186461,-0.19430975745999984,2.2716675,0.7455922457257234,0.0,38,3,35.50755837186863,75.885745,mp-1246674,LiMnN,https://materialsproject.org/materials/mp-1246674,3.627099002264565,13.053490151066306,-8.604250342815693,-0.5045126942092143
-6.249179919090909,-137.48195822,5.476378607331681,-2.663576054772727,0.99999995,0.034979809335060875,0.0,167,22,333.16545777096,1098.7638000000004,mp-557481,Sr4RhO6,https://materialsproject.org/materials/mp-557481,-5.1033702419808895,-22.267921023645368,5.2683635886129485,-2.9311013919968807
-3.71888389375,-29.75107115,7.029589624240622,-0.567270822916667,2.7000000000000004e-06,1.4069524507111534e-07,0.0,63,8,223.6463277064302,946.7660000000001,mp-1025520,BaIn2Pd,https://materialsproject.org/materials/mp-1025520,-15.605658239488076,50.992363203273534,-8.604250342815693,-0.5045126942092143
-5.986527092999999,-119.73054186,6.955044914199209,-2.38090776625,4.6e-06,1.5943540185780876e-07,0.0,229,20,336.24086827080663,1408.32,mp-1147549,Ba4Ca(BiO4)3,https://materialsproject.org/materials/mp-1147549,-9.520723718975514,-11.60198233312063,-8.604250342815693,-0.5045126942092143
-7.4058150214285705,-51.84070515,6.117910540415808,-3.0010709062085703,4.0000004,0.4895925772522111,0.0,107,7,95.21440053992191,350.79764500000005,mp-1217982,SrNdMnO4,https://materialsproject.org/materials/mp-1217982,-33.446145782869856,-10.286738798818282,-4.764006787908942,-0.7353749338212968
-6.547643066666668,-19.642929199999998,7.785228036653062,0.08206137666666652,2.9999998,0.6871937108566336,0.0,216,3,50.876763617762705,238.52929500000002,mp-1009593,CrCoTe,https://materialsproject.org/materials/mp-1009593,52.33077432198928,39.210625400747254,-8.604250342815693,-0.5045126942092143
-6.278256657291667,-904.06895865,4.528937686031255,-2.316196636319445,30.499996600000003,0.18744434691605802,0.0,1,144,1896.2905085552081,5171.9239,mp-1076502,Sr4Ca4Fe3(CoO4)5,https://materialsproject.org/materials/mp-1076502,-32.56230800290632,-16.343001423895537,-8.604250342815693,-0.5045126942092143
-5.821477650833334,-139.71546362,4.398039826231424,-2.005571525078126,0.0,0.0,1.1343999999999994,173,24,543.6208167281147,1439.813184,mp-1191615,La3BeGaS7,https://materialsproject.org/materials/mp-1191615,46.16428909443942,-0.554408204087353,6.433307129348265,-4.094792358080961
-8.617881491041668,-827.31662314,1.7399960858359154,-0.10399874596166588,0.0131428375,6.268652735411623e-05,0.0,71,96,2443.3875345332713,2560.304,mp-1096962,CrN2,https://materialsproject.org/materials/mp-1096962,-4.894286182314096,9.715316654490193,-8.604250342815693,-0.5045126942092143
-6.742383273035713,-377.57346329,4.4520175210096085,-2.67078907375,1.0207948,0.02196549818248064,0.010299999999999976,160,56,541.5952153628147,1452.0534175999999,mp-531283,Al2CuO4,https://materialsproject.org/materials/mp-531283,-50.54209838482821,-6.932844574046482,-8.604250342815693,-0.5045126942092143
-5.5384075375,-88.61452059999999,4.907195894716536,-1.998128773031251,0.0,0.0,1.0006,63,16,371.38484806620386,1097.51,mp-11605,KTb2CuS4,https://materialsproject.org/materials/mp-11605,48.880850484121744,-6.9062422893565305,8.069411540853968,-5.547936487588316
-3.9304461155555566,-35.37401504,9.70839761809825,-0.7775000666666673,3e-07,1.7281178143769233e-08,0.0,189,9,202.3137197407156,1182.8339999999998,mp-21499,YbInPd,https://materialsproject.org/materials/mp-21499,6.0156992961890365,50.079285170135634,-8.604250342815693,-0.5045126942092143
-5.81969803892857,-162.95154509,5.3345428362402645,-1.7236518035714283,0.99999995,0.04279863018431106,0.0,186,28,272.2999343593139,874.77357,mp-772420,Li2Co3SnO8,https://materialsproject.org/materials/mp-772420,-73.96970667333727,-23.252622368857327,-4.632209627554793,-0.6485656292020551
-7.000085048,-35.00042524,8.476520216376302,-0.5635878946666665,0.0,0.0,0.0,139,5,59.159124076993024,301.98839,mp-5135,Dy(CoB)2,https://materialsproject.org/materials/mp-5135,7.449253282424488,39.53783242212339,-8.604250342815693,-0.5045126942092143
-6.387150214999999,-38.32290129,6.938027081753254,-0.6445890708333325,9.699999999999999e-06,9.6198062127586e-07,0.0,160,6,117.51216791030565,490.986712,mp-1215239,ZrSc(NiSn)2,https://materialsproject.org/materials/mp-1215239,30.242208340201174,68.76694784898243,-8.604250342815693,-0.5045126942092143
-3.9439395571428575,-55.215153799999996,6.1087228894599495,-0.8491785355238096,0.0087755,0.00024112100349277062,0.0,59,14,424.1449062095659,1560.3268785599996,mp-1210066,NaLaAgTe4,https://materialsproject.org/materials/mp-1210066,-9.610206163352496,22.91896373773107,-8.604250342815693,-0.5045126942092143
-5.118197621875,-81.89116195,6.7956517750170615,-1.3198609818750002,0.0,0.0,1.7260000000000004,4,16,298.7128534516245,1222.4636,mp-559727,Tl2CuAsO4,https://materialsproject.org/materials/mp-559727,13.841001213787827,-17.416647266736902,7.7912689081083855,-3.6845137713617264
-8.857559866666668,-53.14535920000001,8.806381332115732,-1.028417093333334,7.011449400000001,0.8299439110487575,0.0,191,6,98.45470804631806,522.1375,mp-622508,GdSi2Rh3,https://materialsproject.org/materials/mp-622508,12.80785135054159,66.23764322628614,-8.604250342815693,-0.5045126942092143
-6.704750115,-26.81900046,12.110623915576069,-0.7965957225000002,0.0002307,3.209815733977489e-05,0.0,225,4,83.76159150101472,610.88906,mp-865217,YbThRh2,https://materialsproject.org/materials/mp-865217,13.856283472340115,48.575689225234306,-8.604250342815693,-0.5045126942092143
-7.74555905375,-185.89341729,7.398363896864702,-2.22256059625,3.5,0.15152756166817946,0.0,69,24,269.1868479562857,1199.3348,mp-18405,CrWO4,https://materialsproject.org/materials/mp-18405,-17.626210426805226,-23.840574297515822,4.320459867124892,-1.929556264209137
-4.06953625,-12.20860875,5.673397555647742,-0.5025190666666663,5e-07,7.468764716633857e-08,0.0,216,3,78.0186899354632,266.55865,mp-12718,LiPrSn,https://materialsproject.org/materials/mp-12718,-0.15240567751349246,45.32773613075513,-8.604250342815693,-0.5045126942092143
-6.166258578333332,-36.99755147,7.250487101843042,-0.6131478858333329,0.33526565,0.031537086628202045,0.0,129,6,123.89247133628083,540.95733,mp-20761,LaCoGe,https://materialsproject.org/materials/mp-20761,17.60708432335871,68.10129926250008,-8.604250342815693,-0.5045126942092143
-8.645899120000001,-103.75078944,5.769996963739008,-0.7898307773809528,3.5e-07,2.6670325194033584e-08,0.0,62,12,152.93861776040092,531.427048,mp-20541,V2P,https://materialsproject.org/materials/mp-20541,53.17026755179512,50.71681889292668,-8.604250342815693,-0.5045126942092143
-4.63588657826087,-106.62539129999999,4.191323383826571,-0.8469121831086963,2.0000001,0.08641200243920984,0.5109999999999999,2,23,269.73256090116587,680.82493856,mp-761163,Na2(NiO2)7,https://materialsproject.org/materials/mp-761163,-62.234462970115615,-25.39557160012925,3.3270059334215363,-0.7350577602859764
-3.29117663,-13.16470652,5.820530732055521,-0.6082996054166667,0.0,0.0,0.029200000000000337,225,4,113.2614305649019,397.0046,mp-983598,Ca2AgBi,https://materialsproject.org/materials/mp-983598,28.467546555719746,19.318927764618344,-8.604250342815693,-0.5045126942092143
-5.735050393076923,-74.55565511,7.377884663143196,-0.08997058192307769,2.4728767000000005,0.0980888689228316,0.0,38,13,293.8056637091633,1305.397975,mp-1220304,Nd6Co5Ge2,https://materialsproject.org/materials/mp-1220304,14.49356501323959,54.13813277423751,-8.604250342815693,-0.5045126942092143
-2.960854665,-11.84341866,8.245411888424856,-0.4249070849999996,2.07e-05,2.607241672900449e-06,0.0,225,4,92.52657446350841,459.441,mp-864771,LiYb2Pd,https://materialsproject.org/materials/mp-864771,-7.985411609223572,67.55801449683788,-8.604250342815693,-0.5045126942092143
-3.4746782166666663,-41.6961386,5.678203054922652,-0.11979606083333275,5e-08,3.194336024256932e-09,0.0,38,12,182.41763991110903,623.776,mp-1222246,Mg2Cu3Ge,https://materialsproject.org/materials/mp-1222246,3.3925198415318687,40.41620019409579,-8.604250342815693,-0.5045126942092143
-5.131979151578949,-97.50760388,6.4372491589731595,-1.7162593130263162,6.035767099999999,0.255297912025276,0.0,1,19,275.5260322243473,1068.1048,mvc-3048,Ba2Mg2Tl2Ni3O10,https://materialsproject.org/materials/mvc-3048,-27.036456208514267,-12.655305652012375,-8.604250342815693,-0.5045126942092143
-6.5895122896875,-421.72878654,7.326769464988836,0.07967368912250095,0.00019673125,2.7831754062466893e-06,0.0,61,64,823.7780217304123,3634.7424,mp-1247356,LiIrN2,https://materialsproject.org/materials/mp-1247356,-0.6198677009007024,5.821863419609206,-8.604250342815693,-0.5045126942092143
-5.868541935625,-187.79334194,2.849296870685085,-1.9917432933333328,3.00009205,0.10176309050141608,1.0437,14,32,343.57513025663127,589.5360000000002,mp-770921,Li2NiBO4,https://materialsproject.org/materials/mp-770921,-44.572086895530155,-32.31844350275168,2.3115793892111416,2.483676584051184
-6.1670416935,-246.68166774,2.6187880723386248,-0.10907999095200012,2.000000475,0.036055800888289566,0.3687,62,40,646.4461891448465,1019.4915800000001,mp-1202336,CoCBrN4O3,https://materialsproject.org/materials/mp-1202336,-49.34668645544903,6.162524886023607,1.9783272955119515,-0.7623719261360702
-3.6950481534821433,-413.84539319,6.469429366585825,-1.7666141952675,0.0,0.0,1.4016,92,112,1849.865165837228,7207.040448799998,mp-557090,Bi2Au5F21,https://materialsproject.org/materials/mp-557090,-3.5563151344919253,-17.79286723667877,5.918011705455044,-1.9669565370388444
-6.903105283333333,-20.70931585,11.428093141092825,-1.0777285449999994,0.0,0.0,0.6738,216,3,79.31117061467607,545.83206,mp-19886,ThSnPt,https://materialsproject.org/materials/mp-19886,15.522847329155624,53.787564734124004,-8.604250342815693,-0.5045126942092143
-6.126880471818183,-134.79137038,2.720544038000391,-1.2888882129672723,0.9999998999999999,0.037779186090467,0.2471000000000001,69,22,308.47841928743776,505.3956,mp-12161,K2SrCu(NO2)6,https://materialsproject.org/materials/mp-12161,-55.06837868181368,-0.8511095113251552,-8.604250342815693,-0.5045126942092143
-8.671247583947368,-329.50740819,5.116014487748983,-3.6409340647587713,0.0,0.0,1.9309000000000005,8,38,476.60514718196083,1468.38995,mp-768320,LiLa5Ti8O24,https://materialsproject.org/materials/mp-768320,5.98171852696129,-40.72593613765119,4.6122256897261265,-4.4381062787331835
-4.930171168888889,-88.74308104,3.397593075511136,-1.4420762776111122,4.99999995,0.2376591372072501,0.018799999999999702,63,18,245.18444342108643,501.66659568,mp-754437,Na3(CoO2)2,https://materialsproject.org/materials/mp-754437,-36.51418014424835,-30.107456539283284,1.323848479641719,-1.4124498643132115
-5.915047732083334,-141.96114557,5.478432025668441,-1.5285470459895834,27.0000058,1.3190863084731566,0.0,12,24,238.5437665689264,787.000955,mvc-2285,Mg2Co9O13,https://materialsproject.org/materials/mvc-2285,-4.845168781909068,13.517219487730856,-8.604250342815693,-0.5045126942092143
-8.025222853125,-256.8071313,5.029858353145091,-2.6875274687137503,6.000000625,0.19196536694618396,0.0908000000000002,55,32,364.25526662187684,1103.34798,mp-1207744,YMnCrO5,https://materialsproject.org/materials/mp-1207744,-42.646755879146475,-21.91628520936069,1.2592141361463247,-1.150207512832206
-5.112271443333333,-15.33681433,12.935855825631,-0.8190113383333326,3.9e-06,8.067395806253221e-07,0.0,139,3,56.33893973288482,438.88905,mp-1018148,ScAu2,https://materialsproject.org/materials/mp-1018148,-10.338496601723833,57.45210702711543,-8.604250342815693,-0.5045126942092143
-6.591775040000001,-39.55065024,8.051427197454801,-0.40454083666666796,5.5e-06,6.193132789105529e-07,0.4949000000000003,58,6,103.49746797264432,501.8264,mp-766,As2Ru,https://materialsproject.org/materials/mp-766,39.380249990270855,8.16192486351145,5.393128251265608,-6.402968519944184
-6.740198955833333,-80.88238747,9.770543050279061,-1.0694949024999996,2.625e-06,1.439184175264208e-07,0.0,62,12,212.56431632423332,1250.719648,mp-1095253,ScGePt,https://materialsproject.org/materials/mp-1095253,14.851237847529465,62.770567538239916,-8.604250342815693,-0.5045126942092143
-5.411115479166668,-129.8667715,8.8801387610025,-0.20823076868055604,0.39199209999999995,0.0136209842745377,0.0,127,24,335.38701988456313,1793.56414,mp-1191038,LaIn2Ni9,https://materialsproject.org/materials/mp-1191038,31.755907132424067,74.74639055745767,-8.604250342815693,-0.5045126942092143
-6.375853955,-114.76537119,7.139091372149342,-0.8150476243253971,5e-08,2.384564354563096e-09,0.0,63,18,244.36465198052858,1050.5875119999998,mp-16958,LaNi5P3,https://materialsproject.org/materials/mp-16958,17.141699765523185,27.291797724361906,-8.604250342815693,-0.5045126942092143
-7.453082764090909,-163.96782081,7.585177319412747,-0.03927832390272877,38.1165511,1.6440714225995134,0.0,166,22,270.19066770445846,1234.20412,mp-1191073,Pr2Fe17H3,https://materialsproject.org/materials/mp-1191073,61.63178355325078,74.88103591367674,-8.604250342815693,-0.5045126942092143