energy_per_atom,energy,density,formation_energy_per_atom,total_magnetization_uB,total_magnetization_T,band_gap,sgr,num_sites,cell_volume,weight,mp_id,formula,URL,tsne_cry_lin1_0,tsne_cry_lin1_1,tsne_cry_lin2_0,tsne_cry_lin2_1
-5.775020394444443,-207.9007342,5.237021644325868,-0.3951801955022221,6.275e-06,1.3216227660894293e-07,0.0,52,36,553.3292731041201,1745.0944,mp-1245725,Sr3(NiN2)2,https://materialsproject.org/materials/mp-1245725,0.8879299749079629,9.84118433053135,-8.604250342815693,-0.5045126942092143
-6.354468203461537,-165.21617329,5.686752212212412,-2.3739814366346157,0.00202185,6.455590503949136e-05,0.0,46,26,364.9979168595894,1249.9873,mvc-286,Sr2YCu2SbO7,https://materialsproject.org/materials/mvc-286,-46.73316434524828,-4.642959231486336,-8.604250342815693,-0.5045126942092143
-4.361984408333334,-26.17190645,9.522536226388906,-0.1995444716666667,5e-07,6.866280894479711e-08,0.0,216,6,84.86446266660325,486.66420999999997,mp-30600,TmCu5,https://materialsproject.org/materials/mp-30600,4.353362303313516,45.07585137477541,-8.604250342815693,-0.5045126942092143
-7.064477544736843,-268.45014669999995,4.045329973046964,-2.6106508688391226,25.0000012,0.6423070706054947,0.0,99,38,453.6017843057783,1105.044115,mp-1247695,Ca8TiMn7O22,https://materialsproject.org/materials/mp-1247695,-36.11143139779799,6.094443267946256,-8.604250342815693,-0.5045126942092143
-4.29531129,-25.77186774,8.702127989727693,-0.1945033133333336,3.21e-05,4.536741397534852e-06,0.0,160,6,82.45907060129987,432.130392,mp-1216565,TmBeCu4,https://materialsproject.org/materials/mp-1216565,4.398669563425353,45.10050760731944,-8.604250342815693,-0.5045126942092143
-7.375737327142858,-103.26032258,7.027780940696879,-2.9789675957142845,0.0,0.0,0.0055000000000005045,8,14,192.81699376521038,816.0456099999999,mp-1223168,La3Nd(CuO4)2,https://materialsproject.org/materials/mp-1223168,-42.69002230883367,-3.999191465025648,-8.604250342815693,-0.5045126942092143
-4.128804081,-41.28804081,2.7831144975015936,-2.234548682314,0.0,0.0,0.021499999999999964,140,10,190.49711268093662,319.2790192,mp-556045,KCuF3,https://materialsproject.org/materials/mp-556045,-47.138752718953135,-8.098163653700253,-8.604250342815693,-0.5045126942092143
-6.2372824116666665,-37.42369447,9.22171983990868,-0.2941624816666675,7.2899913,0.9110871804826745,0.0,160,6,93.24906838946815,517.8539999999998,mp-1224695,GdCu4Pd,https://materialsproject.org/materials/mp-1224695,4.446242462011552,42.79291283836729,-8.604250342815693,-0.5045126942092143
-4.245741028333334,-25.47444617,2.9498870655431224,0.14162523154000026,0.01917155,0.0017012670526356476,0.0,9,6,131.32946126490168,233.30200000000002,mp-1246319,KCuN,https://materialsproject.org/materials/mp-1246319,4.206143494115353,4.672479631115974,-8.604250342815693,-0.5045126942092143
-6.938631958333334,-249.7907505,8.128488853080192,-2.673921054305555,2.0000003,0.05120767914941833,0.2839999999999998,33,36,455.1687057194736,2228.092,mp-15335,Lu2Cu2O5,https://materialsproject.org/materials/mp-15335,-48.79993039334035,-8.411364533411444,-1.9226030497504805,-2.3543764362388053
-7.296151371111113,-262.66144936,5.0440603646416085,-2.599992615972221,0.041705175,0.0009589365408786992,0.08650000000000002,62,36,506.84773192141614,1539.6028,mp-510475,Y2Cu2O5,https://materialsproject.org/materials/mp-510475,-48.513921088169575,-7.9083174415899995,-4.724097214237797,-1.6692647058843817
-6.125501181111112,-55.12951063,6.241805333659048,-2.075276780046297,0.0005595,5.131381165017398e-05,0.0,99,9,127.07006224171306,477.64405,mvc-7206,BaYCuAgO5,https://materialsproject.org/materials/mvc-7206,-48.38690078584549,-0.7190004931949491,-8.604250342815693,-0.5045126942092143
-6.534101804090909,-143.75023969,5.825935847268075,-0.4553631733545455,0.98313925,0.0305081728811652,0.0,2,22,375.55734801212265,1317.62817,mp-1245810,Ba3Co3N5,https://materialsproject.org/materials/mp-1245810,3.6502721888624636,7.9609179652446995,-8.604250342815693,-0.5045126942092143
-7.219487273947369,-274.34051641,3.9754000525309543,-2.7546414337261407,10.99999995,0.27951825155341,0.0,25,38,458.6273390128088,1097.97307,mp-1247688,Ca4TiMn3O11,https://materialsproject.org/materials/mp-1247688,-36.06366359998529,6.011174052831542,-8.604250342815693,-0.5045126942092143
-5.5110260272727265,-121.2425726,5.341143703652381,-1.7377937293181818,0.94832385,0.0316667293605128,0.0,69,22,349.00439030007277,1122.5768,mp-25225,Ba2(CuO2)3,https://materialsproject.org/materials/mp-25225,-51.395431577223285,-1.3529866779890636,-4.479021237584522,-1.0183301735666237
-4.257526467777779,-38.31773821,7.835854331287275,-0.385444408055556,3.3333333333333334e-08,1.8940862051791268e-09,0.0,189,9,205.09564173466518,967.818,mp-22696,NdInCu,https://materialsproject.org/materials/mp-22696,-7.192637343151377,54.6222358776377,-8.604250342815693,-0.5045126942092143
-6.025968629404763,-506.18136487,5.685040566183896,-2.138706688273809,31.095014399999997,0.33429770731841985,0.0,99,84,1084.0137517787548,3711.2419549999995,mp-1100841,Sr16La3Co11(Cu4O23)2,https://materialsproject.org/materials/mp-1100841,-49.493816028884076,1.6268757628744093,-8.604250342815693,-0.5045126942092143
-5.517046255714287,-308.95459032,4.819015348570057,-1.449224375,1.000000025,0.022405729130147926,0.0,212,56,520.1377288914128,1509.48074,mp-757851,Li2Co3NiO8,https://materialsproject.org/materials/mp-757851,-72.78812688791955,-22.561431389641477,-8.604250342815693,-0.5045126942092143
-5.078180824545455,-55.85998907,4.2565540410825085,-1.8891493474109093,0.8193745000000001,0.04887880382589193,0.0,139,11,195.36164448699998,500.7816,mp-547517,Sr2Cu3(ClO2)2,https://materialsproject.org/materials/mp-547517,-50.57338220699036,0.00029813921337822156,-8.604250342815693,-0.5045126942092143
-6.861976652692308,-178.41139297,3.7283455279548754,-2.819600980628462,8.0,0.27386220846435216,1.2893,64,26,340.4358662820516,764.3677799999999,mp-18952,Ca4Mn2O7,https://materialsproject.org/materials/mp-18952,-32.464935974136324,-10.897809632814784,-8.604250342815693,-0.5045126942092143
-5.450378104583333,-130.80907451,5.500415287947357,-1.832584110625,2.0000005,0.06793603963710082,0.0,69,24,343.08940433764815,1136.4588,mp-18713,Ba2Li(CuO2)3,https://materialsproject.org/materials/mp-18713,-51.94337603222057,-1.6380418085926611,-8.604250342815693,-0.5045126942092143
-5.486669523,-54.86669523,5.792383373327942,-1.806863574375,0.1224924,0.01116816076126331,0.0,71,10,127.82179575151571,445.875,mp-5700,Sr2Cu3O5,https://materialsproject.org/materials/mp-5700,-46.05589740610802,0.19447364133449516,-8.604250342815693,-0.5045126942092143
-5.244651855,-41.95721484,3.619663734528901,-1.5448620938750004,4.0000025,0.3907349713038948,0.9921,129,8,119.30411058380749,260.06059,mp-20528,KCoO2,https://materialsproject.org/materials/mp-20528,17.000464164323002,-9.99121100995711,-11.319202244858136,-0.8599646280804093
-6.010075358055556,-216.36271289,4.078337041814828,-0.5241546807800006,0.0,0.0,0.004400000000000404,52,36,478.2471863436963,1174.5904,mp-1246156,Ca3(NiN2)2,https://materialsproject.org/materials/mp-1246156,0.9205117708022806,9.643138775988866,-8.604250342815693,-0.5045126942092143
-6.9637460322,-1044.56190483,4.081102492261612,-2.6260142860625333,50.00002705,0.3186143538922569,0.05610000000000026,1,150,1828.8678672257324,4494.803814399999,mp-1247643,Sr2Ca14Mn14Al2O43,https://materialsproject.org/materials/mp-1247643,-31.86080411679677,-9.998819013396703,-8.604250342815693,-0.5045126942092143
-5.609567659444443,-100.97221787,4.832988406874869,-0.5366680449466664,2.55e-06,9.291601511159349e-08,0.0,2,18,319.83576926254983,930.87999,mp-1246061,Sr4CoN4,https://materialsproject.org/materials/mp-1246061,4.826809860532455,6.934643707992233,-8.604250342815693,-0.5045126942092143
-5.357884438214286,-300.04152854,4.6411423270752055,-0.5997986535200001,0.00021585,2.3240394367640356e-06,0.09169999999999988,60,56,1082.3955227969807,3025.25358,mp-1247404,Sr7CoN6,https://materialsproject.org/materials/mp-1247404,5.440194508430443,6.206134285978278,-8.604250342815693,-0.5045126942092143
-6.173248401923076,-160.50445845,5.9025329515438285,-1.983025516634616,0.0020006,6.515230789096079e-05,0.0,46,26,357.85565759240967,1272.0296,mp-662575,Sr2EuGaCu2O7,https://materialsproject.org/materials/mp-662575,-46.61598465456667,-5.0318720526316305,-8.604250342815693,-0.5045126942092143
-4.955030581666667,-29.73018349,8.991749459584401,-0.3820568875000004,0.0,0.0,0.0,44,6,100.53367575508021,544.38565,mp-1219819,PrCu3Pd2,https://materialsproject.org/materials/mp-1219819,4.844482451093528,42.74137453494603,-8.604250342815693,-0.5045126942092143
-5.765499403624999,-461.23995229,4.375367618223587,-0.4888903165770003,0.5577494000000001,0.00408273818799276,0.0,11,80,1592.0804458078644,4194.98552,mp-1246027,Sr2CoN2,https://materialsproject.org/materials/mp-1246027,5.343281875475292,7.567809035070036,-8.604250342815693,-0.5045126942092143
-4.724009925882354,-240.92450622,4.938376773675591,-2.666392641969804,7.0000005000000005,0.11185833630777002,0.2531,2,51,729.3015605961908,2168.9137088,mp-15387,Ba6Cu11F34,https://materialsproject.org/materials/mp-15387,-61.0483201604781,-11.573964630386493,-8.139285256883094,2.224141998597432
-7.0332624983333325,-126.59872497,6.806159824392808,-2.9528930765277783,1.0000178,0.04244657426395345,0.5946000000000002,127,18,274.56331675768956,1125.3706,mp-20212,BaPr2CuO5,https://materialsproject.org/materials/mp-20212,-46.3190085336094,-8.233904410449625,2.971301734572706,0.015382453263261271
-6.959660970000002,-1071.78778938,4.0924972236777295,-2.6165545516518187,45.9999999,0.30243284714761604,0.0,1,154,1772.5818588437844,4368.633414399999,mp-1247668,Ca16Mn14Al2O45,https://materialsproject.org/materials/mp-1247668,-32.425501080298375,-9.331585112610703,-8.604250342815693,-0.5045126942092143
-5.652040699375,-90.43265119,4.1342514356307865,-2.0134363375,5e-08,2.6742532333435365e-09,0.11290000000000022,2,16,217.8938147527071,542.4911999999998,mvc-446,CaCuO2,https://materialsproject.org/materials/mvc-446,-52.82870736423893,-3.0556704106097623,-3.3170509846443856,-0.5206937828217084
-5.8224965011538465,-151.38490903,5.124072544910471,-2.0533431897115384,0.00207055,7.374496611301708e-05,0.0,9,26,327.2131656802553,1009.7106772,mvc-297,Sr2AlCu3O7,https://materialsproject.org/materials/mvc-297,-49.20418044914248,-4.853217444066171,-8.604250342815693,-0.5045126942092143
-7.544671545,-30.17868618,6.595555404708677,-0.25572275124999955,1e-07,2.0886719303212818e-08,0.0,38,4,55.79653081643631,221.62027,mp-1018048,LaNiC2,https://materialsproject.org/materials/mp-1018048,-4.136760929580225,11.689447210323616,-8.604250342815693,-0.5045126942092143
-4.0464202280000015,-40.46420228,7.069718072072786,-0.2348504519999999,1.415e-05,7.480915062728381e-07,0.0,127,10,220.43428530998025,938.4954,mp-1205707,Tb2MgCu2,https://materialsproject.org/materials/mp-1205707,-8.500977011677579,53.496074579789244,-8.604250342815693,-0.5045126942092143
-4.6952502350000005,-28.17150141,9.220042970582153,-0.2363356775000002,3.98e-05,5.390030116634796e-06,0.0,187,6,86.05365237503794,477.80772,mp-1223765,HoCu4Ni,https://materialsproject.org/materials/mp-1223765,3.762946864316212,45.01011295576718,-8.604250342815693,-0.5045126942092143
-6.7741925525,-108.38708084,3.6141786462760033,-2.012796431333749,6.0062158,0.3312633706598871,0.0,26,16,211.3026497065931,459.90218,mvc-14980,CaMn2O5,https://materialsproject.org/materials/mvc-14980,-32.17337968178362,-9.966842232406186,-8.604250342815693,-0.5045126942092143
-6.149357114615384,-159.88328498,4.955759633835041,-2.255008526250001,4.99990235,0.1748955920493478,0.37170000000000014,46,26,333.1655484315033,994.3086772,mp-1267964,Sr2AlFeCu2O7,https://materialsproject.org/materials/mp-1267964,-48.7088152672444,-4.789935554785413,-8.604250342815693,-0.5045126942092143
-6.970949709802633,-1059.58435589,3.955433881311391,-2.7244735629147367,9.9999999,0.06570757275409794,0.08479999999999999,1,152,1773.6258040808887,4224.808588800001,mp-1247717,Ca4Mn3AlO11,https://materialsproject.org/materials/mp-1247717,-32.52708296061876,-9.572767943788065,-8.604250342815693,-0.5045126942092143
-6.654961557499999,-159.71907738,5.6331391989283865,-0.023779231944444014,0.8923374625,0.027685776729494502,0.0,227,24,375.62097999142645,1274.24,mp-1192264,Ti2Cu,https://materialsproject.org/materials/mp-1192264,-9.94156498273019,53.234704434294464,-8.604250342815693,-0.5045126942092143
-5.668880041460674,-504.53032369,4.335285063239545,-1.9515574079494389,7.9960606,0.08049100918570777,0.009000000000000341,1,89,1157.726920067726,3022.558400000001,mp-760021,Ca19(Cu12O23)2,https://materialsproject.org/materials/mp-760021,-52.84623138874635,-3.0883012173438518,-4.663169509527902,-0.9426057091008696
-2.7821382675,-11.12855307,0.5250346487451223,1.4112718775000004,4.6899999999999995e-05,7.717535825802756e-07,0.0,71,4,708.2255919119058,223.9290772,mp-1093918,Al2CuPd,https://materialsproject.org/materials/mp-1093918,3.438984339181462,7.478798041771827,-8.604250342815693,-0.5045126942092143
-5.651565234444443,-101.72817422,5.929437895175954,-2.217610978472222,1.0586209999999998,0.047653376501122564,0.0,139,18,258.8953524269427,924.4612,mp-1189753,Sr5Ni2BiO10,https://materialsproject.org/materials/mp-1189753,-40.03404862856874,-17.694813850104,-8.604250342815693,-0.5045126942092143
-7.419487345714287,-207.74564568,7.512782280508918,-3.0455908634821434,5.56e-05,1.7324144280210854e-06,0.0,99,28,374.024823895332,1692.20175,mp-1223395,La5Dy3(CuO4)4,https://materialsproject.org/materials/mp-1223395,-42.739139394877064,-3.8096370601937775,-8.604250342815693,-0.5045126942092143
-4.915048986,-98.30097972,3.2365545401778006,-0.5219634039519996,4.135e-05,1.9478860063101393e-06,0.0,59,20,247.39413743117,482.1956,mp-1246035,Mg5CuN4,https://materialsproject.org/materials/mp-1246035,-47.45677055442962,-4.859510222043425,-8.604250342815693,-0.5045126942092143
-7.3283787685714294,-51.29865138,6.821515501788852,-2.960905062142857,2.8999999999999998e-06,3.391587050215568e-07,0.0,139,7,99.64888808699457,409.3589,mp-4181,Pr2CuO4,https://materialsproject.org/materials/mp-4181,-43.060939723832085,-2.587109269169323,-8.604250342815693,-0.5045126942092143
-5.407435414999999,-32.44461249,4.799061265972164,-2.1766607635937487,6e-07,6.672807410589307e-08,0.0,123,6,104.79005961477735,302.8498,mp-1147582,Sr2CuSO2,https://materialsproject.org/materials/mp-1147582,-50.143125392335826,-4.228933708142914,-8.604250342815693,-0.5045126942092143
-6.99068801375,-167.77651233,4.4941376359284915,-2.958686325520835,1.0000004999999998,0.03114438102645677,0.11129999999999997,15,24,374.19496600982666,1012.7336,mp-560805,Ba2CuSi2O7,https://materialsproject.org/materials/mp-560805,-53.97682641771508,-19.592636255726703,-4.501061491811871,-1.1626974602589453
-6.789384244444445,-122.2089164,7.471306218083447,-2.471511839861112,0.0,0.0,0.0,55,18,220.28766848777786,991.1460000000001,mp-21025,Nd2Cu2O5,https://materialsproject.org/materials/mp-21025,-44.452261624258526,0.27148177289470915,-8.604250342815693,-0.5045126942092143
-6.70076808,-60.30691272,6.524381763745399,-2.523085650694445,4.9601062,0.4662972328100399,0.0,99,9,123.96684961054376,487.0750000000001,mp-1214324,BaSmFeCuO5,https://materialsproject.org/materials/mp-1214324,-48.55336647648675,-3.8957065766040153,-8.604250342815693,-0.5045126942092143
-7.1292308732142855,-399.2369289,6.7363385170480035,-2.9881484425000004,0.0008628,1.2966529766214813e-05,0.0,6,56,775.4678597170872,3145.85438,mp-695252,Sr2La14Zn3Cu5O32,https://materialsproject.org/materials/mp-695252,-42.65062029810751,-4.0542058269686745,-8.604250342815693,-0.5045126942092143
-6.944937318376622,-1069.52034703,4.24194580483664,-2.610096911327143,46.0,0.3004004715311149,0.0,1,154,1784.5743610366433,4558.801414400001,mp-1247722,Sr2Ca14Mn14Al2O45,https://materialsproject.org/materials/mp-1247722,-32.453640894413915,-9.257553530893118,-8.604250342815693,-0.5045126942092143
-5.2888220271428565,-74.04350838,4.791809620398931,-1.3368385650000008,0.00021040000000000002,1.876212812531986e-05,0.0,74,14,130.68961110213914,377.13039,mp-754509,LiCoNiO4,https://materialsproject.org/materials/mp-754509,-72.71797702627353,-22.98966368523396,-8.604250342815693,-0.5045126942092143
-5.349985861136363,-235.39937789,3.1948176807567594,-0.8027179279109095,2.5e-08,3.6540888228676377e-10,0.3018000000000001,130,44,797.3304247304718,1534.0352,mp-1246246,Ca5(CuN2)2,https://materialsproject.org/materials/mp-1246246,5.400081947499328,4.400151451575534,-4.52655695257689,-1.5881555122427404
-4.248899906666667,-38.24009916,7.620049709791435,-0.3706225527777777,7.683333333333334e-05,4.289969505723998e-06,0.0,189,9,208.7242443480307,957.81495,mp-1080085,PrInCu,https://materialsproject.org/materials/mp-1080085,-7.1829169350762365,54.63574631479222,-8.604250342815693,-0.5045126942092143
-5.345102607142857,-37.41571825,3.44642927006751,-1.9900241336607132,7.400000000000001e-06,7.463189527906851e-07,0.0,123,7,115.55391832736812,239.8308,mp-1147536,Ca2Cu(SO)2,https://materialsproject.org/materials/mp-1147536,-45.354506355772045,-3.8733920597862537,-8.604250342815693,-0.5045126942092143
-7.486419905,-29.94567962,6.829015069394253,-0.233198630625,4e-07,8.572963963037441e-08,0.0,38,4,54.375895304384784,223.62245,mp-9312,PrNiC2,https://materialsproject.org/materials/mp-9312,-21.922997862249407,11.643488267536064,-8.604250342815693,-0.5045126942092143
-6.77664876925926,-365.93903354,7.238475537322593,-2.4587763646759258,0.0012124333333333331,2.0714498746161424e-05,0.0,15,54,682.120131036021,2973.438,mp-667803,Nd2Cu2O5,https://materialsproject.org/materials/mp-667803,-43.16036264989265,-4.0611618269335965,-8.604250342815693,-0.5045126942092143
-3.4484879958333337,-41.38185595,5.6849921550445055,-0.6307334724999999,2.575e-06,1.21207681966171e-07,0.0,62,12,247.58510601429342,847.628,mp-1213948,CaZnPd,https://materialsproject.org/materials/mp-1213948,-12.474413712109849,50.430467541217844,-8.604250342815693,-0.5045126942092143
-6.146981441153847,-159.82151747,4.959996829277309,-2.2526328527884623,4.99996775,0.17504741815509045,0.3918999999999997,5,26,332.88093382550153,994.3086772,mvc-16250,Sr2AlFeCu2O7,https://materialsproject.org/materials/mvc-16250,-48.71130578518457,-4.795182015570875,-8.604250342815693,-0.5045126942092143
-5.70896250986842,-433.88115075,4.369052682364981,-1.9842365918421057,0.823090375,0.009889127282746164,0.0,64,76,969.9893903334104,2552.144,mp-1214451,Ca4(CuO2)5,https://materialsproject.org/materials/mp-1214451,-52.8835647060015,-3.0983262284878474,-1.4442308567569206,-0.02523479221316484
-6.777002646666666,-121.98604764,7.243015413723699,-2.4550000459722217,0.2404735,0.012501471013008756,0.0,55,18,224.17311868082726,977.8086,mp-1188871,Pr2Cu2O5,https://materialsproject.org/materials/mp-1188871,-44.57087852050697,0.3925948051839076,-8.139285407042241,2.2241420303876134
-6.6758282242857145,-46.73079757,5.197339987600074,-2.7112329965657134,3.0000011000000004,0.3719839177117421,0.02370000000000028,139,7,93.98849109450815,294.1756450000001,mp-18978,Sr2MnO4,https://materialsproject.org/materials/mp-18978,-34.069358461333515,5.17539324730546,-8.604250342815693,-0.5045126942092143
-3.388547404,-33.88547404,0.2865321894605859,0.8361647528437501,5.6019875,0.015072316962134787,0.05799999999999982,65,10,4331.51222496736,747.41855,mp-1206227,Li(YSe2)3,https://materialsproject.org/materials/mp-1206227,-22.15543418265812,11.673889343611851,-8.604250342815693,-0.5045126942092143
-6.800179283970588,-462.41219131,4.993348897334624,-2.598087361640001,9.000000075,0.11676526034157933,1.2990000000000002,64,68,898.2687446614008,2701.1525400000005,mp-18998,Sr4Mn3O10,https://materialsproject.org/materials/mp-18998,-33.54844064464696,-9.68006550143284,2.3980024054375795,-4.720875201734467