energy_per_atom,energy,density,formation_energy_per_atom,total_magnetization_uB,total_magnetization_T,band_gap,sgr,num_sites,cell_volume,weight,mp_id,formula,URL,tsne_cry_lin1_0,tsne_cry_lin1_1,tsne_cry_lin2_0,tsne_cry_lin2_1
-6.6574429,-26.6297716,10.629010656176186,-0.27440864250000097,3.97e-05,6.045556831362547e-06,0.0,225,4,76.52998464433327,489.86383499999994,mp-1184724,Ho2CoRu,https://materialsproject.org/materials/mp-1184724,18.028085267754623,48.80793507753459,-8.604250342815693,-0.5045126942092143
-4.056468443,-40.56468443,2.906625455263274,-2.0021335640249656,1.9999997,0.09240194712232523,0.0,225,10,252.24713087532416,441.5361,mp-1206403,Rb2LiVCl6,https://materialsproject.org/materials/mp-1206403,13.168539576329913,-7.303441464534762,-8.604250342815693,-0.5045126942092143
-9.491707222999999,-94.91707223,6.678928619626976,-0.14679561386300008,0.0005258999999999999,6.809437909515142e-05,0.0,38,10,90.0055591273545,362.0154,mp-1226045,Cr6C3N,https://materialsproject.org/materials/mp-1226045,-0.5031688765545964,17.030531657177875,-8.604250342815693,-0.5045126942092143
-3.3912146327777783,-244.16745356,3.2158427551464728,-1.3997007428177397,1.875e-06,1.0809970484387945e-08,1.7887,7,72,2021.4089835034954,3914.7128,mp-29449,Rb4Cu5Cl9,https://materialsproject.org/materials/mp-29449,48.21116162265372,-10.995474119459761,7.7514854220895835,-0.8866441056736113
-7.091522505,-85.09827006,7.197264506381692,-0.990782111666666,3e-06,1.718089126605154e-07,0.0,62,12,203.49464865517413,882.0056480000002,mp-1095247,ScGeRh,https://materialsproject.org/materials/mp-1095247,29.92565807600253,51.78051621942205,-8.604250342815693,-0.5045126942092143
-7.086865730909091,-155.91104608,4.604070415983993,-1.12580012199091,2.7000000000000004e-06,8.479358586659048e-08,2.0193,2,22,371.08909317053764,1028.895,mp-1246449,Ba3B3N5,https://materialsproject.org/materials/mp-1246449,26.063730619209657,-13.468758478597126,8.207972468618081,-1.4852542182531354
-4.7721579985,-95.44315997,4.766678016794439,-1.4895221872469997,0.0005591,1.1233480144409463e-05,1.0459,166,20,580.0328598596241,1665.0195,mp-1228725,Ba10BrN5Cl4,https://materialsproject.org/materials/mp-1228725,26.80176514380869,-7.083795492571433,7.460529772101848,-6.155187440751614
-7.209710552222222,-129.77478994,6.529893084837616,-0.37201863555555625,0.009744933333333334,0.00046566642763953484,0.0,157,18,243.88291173709862,959.0436,mp-597,TiNi,https://materialsproject.org/materials/mp-597,32.598368288406085,71.59117345487266,-8.604250342815693,-0.5045126942092143
-5.626833562777778,-101.28300413,5.349093322329709,-0.44702714827999934,0.0,0.0,0.0766,2,18,412.4223946945881,1328.53599,mp-1246144,Ba4CoN4,https://materialsproject.org/materials/mp-1246144,4.2796844941503815,6.507578901560897,-8.604250342815693,-0.5045126942092143
-7.3695012675,-29.47800507,7.730975775114893,-0.7590044562499996,7.2313716,0.9565805664599988,0.0,225,4,88.10013079475698,410.168,mp-1183613,CaGdPd2,https://materialsproject.org/materials/mp-1183613,14.508993472548028,45.7988426662397,-8.604250342815693,-0.5045126942092143
-6.044521401,-60.44521401,7.313980062368647,-0.4585995894999996,2.1688859000000003,0.1605450513332168,0.0,123,10,157.44077162758202,693.4607599999998,mp-1215887,YU(CuSi)4,https://materialsproject.org/materials/mp-1215887,-3.5256400180721963,57.632023369690806,-8.604250342815693,-0.5045126942092143
-4.26211906,-42.6211906,5.495846471185463,-0.7838106320000001,1.25e-06,6.646188290562531e-08,0.0,15,10,219.1870035699308,725.4380000000001,mp-1078280,Ca2GaPd2,https://materialsproject.org/materials/mp-1078280,-12.397147114213398,51.003797605921505,-8.604250342815693,-0.5045126942092143
-5.207287908571429,-72.90203072,6.2634615583417705,-1.4300590835714284,1.99990355,0.052914216570656335,0.0,122,14,440.4677423400993,1661.42,mp-675740,Ca(CeTe2)2,https://materialsproject.org/materials/mp-675740,56.44994327273404,22.496443835880683,-1.8431982778464733,-2.4518513857251625
-5.403219265714285,-75.64506972,10.632245639319487,-0.10805583142857143,0.0378235,0.002304697805866734,0.0,120,14,191.26044108812766,1224.6192,mp-30510,Ce(Ni2Sn)2,https://materialsproject.org/materials/mp-30510,29.536260770534852,72.90039489093495,-8.604250342815693,-0.5045126942092143
-3.6844570622222217,-33.16011356,11.579572720043645,-0.6598140688888887,0.0,0.0,0.0,189,9,208.152936636872,1451.5299,mp-11548,YbTlPd,https://materialsproject.org/materials/mp-11548,6.734986010215111,46.530615793878184,-8.604250342815693,-0.5045126942092143
-5.329551672173913,-122.57968846,5.770261361046634,0.5252315457065211,46.0380985,1.2920774965010826,0.0,229,23,415.2467505837671,1442.9545,mp-504492,Y6Fe16O,https://materialsproject.org/materials/mp-504492,55.081370637741976,79.62381992190207,-8.604250342815693,-0.5045126942092143
-5.402362603333334,-32.41417562,10.114368924383069,0.020380829999999392,6.5051709,0.8000716117687118,0.0,166,6,94.75612171462272,577.1610000000002,mp-1215861,Yb2Fe3Cu,https://materialsproject.org/materials/mp-1215861,40.993804524403906,74.1987822424027,-8.604250342815693,-0.5045126942092143
-4.946774544,-98.93549088,3.1906248772760755,-2.0270363088333334,0.0,0.0,2.6407000000000003,59,20,222.2506911855592,427.0412,mp-753783,Li5InO4,https://materialsproject.org/materials/mp-753783,21.365526233938454,-26.830717627366408,9.94528555680738,0.7458247261707883
-3.3803082395,-135.21232958,3.4821145813211425,-1.6649072809920686,0.0,0.0,2.5338000000000003,62,40,1341.1169883797502,2812.2934228,mp-582024,Cs3Cu2Cl5,https://materialsproject.org/materials/mp-582024,48.09056764827488,-11.247519309603168,9.078031788562221,-0.2501085064928649
-5.9547401429999995,-59.54740143,7.528398802927464,-1.4498213724420004,2.82527195,0.2428684127536379,0.0,148,10,135.57095355498362,614.63909,mp-768432,MnTlO3,https://materialsproject.org/materials/mp-768432,-32.29675575375597,-22.8897287724478,-8.604250342815693,-0.5045126942092143
-6.304250792222222,-907.81211408,4.3223260481407895,-2.3245106915277796,29.500000225,0.18676195908453708,0.0,1,144,1840.818735774013,4791.5879,mp-1076198,Sr2Ca6Fe3(CoO4)5,https://materialsproject.org/materials/mp-1076198,-32.675500561006785,-16.276690060240483,-8.604250342815693,-0.5045126942092143
-4.418384095454545,-48.60222505,7.757955110667592,-0.2477609572727272,1.7e-06,8.059552266324611e-08,0.0,107,11,245.81899165952407,1148.454,mp-570702,Sm2Cu4Sn5,https://materialsproject.org/materials/mp-570702,-4.959969790681134,53.88157163921847,-8.604250342815693,-0.5045126942092143
-4.862319444,-48.62319444,7.6373134074383495,-0.3791639840000002,2.525e-05,1.4725656108776041e-06,0.0,127,10,199.831595504773,919.085,mp-1206554,Tb2MgNi2,https://materialsproject.org/materials/mp-1206554,3.894867181717794,59.02179093570665,-8.604250342815693,-0.5045126942092143
-6.1232084945833325,-146.95700387,4.997520898044336,-1.915725776458333,1e-07,4.803048858328007e-09,0.0,5,24,242.63889700711053,730.24056,mp-756927,Li5Nb2Cu5O12,https://materialsproject.org/materials/mp-756927,-64.00605994355693,-12.113865695075955,-4.80590075261186,-2.615692110240431
-7.100283464285713,-149.10595275,8.397920593169577,-0.8076716045238092,4.9175977,0.2296857098371025,0.0,174,21,249.5148791008196,1261.883094,mp-979046,Tm2Co12P7,https://materialsproject.org/materials/mp-979046,11.814475498015803,26.31044730021292,-8.604250342815693,-0.5045126942092143
-6.51730497,-26.06921988,6.82948888087892,-0.658086557499999,2.8999999999999998e-06,4.808523902302555e-07,0.0,225,4,70.28516136571467,289.0698240000001,mp-861616,LiSc2Ir,https://materialsproject.org/materials/mp-861616,7.964860842594977,43.42796748692398,-8.604250342815693,-0.5045126942092143
-6.1481901665,-245.92760666,6.099424637774933,-2.553427325475,0.0,0.0,1.5656999999999996,67,40,587.9753324790079,2159.72713856,mp-1228279,Ba3NaSr(SbO4)3,https://materialsproject.org/materials/mp-1228279,1.6116687391177296,-27.668280188267545,7.558910638006085,-1.263594947551733
-6.532047283181819,-143.70504023,4.0614286625897815,-2.678807685909091,11.9999994,0.522837864670601,0.5871,155,22,267.48018789034177,654.2162969999998,mp-1227024,Ca6Sc(CoO4)3,https://materialsproject.org/materials/mp-1227024,-23.736140285272576,-11.170558661339784,5.680397272200147,-4.46254020881958
-8.019816233333334,-48.1188974,10.172074547533033,-0.5796055638888891,0.0,0.0,0.0,191,6,61.52888465338352,376.911585,mp-7804,HfCo3B2,https://materialsproject.org/materials/mp-7804,7.9502639830113395,39.60234781534013,-8.604250342815693,-0.5045126942092143
-8.609127778425927,-929.78580007,1.8979813311058968,-0.0952450333459267,3.6583333333333336e-06,1.691840785543296e-08,0.0,58,108,2520.0038910629405,2880.342,mp-1097039,CrN2,https://materialsproject.org/materials/mp-1097039,-4.873729400008762,9.691634209944693,-8.604250342815693,-0.5045126942092143
-4.804985448333333,-28.82991269,8.292381689706064,-0.3624913233333332,5e-07,4.871164128220152e-08,0.0,164,6,119.62299427609214,597.372,mp-1225449,DyCuGe,https://materialsproject.org/materials/mp-1225449,-5.268419108810238,56.89122565090054,-8.604250342815693,-0.5045126942092143
-5.6188338,-22.4753352,10.279504680735931,-0.8705472912500003,0.0,0.0,0.0,225,4,79.23080849984649,490.47535000000005,mp-5385,TbSnPd2,https://materialsproject.org/materials/mp-5385,29.122432370731268,41.204872773876545,-8.604250342815693,-0.5045126942092143
-4.636422201666666,-55.63706642,3.066709200803995,0.11430895500000028,3.3333333333333334e-08,1.6567603320260602e-09,0.0,8,12,234.4749679496064,433.032,mp-1094509,MgTi,https://materialsproject.org/materials/mp-1094509,-17.441709087741508,38.81268033237619,-8.604250342815693,-0.5045126942092143
-3.2716963050000003,-58.89053349,3.3836629756905863,-0.15568489074674316,5.0000002,0.12942921219169176,1.6533,140,18,450.2100044255069,917.3882014000001,mp-643706,Cs3MnH5,https://materialsproject.org/materials/mp-643706,2.919564427383792,6.960477282325656,-8.604250342815693,-0.5045126942092143
-5.868872935227272,-258.23040915,3.686574649926957,-0.7812683651836365,4.01544775,0.055082546692292914,0.1955,130,44,849.5665320404796,1886.12876,mp-606338,BaCa4(CoN2)2,https://materialsproject.org/materials/mp-606338,6.69272033967879,8.066585763554185,-8.604250342815693,-0.5045126942092143
-8.576026516388888,-308.73695459,1.4873824851963786,-0.062143771308887125,1.6666666666666667e-08,1.8120782485867401e-10,0.0,194,36,1071.8875579875232,960.114,mp-1016073,CrN2,https://materialsproject.org/materials/mp-1016073,-4.769904249125748,9.726106137212136,-8.604250342815693,-0.5045126942092143
-7.263145185,-217.89435555,10.70922815783402,-0.5554043826666667,3.905e-05,1.0063952165632185e-06,0.0,139,30,452.1993168077312,2916.34556,mp-977049,Hf4Co4Ge7,https://materialsproject.org/materials/mp-977049,46.698645816239605,51.89108372348662,-8.604250342815693,-0.5045126942092143
-2.075063813333333,-18.67557432,2.81837782998938,-0.15039371688888892,4e-06,1.7950554307322658e-07,0.0,12,9,259.6925882741257,440.76761568,mp-568866,Na6ZnSn2,https://materialsproject.org/materials/mp-568866,-10.478502394459444,36.27358800673982,-8.604250342815693,-0.5045126942092143
-5.59433055,-22.3773222,9.795641439466763,-0.8238229368749996,0.0011466,0.00016357134166795225,0.0,225,4,81.69249290222706,481.91,mp-978538,SmSnPd2,https://materialsproject.org/materials/mp-978538,29.212126606106487,40.99902555485753,-8.604250342815693,-0.5045126942092143
-6.299760986470589,-107.09593677,7.5679465371346835,-0.4896138894117645,0.0,0.0,0.20690000000000008,204,17,316.71916553978576,1443.4552,mp-1021508,Ce(As3Ru)4,https://materialsproject.org/materials/mp-1021508,38.60362302814443,7.931036576998101,-8.604250342815693,-0.5045126942092143
-6.541622619285714,-91.58271667,4.13192722574182,-2.0492178914285715,2.99999985,0.24057022683998705,0.0,74,14,145.33050506214192,361.62658999999996,mp-753959,LiVCoO4,https://materialsproject.org/materials/mp-753959,-72.44567538425845,-23.988325075271124,2.5113731073286383,-2.7660818378445553
-5.44906106375,-130.77746553,1.8501474028245903,-0.5280627839877781,0.0001581,5.307192033884895e-06,0.0,141,24,347.1718431852109,386.8136,mp-1245905,Li3TiN2,https://materialsproject.org/materials/mp-1245905,-11.173808542651246,17.59850443929959,-8.604250342815693,-0.5045126942092143
-3.62081664125,-28.96653313,2.4516717588749484,-1.0270210165474998,0.0,0.0,2.0816,71,8,141.2322433480987,208.5197,mp-29025,Li5Br2N,https://materialsproject.org/materials/mp-29025,14.960069955587342,-13.607546096135671,8.423452529672705,-0.6944379590220916
-8.500754318,-42.50377159,9.343848074795087,-0.8961989579999994,7.115168499999999,0.9178762993132259,0.003199999999999648,139,5,90.33966192254809,508.341,mp-22187,Gd(GeRh)2,https://materialsproject.org/materials/mp-22187,11.097870384399792,65.23750958989505,-8.604250342815693,-0.5045126942092143
-6.901976671052632,-262.2751135,4.861056568174365,-0.833365691842105,0.0001337,2.486391985356586e-06,0.0,127,38,626.6704804664053,1834.5131199999998,mp-1196760,Sc5(Si5Rh2)2,https://materialsproject.org/materials/mp-1196760,11.799539907301435,62.601194448578994,-8.604250342815693,-0.5045126942092143
-3.73410019,-22.40460114,1.935729874656096,-1.0979691573858341,0.4642188,0.019590945924114873,0.0,123,6,276.1498084265863,321.9144032,mp-1208929,Sr2CuS2F,https://materialsproject.org/materials/mp-1208929,-24.23720348119453,11.745691866042135,-8.604250342815693,-0.5045126942092143
-3.7606241613636366,-82.73373155,2.6238854621019705,-0.6414295517963637,5e-08,2.1804183189019675e-09,2.3168,109,22,267.24378234054967,422.2828,mp-1190809,Li8TeN2,https://materialsproject.org/materials/mp-1190809,25.69529274460279,-15.50372369859425,6.9046319965706875,-1.4282651717343375
-2.645138133,-26.45138133,3.6165299634554122,-0.0698348150000001,0.0104645,0.0002025280413298031,0.0,227,10,602.158397482634,1311.4560000000001,mp-1214438,Ba4Pd,https://materialsproject.org/materials/mp-1214438,-37.55788210570584,48.2248041140868,-11.32278626405908,-0.29840107214720235
-7.9471569275,-31.78862771,10.131603488790311,-0.83488445375,7.091138900000001,1.0315524550758648,0.0,225,4,80.11283541149629,488.8,mp-1184508,GdSnPd2,https://materialsproject.org/materials/mp-1184508,29.252533405195173,41.00674744445387,-8.604250342815693,-0.5045126942092143
-7.205422705416666,-1037.58086958,6.66613641333586,-2.6539971766666657,20.50050505,0.12276550149249678,0.0,1,144,1946.1022096463244,7812.512980000001,mp-1076483,La4Sm4Co7CuO20,https://materialsproject.org/materials/mp-1076483,-32.864294701655176,-18.89198459094149,-8.604250342815693,-0.5045126942092143
-7.175112902222222,-1033.21625792,3.9699884066000415,-2.7174922948162963,28.999300599999998,0.18026001631664867,0.0,1,144,1874.8457614563933,4482.349260000001,mp-1077688,SrCa7TiMn7O20,https://materialsproject.org/materials/mp-1077688,-29.63431563441802,-11.557857605972009,-8.604250342815693,-0.5045126942092143
-5.467561362068966,-317.118559,3.534512848760813,-1.6940200703186203,0.99907425,0.01369650051667744,0.5323,14,58,850.0913067479645,1809.4477600000002,mp-707485,K4Cu3As4(HO8)2,https://materialsproject.org/materials/mp-707485,-55.28577153821826,-8.189622697135386,2.653912535445353,-0.7749808257155877
-5.91704844,-23.66819376,8.863994840627418,-0.20248939625000076,6.4e-06,8.757761001601052e-07,0.0,225,4,85.16561999208083,454.616,mp-863671,Pm2CuRu,https://materialsproject.org/materials/mp-863671,10.686776068112117,50.25059551815609,-8.604250342815693,-0.5045126942092143
-4.8433476692105275,-184.04721143,8.830418644188422,-0.5111566844736839,1.04058605,0.01764574461981344,0.0,127,38,687.251090243323,3654.66556,mp-1202795,Yb5(Co2Ge5)2,https://materialsproject.org/materials/mp-1202795,20.588866584093807,66.78764188067753,-8.604250342815693,-0.5045126942092143
-4.895090064285714,-102.79689135,2.8037469729939337,-0.4839407573052206,1e-07,5.100658295866915e-09,2.5307,147,21,228.48158211270558,385.78108,mp-643359,Rb2Sn(H2N)6,https://materialsproject.org/materials/mp-643359,-1.9130951743241116,-21.29545679249397,8.775690174138381,0.8448411135601989
-6.829052201111112,-61.46146981,3.2522290731828614,-0.7472261038355552,1.9965948,0.15826362579694006,0.0,44,9,147.02332899671092,287.9508,mvc-11768,Ca3(FeN2)2,https://materialsproject.org/materials/mvc-11768,5.563410348996265,7.776343383654997,-8.604250342815693,-0.5045126942092143
-6.3497099275,-25.39883971,11.068878633424715,-0.9347343624999996,5.2e-06,7.427819883345226e-07,0.0,225,4,81.58670749837543,543.8435,mp-983581,Er2PdRh,https://materialsproject.org/materials/mp-983581,16.923289746958407,53.574765307599876,-8.604250342815693,-0.5045126942092143
-6.143947832916666,-147.45474799,9.601770544732602,-0.5088494790277771,0.0,0.0,0.0,194,24,318.2029240624339,1839.9516,mp-18399,Dy3Ni7B2,https://materialsproject.org/materials/mp-18399,29.821895191330466,84.73568428422045,-8.604250342815693,-0.5045126942092143
-5.4403071635,-108.80614327,4.486331461998383,-1.6221947133750014,13.0,0.8368411466243363,0.0,12,20,181.04133939208256,489.12518,mp-1222861,Li5Co4NiO10,https://materialsproject.org/materials/mp-1222861,-76.5128969620853,-37.364281687967896,2.7851860060071822,1.2516004968109509
-6.164973476666668,-18.49492043,8.176163738559605,0.8620432399999997,0.056116599999999996,0.007751200961891298,0.0,216,3,84.3722791385672,415.43231000000003,mp-567435,UNiSn,https://materialsproject.org/materials/mp-567435,0.8820448509483861,46.975094779903024,-8.604250342815693,-0.5045126942092143
-4.57290762,-9.14581524,9.692168398598305,-0.2841723499999995,1e-07,2.9259257367481333e-08,0.0,221,2,39.830350532108824,232.48021,mp-985,TmCu,https://materialsproject.org/materials/mp-985,-12.300494299372248,57.89887203121806,-8.604250342815693,-0.5045126942092143
-5.7973398299999985,-17.39201949,7.5766311233556936,-0.7376728291666664,2e-07,3.2678741778825074e-08,0.6381999999999994,216,3,71.32505193398362,325.438665,mp-961695,LaCoTe,https://materialsproject.org/materials/mp-961695,9.927079801709214,46.41967717629414,-8.604250342815693,-0.5045126942092143
-6.954701788055555,-250.36926437,3.937922639274324,-2.504676277686667,30.999998600000005,0.7617529728176293,0.0,8,36,474.2692244407593,1124.716415,mp-1247658,SrCa7Mn7CrO20,https://materialsproject.org/materials/mp-1247658,-30.373172034583,-10.236200882035444,-8.604250342815693,-0.5045126942092143
-5.460473861304347,-251.18179762,3.2246787399977204,-0.7720045186434783,3.69626365,0.050023782582868034,0.0,136,46,861.1203265606429,1672.25,mp-1245712,Ca11(TeN5)2,https://materialsproject.org/materials/mp-1245712,8.988254359069545,5.440030356783785,-8.604250342815693,-0.5045126942092143
-6.14614921625,-295.01516238,3.8018097178911225,-2.0843618121093748,10.666666833333332,0.1897534719626616,0.6784000000000001,35,48,655.1133156996556,1499.8841400000001,mp-1096877,Ca3Co4O9,https://materialsproject.org/materials/mp-1096877,-40.451443795736424,-23.98681882349432,-4.4598265993358375,-0.728745691146293
-4.843670175,-48.43670175,6.553192157579273,-0.3054623620000001,1.5e-07,8.018562677492892e-09,0.0,127,10,218.00786327837537,860.3516,mp-5925,Nd2MgNi2,https://materialsproject.org/materials/mp-5925,4.179303769809925,59.42234014001047,-8.604250342815693,-0.5045126942092143
-5.0388179725,-20.15527189,10.266415798490204,-0.6447876512500006,0.00011599999999999999,1.65119243057802e-05,0.0,225,4,81.87243888610156,506.18292,mp-972022,Tm2ZnRh,https://materialsproject.org/materials/mp-972022,12.793855204990734,48.147396696996566,-8.604250342815693,-0.5045126942092143
-3.8914971455555554,-35.02347431,2.7784161795328997,-1.8120060278055168,2.9999993,0.1333786862722522,1.2152,225,9,262.12723439537416,438.591645,mp-571648,Rb2MnCl6,https://materialsproject.org/materials/mp-571648,22.17601451627518,-2.3657364852074974,7.640321537858237,-4.346156127209147
-5.405190921666668,-32.43114553,7.38852564176556,-0.3870648512500008,5.9e-06,7.544546310344523e-07,0.0,187,6,91.13733196100205,405.5132086,mp-1222984,LaAlCuNi3,https://materialsproject.org/materials/mp-1222984,29.312604208875875,76.76044777684903,-8.604250342815693,-0.5045126942092143