energy_per_atom,energy,density,formation_energy_per_atom,total_magnetization_uB,total_magnetization_T,band_gap,sgr,num_sites,cell_volume,weight,mp_id,formula,URL,tsne_cry_lin1_0,tsne_cry_lin1_1,tsne_cry_lin2_0,tsne_cry_lin2_1
-6.8436994975,-27.37479799,8.96083046617358,-0.7957173375000002,0.0001429,2.465942623549125e-05,0.0,225,4,67.53465551448603,364.43985,mp-866156,YGaRh2,https://materialsproject.org/materials/mp-866156,33.202561928914506,57.31292784425425,-8.604250342815693,-0.5045126942092143
-5.527826871111111,-99.50088368,7.4289241892259845,-0.5505783894444447,1e-07,4.297218571780153e-09,0.0,191,18,271.2001863040426,1213.29615,mp-30659,YGa2Ni3,https://materialsproject.org/materials/mp-30659,24.17025022087793,80.02166064032691,-8.604250342815693,-0.5045126942092143
-5.877231205,-35.26338723,11.057056216317344,-0.5164372783333336,6.5e-07,8.626655845519422e-08,0.0,227,6,87.81087640233423,584.7076,mp-2130,LuNi2,https://materialsproject.org/materials/mp-2130,28.05073072906873,82.43212939361067,-8.604250342815693,-0.5045126942092143
-2.17640829,-17.41126632,3.4605981680253994,0.1410935150000001,1.525e-06,9.847640012686957e-08,0.0,225,8,180.47419234716995,376.112,mp-1094636,MgGa,https://materialsproject.org/materials/mp-1094636,-9.008118860759344,83.83148917096807,-8.604250342815693,-0.5045126942092143
-10.27133363,-20.54266726,13.333760982159419,-0.7144244908333341,2e-07,7.860624943303257e-08,0.0,221,2,29.651751245270127,238.097,mp-291,TiOs,https://materialsproject.org/materials/mp-291,63.4927156882727,55.78441149822906,-8.604250342815693,-0.5045126942092143
-7.4300413275,-29.72016531,4.651240789227678,-0.13527589083333336,0.8307269,0.15521496696941509,0.0,216,4,62.37378578842475,174.7116386,mp-999096,Ti2AlCr,https://materialsproject.org/materials/mp-999096,36.19349826801668,59.27514495556922,-8.604250342815693,-0.5045126942092143
-4.9262607425,-19.70504297,7.601658519321232,-0.3625965050000009,3.2e-06,8.095591795005858e-07,0.0,225,4,46.065819789971314,210.8813,mp-1206365,ZnSiNi2,https://materialsproject.org/materials/mp-1206365,35.091898829735115,75.51530239310483,-8.604250342815693,-0.5045126942092143
-5.85359639,-23.41438556,7.642476008347621,-0.1635747387500004,0.22219610000000004,0.05837354530860973,0.0,166,4,44.360638503623974,204.1657,mp-1219285,SiNi3,https://materialsproject.org/materials/mp-1219285,36.10069211167883,79.7371309845017,-8.604250342815693,-0.5045126942092143
-10.02479251,-40.09917004,13.065349627372054,-0.7493078102083324,3.3e-05,6.3817565152268925e-06,0.0,225,4,60.26305400039171,474.158,mp-865717,Ti2ReIr,https://materialsproject.org/materials/mp-865717,63.14817396430319,56.21856309102061,-8.604250342815693,-0.5045126942092143
-6.772363674749999,-270.89454699,7.091373489128481,-0.14233648700000004,20.34511275,0.3169386663853433,0.0,108,40,748.1045607267528,3194.7992316,mp-1219263,Sm6Al3Fe11,https://materialsproject.org/materials/mp-1219263,53.62620694950317,81.68421693090644,-8.604250342815693,-0.5045126942092143
-6.144296762500002,-73.73156115,8.807578355700867,-0.953223639166667,1.525e-06,7.886480409372463e-08,0.0,62,12,225.35336240780327,1195.2849944,mp-568685,TmAlRh,https://materialsproject.org/materials/mp-568685,24.754216176737078,79.50544130664613,-8.604250342815693,-0.5045126942092143
-7.52761464,-30.11045856,14.579608530362133,-0.7943195762500004,0.2175703,0.031431340455976335,0.0,225,4,80.6703860542203,708.2896700000001,mp-1187351,TbHoIr2,https://materialsproject.org/materials/mp-1187351,16.599184111082636,48.98740484599696,-8.604250342815693,-0.5045126942092143
-4.637954791818182,-51.01750271,9.178994971122735,-0.4680190036363634,4.5e-06,2.3457322213629822e-07,0.0,71,11,223.56896068062943,1235.82663,mp-1101786,Tm3(CuSn)4,https://materialsproject.org/materials/mp-1101786,-5.0244948355929635,54.70025204936991,-8.604250342815693,-0.5045126942092143
-3.627671326071429,-101.57479713,4.186207672901946,-0.3825926632142855,5e-08,1.1219289337977788e-09,0.0,194,28,519.3762466357905,1309.344,mp-30778,Mg5Rh2,https://materialsproject.org/materials/mp-30778,-20.6582650696784,42.320304724867746,-8.604250342815693,-0.5045126942092143
-5.3117042925,-84.98726868,7.958939065624097,-0.3102126443750004,0.00019145,1.0235096068832061e-05,0.0,26,16,217.992160083472,1044.8332,mp-1224915,GaNi4Ge3,https://materialsproject.org/materials/mp-1224915,36.88077621021296,71.94260757505091,-8.604250342815693,-0.5045126942092143
-9.1064218025,-36.42568721,13.17558551117925,-0.5867687066666658,1.77e-05,3.5947255002129236e-06,0.0,225,4,57.38322619128731,455.3085386,mp-865442,TiAlOs2,https://materialsproject.org/materials/mp-865442,42.271543965918404,52.799926939401786,-8.604250342815693,-0.5045126942092143
-5.22766807625,-41.82134461,7.8870367733129605,-0.4189273689583333,1e-07,7.457774268836682e-09,0.0,51,8,156.26733060636838,742.22054,mp-21207,LaInNi2,https://materialsproject.org/materials/mp-21207,4.781379909018307,57.79902935241439,-8.604250342815693,-0.5045126942092143
-5.642962007,-56.42962007,6.375715590055279,-0.3269326009999993,3e-06,2.47874660911935e-07,0.0,166,10,141.04787552326886,541.5597690000001,mp-1078240,Si6Ni3Au,https://materialsproject.org/materials/mp-1078240,38.22951080832063,71.66472421328466,-8.604250342815693,-0.5045126942092143
-6.847459898888888,-246.50855636,12.501574365685961,-0.33978894499999984,0.0,0.0,0.13349999999999973,116,36,601.4740399719481,4528.272,mp-541844,Ge5Ir4,https://materialsproject.org/materials/mp-541844,35.21112800852947,51.77106308711426,-8.604250342815693,-0.5045126942092143
-8.02613681,-80.2613681,12.95974211884643,-0.11440891666666746,0.5764904000000001,0.036991205293221065,0.0,127,10,181.62307524459217,1417.48442,mp-20030,U2InCo2,https://materialsproject.org/materials/mp-20030,26.316244256513485,65.17514330710505,-8.604250342815693,-0.5045126942092143
-3.0587713445238083,-128.46839647,0.6708833669401302,-0.12957242230666632,0.12772125,0.00372234279756648,0.0,1,42,399.87497156505685,161.555652,mp-30535,Li2BeH4,https://materialsproject.org/materials/mp-30535,25.821999492252694,80.80328196545045,-6.246575136185447,-3.3479325245251976
-6.620546315,-79.44655578,8.341932595938944,-0.491399859999999,2.841227375,0.14335939273735987,0.0,62,12,230.97089928723386,1160.3121800000001,mp-21155,DyMnGe,https://materialsproject.org/materials/mp-21155,24.37137832167632,69.26505270073987,-8.604250342815693,-0.5045126942092143
-8.440896129655172,-244.78598776,8.212431459384039,-0.19444561862069115,42.848482700000005,1.6717372550047291,0.0,216,29,298.70662467846415,1477.2959999999996,mp-1224794,Fe22B6W,https://materialsproject.org/materials/mp-1224794,41.63343759299315,88.216765653694,-8.604250342815693,-0.5045126942092143
-4.605658757777778,-41.45092882,9.474755427495307,-0.6291260749999997,8.666666666666668e-07,5.497327011509792e-08,0.0,189,9,183.72910049565724,1048.32723,mp-1078772,TmAgGe,https://materialsproject.org/materials/mp-1078772,18.57239049835384,61.673702281340134,-8.604250342815693,-0.5045126942092143
-8.494301685,-33.97720674,12.05565010542402,-0.6150680099999999,5e-07,9.393683340309973e-08,0.0,225,4,62.0313904054548,450.353,mp-865010,HfGaRu2,https://materialsproject.org/materials/mp-865010,41.811549454578845,56.974148564503096,-8.604250342815693,-0.5045126942092143
-8.265028749722221,-297.54103499,10.41060738742669,-0.6450346841666664,6.1e-06,1.1011873671829882e-07,0.0,62,36,645.5740161138342,4047.37104,mp-21659,Hf3(NbGe2)2,https://materialsproject.org/materials/mp-21659,45.893423551967715,59.667464108445536,-8.604250342815693,-0.5045126942092143
-1.5970906149295774,-226.78686732,8.012247109762692,-0.2773885299999999,8.425e-05,3.9196979359644436e-07,0.07309999999999972,194,142,2504.925055778739,12086.483999999999,mp-1204970,Yb13Zn58,https://materialsproject.org/materials/mp-1204970,-0.373923185169572,93.53857742079501,-8.604250342815693,-0.5045126942092143
-7.4755251875,-29.90210075,8.806479598581555,0.026540943749999716,0.0746694,0.0164036137045808,0.0,225,4,53.04940970934715,281.3415,mp-636359,VFe2Sn,https://materialsproject.org/materials/mp-636359,49.59749940228384,66.6180770598608,-8.604250342815693,-0.5045126942092143
-1.466256975,-17.5950837,4.087067482404714,-0.027676082499999904,1e-07,5.328790845106527e-09,0.0,38,12,218.69998488046718,538.2840000000001,mp-1094490,MgZn,https://materialsproject.org/materials/mp-1094490,2.033735584747856,98.69290141954531,-8.604250342815693,-0.5045126942092143
-7.5027195525,-30.01087821,8.604290486185544,-0.16476438375000058,4.0322466,1.0046997156721271,0.0,216,4,46.772246794054965,242.35623999999999,mp-1018024,MnFeCoGe,https://materialsproject.org/materials/mp-1018024,47.62426386753753,48.585245242963246,-8.604250342815693,-0.5045126942092143
-6.2737485125,-25.09499405,14.261105125163644,-0.5866025662499998,1.5399999999999998e-05,3.232538022538702e-06,0.0,225,4,55.52064546373654,476.8245386,mp-862705,AlZnIr2,https://materialsproject.org/materials/mp-862705,40.40491358527771,51.97419740598141,-8.604250342815693,-0.5045126942092143
-6.569371596000002,-32.84685798,8.916326081849837,-0.44070511200000057,1.7729573,0.2604957384964696,0.0,139,5,79.31860740770841,425.90421,mp-4660,Tm(FeGe)2,https://materialsproject.org/materials/mp-4660,16.888514357216568,71.44510762010563,-8.604250342815693,-0.5045126942092143
-6.70616832875,-107.29869326,13.41552465728933,-1.164558415,1.25e-07,5.097715709793128e-09,0.0,62,16,285.76683744278057,2308.7154,mp-1208318,TbSiPt2,https://materialsproject.org/materials/mp-1208318,24.240685205205452,55.96007390668983,-8.604250342815693,-0.5045126942092143
-7.092230095,-28.36892038,4.378609212683009,-0.2798199612499994,0.2150591,0.03821540993518935,0.0,225,4,65.58382300697343,172.935369,mp-999208,Sc2MnSi,https://materialsproject.org/materials/mp-999208,40.989391272058356,63.721080783188675,-8.604250342815693,-0.5045126942092143
-7.5363875444642865,-1266.11310747,7.343104632979431,-0.5833468905952386,0.0094182,5.471139709014505e-05,0.0,191,168,2006.169074061032,8871.52248,mp-1196553,Nb13Co40Si31,https://materialsproject.org/materials/mp-1196553,47.31503919311192,49.21635867114517,-8.604250342815693,-0.5045126942092143
-7.864876295833334,-94.37851555,9.984016750480931,-0.8117256191666679,2.45e-06,1.3825679492734145e-07,0.0,38,12,206.51757989744027,1241.6901544000002,mp-1215327,ZrAlIr,https://materialsproject.org/materials/mp-1215327,33.232173075032755,59.42650596125682,-8.604250342815693,-0.5045126942092143
-2.181760375422535,-309.80997331,8.15495907412406,-0.30569979253521123,0.01311715,6.289618749921987e-05,0.027499999999999858,194,142,2430.4830198694863,11936.178,mp-1203997,Er13Zn58,https://materialsproject.org/materials/mp-1203997,-0.07244633411575815,93.37461775758189,-8.604250342815693,-0.5045126942092143
-6.188186165,-24.75274466,15.698403592876474,-0.019990929999999633,0.0064581000000000005,0.0013963494431386944,0.0,123,4,53.89991457904147,509.559,mp-1224981,FeCuPt2,https://materialsproject.org/materials/mp-1224981,63.92486250191997,47.74363645021418,-8.604250342815693,-0.5045126942092143
-1.318560528125,-21.09696845,6.74790608566388,-0.20196725937499996,6e-07,1.9642789313974297e-08,0.0,193,16,355.97993501672624,1446.59,mp-11465,Mg5Hg3,https://materialsproject.org/materials/mp-11465,-17.233832280340117,63.292872839985066,-8.604250342815693,-0.5045126942092143
-7.5714627775,-30.28585111,12.713552822093144,-0.7641837541666671,0.0,0.0,0.042600000000000186,225,4,59.638096408475754,456.606,mp-864908,MgTiIr2,https://materialsproject.org/materials/mp-864908,39.17754708308299,54.804208594427145,-8.604250342815693,-0.5045126942092143
-7.189165719999999,-43.13499432,11.609985939129398,-0.7687367083333321,1.5e-07,1.6380643816238517e-08,0.0,227,6,106.71801032331899,746.14,mp-1762,ErRh2,https://materialsproject.org/materials/mp-1762,30.633729497304877,65.67772150446821,-8.604250342815693,-0.5045126942092143
-5.25083842125,-84.01341474,8.792017181105436,-0.6015687950000004,1e-07,4.69356054930093e-09,0.0,2,16,248.29901841354692,1314.6629999999998,mp-30923,Ga5Rh3,https://materialsproject.org/materials/mp-30923,36.27253337681774,53.28249280377243,-8.604250342815693,-0.5045126942092143
-8.50416652125,-68.03333217,7.8493296096010114,-0.12095207499999815,1.5e-07,1.8071415847727362e-08,0.0,223,8,96.73341206985693,457.25659999999993,mp-20685,Cr3Ge,https://materialsproject.org/materials/mp-20685,46.06448694745728,64.29459509614561,-8.604250342815693,-0.5045126942092143
-3.402606968,-17.01303484,10.4637818361743,-0.2344943453333329,4.2999999999999995e-06,5.207122239538042e-07,0.0,87,5,96.23833706360708,606.4398,mp-568953,LuAg4,https://materialsproject.org/materials/mp-568953,27.722151450523697,55.4266058576746,-8.604250342815693,-0.5045126942092143
-1.3473385887499998,-129.34450452,5.949176230963625,-0.019260407916666427,0.0,0.0,0.0,12,96,1569.1056887302814,5621.6,mp-580931,MgZn5,https://materialsproject.org/materials/mp-580931,1.2853812615834508,97.37852858398657,-8.604250342815693,-0.5045126942092143
-1.526918057375,-122.15344459,7.692000859475613,-0.2156895771250001,2.575e-06,2.1306470078176816e-08,0.0,204,80,1408.4555855208596,6524.292000000001,mp-1202230,Yb3Zn17,https://materialsproject.org/materials/mp-1202230,0.3782108062278908,93.37670721285885,-8.604250342815693,-0.5045126942092143
-8.268669095,-49.61201457,9.821649625376264,-0.38157329249999933,2.834523,0.31710255225625383,0.0,25,6,104.17360064202616,616.15932,mp-1216846,U2FeSi3,https://materialsproject.org/materials/mp-1216846,22.73735256090756,64.62428981257138,-8.604250342815693,-0.5045126942092143
-5.4471643967857135,-152.52060311,6.342036204014305,-0.8235859024999996,2.035e-05,5.091962336742161e-07,0.0,63,28,465.75406972339243,1778.8375348000002,mp-1208005,Tm2(Al3Rh)3,https://materialsproject.org/materials/mp-1208005,10.298917517428483,83.47042225216181,-8.604250342815693,-0.5045126942092143
-9.288101215833334,-111.45721459,8.110487845315777,-0.8952846658333348,7.12895735,0.35330690312332497,0.0,62,12,235.15343171405632,1148.5481544000002,mp-1212705,GdAlRh,https://materialsproject.org/materials/mp-1212705,3.1953450106551546,68.14872391450018,-8.604250342815693,-0.5045126942092143
-6.786981925625,-108.59171081,7.960088309697079,-0.4902121406249993,2.5e-08,1.1583000251052852e-09,0.0,62,16,251.53381075642253,1205.77192,mp-504835,NbNiAs2,https://materialsproject.org/materials/mp-504835,46.017028416463354,62.880640193174074,-8.604250342815693,-0.5045126942092143
-6.4569305675,-25.82772227,8.715478596729845,-0.008280489999999752,4.2822797,1.129397099544624,0.0,166,4,44.18814694861507,231.9252,mp-1225078,FeNi3,https://materialsproject.org/materials/mp-1225078,37.096603862589724,80.54179584248088,-8.604250342815693,-0.5045126942092143
-2.7203051833333336,-16.321831099999997,8.454835094100355,-0.3790278766666668,8.109999999999999e-05,8.027160437697495e-06,0.0,74,6,117.7433365621998,599.50442,mp-569406,TmZn2,https://materialsproject.org/materials/mp-569406,-0.20887450148048556,93.90462974621006,-8.604250342815693,-0.5045126942092143
-3.22369906,-6.44739812,8.889370564817735,-0.34819651249999994,9.000000000000001e-07,2.3960147244890565e-07,0.0,221,2,43.775433381530654,234.34321,mp-2316,TmZn,https://materialsproject.org/materials/mp-2316,-16.276459445919745,79.07291325246713,-8.604250342815693,-0.5045126942092143
-7.2447752975,-28.97910119,9.928875129867668,-0.27668193500000005,3e-07,6.526716305583593e-08,0.0,225,4,53.567816771458254,320.2985,mp-979910,VCuRh2,https://materialsproject.org/materials/mp-979910,33.62581099124779,66.29240033299202,-8.604250342815693,-0.5045126942092143
-5.166193946666667,-30.99716368,8.73394940005746,-0.5757402033333333,8.599999999999999e-06,8.23042750758897e-07,0.0,63,6,121.77369517148371,640.494,mp-973906,LuGe2,https://materialsproject.org/materials/mp-973906,36.439119265180715,64.28764348518314,-8.604250342815693,-0.5045126942092143
-3.352740415555556,-60.34932748,6.412282425446055,0.003937426388888967,0.196201,0.007527633658265642,0.0,191,18,303.7527151617258,1172.9614,mp-1227643,Ca2Eu(Zn3Ni2)3,https://materialsproject.org/materials/mp-1227643,28.700858452967292,77.72946065663255,-8.604250342815693,-0.5045126942092143
-8.272969325,-182.00532515,7.541522985595948,-0.14712245727272813,3.34160115,0.12449889991920585,0.0,72,22,312.7998421787851,1420.61532,mp-505630,Ta2Cr4Si5,https://materialsproject.org/materials/mp-505630,46.966357103091745,62.0001158222486,-8.604250342815693,-0.5045126942092143
-10.580814589859157,-751.23783588,14.89759390755709,-0.32430687908450656,4.1e-06,3.3301961234844735e-08,0.0,71,71,1434.8003479596719,12872.37,mp-568048,Hf54Os17,https://materialsproject.org/materials/mp-568048,29.87999588776065,61.02480691334543,-8.604250342815693,-0.5045126942092143
-7.9393606575,-31.75744263,7.347181063803013,-0.2813990987499997,3.0000002999999995,0.7938677079874552,0.0,216,4,44.040332491331135,194.859795,mp-1213726,CrFeCoSi,https://materialsproject.org/materials/mp-1213726,47.110172869290075,48.6940294242377,-8.604250342815693,-0.5045126942092143
-7.2091562133333325,-43.25493728,4.79910462396093,-0.32570161499999983,4.4e-05,5.1019860074122266e-06,0.0,164,6,100.50573428614958,290.47045719999994,mp-1208228,Ti3NbAl2,https://materialsproject.org/materials/mp-1208228,35.52652264956888,59.9276229317461,-8.604250342815693,-0.5045126942092143
-8.1319971446875,-260.22390863,4.698347635785499,-0.8567030427232138,2.5e-08,5.902582251656167e-10,0.0,86,32,493.60027000427453,1396.5980960000002,mp-31214,Ti3P,https://materialsproject.org/materials/mp-31214,28.115058585137724,68.71677462716173,-8.604250342815693,-0.5045126942092143
-10.0915699175,-40.36627967,12.882189074142804,-0.4098790799999996,0.0695142,0.012303237043029332,0.0,225,4,65.84632861899235,510.8250000000001,mp-983362,Hf2FeTc,https://materialsproject.org/materials/mp-983362,64.0625725067373,56.68710777551358,-8.604250342815693,-0.5045126942092143
-1.389866637222222,-25.01759947,4.924493353745735,-0.006537100555555576,1.7333333333333336e-06,6.436422376725026e-08,0.0,155,18,313.8448311308899,930.738,mp-1094500,MgZn2,https://materialsproject.org/materials/mp-1094500,2.4609013306546297,98.35473561083671,-8.604250342815693,-0.5045126942092143
-1.7662017886842107,-134.23133594,3.7117381584384983,-0.06706549039473679,0.00075325,6.326205502286171e-06,0.0,63,76,1387.628695709969,3101.7123088000008,mp-1204993,Mg19Al4Zn15,https://materialsproject.org/materials/mp-1204993,1.500256963922984,99.25276158400558,-8.604250342815693,-0.5045126942092143
-7.676724875555557,-69.09052388,7.120077813171375,-0.6751248861111129,1.0752343999999998,0.10026095151790884,0.0,189,9,124.98237004110293,535.9007999999999,mp-1095148,TiFeAs,https://materialsproject.org/materials/mp-1095148,46.016397201090186,63.02609988595667,-8.604250342815693,-0.5045126942092143
-7.058461126,-141.16922252,10.014087890562806,-0.7285048320000002,6.898089925,0.17631590345150516,0.0,14,20,455.94745124623734,2749.6479999999997,mp-607169,Eu(GePt)2,https://materialsproject.org/materials/mp-607169,6.163600805236932,65.7882969336224,-8.604250342815693,-0.5045126942092143
-7.24025274,-21.72075822,11.560895754540342,-0.020123000000000484,1e-07,2.0132620894369344e-08,0.0,216,3,57.886476051506435,403.0134186,mp-961679,TaAlPt,https://materialsproject.org/materials/mp-961679,30.137427924899693,53.25083884266984,-8.604250342815693,-0.5045126942092143
-5.472969123333333,-32.83781474,9.933668131246641,-0.40091988138888895,8e-07,1.0791031145976482e-07,0.0,216,6,86.39815502269217,516.8506,mp-1024983,ErInNi4,https://materialsproject.org/materials/mp-1024983,31.14597659504545,74.74534247358065,-8.604250342815693,-0.5045126942092143
-4.429348206666667,-93.01631234,7.719432463298202,0.3696659676190476,9.936354933333334,0.20938802296569234,0.0,147,21,553.0350893813209,2570.9224050000007,mp-1215986,Yb4Mn3,https://materialsproject.org/materials/mp-1215986,47.576045859022045,68.0500619205414,-8.604250342815693,-0.5045126942092143