energy_per_atom,energy,density,formation_energy_per_atom,total_magnetization_uB,total_magnetization_T,band_gap,sgr,num_sites,cell_volume,weight,mp_id,formula,URL,tsne_cry_lin1_0,tsne_cry_lin1_1,tsne_cry_lin2_0,tsne_cry_lin2_1
-5.205522305,-20.82208922,13.765155540172088,-0.5444281412499992,1.07e-05,2.200530404607248e-06,0.0,225,4,56.667471081202784,469.749,mp-1185305,LiGePt2,https://materialsproject.org/materials/mp-1185305,29.486515861453423,44.52003859575617,-8.604250342815693,-0.5045126942092143
-5.769143725,-23.076574899999997,0.7639417895265831,3.1306744812500016,3.0109167,0.05061974224549468,0.13309999999999975,71,4,693.1963042483638,318.90947000000006,mp-1097620,TaMn2Si,https://materialsproject.org/materials/mp-1097620,-58.94341757193254,40.463833906237774,-8.604250342815693,-0.5045126942092143
-6.473516765,-51.78813412,10.417571060853763,-0.6825452898437501,3.7143095,0.3299436527809023,0.0,139,8,131.1945331679959,823.0630772000001,mp-569227,NpAl2Pd5,https://materialsproject.org/materials/mp-569227,42.426518234979696,55.48379300136893,-8.604250342815693,-0.5045126942092143
-8.765201458620691,-254.19084229999999,8.246374370121705,0.018728744051723683,34.4021585,1.3858436923557398,0.0,225,29,289.30029099699465,1436.6892,mp-641587,Fe21(MoC3)2,https://materialsproject.org/materials/mp-641587,42.06998452441261,87.8314768845137,-8.604250342815693,-0.5045126942092143
-3.9323605225,-15.72944209,0.4967726288972573,1.8283096475000007,2.4933441000000003,0.033110992416704524,0.0,71,4,877.5814773531212,262.540324,mp-1095864,Sc2GaRh,https://materialsproject.org/materials/mp-1095864,-68.12035074835167,44.86340615922906,-8.604250342815693,-0.5045126942092143
-7.364335644264706,-500.77482381,7.878312292316233,-0.4457933783823536,2.2e-06,2.481476657102545e-08,0.0,61,68,1033.2131243808763,4902.008,mp-680655,Zr7Ni10,https://materialsproject.org/materials/mp-680655,30.72038112540396,70.84584327752644,-8.604250342815693,-0.5045126942092143
-5.544859375263158,-105.35232813,7.829262602885696,-0.17601655070175434,0.0002767,6.68973849719907e-06,0.0,204,19,482.0337482425375,2272.737170000001,mp-1209691,Sm12InCo6,https://materialsproject.org/materials/mp-1209691,-31.31713893637821,69.58050132603348,-8.604250342815693,-0.5045126942092143
-7.334843963181819,-161.36656719,7.8284330511895135,-0.045441560493637734,35.5612524,1.5667389302650152,0.0,166,22,264.5195896120626,1247.0492099999994,mp-1192456,Nd2Fe15Co2H3,https://materialsproject.org/materials/mp-1192456,61.67034809904561,74.85839832027666,-8.604250342815693,-0.5045126942092143
-4.449459396071427,-124.58486309,5.976863702764983,-1.1582559321428572,2.875e-06,3.0010517329284764e-08,0.0,214,28,1116.4564693596253,4018.51928,mp-31317,La3PbI3,https://materialsproject.org/materials/mp-31317,-30.85286174734781,38.19392787285014,-8.604250342815693,-0.5045126942092143
-7.610262621333335,-342.46181796,6.928164897970269,-2.297080839916667,2.6219944,0.04740970076714055,0.0,2,45,644.5282732530477,2689.12567,mp-675527,La(WO3)11,https://materialsproject.org/materials/mp-675527,-18.04452280750548,0.4924603229995305,-8.604250342815693,-0.5045126942092143
-9.03795718875,-289.21463004,12.411674028981633,-0.8134154322656233,0.27233685,0.005819626207527141,0.0,194,32,545.3668632101868,4076.3364,mp-1212453,Hf9Mo4O3,https://materialsproject.org/materials/mp-1212453,-5.262206136834691,21.229325270349594,-8.604250342815693,-0.5045126942092143
-4.125436444,-20.62718222,16.772651963882982,-0.6013653760000004,2.4e-06,2.934203446091648e-07,0.0,87,5,95.32316340027107,962.833276,mp-1068773,LuAu4,https://materialsproject.org/materials/mp-1068773,-12.390232150851444,61.10665906615529,-8.604250342815693,-0.5045126942092143
-7.9860044925,-31.94401797,13.17110562118824,-0.79272956375,0.2803469,0.04060147205957353,0.0,225,4,80.46951910000854,638.27017,mp-1187856,YHoIr2,https://materialsproject.org/materials/mp-1187856,16.505173889051193,49.054972994786475,-8.604250342815693,-0.5045126942092143
-6.820549533333333,-122.7698916,8.439891829566507,-0.1493125153240737,14.0812451,0.6834012579989216,0.0,191,18,240.127949067878,1220.479535,mp-4603,Nd3Co13B2,https://materialsproject.org/materials/mp-4603,42.561095173908654,82.812137484641,-8.604250342815693,-0.5045126942092143
-9.344725148888891,-84.10252634,16.58233551292146,-0.7939993874074074,2.9299999999999997e-05,2.53230273149483e-06,0.0,225,9,134.84331616008296,1346.561,mp-1078623,Zr2BIr6,https://materialsproject.org/materials/mp-1078623,39.34611409456245,59.15855101392254,-8.604250342815693,-0.5045126942092143
-8.06537472125,-64.52299777,6.691111011020238,-0.9946010342857149,4.5e-07,3.882901283537021e-08,0.0,11,8,135.06212918384279,544.230324,mp-29153,Zr2NiP,https://materialsproject.org/materials/mp-29153,2.1509073376108194,80.12009642821981,-8.604250342815693,-0.5045126942092143
-7.949486408333333,-381.57534760000004,10.56724234184512,-0.4260943394444444,0.6404362375,0.01022007783739183,0.0,70,48,730.2963356318387,4647.417600000002,mp-1199653,Hf2TiNi3,https://materialsproject.org/materials/mp-1199653,30.98538736850773,71.27964969706132,-8.604250342815693,-0.5045126942092143
-7.395158325,-73.95158325,5.305533565734081,-0.8213263079520005,0.0,0.0,0.27010000000000023,2,10,182.7876509456728,584.0187999999998,mp-1118832,Ca2WN2,https://materialsproject.org/materials/mp-1118832,-8.1330563531282,34.01621184239082,-8.604250342815693,-0.5045126942092143
-6.539494055,-39.23696433,11.671557045939894,-0.4572451183333328,3.74281765,0.4794264430797545,0.0,194,6,90.98171357586851,639.49009,mp-569151,MnGaPt,https://materialsproject.org/materials/mp-569151,46.529851473889245,40.05082835587851,-8.604250342815693,-0.5045126942092143
-7.968758789166666,-95.62510547,9.414413522609369,-0.6078176908333326,1.175e-06,7.229912364014827e-08,0.0,62,12,189.4009971118587,1073.8075199999998,mp-1102532,NbGeRh,https://materialsproject.org/materials/mp-1102532,46.6896809947467,57.154351620997225,-8.604250342815693,-0.5045126942092143
-6.5997620975,-26.39904839,1.4338659729861445,4.259508959999999,0.5222663,0.008085004991570858,0.0,71,4,752.8165158921594,650.0527599999999,mp-1095750,Ta2MoIr,https://materialsproject.org/materials/mp-1095750,-57.64739053029768,40.23004352608058,-8.604250342815693,-0.5045126942092143
-7.8357557725,-94.02906927,12.285440092669651,-0.408570650833332,7.5e-08,5.1394051484109445e-09,0.04550000000000054,62,12,170.06926535305868,1258.25152,mp-1102844,TaNiAs,https://materialsproject.org/materials/mp-1102844,18.663932922469375,28.617992169804683,-8.604250342815693,-0.5045126942092143
-4.84225919,-19.36903676,12.994632532320782,-0.5953052450000005,9.690000000000001e-05,1.2702749549610635e-05,0.0,225,4,88.90034964876158,695.6941979999998,mp-862875,ThGaAu2,https://materialsproject.org/materials/mp-862875,-8.222561265041707,49.70090430306535,-8.604250342815693,-0.5045126942092143
-7.283943610526315,-138.3949286,7.56632573892842,-0.34402383210526244,6.6392352,0.4094900095191105,0.0,166,19,188.9522949581199,860.9701899999999,mp-1188251,Y(Co2B)6,https://materialsproject.org/materials/mp-1188251,39.00072748557186,88.02072830442003,-8.604250342815693,-0.5045126942092143
-9.816511215,-19.63302243,10.746612426616393,0.05978103166666671,0.0011598,0.0003822951288848643,0.0,65,2,35.355889473772116,228.81488,mp-1217887,TaTi,https://materialsproject.org/materials/mp-1217887,59.57250767831804,56.84645554402008,-8.604250342815693,-0.5045126942092143
-9.57726065,-38.309042600000005,13.78625404570154,0.5009478031250012,3.3e-06,4.641932576246444e-07,0.0,225,4,82.8500050738462,687.84364,mp-1186650,PmTa3,https://materialsproject.org/materials/mp-1186650,9.575195416569004,74.32399498843436,-8.604250342815693,-0.5045126942092143
-10.865504305833333,-130.38605167,16.78071973743156,-0.09963154750000076,4.875e-06,2.374606694470881e-07,0.0,194,12,239.25463487707353,2417.80824,mp-1659,ThRe2,https://materialsproject.org/materials/mp-1659,67.07444073226196,59.87447169408736,-8.604250342815693,-0.5045126942092143
-5.7758999321875,-184.82879783,4.1788289377442815,-1.84055096881,20.000001100000002,0.8112856098351361,0.0,6,32,287.2987089195755,723.001465,mp-1100599,Li9Mn2Co5O16,https://materialsproject.org/materials/mp-1100599,-86.02304428963042,-41.781491896969634,2.3467111360557174,-0.17527125416555006
-5.8044388428571425,-325.04857519999996,5.9717842448884895,-1.4992011159821441,8.9997959,0.1925682370294663,0.0,160,56,544.6599396470979,1958.756505,mp-867609,Zn5Co19O32,https://materialsproject.org/materials/mp-867609,-72.23217468779764,-20.72889592035485,-1.956719063319439,-2.482759605977067
-5.8695560425,-23.47822417,0.7189080450738929,3.5123278949999994,1.2379545,0.01335304939718852,0.0,139,4,1080.4424891530314,467.763045,mp-1096246,Hf2MnFe,https://materialsproject.org/materials/mp-1096246,-61.11118749191425,35.39781373102762,-8.604250342815693,-0.5045126942092143
-7.446265030000001,-74.4626503,4.7352861153780665,-0.8899195180000007,8.365e-05,5.6239951126827525e-06,0.0,12,10,173.33985871114857,494.305648,mp-13583,Sc2Si2Ru,https://materialsproject.org/materials/mp-13583,14.90432538830075,74.9058031656493,-8.604250342815693,-0.5045126942092143
-7.2918931762499986,-291.67572705,5.929396634562776,-0.4846141229765621,0.00025110000000000003,3.016495307224908e-06,0.0,176,40,970.1111277649844,3464.04,mp-638048,Mo9Se11,https://materialsproject.org/materials/mp-638048,63.18160992237763,32.46557406601137,-8.604250342815693,-0.5045126942092143
-6.64837752,-26.59351008,11.995838252040404,-0.7744028425000007,4.41e-05,6.660577168341824e-06,0.0,225,4,77.16212026079278,557.424,mp-865320,Lu2PdRu,https://materialsproject.org/materials/mp-865320,17.818925778744468,54.24052930153011,-8.604250342815693,-0.5045126942092143
-8.283482921363635,-182.23662427,8.20362204258419,-0.6749920688090909,0.000328,1.0676341703742052e-05,0.0,2,22,358.03773909369943,1768.8270000000002,mp-1245954,Sr3W3N5,https://materialsproject.org/materials/mp-1245954,-8.260888886839856,33.920821311107396,-8.604250342815693,-0.5045126942092143
-5.317711903,-53.17711903,6.830294959320197,-0.3118130270000002,0.0118851,0.0006751598629113816,0.0,127,10,205.15100620922038,843.8476,mp-19910,Ce2MgNi2,https://materialsproject.org/materials/mp-19910,4.136212743170043,59.39904168413725,-8.604250342815693,-0.5045126942092143
-5.898740735,-23.59496294,7.746577606743119,-0.5380824781249993,3.1e-06,4.311679369406704e-07,0.0,225,4,83.79009128386622,390.889,mp-862885,CaPmRh2,https://materialsproject.org/materials/mp-862885,13.510539406645565,46.268816744549476,-8.604250342815693,-0.5045126942092143
-5.0068217850000005,-60.08186142,3.1792399646919507,-2.831403164141667,2.9961167,0.3266945524546002,0.07979999999999965,123,12,106.87946225488442,204.629611,mp-752884,Li5CoOF5,https://materialsproject.org/materials/mp-752884,-6.566937538378808,11.814440008813335,-3.4002492786953717,-0.621975372597301
-7.25540147,-29.02160588,7.0661693300887665,-0.9578629750000004,0.0008857000000000001,0.00014678553491824641,0.0,225,4,70.32031579136907,299.237324,mp-1186951,Sc2PdRh,https://materialsproject.org/materials/mp-1186951,18.828244468668803,54.09097556005547,-8.604250342815693,-0.5045126942092143
-6.6185265475,-26.47410619,16.758149208275018,-0.8968175956249995,7.38e-05,1.1799454950577996e-05,0.0,221,4,72.89065332401434,735.612,mp-30845,SmPt3,https://materialsproject.org/materials/mp-30845,63.30246965818235,42.939189626119635,-8.604250342815693,-0.5045126942092143
-8.15110110625,-65.20880885,4.993988802351558,-0.3068020492708321,0.0299789,0.0037281150638733295,0.0,156,8,93.7138571166055,281.8397772,mp-1217049,TiAl2Cr3C2,https://materialsproject.org/materials/mp-1217049,-0.3996125732702928,17.650486635499032,-8.604250342815693,-0.5045126942092143
-5.31517571,-212.6070284,6.82416931006254,-0.30927683399999994,0.0658667125,0.0009345877993411919,0.0,14,40,821.3406320643954,3375.3904,mp-1200874,Ce2MgNi2,https://materialsproject.org/materials/mp-1200874,4.140624466885647,59.402478674642886,-8.604250342815693,-0.5045126942092143
-4.9676448075,-19.87057923,7.004674149269266,0.08975767937500034,0.142023,0.012188214927105031,0.0,221,4,135.7988229689332,572.842,mp-1183755,CeNd3,https://materialsproject.org/materials/mp-1183755,-52.850410913980724,68.0781101732609,-8.604250342815693,-0.5045126942092143
-9.542473849375,-152.67958159,11.783842741618502,0.01871804854166648,3.125e-07,1.6397189045806538e-08,0.0,141,16,222.10485170665837,1576.144,mp-28893,ReB,https://materialsproject.org/materials/mp-28893,8.245678349695561,24.965050059408394,-8.604250342815693,-0.5045126942092143
-9.15914871,-36.63659484,10.528214931680012,-0.8079614399999997,6.909128,0.9780187293377736,0.0,225,4,82.32912399175252,521.98635,mp-1187363,TbGdRh2,https://materialsproject.org/materials/mp-1187363,16.470643524799605,51.078185424079344,-8.604250342815693,-0.5045126942092143
-5.72064863,-22.88259452,11.78612969632823,-0.30923829999999963,2.55e-05,3.6025755806816984e-06,0.0,225,4,82.49060846741165,585.49964,mp-861598,Ho2ZnOs,https://materialsproject.org/materials/mp-861598,11.507350878881526,45.549335523798895,-8.604250342815693,-0.5045126942092143
-4.1812997991000005,-418.12997991,4.793768391370231,-1.3335851020049996,8.0072741,0.02188966882836509,0.012599999999999945,2,100,4263.074592161811,12306.96282212,mp-1223438,Na4La31(CoI12)5,https://materialsproject.org/materials/mp-1223438,-29.45172360821816,38.52410050603064,-8.604250342815693,-0.5045126942092143
-7.609041503333334,-136.96274706,10.518996624179596,-0.3989251640740734,5.04948635,0.16565631464584535,0.0,193,18,355.2357247404929,2250.30746,mp-541856,U3TiGe5,https://materialsproject.org/materials/mp-541856,24.823697380291645,63.00525755547896,-8.604250342815693,-0.5045126942092143
-7.548616038333334,-135.87508869,7.46412245779895,-0.5729159193911121,6e-06,2.288998715960411e-07,0.0,15,18,305.4802440377058,1373.1336,mp-1245893,Sr3(WN2)2,https://materialsproject.org/materials/mp-1245893,-8.240812567228486,33.933066116696445,-8.604250342815693,-0.5045126942092143
-4.70007304,-18.80029216,7.499979892157826,0.0052158443749998895,0.0001284,1.1121650061503051e-05,0.0,221,4,134.5467541706157,607.693,mp-1186275,Nd3Lu,https://materialsproject.org/materials/mp-1186275,-52.6564569922532,68.29020328699441,-8.604250342815693,-0.5045126942092143
-6.39449169,-25.57796676,10.591279801083818,-0.8064893949999998,0.0001284,2.1968107953422328e-05,0.0,225,4,68.11610357930478,434.45935,mp-977421,TbGaRh2,https://materialsproject.org/materials/mp-977421,33.52347751092455,57.330134439465645,-8.604250342815693,-0.5045126942092143
-8.70762034736842,-165.4447866,6.056315405162077,-0.4541148178442082,17.9742787,1.1141134353789788,0.0,12,19,188.01802541640225,685.7390499999998,mp-1245829,Mg(Mn5N4)2,https://materialsproject.org/materials/mp-1245829,2.764570264744292,17.93063129399341,-8.604250342815693,-0.5045126942092143
-5.615692429473683,-106.69815616,8.171820966240562,-0.1968699421052632,6.53e-05,1.583460861540308e-06,0.0,204,19,480.59945662810816,2365.11917,mp-1209696,Sm12Co6Pb,https://materialsproject.org/materials/mp-1209696,-31.3390022404124,69.54663786854665,-8.604250342815693,-0.5045126942092143
-8.850212537500003,-106.20255045,11.546198475676427,-0.4573644508333328,1.10331955,0.06942366787040154,0.0,62,12,185.21288049105556,1287.83764,mp-20121,UFeSi,https://materialsproject.org/materials/mp-20121,49.94500669870779,63.9141924115798,-8.604250342815693,-0.5045126942092143
-9.828891448333334,-58.97334869,14.457559242398435,0.12461436208333272,0.012321299999999999,0.0017927113222203442,0.0,227,6,80.09835521331671,697.38,mp-11383,NpFe2,https://materialsproject.org/materials/mp-11383,53.953084851411326,63.67485776706165,-8.604250342815693,-0.5045126942092143
-7.904737208333334,-47.42842325,10.15110475260366,-0.13902593750000014,5e-08,5.141932126280927e-09,0.0,227,6,113.32379041911699,692.7639999999999,mp-1781,NdRu2,https://materialsproject.org/materials/mp-1781,29.58771967460671,63.9981706540841,-8.604250342815693,-0.5045126942092143
-7.448180895,-14.89636179,7.586521448489777,0.25929927500000005,3.0318543,1.4583874828710892,0.0,221,2,24.227735638270588,110.6895,mp-1226196,CrNi,https://materialsproject.org/materials/mp-1226196,34.66522615338738,73.21538487561475,-8.604250342815693,-0.5045126942092143
-6.742098454285713,-377.55751344,4.096571585844813,-2.011585090937143,46.9999994,0.9324099716223528,0.3940999999999999,2,56,587.4465674844953,1449.2383849999999,mp-771651,Li8Mn13Fe3O32,https://materialsproject.org/materials/mp-771651,-67.46175953517539,-38.29788475986387,3.3363944386570004,1.1650034114932857
-8.777701972000001,-43.88850986,8.989414348548564,-0.09199565695199964,0.0492912,0.0074042571112656955,0.0,115,5,77.58277824296111,419.9984,mvc-15736,Mg(WN)2,https://materialsproject.org/materials/mvc-15736,8.681106786809138,70.00129511957407,-8.604250342815693,-0.5045126942092143
-6.08019311,-24.32077244,0.6557683975143945,3.645101775000001,0.0,0.0,0.05969999999999985,71,4,858.9743289517688,339.2201,mp-1096714,ZrCrTc2,https://materialsproject.org/materials/mp-1096714,-62.36492213084661,37.559937808156185,-8.604250342815693,-0.5045126942092143
-9.7469883,-38.9879532,13.994227986081649,-0.4538952037499993,2.37e-05,4.286139372576274e-06,0.0,123,4,64.44058652802232,543.07441,mp-1216633,URu2Rh,https://materialsproject.org/materials/mp-1216633,59.97230569076746,50.60560381065569,-8.604250342815693,-0.5045126942092143
-5.4222364225,-21.68894569,0.7567488249390691,2.679566514166667,0.00012030000000000001,2.131793877036932e-06,0.0,71,4,657.6545730995373,299.7095,mp-1096248,Ti2RuRh,https://materialsproject.org/materials/mp-1096248,-59.868132601355754,35.827930838447685,-8.604250342815693,-0.5045126942092143
-7.226156299076923,-469.70015944,6.419155965784862,-2.228160191134617,0.9522949,0.01168017012940132,0.0,3,65,950.1665064999443,3673.0645,mp-1178164,K(WO3)3,https://materialsproject.org/materials/mp-1178164,-17.10603181781541,0.8698442083780638,-8.604250342815693,-0.5045126942092143
-6.518414535,-26.07365814,12.12197004619772,-0.8761264324999996,6.35e-05,1.1062650583754272e-05,0.0,225,4,66.89473806072246,488.333,mp-865866,LiZrPt2,https://materialsproject.org/materials/mp-865866,28.449181576459132,44.36246196148394,-8.604250342815693,-0.5045126942092143
-6.734859688333334,-40.40915813,8.457618953546653,-0.13090791874999988,3.7434300000000005,0.467793099535446,0.0,216,6,93.25955371053406,474.99863,mp-1219005,SmYCo4,https://materialsproject.org/materials/mp-1219005,42.659399057045185,74.26357582790297,-8.604250342815693,-0.5045126942092143
-6.5363373825,-26.14534953,10.459419688348989,-0.6115647700000002,1.1e-05,1.5370484713577982e-06,0.0,225,4,83.40316840165227,525.3407,mp-1187263,Tb2PdRu,https://materialsproject.org/materials/mp-1187263,16.60599949439739,52.852812888521136,-8.604250342815693,-0.5045126942092143
-5.833547025,-23.334188100000002,10.118074735375123,-0.7540201987500001,1e-07,1.5431570797653673e-08,0.0,221,4,75.52092347158631,460.16765,mp-1571,PrPd3,https://materialsproject.org/materials/mp-1571,61.30873287108083,49.96880953336903,-8.604250342815693,-0.5045126942092143
-1.5310915850000002,-9.18654951,6.6466297555628975,0.010329124999999864,0.0001865,9.78048219973304e-06,0.0,38,6,222.22657694134026,889.5049999999999,mp-1187825,Yb5Mg,https://materialsproject.org/materials/mp-1187825,-51.713499093895074,61.831222652133825,-8.604250342815693,-0.5045126942092143
-5.3841705,-21.536682,10.67960298863998,-0.2134101687499994,0.0007844999999999999,0.00011454305151150966,0.0,225,4,79.81814429969502,513.3430000000002,mp-865917,Lu2ZnTc,https://materialsproject.org/materials/mp-865917,17.79621346587204,57.28185671097926,-8.604250342815693,-0.5045126942092143
-7.451575975999999,-74.51575976,7.30047441984914,-1.0177791979999995,0.0,0.0,0.0,194,10,177.86383596484134,781.9692,mp-8786,Zr2NiAs2,https://materialsproject.org/materials/mp-8786,18.54719551206463,28.71377602067393,-8.604250342815693,-0.5045126942092143