energy_per_atom,energy,density,formation_energy_per_atom,total_magnetization_uB,total_magnetization_T,band_gap,sgr,num_sites,cell_volume,weight,mp_id,formula,URL,tsne_cry_lin1_0,tsne_cry_lin1_1,tsne_cry_lin2_0,tsne_cry_lin2_1
-8.632521544166666,-103.59025853,10.855965407740928,-0.20084970916666714,8.6075e-05,4.542453197466053e-06,0.0,194,12,220.83301284373272,1443.72128,mp-1101968,HoTc2,https://materialsproject.org/materials/mp-1101968,66.57958935486822,60.047808920945776,-8.604250342815693,-0.5045126942092143
-3.5975981595833333,-86.34235583,5.590301453921978,-0.24362531708333302,2.65e-06,7.65791407555002e-08,0.0,15,24,403.28569036686446,1357.68478,mp-571626,Mg3Ga7Co2,https://materialsproject.org/materials/mp-571626,17.479811518860682,84.92977036572067,-8.604250342815693,-0.5045126942092143
-6.390339154827586,-185.31983549,7.373016179753911,-0.5467192196551721,1.9843457999999998,0.05361446377081719,0.0,225,29,431.3331302390885,1915.1769825999997,mp-1193847,Hf6Al16Co7,https://materialsproject.org/materials/mp-1193847,40.09556123739807,45.49562242918085,-8.604250342815693,-0.5045126942092143
-7.59639006625,-60.77112053,7.237407187582513,-0.5826015904166661,1.15e-06,9.94600992191744e-08,0.0,26,8,134.74925717608687,587.3004,mp-1216734,TiMoAs2,https://materialsproject.org/materials/mp-1216734,48.659772531023656,59.46798653982781,-8.604250342815693,-0.5045126942092143
-7.516723709999999,-150.3344742,10.073572863678251,-0.25901989299999995,4.0301775,0.2018734293236383,0.0,8,20,232.66038421834546,1411.422,mp-1225537,Fe(BRh2)3,https://materialsproject.org/materials/mp-1225537,33.84912275258845,53.73659488711997,-8.604250342815693,-0.5045126942092143
-7.0141720576190485,-147.29761321,8.757703080905548,-0.051907944750476116,0.7258654,0.03352956166477395,0.0,12,21,252.29325907493882,1330.597715,mp-1219357,Sm2Co17N2,https://materialsproject.org/materials/mp-1219357,61.97228324514715,75.22588075835472,-8.604250342815693,-0.5045126942092143
-2.7279394052777786,-98.20581859,4.578593994169844,-0.1902637963888891,2.5e-08,3.919791646586067e-10,0.07089999999999996,194,36,743.2834333624447,2049.4508,mp-1207783,Y2Mg3Zn4,https://materialsproject.org/materials/mp-1207783,-0.660880755814921,96.70011315580452,-8.604250342815693,-0.5045126942092143
-6.957834326666667,-83.49401192,12.251261426849942,-0.9198217316666668,0.0,0.0,0.0,62,12,229.7582631273201,1695.1294000000007,mp-22755,TbGeIr,https://materialsproject.org/materials/mp-22755,14.522351595188642,61.18318944987633,-8.604250342815693,-0.5045126942092143
-7.88226307,-15.76452614,7.244992194451165,-1.0425255824999988,0.0,0.0,0.0,221,2,33.889566827079825,147.861412,mp-1780,ScRh,https://materialsproject.org/materials/mp-1780,20.68581452268094,52.22993347330014,-8.604250342815693,-0.5045126942092143