energy_per_atom,energy,density,formation_energy_per_atom,total_magnetization_uB,total_magnetization_T,band_gap,sgr,num_sites,cell_volume,weight,mp_id,formula,URL,tsne_cry_lin1_0,tsne_cry_lin1_1,tsne_cry_lin2_0,tsne_cry_lin2_1
-9.7080790365,-194.16158073,7.1889386800917325,-0.1722018879279986,1e-07,3.919646942127691e-09,0.0,2,20,297.3243494791281,1287.2004,mp-1247512,MoWN3,https://materialsproject.org/materials/mp-1247512,6.670272358647937,18.964178952468906,-8.775138734581011,-3.2792616500314087
-7.859703781111111,-70.73733403,11.33913734543825,-0.7194550161111108,5.666666666666667e-07,3.7378822114914726e-08,0.0,189,9,176.67678284460285,1206.453,mp-20935,ZrSnIr,https://materialsproject.org/materials/mp-20935,32.10614473616629,53.95910184924677,-8.604250342815693,-0.5045126942092143
-6.769877423548388,-419.73240026,4.0645387349578845,-1.971984793681935,31.0002511,0.5056724566095527,0.0,26,62,714.4524673290064,1748.78136424,mp-1094147,Na4Mn9O18,https://materialsproject.org/materials/mp-1094147,-66.60396341826282,-40.55480466211007,1.1991016273628743,-2.3575387039503406
-7.133669790833332,-85.60403749,8.832800121017724,-1.1954420841666658,7.25e-07,4.190509004867656e-08,0.0,62,12,201.62698493885281,1072.501648,mp-9225,ScSiPt,https://materialsproject.org/materials/mp-9225,23.606150296195587,56.362609876002686,-8.604250342815693,-0.5045126942092143
-5.1726001424999986,-124.14240342,6.566385350899893,-0.18414408083333336,7.775e-05,1.2753983504909143e-06,0.0,216,24,710.4474736992937,2809.3719999999994,mp-605835,Nd4MgRu,https://materialsproject.org/materials/mp-605835,-30.927644768415163,68.2515640241064,-8.604250342815693,-0.5045126942092143
-7.147096225,-28.588384899999998,11.107108806936068,-0.36037632875000014,3.75e-05,6.047820713924466e-06,0.0,225,4,72.26196834254347,483.35,mp-865358,DySnRu2,https://materialsproject.org/materials/mp-865358,42.31821535957626,58.690023456076915,-8.604250342815693,-0.5045126942092143
-5.434506,-81.51759,9.518332869314523,-0.38275669100000015,0.0,0.0,0.003599999999999603,148,15,324.0522293675979,1857.4914,mp-540546,Er3Ni2,https://materialsproject.org/materials/mp-540546,2.1695484185491662,58.9664599338985,-8.604250342815693,-0.5045126942092143
-10.40257416,-41.61029664,19.160668730601333,0.2354427359375002,0.0020876,0.00038989390238586426,0.0,225,4,62.39909234363464,720.012182,mp-977325,Np3Be,https://materialsproject.org/materials/mp-977325,-71.98299941431493,44.955225075349425,-8.604250342815693,-0.5045126942092143
-8.020036197500001,-160.40072395,8.483494100184924,-0.7064633008333331,4.0788976,0.17855078449709572,0.0,127,20,266.2309043610586,1360.141648,mp-1219428,Sc2FeB2RuRh4,https://materialsproject.org/materials/mp-1219428,29.713428892895696,50.39740436746008,-8.604250342815693,-0.5045126942092143
-8.0314831325,-96.37779759,7.138869961862134,-0.214028885,0.0004991,2.577579373351913e-05,0.0,21,12,225.65915091183567,970.137585,mp-1215345,Zr8Co3Cu,https://materialsproject.org/materials/mp-1215345,25.654212717476568,58.06359148178072,-8.604250342815693,-0.5045126942092143
-5.1883226475,-207.5329059,4.814492123255096,-1.5323839833750001,2.4682498,0.08533829245227413,0.0,10,40,337.07193122178484,977.29118,mp-769553,Li5Co2Ni3O10,https://materialsproject.org/materials/mp-769553,-68.32474172676125,-24.378218405676478,-8.604250342815693,-0.5045126942092143
-8.137258912777778,-146.47066043,6.293802363514267,-0.6680293416666672,0.0,0.0,0.0,14,18,304.981897273099,1155.9474,mp-2932,Y2Si4Mo3,https://materialsproject.org/materials/mp-2932,51.838379601727155,58.849009878778794,-8.604250342815693,-0.5045126942092143
-7.97498022,-23.92494066,9.445062418159678,0.6694207404166667,4e-07,1.189912803057298e-07,0.0,25,3,39.17619759234917,222.8322386,mp-1228818,AlWC,https://materialsproject.org/materials/mp-1228818,10.478905776723767,90.8665871101448,-8.604250342815693,-0.5045126942092143
-6.29583238,-25.18332952,11.148572788295407,-0.7925460370833335,5.6999999999999996e-05,9.141181456460786e-06,0.0,225,4,72.66912873350772,487.888,mp-977400,ErInRh2,https://materialsproject.org/materials/mp-977400,31.97031659981448,56.051135525337344,-8.604250342815693,-0.5045126942092143
-6.906073135,-41.43643881,3.0108303343172653,-2.265277988697916,6.872226400000001,0.3387456999837697,0.0,123,6,236.42919039601693,428.685,mp-1072327,Sr2GdS3,https://materialsproject.org/materials/mp-1072327,30.490773508975128,12.002789473769047,-8.604250342815693,-0.5045126942092143
-5.08159456,-20.32637824,1.0925482440284406,2.7279365366666664,1.9492777,0.03016786633780282,0.0,71,4,753.0200618477251,495.44800000000004,mp-1097363,HfInRu2,https://materialsproject.org/materials/mp-1097363,-62.196982421715184,39.93859088853396,-8.604250342815693,-0.5045126942092143
-8.375342936666668,-100.50411524,10.975313285289907,-0.6889993416666668,8.5e-07,6.113816259077919e-08,0.0,62,12,162.02572398159947,1070.9071199999996,mp-1208557,TaSiNi,https://materialsproject.org/materials/mp-1208557,43.977601035773574,62.08405319659788,-8.604250342815693,-0.5045126942092143
-7.86301901,-31.45207604,16.38171365064791,-0.6745558625000001,4.54e-05,6.6196706248466675e-06,0.0,225,4,79.92762339084892,788.5098800000002,mp-1187629,YbPaIr2,https://materialsproject.org/materials/mp-1187629,26.65982669897565,60.75509042611474,-8.604250342815693,-0.5045126942092143
-8.272760673703702,-446.72907638,14.546714616159244,-0.24759540870370295,7.53619995,0.10813877783721697,0.0,148,54,812.1726924680901,7114.824820000001,mp-567950,U11Ni16,https://materialsproject.org/materials/mp-567950,44.501359406757715,73.19706079074973,-8.604250342815693,-0.5045126942092143
-6.392311178571428,-89.4923565,4.541980555716304,-2.018569949761905,0.9972313,0.08672486825258828,0.0,166,14,134.00767735472527,366.543785,mp-754682,Li2TiCo3O8,https://materialsproject.org/materials/mp-754682,-73.13649368779751,-24.623162671989498,-3.4021962319595014,-1.6780065506889943
-7.782709497777778,-140.08877096,7.795887872789558,-0.33003279555555626,2.39458595,0.10594485578863268,0.0,2,18,263.40740715563487,1236.64338,mp-1215885,Zr3(MnNi2)2,https://materialsproject.org/materials/mp-1215885,36.67381152458632,67.49876138154903,-8.604250342815693,-0.5045126942092143
-6.234320928333332,-74.81185114,9.335611552796044,-0.5078269769444445,3.5e-07,2.7773051664325584e-08,0.0,191,12,146.86620396257206,825.6872,mp-12965,ErNi4B,https://materialsproject.org/materials/mp-12965,30.42164064048105,85.12564994946952,-8.604250342815693,-0.5045126942092143
-7.234391106666666,-108.5158666,7.088845803384251,-0.7107144917499995,0.0017008,6.260674733474388e-05,0.0,148,15,316.598996258182,1351.5620000000001,mp-1104295,Nd(Mo3Se4)2,https://materialsproject.org/materials/mp-1104295,63.02764001856371,33.04474905944993,-8.604250342815693,-0.5045126942092143
-9.608454461785714,-269.03672493,9.460742235140831,-0.05204953303571358,0.656042,0.02120160908745491,0.0,227,28,360.6120615648704,2054.54836,mp-505574,Co2Mo4C,https://materialsproject.org/materials/mp-505574,57.71475417313846,49.332838961437474,-8.604250342815693,-0.5045126942092143
-6.3024460442857135,-44.11712231,7.049356481968719,-2.38312024375,1.9e-06,1.4391669130140722e-07,0.0,139,7,153.85792202163353,653.1610000000002,mp-1222266,Lu3S4,https://materialsproject.org/materials/mp-1222266,47.31973499715704,17.826916203178328,-8.604250342815693,-0.5045126942092143
-6.464615092000001,-64.64615092,8.286652943285112,-0.5608130826666666,1.3800000000000002e-05,1.3309342029896843e-06,0.0,15,10,120.83699817771549,603.0176,mp-1079900,Dy(NiB)2,https://materialsproject.org/materials/mp-1079900,-25.11433453423474,46.47817808866714,-8.604250342815693,-0.5045126942092143
-8.835043016,-176.70086032,12.456227102822213,-0.38770338533333293,0.0059168,0.00030103157284482404,0.0,127,20,229.06158910389797,1718.26323,mp-1189575,Ta3Co5B2,https://materialsproject.org/materials/mp-1189575,39.95722018723968,85.5295193330503,-8.604250342815693,-0.5045126942092143
-7.575205378793102,-878.72382394,7.697675557644362,-2.1399044140948287,5.999997525,0.044852968999114666,0.0,55,116,1558.9683660167075,7226.8296,mp-560362,W8O21,https://materialsproject.org/materials/mp-560362,-19.408034734119237,1.2368800479956321,-8.604250342815693,-0.5045126942092143
-8.931761605,-178.6352321,9.658952870833495,-0.275917656499999,0.39809965,0.01382252083752516,0.0,136,20,335.6463818407247,1952.3736,mp-567492,Ce2WC2,https://materialsproject.org/materials/mp-567492,-14.999684598986821,32.71226431600358,-8.604250342815693,-0.5045126942092143
-6.8884443499999986,-427.08354969999994,4.147478555177645,-2.3247074094892475,4.98315585,0.09044273624886012,0.0,55,62,642.1081831034461,1603.77435,mp-774513,Li4Ti4Co5O18,https://materialsproject.org/materials/mp-774513,-73.76001184276319,-23.913990948297833,-4.779200975444692,-2.62512022600096
-7.728746661111112,-139.1174399,8.126447613226611,-0.6817333022222216,0.0002408,9.346679409623372e-06,0.0,14,18,300.24553900318864,1469.36,mp-1106326,Er2Si4Mo3,https://materialsproject.org/materials/mp-1106326,51.844020169217146,58.8357053698728,-8.604250342815693,-0.5045126942092143
-5.283507501666667,-31.70104501,5.6128153375981125,-1.727325684213542,1.25e-05,8.979626461635306e-07,0.0,71,6,162.22925338752532,548.35376928,mp-1220968,NaNd2Se3,https://materialsproject.org/materials/mp-1220968,30.60336412630477,11.897095354843843,-8.604250342815693,-0.5045126942092143
-7.473223917599999,-747.32239176,4.789581235086517,-1.0975079668588352,2.5e-07,1.3304277246458488e-09,0.0,167,100,2189.9094097091834,6316.4724,mp-579861,Rb4Mo21S25,https://materialsproject.org/materials/mp-579861,67.04651289193119,33.35121225222702,-8.604250342815693,-0.5045126942092143
-7.18136755,-172.3528212,8.4341752194942,-0.20300541619791565,18.5406487,0.7071425195684479,0.0,187,24,305.5592258925957,1551.9900400000001,mp-1220278,Nd4Fe4Co12B3C,https://materialsproject.org/materials/mp-1220278,42.46296312747879,83.19322603242638,-8.604250342815693,-0.5045126942092143
-7.730314705277778,-278.29132939,8.370353964308581,-0.6925329852777771,0.00082155,1.6085305732466913e-05,0.0,62,36,595.2262936831381,3000.384,mp-1194888,Lu2Si4Mo3,https://materialsproject.org/materials/mp-1194888,51.77625864581501,58.804388470043484,-8.604250342815693,-0.5045126942092143
-5.355415355,-21.42166142,0.7790987954290554,3.2494058225,4.6007107000000005,0.06266009262336858,0.0,71,4,855.6798793752887,401.4715386,mp-1096748,HfAlTc2,https://materialsproject.org/materials/mp-1096748,-61.30739783790804,38.570962059951135,-8.604250342815693,-0.5045126942092143
-8.440734210625,-135.05174737,7.583189063769468,0.2492182415625006,18.5240641,1.3821554021185714,0.0,6,16,156.19129552403822,713.2792999999998,mp-995285,VFe11C4,https://materialsproject.org/materials/mp-995285,42.123431114800184,87.59719308835321,-8.604250342815693,-0.5045126942092143
-5.978364356428571,-83.69710099,4.468503187790675,-1.6345322879257134,8.0000006,0.6715159339615789,0.0,166,14,138.8388874451499,373.61483,mp-753177,Li2MnCo3O8,https://materialsproject.org/materials/mp-753177,-72.31741435653109,-22.24460511128408,-8.604250342815693,-0.5045126942092143
-4.58883754,-110.13210096,7.105193391254015,-0.3842371858333333,0.137273075,0.002187089611793089,0.0,216,24,731.4694829842177,3129.8464,mp-1209682,Pr4CdPd,https://materialsproject.org/materials/mp-1209682,-29.078385795530163,67.16696157824614,-8.604250342815693,-0.5045126942092143
-5.287382905,-21.14953162,12.31272536942872,-0.8269181516666668,8.170000000000001e-05,1.1017120728429117e-05,0.0,225,4,86.42340547845555,640.82062,mp-865281,Tm2AgPt,https://materialsproject.org/materials/mp-865281,16.960807395824713,55.74694984303231,-8.604250342815693,-0.5045126942092143
-7.0264986078125,-224.84795545,12.693468256022294,-0.8479315271874999,0.0005022000000000001,7.915890737837962e-06,0.0,130,32,739.3572653553322,5651.784000000001,mp-1201760,Er5Ir3,https://materialsproject.org/materials/mp-1201760,16.469602368590415,48.43967383207135,-8.604250342815693,-0.5045126942092143
-7.395722951066668,-554.67922133,6.340007317054192,-2.101723896366668,1.4643417333333335,0.014838716829698353,0.0,38,75,1150.0680015184246,4391.0076,mp-694895,Ge(WO3)6,https://materialsproject.org/materials/mp-694895,-17.835923853011078,0.3897045695789073,-8.604250342815693,-0.5045126942092143
-7.883692984166667,-94.60431581,6.601247659211143,-0.8560818291666669,2.84e-05,1.8454444299481861e-06,0.0,62,12,179.34728034589904,712.97078,mp-1102565,ZrCoSi,https://materialsproject.org/materials/mp-1102565,45.01115644435826,58.475222787513644,-8.604250342815693,-0.5045126942092143
-4.5389222770833335,-108.93413465,7.4068502445939925,-0.2466934229166669,0.032984075,0.0005730105092054019,0.0,216,24,670.840308053015,2992.2896,mp-1210076,Nd4CdNi,https://materialsproject.org/materials/mp-1210076,-30.53182373344192,68.64502993765285,-8.604250342815693,-0.5045126942092143
-7.806537819000001,-78.06537819,7.241382188014468,0.05029864404800009,2.62286475,0.3318894340684127,0.0,59,10,92.1000566708694,401.63567,mp-1245606,Mn(CoN)2,https://materialsproject.org/materials/mp-1245606,2.6910517819249775,16.649600424284543,-8.604250342815693,-0.5045126942092143
-7.2119135,-108.17870249999999,7.272454967806133,-0.6974122772500001,6.29e-05,2.3498023096646724e-06,0.0,148,15,311.95844483556283,1366.24535,mp-1104522,Tb(Mo3Se4)2,https://materialsproject.org/materials/mp-1104522,63.04255530425311,33.030118176298124,-8.604250342815693,-0.5045126942092143
-5.94165652,-23.76662608,0.9775670541978216,3.7406801525,0.8809749,0.012829201411869336,0.0,71,4,800.278849632879,471.12788,mp-1093685,HfTaFe2,https://materialsproject.org/materials/mp-1093685,-60.74278448026337,35.422919281580484,-8.604250342815693,-0.5045126942092143
-8.402848174285714,-117.63987444,9.533392697545848,-1.2412395683673478,0.00013895,5.689588928442049e-06,0.0,220,14,284.6132331374918,1634.0053759999996,mp-567978,Pa3P4,https://materialsproject.org/materials/mp-567978,-41.870449042997286,43.089333264599226,-8.604250342815693,-0.5045126942092143
-6.253961325833332,-75.04753591,3.719106924302221,-2.6027438427083323,4.0000001,0.4545026063820274,0.9196999999999996,12,12,102.56544099213028,229.7156722,mp-1222601,Li3Al2CoO6,https://materialsproject.org/materials/mp-1222601,-35.25057076388984,-41.16558802301309,8.320272002968162,0.5724437106220527
-6.8223227060000005,-102.33484059,10.477064344975043,-0.8389972079999988,2.925561633333333,0.08846965891407901,0.0,148,15,385.38279891069396,2431.548,mp-1104731,Ce3Pt2,https://materialsproject.org/materials/mp-1104731,12.690252686001545,54.84746294995711,-8.604250342815693,-0.5045126942092143
-7.410994355789473,-140.80889276,7.473069850782691,0.12477152689263292,1.0266361,0.07110756109802485,0.0,12,19,168.2589505601874,757.23055,mp-1247046,Fe(Co5N4)2,https://materialsproject.org/materials/mp-1247046,2.550802495810694,16.630013719080406,-8.604250342815693,-0.5045126942092143
-6.9901205525,-27.96048221,13.086413408883557,-0.6077067362499999,2.2800000000000002e-05,3.3177132535636103e-06,0.0,225,4,80.08910249520648,631.1679999999999,mp-867213,Er2OsPd,https://materialsproject.org/materials/mp-867213,12.17604590921117,45.241526615961284,-8.604250342815693,-0.5045126942092143
-7.5029958975,-570.22768821,5.97147637697845,-2.2917268709022567,1.000000725,0.010579678680687746,0.0,19,76,1101.5526627505349,3961.3014479999997,mp-557415,P(W2O7)2,https://materialsproject.org/materials/mp-557415,-18.72926935283811,-0.3923987996658843,-8.604250342815693,-0.5045126942092143
-5.798736,-23.194944,0.5911655053070786,4.117254135000001,2.0344337,0.02521476069268301,0.0,71,4,940.2993113537036,334.75426,mp-1093858,Nb2VTc,https://materialsproject.org/materials/mp-1093858,-59.743995409282725,42.36938228495981,-8.604250342815693,-0.5045126942092143
-8.956034796428572,-250.76897430000002,8.481404032943372,-0.25676706624999923,1.49954125,0.047729355031920224,0.0,227,28,366.1426148528044,1870.1177,mp-505601,Nb3Co3C,https://materialsproject.org/materials/mp-505601,22.112247627605658,42.106706858205634,-8.604250342815693,-0.5045126942092143
-6.18149491,-24.72597964,0.8460559780850462,4.08842337125,1e-07,1.3872164711557658e-09,0.025900000000000038,71,4,840.1042674219443,428.03885999999994,mp-1096196,Nb2CrOs,https://materialsproject.org/materials/mp-1096196,-59.228906813598535,42.653204208231,-8.604250342815693,-0.5045126942092143
-7.179852788333334,-86.15823346,5.990296292120337,-0.6097904058333334,3.85e-06,2.745266113407238e-07,0.0,194,12,163.438251596919,589.5938179999998,mp-27319,Sc2Co3Si,https://materialsproject.org/materials/mp-27319,60.31550336491435,63.7556160738412,-8.604250342815693,-0.5045126942092143
-7.0615523075,-28.24620923,4.909929365746113,-0.3686387700000005,8.5e-06,1.3630114542043801e-06,0.0,225,4,72.67697586927517,214.89336260000002,mp-862543,Sc2AlTc,https://materialsproject.org/materials/mp-862543,19.338010718984762,56.916299448752156,-8.604250342815693,-0.5045126942092143
-6.0458502825,-120.91700565,9.521228022833633,-0.637125657,0.00062385,1.4244895387761976e-05,0.0,186,20,510.38551779098884,2926.45748,mp-1106336,Ho7Rh3,https://materialsproject.org/materials/mp-1106336,-32.445537939935,70.6654104723696,-8.604250342815693,-0.5045126942092143
-6.6487135063333325,-398.92281038,3.714702721299679,-2.018791111922667,14.999999675,0.2652547861655219,0.21660000000000013,1,60,659.0303998953683,1474.28152,mp-1097905,Li3Mn4O8,https://materialsproject.org/materials/mp-1097905,-70.43845988085364,-37.96456402595417,-8.604250342815693,-0.5045126942092143
-8.620377474222222,-387.91698634,5.084412835805315,-3.2313508372777773,0.0031982,5.8214655027125424e-05,0.0,38,45,640.2516675265585,1960.3898,mp-1218643,Sr3Nd2Nb10O30,https://materialsproject.org/materials/mp-1218643,-41.45591736100733,28.39884733061709,-8.604250342815693,-0.5045126942092143
-6.273646075,-25.0945843,10.896741571840543,-0.7608515558333337,2.98e-05,4.717133260794811e-06,0.0,225,4,73.62334515937805,483.129,mp-861892,DyInRh2,https://materialsproject.org/materials/mp-861892,31.95904860128007,56.00352197294639,-8.604250342815693,-0.5045126942092143
-6.746148382666666,-101.19222574,6.883085888883978,-0.4791625155833335,1.3699999999999998e-05,5.014719836582889e-07,0.0,148,15,318.3840624940338,1319.7309999999998,mp-1103966,Cd(Mo3Se4)2,https://materialsproject.org/materials/mp-1103966,63.16993074642315,32.43819243702516,-8.604250342815693,-0.5045126942092143
-6.940643024615384,-90.22835932,13.306150202299705,-0.2801044283333323,1e-07,5.280585506059311e-09,0.0,189,13,220.69645040662644,1768.4740000000004,mp-28998,Sn5(BIr3)2,https://materialsproject.org/materials/mp-28998,42.82586430837538,41.50661264717924,-8.604250342815693,-0.5045126942092143
-9.136429473,-91.36429473,12.170318024177739,-0.2905389307500002,10.2676992,0.605587325816511,0.0,127,10,197.5940156617737,1448.1936,mp-640051,Pu2Ni2Sn,https://materialsproject.org/materials/mp-640051,3.201903037746312,60.12151403932812,-8.604250342815693,-0.5045126942092143
-8.7011902475,-34.80476099,14.067113115056426,-0.29490533562499976,2.15e-05,3.4877286027877227e-06,0.0,225,4,71.84113821521555,608.596,mp-866012,Hf2ZnRe,https://materialsproject.org/materials/mp-866012,57.12462009223042,46.01164757834811,-8.604250342815693,-0.5045126942092143
-6.827612262222222,-61.44851036,11.690338111268591,-1.0893336122222226,3.153333333333333e-05,1.899105504615311e-06,0.0,189,9,193.50768468012132,1362.3107957999998,mp-1078902,ThAlPt,https://materialsproject.org/materials/mp-1078902,7.27108506423167,71.41651020000769,-8.604250342815693,-0.5045126942092143
-7.411649247777778,-133.40968646,8.932894480977607,-0.777030139444444,0.0,0.0,0.0,190,18,348.92309818075563,1877.037,mp-4667,ZrSnRh,https://materialsproject.org/materials/mp-4667,32.096382006182715,53.98622266096685,-8.604250342815693,-0.5045126942092143