energy_per_atom,energy,density,formation_energy_per_atom,total_magnetization_uB,total_magnetization_T,band_gap,sgr,num_sites,cell_volume,weight,mp_id,formula,URL,tsne_cry_lin1_0,tsne_cry_lin1_1,tsne_cry_lin2_0,tsne_cry_lin2_1
-8.223842973928571,-230.26760327,10.639685770584009,0.005006743214285133,2.8454662,0.08352531226050665,0.0,62,28,397.0203343808265,2543.85564,mp-21701,UFe5Sn,https://materialsproject.org/materials/mp-21701,51.11084741260171,69.96329828001036,-8.604250342815693,-0.5045126942092143
-5.855406866315789,-222.50546092,9.205298930750713,-0.19828636421052626,6.8218512,0.16749502266661806,0.0,194,38,474.65467622763566,2631.277,mp-569945,Tb2Ni17,https://materialsproject.org/materials/mp-569945,30.9857993919969,79.94981072112562,-8.604250342815693,-0.5045126942092143
-8.199779566551724,-237.79360743,8.596972041170226,0.011637802068966313,14.6690891,0.3928127286058552,0.0,225,29,435.2061480609088,2253.156955,mp-669648,Ho6Mn23,https://materialsproject.org/materials/mp-669648,56.13122656276636,68.1090427539959,-8.604250342815693,-0.5045126942092143
-8.396080355,-33.58432142,6.649513933155262,-0.3802057783333339,0.022778299999999998,0.0050715114502560815,0.0,225,4,52.34332727285715,209.60524,mp-863690,Ti2MnCo,https://materialsproject.org/materials/mp-863690,46.072585750512616,75.63020809149667,-8.604250342815693,-0.5045126942092143
-5.842985222307693,-75.95880789,8.723010143999755,-0.17913183692307766,9.5901074,0.6456827096431432,0.0,139,13,173.09389139005097,909.28291,mp-1208588,Tb(GaCo2)4,https://materialsproject.org/materials/mp-1208588,44.22180363819985,47.33981852825535,-8.604250342815693,-0.5045126942092143
-7.19391434,-43.16348604,8.651732721666308,0.018089275833332863,3.74022595,0.4333263619591853,0.0,227,6,100.59123864108277,524.1,mp-1729,SmFe2,https://materialsproject.org/materials/mp-1729,43.25125553806245,70.03221770147992,-8.604250342815693,-0.5045126942092143
-6.957394743421053,-264.38100025,7.008313049174019,-0.14321715710526242,23.1844522,0.5045589335102318,0.0,194,38,535.5035650154332,2260.095386,mp-1197186,Dy2Al5Fe12,https://materialsproject.org/materials/mp-1197186,47.88949780551596,71.26523221600192,-8.604250342815693,-0.5045126942092143
-7.3853631375,-29.54145255,8.36609674824807,-0.8052372116666664,2.05e-05,4.5820649323693114e-06,0.0,225,4,52.13988264324706,262.690182,mp-866143,TiBeRh2,https://materialsproject.org/materials/mp-866143,39.61560984708785,69.57531358613267,-8.604250342815693,-0.5045126942092143
-6.902931638333333,-41.41758983,8.442734007065651,0.2070627016666672,1.7892087,0.2998204199758064,0.0,227,6,69.54681099809649,353.59917,mp-1072089,Co,https://materialsproject.org/materials/mp-1072089,46.42076228707301,78.10855404083634,-8.604250342815693,-0.5045126942092143
-10.413755885,-62.48253531,9.10161578992832,-0.0793991216666683,3.5752545,0.4245886702941759,0.010899999999999466,227,6,98.13320617461859,537.88,mp-20089,GdFe2,https://materialsproject.org/materials/mp-20089,43.226520672604856,69.99548477151326,-8.604250342815693,-0.5045126942092143
-7.085151715384615,-92.1069723,6.0003168191539045,-0.2283483438461535,15.137987300000002,0.990512625128048,0.0,139,13,178.10887013941849,643.5920044,mp-1207708,Y(AlFe2)4,https://materialsproject.org/materials/mp-1207708,47.87610834415854,71.35607260511173,-8.604250342815693,-0.5045126942092143
-8.20115659,-16.40231318,7.992122529815306,0.17219251000000035,2.9364917,1.4848172192855302,0.0,221,2,23.04799811814616,110.929295,mp-1010071,CrCo,https://materialsproject.org/materials/mp-1010071,45.820853088010686,76.46884960584036,-8.604250342815693,-0.5045126942092143
-8.214808864285715,-172.51098615,7.853434200345867,-0.03858171345238285,36.1341601,1.5631484115647991,0.0,12,21,269.39850316956625,1274.1064,mp-1219247,Sm2Fe17C2,https://materialsproject.org/materials/mp-1219247,57.38720008947021,75.1281169900178,-8.604250342815693,-0.5045126942092143
-8.559837156,-42.79918578,8.195261201822987,0.03987739199999965,9.6586897,1.996034235507533,0.0,69,5,56.393319001982796,278.31804500000004,mp-1221635,MnFe4,https://materialsproject.org/materials/mp-1221635,52.316521956104616,70.08669603357049,-8.604250342815693,-0.5045126942092143
-5.798900395,-23.19560158,6.98662695632179,-0.568970728750001,3e-07,6.338787156310058e-08,0.0,225,4,55.15596825628597,232.065712,mp-11400,ScGaNi2,https://materialsproject.org/materials/mp-11400,31.959403704261074,76.51070085727201,-8.604250342815693,-0.5045126942092143
-7.993545752222222,-143.88382354,9.462039881322386,-0.3696999233333334,12.9273725,0.5917571146344516,0.0,166,18,254.59167744366292,1450.7076,mp-669713,Gd2Ni7,https://materialsproject.org/materials/mp-669713,29.02626369190061,81.2068770853022,-8.604250342815693,-0.5045126942092143
-6.35469626,-38.12817756,7.341900719127174,-0.16891758124999967,4.1210133,0.5287200226108598,0.0,187,6,90.83551572270927,401.61978860000005,mp-1222930,LaAlCo4,https://materialsproject.org/materials/mp-1222930,40.79735881962796,77.82157797239744,-8.604250342815693,-0.5045126942092143
-6.192768670263157,-235.32520947,10.010375820134547,-0.24275983342105326,0.00510585,0.0001226901869818052,0.01909999999999989,194,38,484.9932018426075,2923.72784,mp-30810,Th2Ni17,https://materialsproject.org/materials/mp-30810,30.767620916009914,79.85743948521215,-8.604250342815693,-0.5045126942092143
-7.0793701025,-28.31748041,6.450356982072039,-0.6130652991666672,0.9993146999999999,0.23474643472091095,0.0,225,4,49.61131041592615,192.71492859999998,mp-5407,TiAlCo2,https://materialsproject.org/materials/mp-5407,44.273643803144864,47.626633490516035,-8.604250342815693,-0.5045126942092143
-7.53809783625,-60.30478269,9.253184799577282,0.08421023375000036,2.2660504,0.31751378195587704,0.0,194,8,83.17339164557795,463.47525999999993,mp-1186063,MnCo3,https://materialsproject.org/materials/mp-1186063,46.87563233595961,79.6523075503174,-8.604250342815693,-0.5045126942092143
-6.026137627368421,-228.99322984,8.282517743548544,-0.17534139263157936,0.1756832,0.004343417301380273,0.0,194,38,471.3853747370575,2351.199,mp-1196175,Y2Ni17,https://materialsproject.org/materials/mp-1196175,31.050696839976077,79.99189346629561,-8.604250342815693,-0.5045126942092143
-9.46599794375,-75.72798355,12.874849992282655,-0.010160490625001016,0.012751299999999998,0.0016285772196952546,0.0,194,8,91.24803806487472,707.4839999999998,mp-865212,Fe3Re,https://materialsproject.org/materials/mp-865212,53.032018156203286,72.40147822739915,-8.604250342815693,-0.5045126942092143
-7.181135455,-43.08681273,8.549118142526952,0.027276149166665917,7.7509266000000006,0.8888423805632706,0.0,216,6,101.62634300415868,523.2130000000001,mp-1217477,TbPrFe4,https://materialsproject.org/materials/mp-1217477,43.064537541667484,70.04529710777928,-8.604250342815693,-0.5045126942092143
-6.3536691166666674,-38.12201470000001,8.899393540128328,-0.02530769916666624,1.73800325,0.20707535518095546,0.0,227,6,97.81367962749279,524.21678,mp-445,NdCo2,https://materialsproject.org/materials/mp-445,42.80402701388257,74.67079307142491,-8.604250342815693,-0.5045126942092143
-7.3917548417647065,-125.65983231,7.952512443129356,-0.05752586852941189,25.1223937,1.3509424878274443,0.0,155,17,216.7212935114541,1037.9032,mp-1225179,Fe12Ge3As2,https://materialsproject.org/materials/mp-1225179,49.23992993530901,67.82881686232264,-8.604250342815693,-0.5045126942092143
-8.0168828525,-32.06753141,6.578271442108346,-0.3339427408333337,1.64e-05,3.616420900735575e-06,0.0,225,4,52.849673065185534,209.365445,mp-865712,Ti2MnNi,https://materialsproject.org/materials/mp-865712,51.824748702468945,68.04249014259285,-8.604250342815693,-0.5045126942092143
-7.9191535225,-31.67661409,10.24116484176424,-0.4632662725000003,1.9930330000000003,0.439690103365476,0.0,225,4,52.825695866396245,325.7958086,mp-3340,TaAlCo2,https://materialsproject.org/materials/mp-3340,44.365602944456676,46.631800078288244,-8.604250342815693,-0.5045126942092143
-5.9141116333333335,-35.4846698,9.544688233901624,-0.3376627008333332,1.5314428,0.2226630446882995,0.0,191,6,80.15489778132918,460.726,mp-853,ErNi5,https://materialsproject.org/materials/mp-853,29.910172373927928,80.92883189549512,-8.604250342815693,-0.5045126942092143
-5.7177307046428565,-160.09645973,8.938420375466395,-0.33690564500000064,0.000122775,3.4604861298604827e-06,0.0,194,28,413.47595359635307,2225.676,mp-1192615,NdNi5Sn,https://materialsproject.org/materials/mp-1192615,29.084875935187448,80.93170042636613,-8.604250342815693,-0.5045126942092143
-5.91310588,-35.47863528,9.45277533651272,-0.33488184916666697,1.5209502000000001,0.2201205542341325,0.0,191,6,80.52520223887883,458.39732000000004,mp-1553,HoNi5,https://materialsproject.org/materials/mp-1553,29.901610332733437,80.92454003848489,-8.604250342815693,-0.5045126942092143
-5.744559946071428,-160.84767849,8.678277457858707,-0.3406640350000001,0.018583475,0.0005134666111221386,0.0,194,28,421.7859869718527,2204.32988,mp-1193093,LaNi5Sn,https://materialsproject.org/materials/mp-1193093,28.628468399118066,80.72480040832086,-8.604250342815693,-0.5045126942092143
-7.479034236666667,-44.87420542,9.192616631017836,-0.31658574500000114,5.4932857,0.7863135027897651,0.038399999999999324,191,6,81.41677223504652,450.717,mp-21305,GdNi5,https://materialsproject.org/materials/mp-21305,29.757033805988613,80.84757147866145,-8.604250342815693,-0.5045126942092143
-6.38038672,-38.28232032,8.15540156252611,-0.20439394749999928,4.3440983,0.5774040763425615,0.0,187,6,87.67933071627795,430.619295,mp-1219805,PrMnNi4,https://materialsproject.org/materials/mp-1219805,29.370057241504398,80.6325691285355,-8.604250342815693,-0.5045126942092143
-5.6544637911111115,-101.78034824,8.1137985781716,-0.2738543441666665,2.8669596,0.12867762112509706,0.0,160,18,259.65457386121403,1268.73555,mp-1219896,Pr3MgNi14,https://materialsproject.org/materials/mp-1219896,28.58048567826264,80.94453269871343,-8.604250342815693,-0.5045126942092143
-5.855287463157895,-222.5009236,9.574317838349033,-0.2088612631578952,6.9323025,0.17281579523260976,0.0,194,38,467.4891102936219,2695.4436,mp-1202260,Lu2Ni17,https://materialsproject.org/materials/mp-1202260,31.014460911310287,80.00082009895497,-8.604250342815693,-0.5045126942092143
-5.900908103333332,-35.40544862,8.896438654827028,-0.29963618541666764,1.4814025,0.208402958481113,0.04010000000000069,191,6,82.84124570523542,443.827,mp-1075,SmNi5,https://materialsproject.org/materials/mp-1075,29.70589784667892,80.81105410217934,-8.604250342815693,-0.5045126942092143
-7.140057613636364,-157.0812675,8.092197252282157,-0.07553025818181812,14.21700085,0.592410657450975,0.0,194,22,279.6807361473701,1362.9499999999996,mp-1212970,Fe7Ge4,https://materialsproject.org/materials/mp-1212970,49.23281981491084,67.19174005357307,-8.604250342815693,-0.5045126942092143
-8.366947942631578,-317.94402182,7.3565738819498385,0.007033061052631614,27.06239615,0.6240570259393349,0.0,194,38,505.38156694582125,2238.9578,mp-1207800,Y2Cr2Fe15,https://materialsproject.org/materials/mp-1207800,51.35027769859325,70.29803280019645,-8.604250342815693,-0.5045126942092143
-5.70535539142857,-159.74995096,8.83354269104837,-0.3218752057142861,1.485e-05,4.1613870002100786e-07,0.0,194,28,415.8778355960998,2212.3386,mp-1193428,PrNi5Sn,https://materialsproject.org/materials/mp-1193428,28.744012785137024,80.82540217860624,-8.604250342815693,-0.5045126942092143
-8.34391383,-50.06348298,9.426559426699052,-0.05907079333333461,10.326091499999999,1.3362050254030025,0.0,191,6,90.06173221963671,511.26305999999994,mp-2689,ThFe5,https://materialsproject.org/materials/mp-2689,51.842684113558654,70.61642064026805,-8.604250342815693,-0.5045126942092143
-7.328089295,-29.31235718,8.787097064431912,-0.6026368225000001,4.3062358,0.9200655200090572,0.0,225,4,54.54519254087619,288.6375386,mp-861953,AlFeRh2,https://materialsproject.org/materials/mp-861953,36.31644177687846,53.8491720120001,-8.604250342815693,-0.5045126942092143
-8.212533572758622,-238.16347361,8.82091764329614,-0.003319774482758342,13.3664178,0.3649899424230673,0.0,225,29,426.78737332913977,2267.129035,mp-1193393,Er6Mn23,https://materialsproject.org/materials/mp-1193393,56.16079770250578,68.06927274807538,-8.604250342815693,-0.5045126942092143
-6.406545226666666,-38.43927136,8.320406390894235,-0.24650607708333305,1.8355486,0.22588381846840344,0.0,44,6,94.70179149009522,474.51904,mp-1219039,SmY(CoNi)2,https://materialsproject.org/materials/mp-1219039,42.42345071309256,74.04910689275508,-8.604250342815693,-0.5045126942092143
-7.5936729525,-30.37469181,6.253069986694587,-0.4524498841666675,0.9549962,0.22467497393617852,0.0,225,4,49.536391959301426,186.5385386,mp-31187,TiAlFe2,https://materialsproject.org/materials/mp-31187,47.985888460835035,70.94997624032587,-8.604250342815693,-0.5045126942092143
-7.638706594999999,-320.82567699,7.541639413517362,-0.1569475578571425,9.910368766666666,0.2287207196911349,0.0,8,42,504.96553037543816,2293.3926,mp-1225714,Fe5SiAs,https://materialsproject.org/materials/mp-1225714,49.16347035896359,67.92914049334125,-8.604250342815693,-0.5045126942092143
-7.0958521275,-28.38340851,7.852734222923247,-0.4714468241666667,1e-07,2.3717698909500284e-08,0.0,216,4,49.13657440811672,232.368195,mp-998964,TiGaFeCo,https://materialsproject.org/materials/mp-998964,46.730758819533406,70.30924180279455,-8.604250342815693,-0.5045126942092143
-6.6508230966666675,-19.95246929,7.929483698792762,-0.000712966666667351,4.5506908,1.3959895602535397,0.0,69,3,37.99028793127897,181.41299999999998,mp-1224880,GaFe2,https://materialsproject.org/materials/mp-1224880,47.99217223019889,71.21178565100716,-8.604250342815693,-0.5045126942092143
-5.873248806666666,-35.23949284,8.50995195799306,-0.26075483083333256,1.4602614999999999,0.200780535633802,0.0,191,6,84.7591229506121,434.37465,mp-2370,PrNi5,https://materialsproject.org/materials/mp-2370,29.344134046681827,80.81008650696505,-8.604250342815693,-0.5045126942092143
-7.995359279999999,-143.91646704,11.054052621702516,-0.2533130577777772,7.678108900000001,0.3870423908850336,0.0,12,18,231.19219123970944,1539.02473,mp-1205422,Hf2Co7,https://materialsproject.org/materials/mp-1205422,60.430265175575066,65.11367944393626,-8.604250342815693,-0.5045126942092143
-7.890889205,-15.78177841,16.484871075319024,0.09602141000000053,0.019814,0.00912751448781727,0.0,166,2,25.298633019066052,251.15019500000002,mp-1226027,CoIr,https://materialsproject.org/materials/mp-1226027,49.36053181442777,77.79739164773525,-8.604250342815693,-0.5045126942092143
-7.870909923333333,-47.22545954,8.679527357357282,-0.05804056750000086,9.6318269,1.3209859972586202,0.0,191,6,84.97435612764241,444.15532,mp-2812,HoFe5,https://materialsproject.org/materials/mp-2812,51.4422530025461,70.28111459720256,-8.604250342815693,-0.5045126942092143
-7.827430138333333,-140.89374249,11.201213442356572,-0.6995299888888885,0.28134555,0.011787480776895246,0.0,46,18,278.16115463774725,1876.344,mp-1105606,TiGeIr,https://materialsproject.org/materials/mp-1105606,35.92358573868074,57.751162807103825,-8.604250342815693,-0.5045126942092143
-7.892558825,-15.78511765,16.408459457169243,0.09435179000000016,2.45e-05,1.1233852311396384e-05,0.0,187,2,25.41644477897016,251.15019500000002,mp-1226007,CoIr,https://materialsproject.org/materials/mp-1226007,49.3619370844973,77.77803192277239,-8.604250342815693,-0.5045126942092143
-6.957886268275861,-201.77870178,9.064730181184824,0.0679460479310337,52.566965100000004,1.4398182607649097,0.0,225,29,425.4834327818765,2322.675,mp-669649,Yb6Fe23,https://materialsproject.org/materials/mp-669649,51.1591924100257,74.61003598883809,-8.604250342815693,-0.5045126942092143
-6.286335881666666,-37.71801529,8.180360768602853,-0.20309449458333265,3.7106004,0.4959723608783325,0.0,187,6,87.18949041858812,429.52407,mp-1222931,LaFeNi4,https://materialsproject.org/materials/mp-1222931,29.28555005773568,80.57316283426701,-8.604250342815693,-0.5045126942092143
-5.886656106666668,-35.31993664,8.659685572036588,-0.2772597779166676,1.4660342,0.2035584267287502,0.0,191,6,83.9329415153838,437.709,mp-1824,NdNi5,https://materialsproject.org/materials/mp-1824,29.754871809862838,80.9052186446724,-8.604250342815693,-0.5045126942092143
-7.1562737699999985,-42.93764262,8.225070878005472,0.06695190375,7.7968959,0.8745401001079445,0.0,216,6,103.90093013721106,514.64765,mp-1219727,PrSmFe4,https://materialsproject.org/materials/mp-1219727,43.18862444926257,70.0539774584403,-8.604250342815693,-0.5045126942092143
-9.65125202,-57.90751212,8.288758169893965,-0.10218320499999932,18.2747641,2.08851544948043,0.0,166,6,101.97448363507743,509.0165386,mp-1225145,Gd2AlFe3,https://materialsproject.org/materials/mp-1225145,42.493985130356215,70.42278381391459,-8.604250342815693,-0.5045126942092143
-8.294207843863637,-364.94514513,8.240252440745419,-0.09193956778409272,35.03923425,0.7656785275910356,0.0,194,44,533.3171700859031,2646.53104,mp-1208084,Tm2Fe17C3,https://materialsproject.org/materials/mp-1208084,57.730410805695016,74.87117630989623,-8.604250342815693,-0.5045126942092143
-7.370814968333334,-44.22488981,9.30133692943192,0.044699971666666734,3.13393255,0.3792616222353024,0.0,74,6,96.30041846911008,539.41679,mp-1217486,TbMnFe,https://materialsproject.org/materials/mp-1217486,42.37836664294325,72.27698324175596,-8.604250342815693,-0.5045126942092143
-5.9016817433333335,-35.41009046,9.623694000959562,-0.3401049650000007,1.5435813,0.2254658075139265,0.0,191,6,79.78591809669746,462.40120999999994,mp-11526,TmNi5,https://materialsproject.org/materials/mp-11526,29.907641216611786,81.00897935065926,-8.604250342815693,-0.5045126942092143
-7.26065814,-43.56394884,9.398153577127378,-0.08651648083333423,7.323663000000001,0.8827237848092052,0.0,216,6,96.68986430771973,547.23567,mp-1217473,TbHoFe4,https://materialsproject.org/materials/mp-1217473,43.068417708235295,70.00770002953604,-8.604250342815693,-0.5045126942092143
-7.975793383823531,-542.3539501,7.53408827883684,-0.03642033450980327,31.221339925,0.3855524032012059,0.0,136,68,943.7251972779712,4281.807760000001,mp-1198085,La2Fe14B,https://materialsproject.org/materials/mp-1198085,56.236671600188465,77.99448437015944,-8.604250342815693,-0.5045126942092143
-7.718385306911764,-524.85020087,7.429547071504028,0.2019882176960784,31.47147655,0.3794651472727561,0.0,136,68,966.5462792506793,4324.499999999999,mp-616958,Nd2Fe14B,https://materialsproject.org/materials/mp-616958,56.190389375805644,77.92547489876424,-8.604250342815693,-0.5045126942092143
-6.10195350625,-48.81562805,7.5094926456181375,-0.2421457145833337,2.12824685,0.1743926098688924,0.0,51,8,142.223495941386,643.18048,mp-1079716,YInCo2,https://materialsproject.org/materials/mp-1079716,41.22488729994212,78.84032000672342,-8.604250342815693,-0.5045126942092143
-8.294714576111113,-298.60972474,10.087870190480048,-0.06820081722222288,14.11350645,0.2921737218117696,0.0,194,36,562.9517853840517,3419.96448,mp-30639,Th2Fe7,https://materialsproject.org/materials/mp-30639,51.960171756758974,70.7104109725556,-8.604250342815693,-0.5045126942092143
-7.56305678,-30.25222712,8.55027101639926,-0.6627497099999999,4.3111125,0.8991073485076747,0.0,123,4,55.879850609810575,287.7305836000001,mp-1221702,MnAlRh2,https://materialsproject.org/materials/mp-1221702,36.284572889459284,53.89436967826496,-8.604250342815693,-0.5045126942092143
-8.0165467125,-32.06618685,7.365733991375043,-0.3153442687500005,5.0542083,1.3356206946582834,0.0,225,4,44.100897161734096,195.6205,mp-2199,Fe3Si,https://materialsproject.org/materials/mp-2199,49.37109436095845,67.85288224613917,-8.604250342815693,-0.5045126942092143
-8.298364249999999,-365.128027,8.13272466422209,-0.08701565437499942,35.16229265,0.7629581713591963,0.0,194,44,537.0984301338268,2630.51548,mp-1212484,Ho2Fe17C3,https://materialsproject.org/materials/mp-1212484,57.71700497697481,74.88319152268646,-8.604250342815693,-0.5045126942092143