energy_per_atom,energy,density,formation_energy_per_atom,total_magnetization_uB,total_magnetization_T,band_gap,sgr,num_sites,cell_volume,weight,mp_id,formula,URL,tsne_cry_lin1_0,tsne_cry_lin1_1,tsne_cry_lin2_0,tsne_cry_lin2_1
-9.51820536375,-76.14564291,12.367597877925482,0.06657431874999807,1.46626025,0.1811022724980368,0.0,194,8,94.35492824704784,702.75,mp-1184280,Fe3W,https://materialsproject.org/materials/mp-1184280,53.198407137597705,72.25766475935623,-8.604250342815693,-0.5045126942092143
-8.447912721111111,-76.03121449,10.357442020453217,-0.5358382961111106,2.495871466666667,0.19758948068597165,0.0,189,9,147.20949534122644,918.2041350000003,mp-1080769,HfMnGe,https://materialsproject.org/materials/mp-1080769,48.37973235237298,61.29276994856247,-8.604250342815693,-0.5045126942092143
-7.0583510475,-28.23340419,11.632969761460936,-0.22128288625000006,0.9933481,0.22266538733601227,0.0,225,4,51.99076173266916,364.22327,mp-865805,TaZnCo2,https://materialsproject.org/materials/mp-865805,16.557047822757426,21.01388615508848,-8.604250342815693,-0.5045126942092143
-8.747838881034482,-253.68732755,9.819724495280887,0.04947685000000049,19.284654800000002,0.5004302889799835,0.002300000000000857,225,29,449.1027443877275,2655.803395,mp-31222,Th6Mn23,https://materialsproject.org/materials/mp-31222,56.45236685743106,67.99677448685034,-8.604250342815693,-0.5045126942092143
-7.554038955,-30.21615582,8.260079878285588,-0.2966550225000013,0.0,0.0,0.0,225,4,46.71065220373646,232.3545,mp-21883,VGaFe2,https://materialsproject.org/materials/mp-21883,47.53058870967872,69.73506040758467,-8.604250342815693,-0.5045126942092143
-5.363146801538462,-69.72090842,8.723700449808796,-0.3285758907692309,2.1810619,0.14290484968786282,0.0,71,13,177.8682578728532,934.43717,mp-1213263,Dy(GaCo)6,https://materialsproject.org/materials/mp-1213263,44.08981054509515,47.186279555901095,-8.604250342815693,-0.5045126942092143
-8.70391998375,-69.63135987,8.833384918954197,-0.5651177462499994,3.65e-06,3.36910379164546e-07,0.0,223,8,126.25712667364212,671.6360000000001,mp-544,Ti3Ir,https://materialsproject.org/materials/mp-544,62.859274041405115,55.92251355185582,-8.604250342815693,-0.5045126942092143
-7.55497558,-30.21990232,9.779117778772623,-0.5743956624999997,1.0033618,0.2129751459680268,0.0,225,4,54.904262909943256,323.33792860000005,mp-5221,HfAlCo2,https://materialsproject.org/materials/mp-5221,44.41348561034816,46.179088943639634,-8.604250342815693,-0.5045126942092143
-7.10689886375,-284.27595455,7.054785370305928,-0.0353114449166668,26.51170945,0.3892227342150231,0.0,140,40,793.8107207039329,3372.4978,mp-1196352,Pr6InFe13,https://materialsproject.org/materials/mp-1196352,53.749973554692886,81.38095575964795,-8.604250342815693,-0.5045126942092143
-7.353547063333332,-22.06064119,7.866306633482685,0.007394035000000798,2.4e-06,4.935645969434036e-07,0.0,216,3,56.66888514159476,268.45187999999996,mp-961726,NbGeRh,https://materialsproject.org/materials/mp-961726,30.73470794787157,52.950977615908634,-8.604250342815693,-0.5045126942092143
-5.76935292,-34.61611752,8.283260680779039,-0.5212539550000006,3e-07,4.145706488403664e-08,0.0,65,6,84.33350121499203,420.6804886,mp-1217581,TbAlNi4,https://materialsproject.org/materials/mp-1217581,25.481735126791172,79.414043548939,-8.604250342815693,-0.5045126942092143
-7.2228976748888885,-650.06079074,8.715695070631126,-0.03592814822222231,0.5956024333333333,0.006651896854910367,0.0,1,90,1043.4902236400303,5476.9821,mp-768654,Cr7Ni20Mo3,https://materialsproject.org/materials/mp-768654,37.59950400937685,81.26662940951083,-8.604250342815693,-0.5045126942092143
-8.249885090952379,-173.24758691,8.072790956873515,-0.2033613507028579,38.6095398,1.6888849890946631,0.0,12,21,266.42316118229223,1295.2291,mp-1217723,Tb2Fe17N2,https://materialsproject.org/materials/mp-1217723,61.21723233938942,75.2861493252538,-8.604250342815693,-0.5045126942092143
-7.6656177900000015,-38.32808895,13.682232592511768,-0.17719479000000007,1.55e-05,2.351989806762067e-06,0.0,187,5,76.80220528819197,632.8220000000001,mp-1219241,Si2Ir3,https://materialsproject.org/materials/mp-1219241,42.24602302045315,52.423040855938595,-8.604250342815693,-0.5045126942092143
-6.371221406153847,-82.82587828,6.0577088080943025,-0.3854509834615385,10.226565800000001,0.6545694847702261,0.0,71,13,182.07549084858414,664.2182316000002,mp-1225092,Er(AlFe)6,https://materialsproject.org/materials/mp-1225092,23.74743020012188,89.52935234036343,-8.604250342815693,-0.5045126942092143
-5.602973625,-22.4118945,7.436589094107274,-0.4427465370833329,0.0,0.0,0.0,225,4,61.888074869550856,277.160712,mp-21301,ScInNi2,https://materialsproject.org/materials/mp-21301,32.0855251823411,69.90383096001622,-8.604250342815693,-0.5045126942092143
-7.30765256125,-58.46122049,8.509511658866865,0.03956995249999995,6.95834625,0.7258904876474902,0.0,194,8,111.71522328417471,572.49,mp-20883,Fe3Sn,https://materialsproject.org/materials/mp-20883,50.72887866176588,67.37034272895323,-8.604250342815693,-0.5045126942092143
-6.92411517,-27.69646068,5.223366844384488,-0.26102711333333417,1.9999997999999999,0.40362349888833865,0.0,216,4,57.74720074153701,181.64873359999999,mp-1064228,Ti2AlCo,https://materialsproject.org/materials/mp-1064228,35.807313827301435,58.77205316025629,-8.604250342815693,-0.5045126942092143
-7.0839414752500005,-283.35765901,7.289765868806825,-0.008513294583335097,26.42007135,0.4024554864301631,0.0,140,40,765.0565918225537,3358.5982,mp-3868,Pr6Fe13Ag,https://materialsproject.org/materials/mp-3868,53.752006796293834,81.36411582502376,-8.604250342815693,-0.5045126942092143
-5.8861063425,-23.54442537,8.887321095483061,-0.12887789000000005,2.8233441000000004,0.7150377246353179,0.0,139,4,46.016362330261096,246.28279,mp-1018060,GaCo2Ni,https://materialsproject.org/materials/mp-1018060,37.76854932140349,77.9390527572822,-8.604250342815693,-0.5045126942092143
-7.483814973333334,-22.45144492,9.940056275097609,-0.5603644105555551,0.9602011999999999,0.1866956730735508,0.0,216,3,59.93843775415741,358.79400000000004,mp-1216635,TiSnIr,https://materialsproject.org/materials/mp-1216635,31.424087301245645,52.585079800346406,-8.604250342815693,-0.5045126942092143
-7.1917817500000005,-21.57534525,7.055235199436186,-0.3636802688888897,0.9503898000000001,0.20871275118262386,0.0,216,3,53.06769339976082,225.472,mp-10755,TiFeSb,https://materialsproject.org/materials/mp-10755,48.1140257865797,66.29752357126532,-8.604250342815693,-0.5045126942092143
-6.875898404,-34.37949202,9.41512179916622,-0.08082460800000035,0.0,0.0,0.0,87,5,58.327747168132895,330.7136,mp-11507,Ni4Mo,https://materialsproject.org/materials/mp-11507,37.52438810934971,81.53960177983913,-8.604250342815693,-0.5045126942092143
-9.100585699999998,-36.40234279999999,9.983445679774901,-0.24523282250000025,3.64e-05,6.6869016626168075e-06,0.0,225,4,63.43864155991882,381.404,mp-1184648,HfZrFe2,https://materialsproject.org/materials/mp-1184648,39.08996375401781,61.76939780394065,-8.604250342815693,-0.5045126942092143
-9.5161220775,-38.06448831,12.343750790972052,0.06865760499999851,1.9399515,0.4782946201771929,0.0,221,4,47.26860701098556,351.375,mp-1184225,Fe3W,https://materialsproject.org/materials/mp-1184225,53.18731636804135,72.2698679736732,-8.604250342815693,-0.5045126942092143
-5.9999451200000005,-29.999725599999998,7.772952778918848,-0.6800529460000007,1.4e-06,2.2004731775425687e-07,0.0,139,5,74.14628293631151,347.07739,mp-5326,Yb(CoSi)2,https://materialsproject.org/materials/mp-5326,20.39701454734178,69.29295923802775,-8.604250342815693,-0.5045126942092143
-6.457518631666668,-38.74511179,10.384494129155463,-0.4073209200000013,0.8265877,0.11463723922700017,0.008999999999998566,191,6,84.03121586804824,525.50506,mp-1567,ThNi5,https://materialsproject.org/materials/mp-1567,28.797043574566175,83.43120986447393,-8.604250342815693,-0.5045126942092143
-6.00801707,-24.03206828,10.675903321850852,-0.31920333375,1.0171434000000001,0.1851823214224783,0.0,225,4,64.01180725852329,411.54339,mp-865797,LuCo2Sn,https://materialsproject.org/materials/mp-865797,44.774492605805996,45.54645810112979,-8.604250342815693,-0.5045126942092143
-8.717727918333333,-52.30636751,17.20434926936615,-0.3421516383333341,2.2e-06,2.4122519793696687e-07,0.0,191,6,106.28633624888091,1101.201,mp-30507,CeIr5,https://materialsproject.org/materials/mp-30507,31.557199870933122,64.07265853622144,-8.604250342815693,-0.5045126942092143
-4.83797141173913,-111.27334247,7.596425226807589,0.5310882626630423,45.9062608,1.298700211957064,0.0,229,23,411.94613807216757,1884.5194,mp-504491,Dy6Fe16O,https://materialsproject.org/materials/mp-504491,55.066318332871475,79.63475514621744,-8.604250342815693,-0.5045126942092143
-9.2723503175,-37.08940127,10.831548267317471,-0.7913251383333346,0.0003466,6.772895718331685e-05,0.0,225,4,59.63917086802805,389.02099999999996,mp-1187430,Ti2IrRu,https://materialsproject.org/materials/mp-1187430,63.00562291125265,55.70839083093568,-8.604250342815693,-0.5045126942092143
-8.389773891111114,-75.50796502,8.084540178925769,-0.2655774794444439,0.0015168666666666667,0.00013187599172942722,0.0,189,9,134.04761664988786,652.6274400000001,mp-21440,NbCrGe,https://materialsproject.org/materials/mp-21440,47.38860521417893,58.44644824914602,-8.604250342815693,-0.5045126942092143
-8.256209523333334,-49.53725714,16.994038961571242,-0.8245211983333327,0.0,0.0,0.0,227,6,107.81518939274194,1103.386,mp-1495,ErIr2,https://materialsproject.org/materials/mp-1495,31.066990227326308,65.23895024452656,-8.604250342815693,-0.5045126942092143
-5.2447451166666665,-62.9369414,7.2953169479496465,-0.2450234754166676,1.686416,0.12029817052046672,0.0,166,12,163.37406639228396,717.75825,mp-568529,PrMg2Ni9,https://materialsproject.org/materials/mp-568529,31.693286693994004,73.02814139873236,-8.604250342815693,-0.5045126942092143
-8.215653906086956,-188.96003984,12.374051112949564,-0.3549248699456521,0.24605760000000002,0.008765033250381391,0.0,229,23,327.1603342811972,2437.9425,mp-865440,U6Co12Ge4C,https://materialsproject.org/materials/mp-865440,26.240860966992354,65.31329985371815,-8.604250342815693,-0.5045126942092143
-5.653475380384616,-146.99035989,7.114893387430517,-0.6300286073076933,7.5e-07,2.0930200034608714e-08,0.0,72,26,417.6046366000808,1789.306,mp-1218917,Sr(SiPd)6,https://materialsproject.org/materials/mp-1218917,27.8416420613832,53.739396132809716,-8.604250342815693,-0.5045126942092143
-8.254363065,-49.52617839,16.833718281579078,-0.8191245433333331,5e-08,5.376355168348598e-09,0.0,227,6,108.38257897440356,1098.72864,mp-928,HoIr2,https://materialsproject.org/materials/mp-928,31.064693924314646,65.24506173036015,-8.604250342815693,-0.5045126942092143
-6.09533577125,-146.28805851,8.019115236026915,-0.4587837625000013,1.52e-05,5.897109335692137e-07,0.0,141,24,300.3874855613753,1450.6385,mp-1190679,PrSi2Ni9,https://materialsproject.org/materials/mp-1190679,26.63916425525625,77.9210479798312,-8.604250342815693,-0.5045126942092143
-5.456893268,-27.28446634,8.747751838659322,0.09026115699999906,0.0080747,0.001612605402296099,0.0,166,5,58.35468285359805,307.4136,mp-1220076,Ni4Ge,https://materialsproject.org/materials/mp-1220076,36.16998115602397,79.77271972815514,-8.604250342815693,-0.5045126942092143
-8.4878631,-50.927178600000005,16.758059430538896,-0.2802421029166666,4e-07,4.276841268352154e-08,0.0,191,6,108.99693527368105,1099.99047,mp-1384,LaIr5,https://materialsproject.org/materials/mp-1384,31.55460045381028,64.09648739744772,-8.604250342815693,-0.5045126942092143
-8.968563575,-35.8742543,9.626470302053859,-0.19164959125000006,5.9e-06,1.1807364550773409e-06,0.0,225,4,58.23397919360279,337.593792,mp-973089,ScTaFe2,https://materialsproject.org/materials/mp-973089,42.39566447809813,64.96104249253085,-8.604250342815693,-0.5045126942092143
-6.42009325,-25.680373,8.161791174752718,-0.8772233675000001,1e-07,2.3689126158433564e-08,0.0,225,4,49.19584071872035,241.80472059999997,mp-862287,BeAlRh2,https://materialsproject.org/materials/mp-862287,37.207160211898454,52.7325785801045,-8.604250342815693,-0.5045126942092143
-9.6467923275,-38.58716931,9.754200007165588,-0.29745203520833385,7.94e-05,1.6134908193435758e-05,0.0,225,4,57.34973709473582,336.879045,mp-972396,Ti2MnRe,https://materialsproject.org/materials/mp-972396,62.851544449384214,55.660494704452745,-8.604250342815693,-0.5045126942092143
-5.378746356923077,-139.84740528,8.242140085775414,-0.3898097428846151,5.635e-05,1.2751875931134957e-06,0.0,186,26,514.9881895653683,2556.1608,mp-1209076,Sm3(Ni3Sn2)2,https://materialsproject.org/materials/mp-1209076,2.552683192865344,55.22941080478618,-8.604250342815693,-0.5045126942092143
-7.282546429416668,-873.90557153,9.167856079730328,-0.034294942750000244,0.22188089999999996,0.0018868272077792766,0.0,1,120,1370.4563776336702,7566.3062,mp-771746,Cr11Ni40Mo9,https://materialsproject.org/materials/mp-771746,37.68380851004852,81.33850526852913,-8.604250342815693,-0.5045126942092143
-6.971169664482759,-202.16392027,8.42380977995716,-0.10072506528735732,26.9100211,1.077709029696213,0.0,225,29,290.99795982849787,1476.2142900000001,mp-1194097,In(Co11B3)2,https://materialsproject.org/materials/mp-1194097,39.4007650297729,89.49473645376709,-8.604250342815693,-0.5045126942092143
-6.069111849375,-97.10578959,10.008658271250988,-0.992244378125,8.575e-06,3.6207392263068104e-07,0.0,62,16,276.00332191454896,1663.5700000000004,mp-1189950,LuSiPd2,https://materialsproject.org/materials/mp-1189950,27.8990152539877,53.976222909780425,-8.604250342815693,-0.5045126942092143
-9.558269205,-38.23307682,10.604357217695904,-0.6620067477083342,6.1e-06,1.1796549102284901e-06,0.0,225,4,60.26321299238655,384.8465,mp-865948,Ti2ReRh,https://materialsproject.org/materials/mp-865948,62.85512881969261,55.84864041398104,-8.604250342815693,-0.5045126942092143
-5.716244954166666,-68.59493945,3.5556094148615407,0.0832849347222222,0.01485335,0.0007719415882837088,0.0,12,12,224.24222974482367,480.156,mp-1094511,MgTi2,https://materialsproject.org/materials/mp-1094511,33.537561477359716,61.37360732701578,-8.604250342815693,-0.5045126942092143
-5.55083254125,-44.40666033,5.020515290444467,-0.29522906937499993,3.1e-06,2.3822463567743374e-07,0.0,194,8,151.65350423225482,458.513,mp-865464,PmSi3,https://materialsproject.org/materials/mp-865464,16.074735225987652,82.62856181609784,-8.604250342815693,-0.5045126942092143
-7.181552567931035,-208.26502447,7.877396255500182,-0.5916160556896547,0.0,0.0,0.0,225,29,356.90859429195336,1693.13118,mp-3640,Nb6Si7Ni16,https://materialsproject.org/materials/mp-3640,37.48890905475717,70.31064885421597,-8.604250342815693,-0.5045126942092143
-8.502930545,-51.01758327,11.690669534275939,0.008243277499998905,0.0534447,0.007289852618274542,0.0,216,6,85.44040986351858,601.52491,mp-1226672,CeUFe4,https://materialsproject.org/materials/mp-1226672,53.69097294588971,63.73627272530479,-8.604250342815693,-0.5045126942092143
-6.010180684545454,-132.22397506,8.187637756959669,-0.5857060906818177,3.1e-06,1.0363764720383224e-07,0.0,229,22,348.59533933532936,1718.8228,mp-1191578,Sm3(SiNi3)2,https://materialsproject.org/materials/mp-1191578,18.925742046069466,76.38775117069292,-8.604250342815693,-0.5045126942092143
-7.3764037925,-29.50561517,7.519980887288604,-0.3501196137499996,5.4635086,1.4289013154657253,0.0,225,4,44.56016830601357,201.79689,mp-5436,FeCo2Si,https://materialsproject.org/materials/mp-5436,47.0922589040088,48.68390064595282,-8.604250342815693,-0.5045126942092143
-6.2697764992857135,-175.55374198,7.4619363777551735,-0.5812121985714295,2.27e-05,7.613640032453821e-07,0.0,140,28,347.46490405305315,1561.3972,mp-31051,CeSi4Ni9,https://materialsproject.org/materials/mp-31051,26.265601073868247,78.21016402585231,-8.604250342815693,-0.5045126942092143
-5.806462087857143,-81.29046923,9.300090479499467,-0.3405131617857141,2.1998546,0.10008379769194507,0.0,71,14,256.1578256405105,1434.64917,mp-20703,Dy3Co6Sn5,https://materialsproject.org/materials/mp-20703,25.782699889275346,72.78835546183085,-8.604250342815693,-0.5045126942092143
-8.071030920909092,-177.56268026,5.793364892764312,-0.5466268131818194,0.00030460000000000003,1.1664851186200791e-05,0.0,72,22,304.3183383188835,1061.7198,mp-31125,Zr2Cr4Si5,https://materialsproject.org/materials/mp-31125,47.83733479439887,61.91376472047599,-8.604250342815693,-0.5045126942092143
-7.452655568266668,-558.94916762,9.59923281969652,-0.0545108613333332,0.5390096,0.0070409127625833765,0.0,1,75,892.1645535523855,5157.4188,mp-767372,Cr8Ni50Mo15W2,https://materialsproject.org/materials/mp-767372,37.72648991672817,81.67839094978427,-8.604250342815693,-0.5045126942092143
-7.396386735636363,-406.80127046,8.896875401925941,-1.0002547650909088,0.0002966,4.094635556812107e-06,0.0,143,55,844.1766217241443,4522.9495000000015,mp-1219276,Sm6Si19Rh30,https://materialsproject.org/materials/mp-1219276,34.01007822086614,53.05742351982522,-8.604250342815693,-0.5045126942092143
-8.199305894444445,-73.79375305,8.588153898344395,-0.4361389977777779,3.0435813,0.30497898493682984,0.0,123,9,116.30340240688497,601.51041,mp-580439,UFe5Si3,https://materialsproject.org/materials/mp-580439,47.932407644328784,66.88049666692442,-8.604250342815693,-0.5045126942092143
-6.488203226666666,-155.71687744,7.488326346453163,-0.17314581874999982,8.96031565,0.3338776403880521,0.0,12,24,312.76158189662686,1410.422,mp-1191712,LiFe6Ge5,https://materialsproject.org/materials/mp-1191712,48.96253313910601,66.65669097248248,-8.604250342815693,-0.5045126942092143
-6.9962283925,-27.98491357,8.69810240956019,-0.9819580062499992,2e-07,3.809504452271473e-08,0.0,225,4,61.18415094966372,320.489912,mp-867928,ScGaRh2,https://materialsproject.org/materials/mp-867928,34.33193038927473,57.61787718663349,-8.604250342815693,-0.5045126942092143
-7.03565820875,-56.28526567,8.683186339403663,-0.0412872037500005,9.8918928,1.2312110733002752,0.0,160,8,93.63200341059758,489.61458499999986,mp-1225391,Fe3Co3Ge2,https://materialsproject.org/materials/mp-1225391,47.502768335171176,48.63898810739681,-8.604250342815693,-0.5045126942092143
-5.536587919230769,-71.97564295,7.483132870251484,-0.3337041242307689,1.63e-05,1.0372532316265031e-06,0.0,12,13,183.13874568011445,825.3052379999998,mp-1103787,Si7(Ni2Au)2,https://materialsproject.org/materials/mp-1103787,38.139741312549404,71.6650227982184,-8.604250342815693,-0.5045126942092143
-5.49400247875,-43.95201983,7.60053363445046,-0.8212281656249996,8e-07,7.980755556643032e-08,0.0,146,8,116.82166872392493,534.7101157999999,mp-1228909,Al3SiPd4,https://materialsproject.org/materials/mp-1228909,42.73602219428317,52.17122388631547,-8.604250342815693,-0.5045126942092143
-10.0134068925,-80.10725514,8.034023842778392,0.3768821899999999,13.91465495,1.2180399545909202,0.0,194,8,133.13380194460098,644.12827,mp-976591,GdMn3,https://materialsproject.org/materials/mp-976591,56.29774570293693,68.00525606623424,-8.604250342815693,-0.5045126942092143
-5.7686131705555574,-103.83503707,8.084686652861949,-0.17015923388888865,2.76844935,0.09116987009893113,0.0,38,18,353.8854229960018,1722.96627,mp-1226744,DyMnGa,https://materialsproject.org/materials/mp-1226744,24.43739119598424,70.13061731209764,-8.604250342815693,-0.5045126942092143
-8.5748103575,-34.29924143,8.931519450823359,0.05987511000000013,0.0270372,0.0076179479316626515,0.0,187,4,41.3619629452994,222.473045,mp-1221628,MnFe3,https://materialsproject.org/materials/mp-1221628,52.664050034333314,69.58990936619028,-8.604250342815693,-0.5045126942092143
-3.319793256666667,-19.91875954,4.744484075842985,-0.5241893000000003,1e-07,1.0739191523009606e-08,0.0,139,6,108.51901418826448,310.06,mp-1185771,Mg2Pd,https://materialsproject.org/materials/mp-1185771,36.47229725890377,56.79272024301502,-8.604250342815693,-0.5045126942092143