energy_per_atom,energy,density,formation_energy_per_atom,total_magnetization_uB,total_magnetization_T,band_gap,sgr,num_sites,cell_volume,weight,mp_id,formula,URL,tsne_cry_lin1_0,tsne_cry_lin1_1,tsne_cry_lin2_0,tsne_cry_lin2_1
-6.595446990689656,-191.26796273,7.646610112245353,-0.7540951551724132,1.7208577,0.04473454285805134,0.0,225,29,448.31098785999086,2064.4256176,mp-1193121,Ti6Al16Ir7,https://materialsproject.org/materials/mp-1193121,9.241305646735716,83.88965909293256,-8.604250342815693,-0.5045126942092143
-6.0385382275,-24.15415291,13.6966786692383,-0.4478738799999995,4.2000000000000004e-06,8.43811506425918e-07,0.0,225,4,58.007116129611575,478.462,mp-865186,MgGaIr2,https://materialsproject.org/materials/mp-865186,40.44700338957141,53.663878838720166,-8.604250342815693,-0.5045126942092143
-6.630091406,-132.60182812,9.436815061719683,-0.6254303284999991,0.0,0.0,0.07800000000000029,72,20,352.2544437627744,2001.856,mp-1188138,Er2Ge5Ru3,https://materialsproject.org/materials/mp-1188138,15.063299986947285,63.601071987363966,-8.604250342815693,-0.5045126942092143
-6.196024595,-24.78409838,7.796197190003693,-0.34853888041666625,1e-07,2.3671814708938782e-08,0.0,225,4,49.231818159504975,231.14238999999998,mp-865898,TiZnCo2,https://materialsproject.org/materials/mp-865898,16.48892084326146,20.974891057430128,-8.604250342815693,-0.5045126942092143
-9.55812962,-38.23251848,13.727472531607992,-0.6191730279166681,1.8000000000000001e-06,3.7995651476120784e-07,0.0,225,4,55.20978263470784,456.4125,mp-865680,TiSiOs2,https://materialsproject.org/materials/mp-865680,42.765250345612,53.41014457464277,-8.604250342815693,-0.5045126942092143
-9.9762792625,-39.90511705,10.690398444825881,-0.6339236395833332,3.18e-05,6.213822479478107e-06,0.0,225,4,59.641108350189704,383.964,mp-865876,Ti2TcOs,https://materialsproject.org/materials/mp-865876,63.36222546912198,56.562630865518805,-8.604250342815693,-0.5045126942092143
-7.963909878333332,-95.56691854,12.77072657805722,-0.9262771358333334,7e-07,4.054364106517261e-08,0.0,74,12,201.21146316578492,1547.4593,mp-1209310,PrSi2Ir3,https://materialsproject.org/materials/mp-1209310,11.721316941555807,66.62410976796204,-8.604250342815693,-0.5045126942092143
-7.147194627999999,-536.0395971,8.655764962557692,-0.033763453333334234,2.4077723,0.03349849301018152,0.0,1,75,837.659602575148,4366.4042,mp-767825,Cr22Ni50Mo3,https://materialsproject.org/materials/mp-767825,37.51883979245034,80.95356894049151,-8.604250342815693,-0.5045126942092143
-7.4675392006666685,-224.02617602,9.006331628969006,-0.7403953796666675,3.525e-05,9.726889099638417e-07,0.0,139,30,422.34035879775803,2290.6642,mp-1194182,Hf4Si7Ni4,https://materialsproject.org/materials/mp-1194182,48.178066402506076,61.1379102484769,-8.604250342815693,-0.5045126942092143
-7.025976850769231,-91.33769906,8.253174284982256,-0.32058061538461513,11.5564853,0.716376188780809,0.0,191,13,188.00182130361432,934.40248,mp-5641,Tm(MnGe)6,https://materialsproject.org/materials/mp-5641,49.89004594410324,45.535247669558714,-8.604250342815693,-0.5045126942092143
-5.673752741666667,-34.04251645,9.085223314772582,-0.028426729999999626,1.2e-06,1.5922343127712938e-07,0.0,129,6,87.83178213720858,480.54959,mp-1226053,CoAsPd,https://materialsproject.org/materials/mp-1226053,46.5696666487464,41.3998338803946,-8.604250342815693,-0.5045126942092143
-6.552400754615384,-85.18120981,5.837772139926872,-0.240896251538462,7.1024148,0.4449304604116699,0.0,71,13,186.0335703790704,654.0175016000002,mp-1225398,Dy(MnAl)6,https://materialsproject.org/materials/mp-1225398,12.971473930622894,89.04408384860909,-8.604250342815693,-0.5045126942092143
-6.085949389655172,-176.49253230000002,7.824825698112918,-0.7086386520689651,2.8300000000000003e-05,6.914700811955029e-07,0.0,225,29,476.96934695022674,2247.5846176,mp-1193241,Hf6Al16Pd7,https://materialsproject.org/materials/mp-1193241,8.551659768314455,83.91637224664471,-8.604250342815693,-0.5045126942092143
-9.307388565,-55.84433139,11.273643021077461,-0.3494253816666664,3.23255845,0.4406984572616206,0.0,227,6,85.48349769924636,580.36,mp-333,HfFe2,https://materialsproject.org/materials/mp-333,51.2013226456217,62.71686837090021,-8.604250342815693,-0.5045126942092143
-5.456855071060606,-360.15243469,8.596883250886805,-0.3035764026515153,4.2999999999999995e-06,6.135333517572197e-08,0.0,152,66,816.7849128084011,4228.6296,mp-1200997,ZnNi13Ge8,https://materialsproject.org/materials/mp-1200997,36.4829855659791,71.70828239105168,-8.604250342815693,-0.5045126942092143
-6.551084377692307,-85.16409691,5.790044547109043,-0.23788596769230816,7.005482499999999,0.43766231127483296,0.0,71,13,186.541871929122,650.4428515999999,mp-1217834,Tb(MnAl)6,https://materialsproject.org/materials/mp-1217834,12.984137177195564,89.04757896171525,-8.604250342815693,-0.5045126942092143
-1.416826855,-17.00192226,5.043374908374249,-0.03349731833333328,1.1e-06,6.274889597542318e-08,0.0,15,12,204.29795696862394,620.4920000000002,mp-1094461,MgZn2,https://materialsproject.org/materials/mp-1094461,2.597496880452965,98.2224602257808,-8.604250342815693,-0.5045126942092143
-8.255548280833333,-99.06657937,13.66020884680201,-1.1100903224999996,0.0,0.0,0.0,62,12,195.3033919223056,1606.638,mp-10456,HfSiPt,https://materialsproject.org/materials/mp-10456,49.78283687304319,57.57769150438017,-8.604250342815693,-0.5045126942092143
-5.647098032222222,-50.82388229,9.92069636921252,-0.7548120183333332,0.0,0.0,0.0,189,9,192.14727976769132,1147.96146,mp-11104,HoInRh,https://materialsproject.org/materials/mp-11104,7.434169194817081,55.203238788799325,-8.604250342815693,-0.5045126942092143
-7.133767566,-35.66883783,5.928046536141587,-0.8261661340000004,1e-06,1.5822602992773552e-07,0.0,139,5,73.65453571629331,262.94324,mp-5129,Y(CoSi)2,https://materialsproject.org/materials/mp-5129,20.237745081438945,69.21333724156155,-8.604250342815693,-0.5045126942092143
-6.56116304,-13.12232608,5.41987070497949,-0.5057662725000007,0.0,0.0,0.0,221,2,31.75605810799351,103.649312,mp-11521,ScNi,https://materialsproject.org/materials/mp-11521,28.694988692217034,81.80472199713586,-8.604250342815693,-0.5045126942092143
-7.9764663875,-31.90586555,9.113693761561962,-0.12126938500000063,1.8010616000000002,0.4329347149365901,0.0,225,4,48.4823411512386,266.090227,mp-1185984,MnBeRu2,https://materialsproject.org/materials/mp-1185984,37.817493985018075,51.422060704210644,-8.604250342815693,-0.5045126942092143
-7.33379984,-29.33519936,12.018515326478123,-0.8535672212499996,1.1e-06,2.0631903551977e-07,0.0,225,4,62.13421470064632,449.71,mp-1184580,HfZnRh2,https://materialsproject.org/materials/mp-1184580,39.67031898043934,51.10026105084796,-8.604250342815693,-0.5045126942092143
-9.3690956240625,-299.81105997,7.386042015319132,-0.4279119553124993,0.0,0.0,0.0,86,32,551.8095687151414,2454.43712,mp-17848,Nb3Si,https://materialsproject.org/materials/mp-17848,47.093963760218365,58.1327323818896,-8.604250342815693,-0.5045126942092143
-5.412550996666668,-16.23765299,7.870069112624687,-0.8948725766666664,3e-07,6.653446800845548e-08,0.0,225,3,52.54749209572989,249.0470772,mp-1502,Al2Pt,https://materialsproject.org/materials/mp-1502,7.75277778259299,83.40830655334999,-8.604250342815693,-0.5045126942092143
-7.9402390625,-31.76095625,11.535918673903645,-0.08115868500000012,8.3379337,1.8616087187579209,0.0,221,4,52.197230508214105,362.619,mp-1649,Fe3Pt,https://materialsproject.org/materials/mp-1649,50.62835793467156,76.71197397790942,-8.604250342815693,-0.5045126942092143
-6.4496344875,-25.79853795,7.406342908048223,-0.18011293749999968,3.9961587,1.0193208959943718,0.0,221,4,45.688744843983926,203.7811236,mp-1018101,AlCo3,https://materialsproject.org/materials/mp-1018101,38.15130018571234,78.06811609872405,-8.604250342815693,-0.5045126942092143
-5.76466625875,-46.11733007,8.477391263653201,-0.3739756718750007,0.9369801,0.12389062220474785,0.0,123,8,88.13925204082949,449.9689,mp-1224834,GaSiNi6,https://materialsproject.org/materials/mp-1224834,35.01514603218604,79.20716553994652,-8.604250342815693,-0.5045126942092143
-5.9481766009090915,-130.85988522,7.705303262898115,-0.5053386395454548,6.7e-06,2.1798843487063046e-07,0.0,229,22,358.1943878008455,1662.1086999999998,mp-1191765,Pr3(SiNi3)2,https://materialsproject.org/materials/mp-1191765,18.864930219873678,76.3835970081158,-8.604250342815693,-0.5045126942092143
-7.542378883333334,-22.62713665,9.444209841286533,-0.06942687666666696,7.699999999999999e-06,2.39243017574793e-06,0.0,71,3,37.508429570219725,213.3268,mp-784630,Ni2Mo,https://materialsproject.org/materials/mp-784630,37.875078925207205,81.86305450443199,-8.604250342815693,-0.5045126942092143
-7.795093706666666,-46.77056224,9.009606961369778,-0.7413403766666656,0.0,0.0,0.0,227,6,108.6371108682458,589.4337,mp-921,YRh2,https://materialsproject.org/materials/mp-921,30.86711714800245,65.59748837644679,-8.604250342815693,-0.5045126942092143
-8.155394232727273,-179.41867312,7.67203959102279,-0.2031672195454542,9.6472274,0.35969062522728673,0.0011999999999998678,72,22,312.5725418174829,1444.15088,mp-29732,Ta2Mn4Si5,https://materialsproject.org/materials/mp-29732,50.92922826477411,46.65444971190594,-8.604250342815693,-0.5045126942092143
-6.818896458333334,-40.91337875,9.656848403968127,-0.918209980555556,2.395e-05,3.0066580197722253e-06,0.0,194,6,92.8322574324397,539.8650772000001,mp-570713,TiAlPt,https://materialsproject.org/materials/mp-570713,60.2534041963105,51.8647744352016,-8.604250342815693,-0.5045126942092143
-5.85864349625,-93.73829594,8.238572457830143,-0.8950593212500007,2.475e-06,9.631038375333887e-08,0.0,62,16,299.48806336352374,1485.8754,mp-1105559,YGaPd2,https://materialsproject.org/materials/mp-1105559,26.954194641084552,51.70678530876828,-8.604250342815693,-0.5045126942092143
-6.909403425833332,-82.91284111,7.659636041160486,-0.5218606891666665,2.38273975,0.12914637110390162,0.0,62,12,215.01652075312373,991.8154599999999,mp-20380,HoMnSi,https://materialsproject.org/materials/mp-20380,24.406253857075466,69.30283551320164,-8.604250342815693,-0.5045126942092143
-9.12923330875,-73.03386647,10.105109461661973,-0.5773354206547623,3e-06,2.9415953347264844e-07,0.0,6,8,118.85453415342029,723.282048,mp-1216739,TiP4W3,https://materialsproject.org/materials/mp-1216739,47.81768785173515,55.03211719499422,-8.604250342815693,-0.5045126942092143
-6.8982817005555574,-248.33814122,7.622479059582678,-0.9393698497420644,2e-07,4.233516661195481e-09,0.0,189,36,550.5618947661711,2527.279644,mp-10582,Ca5P12Rh19,https://materialsproject.org/materials/mp-10582,33.354907486675515,51.55098000225946,-8.604250342815693,-0.5045126942092143
-4.114056093333333,-12.34216828,9.033282552073713,-0.006157813333333095,4.6700000000000003e-05,6.621213277263448e-06,0.0,123,3,82.19714455467206,447.15,mp-1215845,Yb2Ru,https://materialsproject.org/materials/mp-1215845,25.896492669947182,55.114595968562,-8.604250342815693,-0.5045126942092143
-5.9319746955555575,-53.38777226,12.472208122939012,-1.0838398238888889,1.6733333333333335e-05,1.0114169204566195e-06,0.0,189,9,192.8100534836396,1448.18463,mp-1080806,TmSnPt,https://materialsproject.org/materials/mp-1080806,9.345750350376353,55.22742413537622,-8.604250342815693,-0.5045126942092143
-7.2827088,-29.1308352,11.089264182199663,-0.4814875149999995,1.0154321,0.21587715009889188,0.0,225,4,54.81780475661864,366.07939,mp-3576,HfGaCo2,https://materialsproject.org/materials/mp-3576,44.39419658927874,46.124041555271276,-8.604250342815693,-0.5045126942092143
-5.849302978,-116.98605956,9.44987797456851,-0.7150299414999999,0.000471,1.280100006014136e-05,0.0,36,20,428.7996626894008,2440.2344,mp-1189471,Tb2Sn5Rh3,https://materialsproject.org/materials/mp-1189471,2.4431866739816317,50.391498545820404,-8.604250342815693,-0.5045126942092143
-8.737498876666667,-104.84998652,16.413905270242356,-0.6060479016666669,1e-07,5.357238765760951e-09,0.0,166,12,217.5386478393096,2150.3010000000004,mp-31100,CeIr3,https://materialsproject.org/materials/mp-31100,31.436283529648577,64.17050093122768,-8.604250342815693,-0.5045126942092143
-4.788429331111111,-43.09586398,6.967157420484758,-0.04610094388888876,0.0,0.0,0.0,139,9,126.5124835230308,530.811,mp-30883,V4Zn5,https://materialsproject.org/materials/mp-30883,44.340150298699825,53.54788022860776,-8.604250342815693,-0.5045126942092143
-6.2624305133333324,-18.78729154,7.093491447531275,-0.1708525388888885,0.00015230000000000002,3.4386546356787204e-05,0.0,216,3,51.61652602284407,220.4955,mp-567679,TiGaRh,https://materialsproject.org/materials/mp-567679,35.989650491016675,52.46555461626453,-8.604250342815693,-0.5045126942092143
-2.956110193645833,-283.78657859,2.109514024235814,-0.09402150104166652,0.9761209999999999,0.005484144891211954,0.15909999999999958,221,96,2074.302846754616,2635.1509,mp-1195280,Mg64Si31Bi,https://materialsproject.org/materials/mp-1195280,-13.813010376653084,97.32164396760253,-8.604250342815693,-0.5045126942092143
-5.341552305,-10.68310461,7.599548117016157,-0.8784297399999996,4e-07,1.599245947482286e-07,0.0,221,2,29.148899306968612,133.40153859999998,mp-829,AlPd,https://materialsproject.org/materials/mp-829,42.81023908013954,52.047560426903665,-8.604250342815693,-0.5045126942092143
-5.712194273333334,-34.27316564,9.286283657348275,-0.7227229800000003,1.62e-05,1.7679767594778053e-06,0.0,12,6,106.78638636134012,597.1848,mp-1225507,ErNiGe,https://materialsproject.org/materials/mp-1225507,17.72569921684639,76.15283148594949,-8.604250342815693,-0.5045126942092143
-3.9397823771428575,-27.57847664,5.573213881335488,-0.27914706000000017,1.5e-06,1.1545991665953165e-07,0.0,65,7,151.40403409771912,508.1525,mp-570272,Tb2Mg3Ni2,https://materialsproject.org/materials/mp-570272,3.7245168165247233,58.2362583630685,-8.604250342815693,-0.5045126942092143
-6.592140412000001,-32.96070206,8.456601459034665,-0.4434972250000008,4.582924299999999,0.6446990491516742,0.0,139,5,82.84438562491572,421.90032,mp-3065,Ho(FeGe)2,https://materialsproject.org/materials/mp-3065,16.97063402324825,71.43165969139233,-8.604250342815693,-0.5045126942092143
-7.58475922,-30.33903688,7.573331802075121,-0.2210159087500001,4.335824,1.159765259325214,0.0,225,4,43.56913895473872,198.708695,mp-1207085,Fe2CoSi,https://materialsproject.org/materials/mp-1207085,47.024805109107284,48.73451756951389,-8.604250342815693,-0.5045126942092143
-5.5788257075,-22.31530283,13.303880048672461,-0.7170888037500003,2.02e-05,4.435783987202412e-06,0.0,225,4,53.07113896548803,425.1945,mp-1185419,LiSiPt2,https://materialsproject.org/materials/mp-1185419,29.791778460205517,44.615396479578784,-8.604250342815693,-0.5045126942092143
-4.8336363125,-19.33454525,10.791365209188797,-0.7948914262500004,3e-07,5.0132660026076135e-08,0.0,225,4,69.73935613927877,453.216,mp-865563,LuZnPd2,https://materialsproject.org/materials/mp-865563,29.086862234490752,55.068625731098365,-8.604250342815693,-0.5045126942092143
-4.345016704444443,-39.10515034,8.695885113386508,-0.452167372777778,0.0,0.0,0.0,189,9,162.1382833893027,849.0832500000001,mp-13536,TbZnNi,https://materialsproject.org/materials/mp-13536,20.164580612811488,78.52878981287455,-8.604250342815693,-0.5045126942092143
-6.193511775,-61.93511775,7.576491597253709,-0.7504001650000006,0.3217605,0.019758617831907202,0.0,12,10,189.78137742994352,865.90979,mp-1205642,Tb2CoSi2,https://materialsproject.org/materials/mp-1205642,19.911325093624093,70.55127856406588,-8.604250342815693,-0.5045126942092143
-8.74054545625,-209.77309095,16.378841681943392,-0.6090944812500005,0.011542066666666668,0.00030850758632226084,0.0,194,24,436.0087028849493,4300.602000000001,mp-1191930,CeIr3,https://materialsproject.org/materials/mp-1191930,31.4342916417806,64.16344353241394,-8.604250342815693,-0.5045126942092143
-7.783077610454546,-171.22770743,4.808187775992471,-0.6144276486363638,0.01082555,0.000415037493147821,0.0,12,22,303.9765394247152,880.181824,mp-1219499,Sc(VSi)5,https://materialsproject.org/materials/mp-1219499,53.663137421573275,52.2201437107744,-8.604250342815693,-0.5045126942092143
-8.7366338425,-34.94653537,8.221307220053186,-0.8175483002380952,2e-07,3.9297282085537465e-08,0.0,44,4,59.312319601098956,293.6545240000001,mp-1216676,TiP2W,https://materialsproject.org/materials/mp-1216676,47.51122475050622,62.51801052263763,-8.604250342815693,-0.5045126942092143
-6.1147180015,-122.29436003,7.340949932495416,-0.7729468210000008,1.8000000000000001e-06,7.085910558805134e-08,0.0,72,20,296.0426386491782,1308.75224,mp-1189601,Tm2Si5Ni3,https://materialsproject.org/materials/mp-1189601,14.496747515314514,73.09331901552925,-8.604250342815693,-0.5045126942092143
-5.06860666875,-40.54885335,7.5777564993489746,-0.4501860400000002,1.55e-06,1.0834461833241084e-07,0.0,63,8,166.72540524390595,760.84,mp-21159,DyGe3,https://materialsproject.org/materials/mp-21159,3.863864383166248,74.16642140083762,-8.604250342815693,-0.5045126942092143
-4.20792415,-8.4158483,6.944361625203951,-0.7386080460714286,0.0009353,0.00022343547917066592,0.0,225,2,48.7838673707202,204.013762,mp-2390,YbP,https://materialsproject.org/materials/mp-2390,31.34174244920336,47.597702376649416,-8.604250342815693,-0.5045126942092143
-3.8105035275,-15.24201411,6.690566129421834,-0.20208484125000006,7.2000000000000005e-06,1.6324576543278714e-06,0.0,225,4,51.40057761374373,207.1008,mp-1185615,MgZnNi2,https://materialsproject.org/materials/mp-1185615,35.07605787445013,75.50862677845517,-8.604250342815693,-0.5045126942092143
-5.750263464166667,-69.00316157,7.401386554185179,-0.7212138325000002,3.25e-07,1.6408144372489634e-08,0.0,62,12,230.8348198978704,1028.8814,mp-1207608,YZnRh,https://materialsproject.org/materials/mp-1207608,17.11017952194377,59.095817756302736,-8.604250342815693,-0.5045126942092143
-5.738464322222222,-103.2923578,10.011007034412351,-0.9787755138888896,3.45e-05,1.1609190295966291e-06,0.0,44,18,346.3335722845461,2087.96526,mp-980202,TmGePd,https://materialsproject.org/materials/mp-980202,17.270599588270713,62.063392641911776,-8.604250342815693,-0.5045126942092143
-4.624517123333333,-27.74710274,3.07571616823202,0.12621403333333348,0.0034302,0.0003419826238404665,0.0,156,6,116.8941641943855,216.516,mp-1094499,MgTi,https://materialsproject.org/materials/mp-1094499,33.219500632252824,60.98047265204071,-8.604250342815693,-0.5045126942092143
-9.686871025,-38.7474841,11.706413642702842,0.36400592625,0.0791705,0.016508225741427972,0.0,225,4,55.89081161887035,394.01721000000003,mp-981233,UCr3,https://materialsproject.org/materials/mp-981233,54.24023771514629,64.81593097421421,-8.604250342815693,-0.5045126942092143
-5.991679705,-23.96671882,9.304990173158561,-0.6436747474999995,1.3e-06,2.8364354899657314e-07,0.0,225,4,53.413110426532704,299.3055,mp-977384,ZnSiRh2,https://materialsproject.org/materials/mp-977384,37.272755262748454,51.8010270020716,-8.604250342815693,-0.5045126942092143
-6.914231895833333,-82.97078275,7.834439062794687,-0.5302393558333319,2.305643425,0.1266303575998131,0.0,62,12,212.19333441585445,1001.13018,mp-19738,ErMnSi,https://materialsproject.org/materials/mp-19738,24.418993468740787,69.28138999045497,-8.604250342815693,-0.5045126942092143
-7.683841435833332,-92.20609723,5.561703640207286,-0.4388607883333329,3.53390735,0.24154945607466316,0.0,38,12,170.50083997868597,571.064648,mp-1219437,Sc2Fe3Si,https://materialsproject.org/materials/mp-1219437,53.552072159721995,63.52375139564453,-8.604250342815693,-0.5045126942092143
-5.7226801341666675,-68.67216161,9.398722152472944,-0.4901956108333335,0.2295656,0.011050710032610336,0.0,62,12,242.09959034818402,1370.29406,mp-5601,HoCoSn,https://materialsproject.org/materials/mp-5601,25.3703910570257,72.80262125416266,-8.604250342815693,-0.5045126942092143
-4.72473251,-37.79786008,9.386343108897943,-0.7953181300000001,5e-08,3.970322669959964e-09,0.0,63,8,146.76470581013518,829.60042,mp-11392,TmGa2Pd,https://materialsproject.org/materials/mp-11392,10.555404797002717,79.61688712864985,-8.604250342815693,-0.5045126942092143