energy_per_atom,energy,density,formation_energy_per_atom,total_magnetization_uB,total_magnetization_T,band_gap,sgr,num_sites,cell_volume,weight,mp_id,formula,URL,tsne_cry_lin1_0,tsne_cry_lin1_1,tsne_cry_lin2_0,tsne_cry_lin2_1
-3.943586286666666,-11.83075886,3.9663997283911847,-0.005191913166666377,0.0,0.0,0.11350000000000016,216,3,96.54337935655745,230.60561928,mp-962064,NaYSn,https://materialsproject.org/materials/mp-962064,-35.44396646781369,49.99812182881009,-8.604250342815693,-0.5045126942092143
-5.222480755,-146.22946114,2.8448205746773203,-1.7692165751014288,3.999973925,0.1161423156784476,1.2644999999999995,14,28,401.36925924192064,687.6222113599998,mp-755984,Na3MnO3,https://materialsproject.org/materials/mp-755984,-37.31277177740933,-28.998921427911853,3.818243923545929,-0.6269827465443454
-3.810575855,-53.34806197,1.7084916740823837,-0.6272788662242859,0.0,0.0,1.3702,187,14,185.96388121347286,191.3341,mp-28989,Li10BrN3,https://materialsproject.org/materials/mp-28989,25.028385434356213,-14.773455422946887,6.681224701439673,-0.9660505648666304
-7.125578305,-28.50231322,12.83138790190825,-0.6955596425000001,0.0005344999999999999,7.892241934252452e-05,0.0,225,4,78.92684579141925,609.88688,mp-865836,YbPaRh2,https://materialsproject.org/materials/mp-865836,17.611532343913595,52.96429857723731,-8.604250342815693,-0.5045126942092143
-4.7009183519999995,-23.50459176,6.449537495909429,-0.5548315670000001,3e-07,3.2962725530851176e-08,0.0,107,5,106.06584787704072,411.96,mp-978987,SrGe3Pd,https://materialsproject.org/materials/mp-978987,-20.407260514575587,50.1065570781801,-8.604250342815693,-0.5045126942092143
-5.363023747857143,-75.08233247,4.533980534004106,-0.8001315631628566,1e-07,4.247238269710577e-09,0.5667000000000004,176,14,274.3915936073406,749.2062000000002,mp-7191,Sr3GaN3,https://materialsproject.org/materials/mp-7191,25.989037947570015,-9.256492834030233,5.162165150423581,-5.592294308928337
-3.55050164,-10.65150492,5.728515374823727,-0.2735104900000002,2e-07,3.8360684307740186e-08,0.0,216,3,60.76046339042082,209.611,mp-3522,MgCuSb,https://materialsproject.org/materials/mp-3522,29.71252254059228,31.39118643191417,-8.604250342815693,-0.5045126942092143
-5.8433780925,-23.37351237,9.797445120835304,-0.5733714024999994,2.4100000000000003e-05,4.3416194041165e-06,0.0,225,4,64.69082959054144,381.68621,mp-976259,LiTmRh2,https://materialsproject.org/materials/mp-976259,27.921610269981908,44.84830447184538,-8.604250342815693,-0.5045126942092143
-4.52095533,-18.08382132,11.914800414254179,-0.6951795556249993,1.13e-05,1.4368229604653087e-06,0.0,225,4,91.65425076954295,657.6431379999998,mp-862956,PmSnAu2,https://materialsproject.org/materials/mp-862956,-7.715757502249497,48.07454140633956,-8.604250342815693,-0.5045126942092143
-6.2385429275,-24.95417171,10.910000396542909,-0.7946466237500003,1.04e-05,1.4129430547024603e-06,0.0,225,4,85.78001302405194,563.5880599999999,mp-865677,ThSnPd2,https://materialsproject.org/materials/mp-865677,29.20326237781373,40.793351761592156,-8.604250342815693,-0.5045126942092143
-4.07297381,-48.87568572,2.766231052706455,-0.9157459913541668,3e-07,1.4198220552629909e-08,1.8164,139,12,246.2434935989432,410.208,mp-753371,LiCuS,https://materialsproject.org/materials/mp-753371,45.472097999063436,-7.888737210182304,8.000221913219224,-1.3015971422785368
-4.0478950925,-16.19158037,0.6618039020492372,2.3319255350000008,5.3423934,0.08240558223501261,0.0,71,4,755.5386059470378,301.1181222,mp-1093810,MnAl2Ir,https://materialsproject.org/materials/mp-1093810,9.383575502458678,25.39965412522148,-8.604250342815693,-0.5045126942092143
-5.347505602666667,-80.21258404,2.9667402464419474,-2.512351424438889,0.0007653,5.537507488643346e-05,0.0,99,15,161.06264034371532,287.75656928,mp-1031012,NaLiMg6O7,https://materialsproject.org/materials/mp-1031012,28.47802724897521,-21.129090793088427,6.321703274982557,-3.493722030229637
-4.0971854610000005,-40.97185461,3.899962078162544,-0.9177910047708338,0.0,0.0,1.0946999999999996,9,10,277.4668497275013,651.6619999999999,mp-673633,In2S3,https://materialsproject.org/materials/mp-673633,37.74937141368396,-2.8147430260912567,7.9969140369946885,-2.1275163636600047
-4.49373704,-17.97494816,0.8040908580692474,2.3465750475,2.2680168999999997,0.039077658216047376,0.0,71,4,676.3868938033193,327.5301,mp-1093844,CrGaRh2,https://materialsproject.org/materials/mp-1093844,7.361444868655345,25.049896076144535,-8.604250342815693,-0.5045126942092143
-6.944335622468356,-1097.20502835,4.2286598712530585,-2.60418341240114,42.00024215,0.28120387757235943,0.2641,1,158,1740.635821614303,4432.631014399999,mp-1247697,Ca16Mn14Al2O47,https://materialsproject.org/materials/mp-1247697,-32.99949626499509,-8.414717552025492,3.4838903122656646,0.4179305782851218
-5.9209639435714285,-165.78699042,6.101822669723452,-2.4849324016071423,0.0021079999999999996,5.318755752726886e-05,1.3438000000000003,123,28,461.88939072753317,1697.2604,mp-1218629,Sr8SnPb3O16,https://materialsproject.org/materials/mp-1218629,-7.284818822360637,-13.108949956244045,3.8829998786914106,-2.8176965521591235
-4.867482522857143,-68.14475532,6.675489854387277,-1.2153027064285715,0.00013225,3.382761156898775e-06,0.0,63,14,455.6189440179088,1831.62188,mp-1104212,La2Te5,https://materialsproject.org/materials/mp-1104212,-10.391731435939873,23.87533003947873,-8.604250342815693,-0.5045126942092143
-3.9220693725,-15.68827749,5.231636794875868,-0.22797209000000015,7e-07,9.201767553404287e-08,0.0,225,4,88.655199052205,279.314,mp-867222,LiCa2Ir,https://materialsproject.org/materials/mp-867222,-12.821030389559464,47.43850197571963,-8.604250342815693,-0.5045126942092143
-6.6001133857894745,-627.01077165,4.9005635313705085,-1.799679623460526,3.9857252,0.04422251562212549,0.08040000000000003,2,95,1050.3676462761773,3099.8328,mp-863399,V18Cu20O57,https://materialsproject.org/materials/mp-863399,-53.07429875857104,-4.149185814999269,-4.160193700883394,-0.623986258127675
-7.2641051225,-29.05642049,6.111690549635682,-1.3832748811900002,0.0,0.0,1.2382999999999995,166,4,69.48680724384701,255.74940000000004,mp-11178,SrCeN2,https://materialsproject.org/materials/mp-11178,30.697197460082933,-8.251240047122101,5.633268936084683,-5.991709806907783
-7.81449674890625,-500.12779193,3.6916562416576526,-0.9285109913462496,2.00000005,0.026968811697455616,0.0484,61,64,864.2624076025434,1921.4,mp-1245472,CaCrN2,https://materialsproject.org/materials/mp-1245472,-0.26131201577622803,10.348900389694792,-8.604250342815693,-0.5045126942092143
-5.644532755,-67.73439306,4.678086196412003,-1.8090684100312504,3.15e-06,1.2001165910118927e-07,2.0474999999999994,63,12,305.88948030966145,861.7547199999998,mp-12365,KThCuS3,https://materialsproject.org/materials/mp-12365,49.018076324251254,-7.038490971602581,7.6178875515225855,-3.548683735826272
-5.4149863025,-129.95967126,2.8810738363514905,-0.4094382822099997,0.00039585,1.0537883069204274e-05,0.4383000000000004,14,24,437.7787749134805,759.55635136,mp-1247478,Na3NbN2,https://materialsproject.org/materials/mp-1247478,2.835081763640084,1.810342865268262,4.413811468121076,-6.009180552494432
-7.46607165329114,-589.81966061,5.793312600045643,-2.730990400549873,49.999999700000004,0.6266905042365054,0.0,1,79,929.8102192272247,3243.93533,mvc-13252,Ca5La10Mn14(NiO24)2,https://materialsproject.org/materials/mvc-13252,-30.843792368745728,9.360843628792976,-8.604250342815693,-0.5045126942092143
-5.1709185975,-20.68367439,9.053521301227867,-0.6199987599999996,0.0,0.0,0.0,225,4,55.64173591171495,303.36753860000005,mp-866296,AlCuPd2,https://materialsproject.org/materials/mp-866296,31.274699352706442,44.940039240523994,-8.604250342815693,-0.5045126942092143
-6.66718495,-26.668739799999997,11.21945396068239,-0.33409245,0.00029089999999999997,4.6007264565021145e-05,0.0,225,4,73.68765507774016,497.871615,mp-865304,Tm2CoRu,https://materialsproject.org/materials/mp-865304,18.02311732655177,48.89826537611222,-8.604250342815693,-0.5045126942092143
-4.924580197142856,-103.41618414,1.9582867781534177,-0.5044973804152374,1e-06,4.69001941393725e-08,2.404,148,21,248.486493209975,293.04208,mp-643371,K2Sn(H2N)6,https://materialsproject.org/materials/mp-643371,-1.8968073623703867,-21.287196267629078,8.606163347159985,-0.3603266026246836
-6.084735051,-60.84735051,5.056354855888502,-1.82245720625,1.5e-07,1.1119800096245396e-08,2.6088,148,10,157.20693724289197,478.6964,mp-1101394,SnGeO3,https://materialsproject.org/materials/mp-1101394,2.0185471929736694,-26.56489865043732,6.591277205655272,-1.1135684865907685
-4.813590098333333,-57.76308118,4.831150348683203,-0.26155695912666604,5e-07,4.160974343264062e-08,0.0,62,12,140.0400941119202,407.4308,mp-1246792,MgCuN,https://materialsproject.org/materials/mp-1246792,2.646652981954155,39.623879649314176,-8.604250342815693,-0.5045126942092143
-3.702960144,-74.05920288,2.380923997583704,-0.6249789274759998,0.0,0.0,1.6667,8,20,283.86272036240797,407.00974,mp-675941,Li7IN2,https://materialsproject.org/materials/mp-675941,25.192714751803646,-14.902090842035587,7.156846892832031,-1.4601684594180886
-1.8267686225,-7.30707449,7.652443662224328,-0.26323983975000004,9.4e-06,1.1382229834063245e-06,0.0,225,4,96.24494537460455,443.53610756,mp-1186021,Na2HgAu,https://materialsproject.org/materials/mp-1186021,-13.614151659446927,47.21959288781028,-8.604250342815693,-0.5045126942092143
-9.595732181666667,-57.57439309,14.700555991617222,0.0794834827083335,0.00557825,0.0006397348417691199,0.0,227,6,101.61911244001452,899.6220000000002,mp-1897,PuRh2,https://materialsproject.org/materials/mp-1897,28.198516484780413,63.051900547440404,-8.604250342815693,-0.5045126942092143
-8.07070251875,-64.56562015,5.6698734271595885,-0.5474534148214278,0.0,0.0,0.0,62,8,97.19772179354123,331.879448,mp-21048,CrP,https://materialsproject.org/materials/mp-21048,14.458871229908748,26.00469049897253,-8.604250342815693,-0.5045126942092143
-2.3207123675,-18.56569894,2.358031123841441,-0.15234417000181022,0.0,0.0,1.5303,221,8,199.5894605546885,283.42492928,mp-1095176,Rb3NaH4,https://materialsproject.org/materials/mp-1095176,36.34634048258386,-24.10546786112156,8.349821901911907,-1.4291092525550908
-7.8528755625,-62.8230045,9.256449354878272,-0.4635077385714297,0.0,0.0,0.0,194,8,109.24328365083393,608.961848,mp-1086669,NiP2W,https://materialsproject.org/materials/mp-1086669,15.075478504108748,26.101787538077094,-8.604250342815693,-0.5045126942092143
-4.680677914285715,-131.05898159999998,3.0789907137957098,-1.5477572728214295,2.0,0.061424148635854874,1.0369,136,28,379.4619878787188,703.60281136,mp-754520,Na3CoO3,https://materialsproject.org/materials/mp-754520,-36.68535137555679,-30.01306203507903,5.635476441036731,0.8791956429003266
-6.49031794,-38.94190764,10.622571540361845,-0.2575956233333325,1.8908772,0.2457600437392228,0.0,227,6,89.66634702075187,573.6012000000002,mp-632,TmCo2,https://materialsproject.org/materials/mp-632,42.71867214289322,74.18005163713659,-8.604250342815693,-0.5045126942092143
-5.8148419175,-23.25936767,11.081605740723619,-0.2945868887499996,0.0001506,2.189123298454824e-05,0.0,225,4,80.17374608302399,535.0394200000001,mp-867265,LiTm2Os,https://materialsproject.org/materials/mp-867265,8.730882373051887,42.766510443369974,-8.604250342815693,-0.5045126942092143
-6.475726371666667,-77.70871646,8.70462106513393,-0.8974664724999997,0.0,0.0,0.0,62,12,244.01734402016945,1279.15,mp-21044,NdGeRh,https://materialsproject.org/materials/mp-21044,13.978846182415252,64.35968042346076,-8.604250342815693,-0.5045126942092143
-5.073547848333333,-121.76514836,5.460084828394788,-1.6244770622500002,1.00000015,0.03363071103054753,0.0,69,24,346.5304825129555,1139.44073856,mp-19397,Ba2Na(NiO2)3,https://materialsproject.org/materials/mp-19397,-37.517219410322646,-30.56893094064962,1.2169876753511977,0.6518416720730652
-5.219876794285715,-73.07827512,4.796503083305204,-1.0736382981696428,0.0,0.0,0.9927,148,14,229.72921390700887,663.5778240000001,mp-1219520,Sc(CuS)3,https://materialsproject.org/materials/mp-1219520,46.73974465967638,-7.0516713425138615,6.990317985051414,-5.484891077166264
-4.213032487857143,-58.98245483,5.9515073237254725,-0.8253738675714288,0.7463724,0.020696335946024758,0.0,129,14,420.2807838419124,1506.3206,mp-613927,KCeCuTe4,https://materialsproject.org/materials/mp-613927,-9.64086861877885,23.03129591060452,-8.604250342815693,-0.5045126942092143
-5.8351090975,-23.34043639,10.365040355042034,-0.3791499075000005,4.23e-05,9.074809713411924e-06,0.0,225,4,54.32256492945576,339.0800000000001,mp-862485,GaCuRh2,https://materialsproject.org/materials/mp-862485,34.279882357675774,66.85352194332494,-8.604250342815693,-0.5045126942092143
-6.319396099375,-101.11033759,7.94850701502433,-0.3835543036607145,0.8124398,0.054674458472298064,0.0,1,16,173.17457397045303,828.9352329999998,mp-1226652,Co3Ni9P4,https://materialsproject.org/materials/mp-1226652,15.24664729877928,24.46149656124623,-8.604250342815693,-0.5045126942092143
-5.8776327708333325,-70.53159325,6.986444079786401,-0.3379108280555556,5.175e-06,3.446608751418377e-07,0.0,62,12,174.982974708624,736.212,mp-1101311,TiCuGe,https://materialsproject.org/materials/mp-1101311,22.89159337736908,38.744955569610816,-8.604250342815693,-0.5045126942092143
-4.4789025725,-17.91561029,12.79411420084296,-0.6883814212499999,1e-05,1.3299726253039447e-06,0.0,225,4,87.62635072955982,675.1431379999998,mp-866287,DySnAu2,https://materialsproject.org/materials/mp-866287,-7.846837277550779,48.07996848252017,-8.604250342815693,-0.5045126942092143
-5.986961356785714,-167.63491799,3.9551763556101873,-2.0825819905357146,1.975413075,0.0316743623580625,0.0,62,28,726.8210064772252,1731.1879999999999,mp-1232186,Ce2MgS4,https://materialsproject.org/materials/mp-1232186,46.658939415746886,1.2000525089923753,-7.023020388038303,-3.2033498594275027
-8.86672684,-35.46690736,12.9010595395858,0.04350813749999993,2.8e-06,4.266835029154762e-07,0.0,221,4,76.4767822992942,594.1634,mp-1184570,Hf3Ni,https://materialsproject.org/materials/mp-1184570,31.79273755029643,61.73957875651555,-8.604250342815693,-0.5045126942092143
-5.6423283125,-22.56931325,8.946068460460967,-0.4394677275000003,0.0,0.0,0.0,63,4,80.7873160837358,435.2375,mp-999130,TbNi,https://materialsproject.org/materials/mp-999130,2.0831208521427005,58.93373254319098,-8.604250342815693,-0.5045126942092143
-5.336806247,-53.36806247,5.7130623822493245,0.04527953204800071,1.98076745,0.18497647302907289,0.0,12,10,124.79420643970094,429.3528,mvc-13775,Zn2FeN2,https://materialsproject.org/materials/mvc-13775,0.6554400080335223,8.232087125922746,-8.604250342815693,-0.5045126942092143
-3.70238865,-33.32149785,2.6814972868404894,-1.5901893583955555,2.0000001,0.09602110758681788,0.0,225,9,242.73965689733086,391.9846,mp-23471,K2RuCl6,https://materialsproject.org/materials/mp-23471,5.963277358347042,-11.078337175007048,-5.730129925081525,-3.0799943120152777
-5.1015533825,-61.21864059,8.365519005820097,-0.9001637941666664,0.0,0.0,0.0,198,12,321.6073016978832,1620.204,mp-22151,BaGePt,https://materialsproject.org/materials/mp-22151,8.30730969617728,34.16560023454945,-8.604250342815693,-0.5045126942092143
-3.5551571958749997,-284.41257567,2.573012640370941,-1.1264219531130002,0.0,0.0,2.2583,73,80,1524.9505041442148,2362.9176,mp-568365,Li6Br3N,https://materialsproject.org/materials/mp-568365,14.955352478918094,-13.632908304896542,8.914492188196649,-0.7781202578519985
-6.782474271428571,-47.4773199,5.092552826829307,-0.8373323272544643,2.0000001,0.21338269809050825,0.0,8,7,109.23158681140823,334.9922,mp-1226416,Cr2FeSeS3,https://materialsproject.org/materials/mp-1226416,13.682942332276891,9.038124743807224,-8.604250342815693,-0.5045126942092143
-7.071182692857143,-98.99655770000001,5.596076200802549,-2.885185458351428,6.9999999000000015,0.4284688735326613,0.0,38,14,190.3952825555549,641.6389399999998,mp-1218451,Sr3PrMn2O8,https://materialsproject.org/materials/mp-1218451,-32.85388901816115,5.446900236573591,-8.604250342815693,-0.5045126942092143
-4.7219879278571435,-66.10783099,5.729567513989384,-1.0924164207142857,1.99999985,0.1629358327391683,0.10720000000000017,141,14,143.05096310105029,493.5868,mvc-14389,Zn(NiO2)2,https://materialsproject.org/materials/mvc-14389,-62.75220989735132,-22.25144829177888,-8.604250342815693,-0.5045126942092143
-4.715978087857144,-66.02369323,6.810163065547832,-1.1099399742857148,0.0,0.0,0.0,63,14,451.81380743093865,1852.968,mp-1119,Nd2Te5,https://materialsproject.org/materials/mp-1119,-10.067687158685311,24.080541286881704,-8.604250342815693,-0.5045126942092143
-3.094342309166666,-37.13210771,3.707256202961792,-0.5556665758333331,2.25e-07,7.993403266293734e-09,0.0,62,12,328.0410716775632,732.3720000000002,mp-4864,CaMgSn,https://materialsproject.org/materials/mp-4864,-33.81189409568093,55.09316548024247,-8.604250342815693,-0.5045126942092143
-5.355522314,-26.77761157,6.572007424548326,-0.5926594255000005,0.0,0.0,0.0,139,5,82.75018623135169,327.505,mp-2877,Nd(CuSi)2,https://materialsproject.org/materials/mp-2877,-3.2690267770013572,58.01601916821108,-8.604250342815693,-0.5045126942092143
-5.421869796666668,-16.26560939,7.8731282798266,0.3106494683333333,0.0001601,2.160604018051482e-05,0.0,216,3,86.35621124917989,409.44146,mp-672375,ThNiSn,https://materialsproject.org/materials/mp-672375,0.9218036775262276,47.02756764453506,-8.604250342815693,-0.5045126942092143
-8.603715745595236,-722.71212263,1.9424176791197187,-0.08983300051523695,6.296428571428573e-06,3.831471967485212e-08,0.11450000000000005,15,84,1915.16438146842,2240.266,mp-1096965,CrN2,https://materialsproject.org/materials/mp-1096965,-4.8519618096856965,9.679619258756636,-8.604250342815693,-0.5045126942092143
-3.899699428541666,-187.18557257,8.900598790060185,-0.365883435625,6.75e-05,8.386403610160443e-07,0.0,59,48,938.0056204243783,5027.772,mp-683906,Yb5Cu11Sn8,https://materialsproject.org/materials/mp-683906,-4.7458484170403255,46.65169232596322,-8.604250342815693,-0.5045126942092143
-6.27988358,-94.1982537,3.1937572705414716,-0.5038557929519991,0.9447389,0.07289460779465745,0.0,12,15,151.0406416448781,290.50033500000006,mp-1245862,Li2MnN2,https://materialsproject.org/materials/mp-1245862,2.3306395353231912,5.008887843640222,-8.604250342815693,-0.5045126942092143
-7.925870321666667,-47.55522193,8.142183376587344,-0.6633231179166673,0.0001809,2.0745728416825574e-05,0.0,191,6,101.6218989758972,498.28647,mp-569482,LaSi2Ru3,https://materialsproject.org/materials/mp-569482,15.165572796630574,65.6561081942112,-8.604250342815693,-0.5045126942092143
-6.049657064,-60.49657064,7.039163021079554,-0.5034319820000001,1.4099999999999999e-05,8.499614297034787e-07,0.0,194,10,193.32914124164185,819.5382999999998,mp-978084,PrVGe3,https://materialsproject.org/materials/mp-978084,10.083969417614538,65.23912418716705,-8.604250342815693,-0.5045126942092143
-5.83310721,-23.33242884,4.988178723856223,-0.6668989095312501,1.0729541,0.20905995012783007,0.0,160,4,59.81191792946343,179.6721,mp-555345,CrCuS2,https://materialsproject.org/materials/mp-555345,13.544827858700804,6.413456482198014,-8.604250342815693,-0.5045126942092143
-8.828286459047616,-185.39401564,5.552793267259968,-0.7765887966241503,0.0023644333333333336,0.00011059408465562273,0.0,189,21,249.15671848878537,833.1726719999999,mp-29634,V4P2C,https://materialsproject.org/materials/mp-29634,53.236905335842685,50.48056498197514,-8.604250342815693,-0.5045126942092143
-6.9009447488,-345.04723744,6.801135407148987,-2.467850236519201,26.9999875,0.5261037474418423,0.0,10,50,598.0942061586168,2449.63809,mp-704461,Ba3La7Mn(Co3O10)3,https://materialsproject.org/materials/mp-704461,-39.300397099740294,-4.348314196745064,-8.604250342815693,-0.5045126942092143
-6.42667837125,-51.41342697,7.084014817042194,-0.7851602287500006,0.0,0.0,0.0,63,8,130.14444926238698,555.20839,mp-8742,DyCoSi2,https://materialsproject.org/materials/mp-8742,20.48666543775681,67.65653311291645,-8.604250342815693,-0.5045126942092143