energy_per_atom,energy,density,formation_energy_per_atom,total_magnetization_uB,total_magnetization_T,band_gap,sgr,num_sites,cell_volume,weight,mp_id,formula,URL,tsne_cry_lin1_0,tsne_cry_lin1_1,tsne_cry_lin2_0,tsne_cry_lin2_1
-6.6607686500000005,-19.98230595,7.107026953685742,-0.3219289372222225,0.9803337999999999,0.21683235944656612,0.0,216,3,52.68989201192087,225.510195,mp-1216949,TiCoSn,https://materialsproject.org/materials/mp-1216949,46.48551245364971,46.622656379392616,-8.604250342815693,-0.5045126942092143
-5.273199115,-21.09279646,10.134866704486221,-0.4949365074999994,3.9500000000000005e-05,7.759661482306021e-06,0.0,225,4,59.32418051557902,362.0768,mp-1185503,LuGaNi2,https://materialsproject.org/materials/mp-1185503,31.817356629551753,76.06016080098577,-8.604250342815693,-0.5045126942092143
-6.306532198333334,-37.83919319,9.916775181881844,-0.2460040516666666,2.844461,0.35776992535188823,0.0,166,6,92.65600708168905,553.3436849999999,mp-1217693,Tb2Co3Ni,https://materialsproject.org/materials/mp-1217693,42.58265498293084,74.14806724656975,-8.604250342815693,-0.5045126942092143
-8.43880386,-33.75521544,9.306954391304751,-0.1857102699999995,4.07392275,0.8429307371316879,0.0,221,4,56.32462729792146,315.68709,mp-417,MnRh,https://materialsproject.org/materials/mp-417,56.02276595335413,59.11772882354556,-8.604250342815693,-0.5045126942092143
-5.75927662,-103.66697916,8.417063643038539,-0.17350025166666605,2.794289583333333,0.09424215146012407,0.0,46,18,345.54423146031843,1751.5202699999998,mp-1225789,ErMnGa,https://materialsproject.org/materials/mp-1225789,24.402794699153272,70.10009668373674,-8.604250342815693,-0.5045126942092143
-5.76394589,-103.75102602,8.213219430438405,-0.17461932499999952,2.77557545,0.09207843772047553,0.0,46,18,351.2954484916674,1737.5481899999997,mp-1224380,HoMnGa,https://materialsproject.org/materials/mp-1224380,24.38993006203691,70.10779402219353,-8.604250342815693,-0.5045126942092143
-5.0848057045,-101.69611409,8.141498282286626,-0.3619276285000005,4e-07,1.7637781715690138e-08,0.0,63,20,264.2977435692499,1295.832,mp-29749,Ga3Ni5Ge2,https://materialsproject.org/materials/mp-29749,34.684604575183016,77.09387639371224,-8.604250342815693,-0.5045126942092143
-9.81886932,-39.27547728,15.964280515604663,-0.6085866074999995,4.9033443,0.8891572197887156,0.0,225,4,64.2674780146756,617.8620450000002,mp-1184581,HfMnIr2,https://materialsproject.org/materials/mp-1184581,39.33006480977958,61.02359660133597,-8.604250342815693,-0.5045126942092143
-8.283834278181818,-182.24435412,6.155278488536612,-0.4747724959090918,0.84930215,0.03433873881092769,0.0,72,22,288.24070453118685,1068.44932,mp-29645,Nb2Cr4Si5,https://materialsproject.org/materials/mp-29645,47.731843735699776,58.8925936726325,-8.604250342815693,-0.5045126942092143
-8.187483166136364,-360.24925931,7.875614210303565,-0.05559730460227544,67.64417519999999,1.4483424230380857,0.0,1,44,544.2978032871209,2581.498785,mp-1219351,Sm4Fe31(CoC2)3,https://materialsproject.org/materials/mp-1219351,57.92113590122682,74.75530836206309,-8.604250342815693,-0.5045126942092143
-7.93836485,-111.13710790000002,9.95374225200416,-0.17004883357142933,5.40386865,0.3111167976757407,0.0,136,14,202.42248486737796,1213.37782,mp-1104766,U(Fe2Ge)2,https://materialsproject.org/materials/mp-1104766,48.6701289802614,66.63907431076369,-8.604250342815693,-0.5045126942092143
-5.946084882307693,-77.29910347,7.9322071661194,-0.2967764600000005,7.7644829,0.5062087483067143,0.0,2,13,178.75587283846218,853.896585,mp-1215402,ZrGa6(FeCo)3,https://materialsproject.org/materials/mp-1215402,44.23443796288639,47.269820801771466,-8.604250342815693,-0.5045126942092143
-5.655481752307693,-73.52126278,7.880914825000065,-0.3596870425861552,0.38043449999999995,0.025228850032419325,0.0,6,13,175.73564784043384,834.0410185999998,mp-567838,La2AlNi9H,https://materialsproject.org/materials/mp-567838,25.77246615277292,79.51423404047776,-8.604250342815693,-0.5045126942092143
-7.042888050476191,-295.80129812,5.811832354279589,-0.5540678321428575,2.3395181000000003,0.03893551286417051,0.0,139,42,700.2577715899478,2450.879308,mp-1212513,Sc7(Mn3Ge4)2,https://materialsproject.org/materials/mp-1212513,24.941282674771212,68.09649732684633,-8.604250342815693,-0.5045126942092143
-8.84358408,-35.37433632,8.367276707645491,-0.7417811433333323,4.7e-05,9.208943687009067e-06,0.0,225,4,59.47924788409735,299.7095,mp-1187444,Ti2RuRh,https://materialsproject.org/materials/mp-1187444,62.75111699686817,55.5394116502149,-8.604250342815693,-0.5045126942092143
-7.727388348928572,-216.36687377,6.935711970913646,-0.3869356330357152,14.46458295,0.4669914667855788,0.0,140,28,360.97273418651736,1507.70494,mp-662529,LaFe9Si4,https://materialsproject.org/materials/mp-662529,47.852174498351424,67.70004703343837,-8.604250342815693,-0.5045126942092143
-8.818230103076921,-114.63699134,8.608002933333449,-0.0121991557692295,0.49396540000000005,0.03610573992164507,0.0,139,13,159.4401549309412,826.5155400000001,mp-22482,ErMn12,https://materialsproject.org/materials/mp-22482,56.76712179453881,67.80560942902102,-8.604250342815693,-0.5045126942092143
-4.4298119755555545,-39.86830778,9.569511883088627,-0.7570186522222231,0.00010263333333333334,6.775991956330046e-06,0.0,189,9,176.51961841144148,1017.264,mp-1079852,ErZnPd,https://materialsproject.org/materials/mp-1079852,17.958623548785127,59.69795635427036,-8.604250342815693,-0.5045126942092143
-7.011668267931035,-203.33837977,8.430026046584253,-0.09379305206896588,26.0382012,1.038678911416982,0.0,225,29,292.1508081181403,1483.1562900000001,mp-1194407,Co22B6Sb,https://materialsproject.org/materials/mp-1194407,39.41774778364326,89.46954087799776,-8.604250342815693,-0.5045126942092143
-8.1751847225,-32.70073889,8.183545047925506,-0.6287691837499985,4.1877598,0.7867723651386098,0.0,225,4,62.03118732128256,305.7049570000001,mp-867850,ScMnRh2,https://materialsproject.org/materials/mp-867850,34.471099682018014,57.714317827873316,-8.604250342815693,-0.5045126942092143
-8.337616252142857,-116.72662753,7.950012994766602,-0.09293477534857228,12.120922,0.8200418098807084,0.0,71,14,172.25708297933318,824.6997,mp-1219059,SmV2Fe10N,https://materialsproject.org/materials/mp-1219059,61.147851312335995,75.25590123393971,-8.604250342815693,-0.5045126942092143
-7.7253742675,-30.90149707,7.4842742169088385,-0.3616309562500009,4.943669,1.3068042622401836,0.0,216,4,44.0875809827335,198.708695,mp-1207117,Fe2CoSi,https://materialsproject.org/materials/mp-1207117,47.085706957598546,48.71269290778827,-8.604250342815693,-0.5045126942092143
-7.324287068333334,-43.94572241,10.434602635743929,-0.1757768816666676,3.041154,0.3884634097489389,0.0,227,6,91.23589200392077,573.3140000000002,mp-2463,LuFe2,https://materialsproject.org/materials/mp-2463,42.95194997793724,69.40547428690716,-8.604250342815693,-0.5045126942092143
-8.2466752225,-32.98670089,7.289776473842911,-0.25125453125000075,1.9999982,0.5335656490115654,0.0,225,4,43.68367530964793,191.7716,mp-1018068,CrFe2Si,https://materialsproject.org/materials/mp-1018068,49.305578844744645,67.67725283917393,-8.604250342815693,-0.5045126942092143
-6.410998382222222,-115.39797088,7.5829741069660415,-0.4178572779629637,0.0079161,0.0004007101227771525,0.0,191,18,230.22812976792588,1051.35375,mp-567863,Y3Ni13B2,https://materialsproject.org/materials/mp-567863,30.39998688312972,84.91236692537953,-8.604250342815693,-0.5045126942092143
-7.106689509285713,-99.49365313,8.62205309381232,-0.2937952535714286,7.024714200000001,0.40014033528654586,0.0,136,14,204.59440620224944,1062.32,mp-20247,Dy(Fe2Ge)2,https://materialsproject.org/materials/mp-20247,48.274406324670295,67.63195764001415,-8.604250342815693,-0.5045126942092143
-7.363627742037037,-397.63589807,9.360100981535895,-0.9759811459259256,4.5e-07,6.417535689093098e-09,0.0,176,54,817.1873756097442,4606.30926,mp-15308,TmSi3Rh5,https://materialsproject.org/materials/mp-15308,34.05422607318178,53.0711224676321,-8.604250342815693,-0.5045126942092143
-6.2030359566666675,-37.21821574,6.730387824199426,-0.5688739136111103,4.9000000000000005e-06,5.170655478435272e-07,0.0,160,6,110.44038347498524,447.629712,mp-1219264,ScTi(NiSn)2,https://materialsproject.org/materials/mp-1219264,31.015561613594212,68.0803268439055,-8.604250342815693,-0.5045126942092143
-5.1602538525,-41.28203082,7.553588251559666,-0.23354109875000084,0.4985861,0.02864995085239892,0.0,63,8,202.81203043011138,922.56703,mp-542403,HoCoSn2,https://materialsproject.org/materials/mp-542403,25.204007773966044,72.84348158205033,-8.604250342815693,-0.5045126942092143
-7.426395311111111,-66.8375578,7.9504836999925885,-0.08797352208333267,10.1398049,1.1629065283147872,0.0,123,9,101.61602863900231,486.5267,mp-1224932,Ga2Fe6C,https://materialsproject.org/materials/mp-1224932,58.073468242553254,74.11410224555466,-8.604250342815693,-0.5045126942092143
-8.278661585,-182.13055487,7.819448174702701,-0.05474141460227341,34.41559,1.4685175778099722,0.0,166,22,273.1199960466241,1286.1171,mp-972662,Sm2Fe17C3,https://materialsproject.org/materials/mp-972662,57.88621668644738,74.78194575287534,-8.604250342815693,-0.5045126942092143
-7.745986049375,-123.93577679,7.745602559695575,0.010483690000000044,0.32275570000000003,0.01835650454320886,0.0,140,16,204.90915493518682,955.801,mp-568324,Cr5Ge3,https://materialsproject.org/materials/mp-568324,46.07484132413793,64.19958898569163,-8.604250342815693,-0.5045126942092143
-7.496310488571429,-104.94834684,7.789583480684513,-0.4541102442857152,3.90904935,0.24171931410875686,0.0,136,14,188.46782886176487,884.102,mp-1104283,Dy(Fe2Si)2,https://materialsproject.org/materials/mp-1104283,48.1920480921982,67.69888569093797,-8.604250342815693,-0.5045126942092143
-8.9020894025,-35.60835761,11.368283364886615,-0.20291393624999896,0.8967245999999999,0.1968434396642182,0.0,225,4,53.090347279921815,363.46397,mp-863250,TaMn2Ge,https://materialsproject.org/materials/mp-863250,50.44747280783671,60.05608559434723,-8.604250342815693,-0.5045126942092143
-9.174497691666668,-110.0939723,7.830811766465719,-0.3431863275000009,0.0,0.0,0.0,124,12,194.51281608864034,917.2884300000001,mp-10003,Nb4CoSi,https://materialsproject.org/materials/mp-10003,47.323399503914786,58.36367110375797,-8.604250342815693,-0.5045126942092143
-9.79790167375,-235.14964017,12.640695537580829,-0.10866671374999964,0.1060365125,0.0028546570378507,0.0,227,24,432.89136612422925,3295.34436,mp-1192157,Hf2Mn,https://materialsproject.org/materials/mp-1192157,29.917560925849664,60.908454957256154,-8.604250342815693,-0.5045126942092143
-8.81365385923077,-114.57750017,8.532678732505905,-0.0068036357692296155,2.5888702,0.1881041258156312,0.0,139,13,160.39446698857262,824.1868599999999,mp-14015,HoMn12,https://materialsproject.org/materials/mp-14015,56.76656694196197,67.81817033842778,-8.604250342815693,-0.5045126942092143
-8.267236955,-33.06894782,8.796412734923596,-0.4073892849999998,2.1619718,0.4698665347743205,0.0,225,4,53.6232260204467,284.0595836,mp-864980,MnAlRu2,https://materialsproject.org/materials/mp-864980,43.594264091569656,53.49171909123121,-8.604250342815693,-0.5045126942092143
-7.518809121666667,-45.11285473,9.778343129918868,0.11337764666666672,0.85770025,0.10709576374636533,0.0,227,6,93.33417045900549,549.61282,mp-2769,HoMn2,https://materialsproject.org/materials/mp-2769,42.32559760634805,72.29632517283672,-8.604250342815693,-0.5045126942092143
-5.953815098461537,-77.39959628,7.7242377652481755,-0.29454880538461536,11.5025642,0.6834788593161117,0.0,71,13,196.1313454105343,912.33335,mp-645166,Tb(GaFe)6,https://materialsproject.org/materials/mp-645166,46.843065082848184,71.44491286557938,-8.604250342815693,-0.5045126942092143
-8.5828810375,-137.3260966,6.4439468358528265,-0.406338360625,2.25330645,0.11959203998340105,0.0,38,16,219.58133103483613,852.1151199999999,mp-1220777,Nb2(CrSi)3,https://materialsproject.org/materials/mp-1220777,47.71661181083393,58.76028405661946,-8.604250342815693,-0.5045126942092143
-6.121255167222222,-110.18259301,9.086592159101397,-0.4347673062962972,0.0797707,0.004032884011137933,0.0,191,18,230.51813595058326,1261.41225,mp-541883,Tb3Ni13B2,https://materialsproject.org/materials/mp-541883,30.367989838737888,84.91784978931818,-8.604250342815693,-0.5045126942092143
-7.126896409090909,-78.3958605,7.9602382283900415,-0.06236905363636356,12.740357300000001,1.0444462183112344,0.0,187,11,142.15853970903945,681.4749999999998,mp-1225358,Fe7Ge4,https://materialsproject.org/materials/mp-1225358,49.08320722326121,67.86995562529256,-8.604250342815693,-0.5045126942092143
-7.34673378,-29.38693512,7.92426566330304,-0.06933886749999996,6.988835400000001,1.6445029213747,0.0,123,4,49.52763499396674,236.35104500000003,mp-1065753,MnGaFe2,https://materialsproject.org/materials/mp-1065753,46.72207497687597,69.68835129556561,-8.604250342815693,-0.5045126942092143
-6.4785537574999985,-777.4264509,7.352498585588265,-0.017356412333332592,11.038647775,0.07294798590480181,0.0,118,120,1763.5184107647015,7808.4684,mp-579963,Cr11Ge19,https://materialsproject.org/materials/mp-579963,47.413827882986965,63.96317873014267,-8.604250342815693,-0.5045126942092143
-6.9187947250000015,-166.0510734,8.347719745378393,-0.21479326250000005,22.4145985,0.8798754502737125,0.0,12,24,296.88427230087893,1492.4712049999996,mp-1220564,Nd2Co19Si3,https://materialsproject.org/materials/mp-1220564,48.8624046910692,50.524645995694115,-8.604250342815693,-0.5045126942092143
-5.895361361666668,-35.37216817,7.553290475554812,-0.4294526399999998,0.000226,2.9811659035719568e-05,0.0,187,6,88.3486100335012,401.87113860000005,mp-1226683,CeAlNi4,https://materialsproject.org/materials/mp-1226683,24.818798526769925,79.91938771885532,-8.604250342815693,-0.5045126942092143
-8.267765200833333,-99.21318241,12.874134164016306,-0.3236187591666659,1.10298705,0.07329607969617909,0.0,194,12,175.37476188736233,1359.6778872000002,mp-30176,U2AlCo3,https://materialsproject.org/materials/mp-30176,44.14799161191742,73.85969966380037,-8.604250342815693,-0.5045126942092143
-5.974165934545455,-131.43165056,7.859292584769077,-0.5363968502272729,2.275e-05,7.459978280003752e-07,0.0,229,22,355.4031441169284,1682.1147999999996,mp-1190765,Nd3(SiNi3)2,https://materialsproject.org/materials/mp-1190765,18.942971371525164,76.40212674119779,-8.604250342815693,-0.5045126942092143
-7.996337281923076,-415.80953866,13.744467420261278,-0.9837507882692292,4.105e-05,5.788069844090846e-07,0.0,59,52,826.5265827812749,6841.2530000000015,mp-510706,Er4Si9Ir13,https://materialsproject.org/materials/mp-510706,15.716343066445091,61.66506199520495,-8.604250342815693,-0.5045126942092143
-7.9900810225,-95.88097227,11.000644316601038,-0.15630426416666646,0.60164325,0.036192292948091176,0.0,38,12,193.73156090247448,1283.4217944000004,mp-1216326,UAlFe,https://materialsproject.org/materials/mp-1216326,25.399119562991217,64.82229971107836,-8.604250342815693,-0.5045126942092143
-5.566302664166668,-267.18252788,9.406653364799741,-0.42572970625,4.5e-07,6.801423295250696e-09,0.0,64,48,771.0634848023467,4367.9352,mp-568709,Dy2Ni7Sn3,https://materialsproject.org/materials/mp-568709,28.26683555539585,80.12023160767544,-8.604250342815693,-0.5045126942092143
-7.52101026,-45.12606156,9.764450145649027,0.11396509583333388,1.8898455,0.2356817192303914,0.0,216,6,93.44968264424641,549.51118,mp-1225587,DyErMn4,https://materialsproject.org/materials/mp-1225587,42.328291681132576,72.31548701400295,-8.604250342815693,-0.5045126942092143
-4.406119172222223,-39.65507255,9.779367601959953,-0.7630701572222228,1.7266666666666665e-05,1.1592408003375463e-06,0.0,189,9,173.585032273655,1022.2896300000001,mp-1079471,TmZnPd,https://materialsproject.org/materials/mp-1079471,18.155869646253024,59.76110482242389,-8.604250342815693,-0.5045126942092143
-7.639419135,-30.55767654,7.020375471045767,-0.18266559000000004,2.0090282999999998,0.5112671399033972,0.0,225,4,45.79474038274666,193.60958359999998,mp-31185,MnAlFe2,https://materialsproject.org/materials/mp-31185,47.00888338318655,69.66298109800198,-8.604250342815693,-0.5045126942092143
-5.770642436666668,-34.62385462,8.427254103099461,-0.5307772891666674,2.4299999999999998e-05,3.368316226275184e-06,0.0,65,6,84.0757681134848,426.6854586,mp-1223899,HoAlNi4,https://materialsproject.org/materials/mp-1223899,25.46044240552453,79.46991775526173,-8.604250342815693,-0.5045126942092143
-7.386341835,-398.86245909,9.147839395478746,-0.9821078588888889,6.666666666666667e-08,9.41459652492472e-10,0.0,176,54,825.2479534806108,4546.2561,mp-21748,TbSi3Rh5,https://materialsproject.org/materials/mp-21748,34.02321316503989,53.051644705015924,-8.604250342815693,-0.5045126942092143
-7.30032679,-14.60065358,16.093934554079233,0.020714895000000236,9.000000000000001e-07,4.051486672563199e-07,0.0,166,2,25.888418605282013,250.9104,mp-1220071,NiIr,https://materialsproject.org/materials/mp-1220071,49.54974851706206,77.6646363420329,-8.604250342815693,-0.5045126942092143
-6.05752234,-96.92035744,9.711750199540862,-0.9925775062500009,3.475e-06,1.4447258029056045e-07,0.0,62,16,280.3153027598482,1639.43884,mp-1188299,TmSiPd2,https://materialsproject.org/materials/mp-1188299,27.84225593819102,53.804775459458114,-8.604250342815693,-0.5045126942092143
-6.385933454615384,-83.01713491,9.22106967524472,-0.2139031973076912,8.4980002,0.5547039960049414,0.0,71,13,178.53890630191708,991.43691,mp-643092,U(GaFe)6,https://materialsproject.org/materials/mp-643092,46.615739093170205,71.23561933067933,-8.604250342815693,-0.5045126942092143
-6.6421095925,-53.13687674,7.720621344437172,-0.10082105499999994,1.40788315,0.14843447514436206,0.0,12,8,110.53740316282972,513.94,mp-22510,FeGe,https://materialsproject.org/materials/mp-22510,48.936960915671975,66.69190507881743,-8.604250342815693,-0.5045126942092143
-9.404832875,-18.80966575,7.406263758968816,-0.28560557499999994,0.0,0.0,0.0,221,2,23.738976052132397,105.879545,mp-316,MnV,https://materialsproject.org/materials/mp-316,56.068572805533684,56.38532281400508,-8.604250342815693,-0.5045126942092143
-5.79290467,-52.13614203,8.223076944161456,-0.20357810499999987,3.1323719333333333,0.20807943133735346,0.0,189,9,175.43716439531389,868.7740949999999,mp-11860,HoMnGa,https://materialsproject.org/materials/mp-11860,24.38067934699544,70.0843136745652,-8.604250342815693,-0.5045126942092143
-9.123775596666666,-54.74265358,14.184579524837591,-0.16936845166666714,0.08130760000000001,0.011471194069723632,0.0,74,6,82.60378397766952,705.6142100000002,mp-1216650,UFeCo,https://materialsproject.org/materials/mp-1216650,44.19058344852554,73.85006935228638,-8.604250342815693,-0.5045126942092143
-6.65296374,-26.61185496,8.615659412769274,-0.2253416900000005,5.0208198,1.2471237875904353,0.0,225,4,46.91832498328249,243.43438999999998,mp-30551,GaFeCo2,https://materialsproject.org/materials/mp-30551,44.49140087446885,47.284399427706546,-8.604250342815693,-0.5045126942092143
-8.0632451925,-32.25298077,10.096762065288953,-0.1595913637500006,3.9840241,0.8538797741956724,0.0,225,4,54.37542417558079,330.625,mp-865191,FeGeRu2,https://materialsproject.org/materials/mp-865191,43.821946909645405,54.67507464458306,-8.604250342815693,-0.5045126942092143
-8.261920453636364,-181.76224998,7.6501359737904595,-0.03356878642045625,35.2944602,1.4875622246495666,0.0,166,22,276.5087190757537,1273.8810999999996,mp-1190844,Nd2Fe17C3,https://materialsproject.org/materials/mp-1190844,57.915303408112315,74.77382523271677,-8.604250342815693,-0.5045126942092143
-6.1729698048837225,-265.43770161,7.607029607272513,-0.4932080174418604,0.0,0.0,0.0,150,43,470.74721148343366,2156.5214,mp-27276,Si12Ni31,https://materialsproject.org/materials/mp-27276,36.73220587196248,72.42638755829232,-8.604250342815693,-0.5045126942092143
-7.7633892675,-31.05355707,9.966599999638103,-0.22210780000000074,6.7e-05,1.2676285239978108e-05,0.0,225,4,61.59709449413178,369.70741860000004,mp-1186389,PaAlFe2,https://materialsproject.org/materials/mp-1186389,43.56430282796255,64.37359242492407,-8.604250342815693,-0.5045126942092143