energy_per_atom,energy,density,formation_energy_per_atom,total_magnetization_uB,total_magnetization_T,band_gap,sgr,num_sites,cell_volume,weight,mp_id,formula,URL,tsne_cry_lin1_0,tsne_cry_lin1_1,tsne_cry_lin2_0,tsne_cry_lin2_1
-11.673479844411766,-1190.69494413,16.061394227805046,-0.5867840846691167,28.7459375,0.1413052323969994,0.0,140,102,2370.804052264285,22931.36,mp-680426,Pu31Pt20,https://materialsproject.org/materials/mp-680426,21.875081845038768,56.07765202206507,-8.604250342815693,-0.5045126942092143
-6.565439761666667,-39.39263857,8.501134530939389,0.4728110816666664,0.94469665,0.09976779261290493,0.0,129,6,110.35180453712948,564.9463900000001,mp-1181717,CoTeMo,https://materialsproject.org/materials/mp-1181717,52.470566725069524,39.23872620923293,-8.604250342815693,-0.5045126942092143
-5.8255483125,-23.30219325,7.746730011510081,-1.108806644375,2e-07,5.509792353170059e-08,0.0,166,4,42.303099737885866,197.351995,mp-18919,CoPdO2,https://materialsproject.org/materials/mp-18919,-15.706664921278735,2.968156760072115,-8.604250342815693,-0.5045126942092143
-6.612395145,-26.44958058,11.649514500773543,-0.7756224249999999,0.0002214,3.602009657251111e-05,0.0,225,4,71.63251035295153,502.538,mp-866137,LuSbRh2,https://materialsproject.org/materials/mp-866137,31.53266185266099,56.19998567924248,-8.604250342815693,-0.5045126942092143
-6.2933569725,-25.17342789,1.0471943522074902,4.321074283125,2.5094126,0.039320568149433736,0.0,71,4,743.7546901747548,469.03788,mp-1096369,TaV2Re,https://materialsproject.org/materials/mp-1096369,-59.03177534966913,40.74257771449285,-8.604250342815693,-0.5045126942092143
-6.1088131225,-24.43525249,12.287245665807955,-0.3084411054166667,7.23e-05,9.928645332189098e-06,0.0,225,4,84.86443566720588,627.95884,mp-1184621,Ho2AgOs,https://materialsproject.org/materials/mp-1184621,18.21961911395071,55.29801805455382,-8.604250342815693,-0.5045126942092143
-7.2930465725,-29.17218629,9.648162669427858,-0.8582161287499996,0.0001222,1.8001950762210697e-05,0.0,225,4,79.1095772907173,459.64717,mp-1187859,YHoRh2,https://materialsproject.org/materials/mp-1187859,17.397815253383616,51.29560774755825,-8.604250342815693,-0.5045126942092143
-7.46090679,-29.84362716,13.14450868386516,0.005642460781249525,0.088548,0.01450248885045689,0.0,139,4,71.156346894768,563.26,mp-861601,PuPd3,https://materialsproject.org/materials/mp-861601,60.82689481004221,50.01214918720394,-8.604250342815693,-0.5045126942092143
-6.880109534,-103.20164301,6.394861663817898,-0.5848791888833328,4.45e-05,1.6233233273596447e-06,0.0,148,15,319.4717119123921,1230.30976928,mp-1104133,Na(Mo3Se4)2,https://materialsproject.org/materials/mp-1104133,63.16242257117742,32.6368597950195,-8.604250342815693,-0.5045126942092143
-4.41114558,-39.70031022,6.83011445737717,-0.7117688966666659,1.3333333333333334e-07,8.630943283148678e-09,0.0,189,9,180.0353972944989,740.52,mp-13474,LiErGe,https://materialsproject.org/materials/mp-13474,-2.578474354034951,66.7394023256559,-8.604250342815693,-0.5045126942092143
-5.51429226,-22.05716904,13.094736431702724,-0.4840526012500002,0.3860849,0.060360820416296285,0.0,225,4,74.5426984138947,587.8314,mp-1187962,YbBiRh2,https://materialsproject.org/materials/mp-1187962,30.23758495955602,57.047293773523066,-8.604250342815693,-0.5045126942092143
-10.69062483,-42.76249932,15.411533886853249,-0.5352808187499996,4.2e-05,7.4918699986600115e-06,0.0,225,4,65.33358434343539,606.363792,mp-862699,ScTaOs2,https://materialsproject.org/materials/mp-862699,41.24734699773961,58.73115671213039,-8.604250342815693,-0.5045126942092143
-8.70258162,-34.81032648,10.324961822599732,-0.9574214437499996,0.0001628,2.7482351824131425e-05,0.0,225,4,69.03636767020689,429.25691200000006,mp-865041,HfScRh2,https://materialsproject.org/materials/mp-865041,31.45384728420597,56.81622154535757,-8.604250342815693,-0.5045126942092143
-5.270844185,-21.08337674,0.5041393554807454,3.819908735,3.0,0.03099073003610204,0.0,71,4,1128.1500718747368,342.50616,mp-1093962,Nb2TcNi,https://materialsproject.org/materials/mp-1093962,-59.63405348808138,42.25811271846961,-8.604250342815693,-0.5045126942092143
-5.838989499999999,-23.355957999999998,11.265014212345688,0.01190237312500031,0.0012509,0.0001821030689040844,0.0,225,4,80.05394808405643,543.082,mp-1185405,LiLu2Re,https://materialsproject.org/materials/mp-1185405,8.141839217714598,43.505923826428884,-8.604250342815693,-0.5045126942092143
-7.789689589999999,-93.47627508,8.476259686707266,-0.1495421016666659,1.6795331999999998,0.1248792136244848,0.0,160,12,156.73856466875398,800.075605,mp-1215872,Zr3MnCo8,https://materialsproject.org/materials/mp-1215872,60.961589190917756,64.74673153883334,-8.604250342815693,-0.5045126942092143
-4.2310476475,-16.92419059,0.7454139892991987,2.839895466666668,2.6437405,0.03936192354876188,0.0,71,4,782.7443440529847,351.37300000000005,mp-1097102,Ti2ZnOs,https://materialsproject.org/materials/mp-1097102,-65.19007301169135,40.889541861684705,-8.604250342815693,-0.5045126942092143
-7.7584030225,-31.03361209,10.069762650390246,-0.3770802199999999,0.000118,1.7894999320007494e-05,0.0,225,4,76.84714699175902,466.01285,mp-1187858,YLuRu2,https://materialsproject.org/materials/mp-1187858,19.672576802078524,53.196964658392595,-8.604250342815693,-0.5045126942092143
-10.000906645,-40.00362658,17.282392326479147,-0.2868440987500005,0.00015830000000000003,2.6350210057670348e-05,0.0,225,4,70.01228640904823,728.66688,mp-866299,ErTaOs2,https://materialsproject.org/materials/mp-866299,40.17068552067002,59.276281066712464,-8.604250342815693,-0.5045126942092143
-7.4798147725,-29.91925909,13.687630075998142,-0.7082641350000003,1.9e-06,2.8918374745553584e-07,0.0,225,4,76.56973554942961,631.15542,mp-865381,Tm2IrRu,https://materialsproject.org/materials/mp-865381,18.48892211580233,53.361674803825615,-8.604250342815693,-0.5045126942092143
-9.792216893214286,-274.18207301,13.444319488353242,-0.3462414616071437,1.2177684,0.03926143452434962,0.0,227,28,361.4730837910329,2926.6157000000007,mp-17158,Ta3Co3C,https://materialsproject.org/materials/mp-17158,21.446626897762123,42.11393916916549,-8.604250342815693,-0.5045126942092143
-7.3436507925,-88.12380951,9.005515846938682,-0.2793860911111115,5.72080575,0.4435083951092463,0.0,35,12,150.32554399631925,815.2527799999998,mp-1225877,ErFe2Co2B,https://materialsproject.org/materials/mp-1225877,42.47331992537545,83.4564726624851,-8.604250342815693,-0.5045126942092143
-6.053778946,-121.07557892,9.804666657682622,-0.6525097334999999,7.5e-07,1.7440896660497678e-08,0.0,186,20,501.15247796957925,2959.059,mp-30612,Er7Rh3,https://materialsproject.org/materials/mp-30612,-32.50132844098055,70.78316066516514,-8.604250342815693,-0.5045126942092143
-8.896664816551722,-258.00327968,10.263880701666713,-0.4667594056896546,0.026982299999999997,0.0008933029600963498,0.0,225,29,352.01212350031966,2175.80578,mp-542996,Ta6Fe16Si7,https://materialsproject.org/materials/mp-542996,49.72403056405317,64.26205692901951,-8.604250342815693,-0.5045126942092143
-8.832644114166667,-105.99172937,8.303477015830078,-0.5886546882142861,0.003717975,0.0002963852531882814,0.0,62,12,146.19324344464653,731.0350480000001,mp-1102843,FeMoP,https://materialsproject.org/materials/mp-1102843,15.669427198287352,26.618092424363336,-8.604250342815693,-0.5045126942092143
-7.3683722975,-29.47348919,13.0194150150702,-0.8241369199999999,3.53e-05,5.78726702217266e-06,0.0,225,4,71.08510543840664,557.341,mp-865759,YbHfRh2,https://materialsproject.org/materials/mp-865759,30.184320331960414,57.19259023762042,-8.604250342815693,-0.5045126942092143
-7.5962318625,-30.38492745,7.028947589831835,-0.5458086324999991,2.7300000000000003e-05,4.575558026317448e-06,0.0,225,4,69.53380690637673,294.33182400000004,mp-862423,Sc2TcPd,https://materialsproject.org/materials/mp-862423,20.78968128541392,56.1231574395847,-8.604250342815693,-0.5045126942092143
-7.919618266666666,-142.55312880000002,6.966167074166663,-0.27546403661333346,0.0453363,0.0028937309317134136,0.0,2,18,182.58510871131833,765.9671599999998,mp-1246090,Zr(CoN)4,https://materialsproject.org/materials/mp-1246090,3.001863461171255,16.448625672113604,-8.604250342815693,-0.5045126942092143
-6.3259125825,-25.30365033,10.595998856294914,-0.8919206649999998,1.8000000000000001e-06,2.505167933651378e-07,0.0,225,4,83.73616917582129,534.3255,mp-1184072,Dy2PdRh,https://materialsproject.org/materials/mp-1184072,14.155142668280313,49.137177203147786,-8.604250342815693,-0.5045126942092143
-3.977856245,-15.91142498,5.930470491903133,-0.002950825624999709,0.00010170000000000002,9.261744165354633e-06,0.0,139,4,127.96924274834349,457.031,mp-976421,Nd3Mg,https://materialsproject.org/materials/mp-976421,-24.25064489219119,54.66705914817648,-8.604250342815693,-0.5045126942092143
-8.350447468333334,-100.20536962,10.16905665389922,-0.8539343633333338,0.031253500000000004,0.0021002399944481504,0.0,62,12,173.42318703196483,1062.0347800000004,mp-1103227,HfCoSi,https://materialsproject.org/materials/mp-1103227,46.70026427016413,51.77476641745567,-8.604250342815693,-0.5045126942092143
-7.986650675,-95.83980809999998,8.86654314132516,-0.425309322500001,2.391009066666667,0.11345542527315282,0.0,6,12,245.6028388913419,1311.4104,mp-1224783,GdDyNi2,https://materialsproject.org/materials/mp-1224783,2.206414459714041,58.8011633963076,-8.604250342815693,-0.5045126942092143
-5.6258976925,-22.50359077,8.852149570672237,-0.4063212006250003,2.3e-06,3.32114064400671e-07,0.0,38,4,80.70826216064681,430.2468,mp-1219090,SmDyNi2,https://materialsproject.org/materials/mp-1219090,2.1903096251366048,58.83864540757518,-8.604250342815693,-0.5045126942092143
-6.696280051666666,-200.88840155,4.369295276191949,-1.9117948211726656,12.00000135,0.4872209407569608,0.2637999999999998,165,30,287.03362541525934,755.25756,mp-770527,Li2Mn4O9,https://materialsproject.org/materials/mp-770527,-67.07722158649833,-41.33971708888141,2.9126181289658994,-0.6258958722486847
-6.351805993636364,-139.73973186,3.3096639830935426,-2.691343297034545,3.0000007,0.15505998705065294,0.8997999999999999,11,22,225.4753346787229,449.40081280000004,mp-764397,Li3V2(O2F)2,https://materialsproject.org/materials/mp-764397,-41.520215871489405,-57.71629154298028,4.011871615189419,4.293959672139258
-8.21411221,-16.42822442,12.532040277320352,-0.9119367799999996,2e-07,6.143935269889393e-08,0.0,221,2,37.936808448079546,286.308,mp-11554,ZrPt,https://materialsproject.org/materials/mp-11554,26.612385151272825,57.225494690138405,-8.604250342815693,-0.5045126942092143
-6.3247243325,-25.29889733,12.691554599239119,-0.5840345912499991,0.0018919,0.0002904097671517977,0.0,225,4,75.92143115379787,580.27,mp-863735,ErRh2Pb,https://materialsproject.org/materials/mp-863735,31.14430628956956,56.4374828526496,-8.604250342815693,-0.5045126942092143
-7.626957510344827,-221.18176780000002,8.299629275379944,-0.21954366275862028,26.7327592,0.8183441199966323,0.0,225,29,380.70207832289816,1902.807485,mp-30569,Zr6Co23,https://materialsproject.org/materials/mp-30569,60.98677693025383,64.76056014907577,-8.604250342815693,-0.5045126942092143
-9.540019091875,-152.64030547,8.040208955433085,-0.13261146806499902,1.375e-07,8.821169865002041e-09,0.0,12,16,181.65775410182368,879.5735999999998,mp-1205447,MoN,https://materialsproject.org/materials/mp-1205447,4.977143400961103,20.768057564419628,-8.604250342815693,-0.5045126942092143
-6.3978577525,-25.59143101,1.5047239100896097,4.4183337031250005,0.3658192,0.0063641035788285505,0.0,71,4,669.8949190626964,607.0359550000002,mp-1097448,Ta2CoRe,https://materialsproject.org/materials/mp-1097448,-58.14668035246176,40.041287737924684,-8.604250342815693,-0.5045126942092143
-6.1859506525,-24.74380261,1.1191855050067183,4.397731278749999,4.0008183,0.06602602823753696,0.0,71,4,706.1729571813705,475.95300000000003,mp-1093565,V2OsW,https://materialsproject.org/materials/mp-1093565,-57.13904694115588,35.52835416358724,-8.604250342815693,-0.5045126942092143
-9.220819570625,-737.66556565,5.945884569530853,-0.4136381531959984,3.34148445,0.049317511901851484,0.0,14,80,789.6155891704473,2827.37294,mp-1246722,Mn3Cr8N9,https://materialsproject.org/materials/mp-1246722,-0.7365440674678745,15.444978890545974,-8.604250342815693,-0.5045126942092143
-7.528730321333332,-225.86190964,6.237438776283092,-0.8215779643333341,8.25e-06,2.2650429132138272e-07,0.0,139,30,424.47776072020486,1594.45456,mp-1194045,Zr4Co4Si7,https://materialsproject.org/materials/mp-1194045,46.68960535570488,51.91018796612404,-8.604250342815693,-0.5045126942092143
-5.730333245,-22.92133298,11.998360586436156,-1.0818005287499997,7.99e-05,1.1228960784768476e-05,0.0,225,4,82.92483990064255,599.18021,mp-866226,CaTmPt2,https://materialsproject.org/materials/mp-866226,10.998190627530288,48.67442591548632,-8.604250342815693,-0.5045126942092143
-7.429768632,-74.29768632,5.7709167855888746,-0.8559366149520002,3.5e-07,2.4272491952951322e-08,0.0,12,10,168.04713246181262,584.0187999999998,mvc-13792,Ca2WN2,https://materialsproject.org/materials/mvc-13792,-8.137839512741214,33.99968039859772,-8.604250342815693,-0.5045126942092143
-6.0797438375,-48.637950700000005,3.9196958792807233,-2.3665308893750003,4.0000005,0.6718029113261522,0.8483999999999998,12,8,69.38979294574615,163.7943336,mp-1222767,Li2AlCoO4,https://materialsproject.org/materials/mp-1222767,-35.23594419513875,-41.18721091467969,6.616820773210254,-0.327018864756933
-7.28148885,-21.84446655,5.223435886560744,0.6757022383333341,0.021115400000000003,0.005101253847665928,0.0,216,3,48.23916759427697,151.742412,mp-631302,ScVFe,https://materialsproject.org/materials/mp-631302,44.9525094215868,68.32165623148805,-8.604250342815693,-0.5045126942092143
-6.899129843095237,-289.76345341,4.0123752319476536,-2.074782466940952,7.0000000333333325,0.1816949925564038,0.2604000000000002,1,42,448.98570207465775,1084.88814,mp-1097867,LiMn2O4,https://materialsproject.org/materials/mp-1097867,-67.42230261881836,-38.07183431249064,3.523678078126915,0.39211529788017546
-10.542302828125,-168.67684525,13.951990492112404,0.03162102968749991,0.59661155,0.022592068658608886,0.0,72,16,307.7606461286917,2585.83117,mp-510122,CePu4Co3,https://materialsproject.org/materials/mp-510122,43.30660166611517,84.5018449106463,-8.604250342815693,-0.5045126942092143
-5.0760497125,-20.30419885,9.864686579842132,-0.6320776337499989,1.32e-05,1.8344399853250824e-06,0.0,225,4,83.85864690499919,498.17514000000006,mp-1184686,Ho2ZnRh,https://materialsproject.org/materials/mp-1184686,11.670483942341995,46.46230668238921,-8.604250342815693,-0.5045126942092143
-7.490932073,-449.45592438,5.793961468963072,-2.3091827522261914,0.000733425,9.829952597307244e-06,0.0,19,60,869.5242801227761,3033.948648,mp-29318,PW3O11,https://materialsproject.org/materials/mp-29318,-18.7565044554338,-0.13305841458952408,-8.604250342815693,-0.5045126942092143
-8.698388375,-34.793553499999994,8.073101742663367,-0.3904440600000001,1.84e-05,3.0740135478532187e-06,0.0,225,4,69.75726960112195,339.1414,mp-1188020,Zr2TcNi,https://materialsproject.org/materials/mp-1188020,30.173359991502185,58.74601000038948,-8.604250342815693,-0.5045126942092143
-3.9743791875,-15.89751675,5.906515990873131,0.0005262318750003381,0.0020691999999999998,0.00018767936785629312,0.0,221,4,128.48823556271333,457.031,mp-1186274,Nd3Mg,https://materialsproject.org/materials/mp-1186274,-24.25021369175789,54.671599044290105,-8.604250342815693,-0.5045126942092143
-7.502425110148147,-1012.82738987,7.20700859797692,-2.1292987702407418,21.3333333,0.13076889212031478,0.0,8,135,1901.217055995704,8251.590199999999,mp-1217459,Zn(W18O49)2,https://materialsproject.org/materials/mp-1217459,-19.04326951357255,0.7564724457460418,-8.604250342815693,-0.5045126942092143
-8.7110404225,-34.84416169,8.94024511574487,-0.7638104825000003,2.5e-07,4.0401383763998816e-08,0.0,51,4,72.11426742606085,388.259,mp-1017545,ZrRh,https://materialsproject.org/materials/mp-1017545,27.5854061063228,57.96391239887369,-8.604250342815693,-0.5045126942092143
-6.558127765,-26.23251106,1.274385806999508,4.750366440624999,2.0000006,0.02986073393494645,0.1503000000000001,71,4,780.5614084481829,599.04426,mp-1096724,Ta2VRe,https://materialsproject.org/materials/mp-1096724,-57.96307336048706,40.362694584437754,-8.604250342815693,-0.5045126942092143
-6.3062846975,-25.22513879,13.32190903420293,-0.8227830512500001,1.3699999999999998e-05,2.3425348891894354e-06,0.0,225,4,68.15722921391092,546.8009999999999,mp-1100779,ZrZnPt2,https://materialsproject.org/materials/mp-1100779,31.46461521673297,43.086178645952266,-8.604250342815693,-0.5045126942092143
-6.66974073,-26.67896292,11.713714488301644,-1.121166221249999,5.17e-05,9.19755563013668e-06,0.0,225,4,65.50818206167048,462.1054506,mp-973153,ScAlPt2,https://materialsproject.org/materials/mp-973153,42.95560631001528,51.02272903031591,-8.604250342815693,-0.5045126942092143
-6.04865811,-120.9731622,9.382245929371738,-0.620766004,0.00078665,1.7908259908622163e-05,0.0,186,20,511.9241121199156,2892.433,mp-1105786,Dy7Rh3,https://materialsproject.org/materials/mp-1105786,-32.127550889939634,69.3949431500922,-8.604250342815693,-0.5045126942092143
-6.0670511975,-24.26820479,11.57020279380572,-0.9785093212499998,1.8000000000000001e-06,3.3064028613215787e-07,0.0,225,4,63.44452709015243,442.064912,mp-865228,LiScPt2,https://materialsproject.org/materials/mp-865228,28.520525605057287,44.36801475222291,-8.604250342815693,-0.5045126942092143
-9.396605713,-281.89817139,12.51251623742961,-0.2435998930000001,0.00190775,4.3080611794283224e-05,0.0,136,30,516.0799984925254,3888.772986,mp-1193531,Ta2Al,https://materialsproject.org/materials/mp-1193531,36.030620625216066,64.8144953690659,-8.604250342815693,-0.5045126942092143
-6.13055666,-98.08890656,12.913610580017785,-1.0603844037499996,3.9500000000000005e-05,1.25178705423455e-06,0.0,193,16,367.7427058850648,2859.8461,mp-1105869,Tm5Pt3,https://materialsproject.org/materials/mp-1105869,15.033177217533359,56.81648108593372,-8.604250342815693,-0.5045126942092143
-8.6068317775,-172.13663555,6.723694323210869,-0.4155100624519989,0.00013155,8.138019825109711e-06,0.0,62,20,188.3863954349066,762.7959999999998,mp-1246927,Cr2NiN2,https://materialsproject.org/materials/mp-1246927,-0.9516212583944144,15.4327592359229,-8.604250342815693,-0.5045126942092143
-5.451242175,-21.8049687,1.0898346444067408,3.260248165000001,1.2254313000000001,0.01991661052097986,0.0,71,4,717.0525190256827,470.611445,mp-1095824,Hf2MnNi,https://materialsproject.org/materials/mp-1095824,-62.900974937760104,35.05004106845518,-8.604250342815693,-0.5045126942092143
-8.867157709999997,-44.33578855,8.131164697299054,-0.5350676266666653,7.0272953,1.3514362457848157,0.0,139,5,60.599643421983814,296.7383900000001,mp-610530,Gd(CoB)2,https://materialsproject.org/materials/mp-610530,7.402686738839204,39.516705366940286,-8.604250342815693,-0.5045126942092143
-7.036173225,-56.2893858,12.674850169270721,-0.778226525,1.265e-05,1.0224343688882029e-06,0.0,194,8,144.18912730133397,1100.59176,mp-862854,PaPd3,https://materialsproject.org/materials/mp-862854,60.66699059896025,49.972266225157036,-8.604250342815693,-0.5045126942092143
-7.287058275833334,-174.88939862,7.566939743929027,-0.2499541341145838,14.7292894,0.5824450663378393,0.0,187,24,294.71636492807056,1342.99822,mp-1216253,Y4Co16B3C,https://materialsproject.org/materials/mp-1216253,42.472203590825686,83.23472906251456,-8.604250342815693,-0.5045126942092143
-7.9010407875,-31.60416315,11.647773523537069,-0.4132058987500011,7e-07,1.0349803004783783e-07,0.0,225,4,78.82126197978016,552.88806,mp-865944,ThSnRu2,https://materialsproject.org/materials/mp-865944,20.819912213929772,54.038936448137925,-8.604250342815693,-0.5045126942092143
-7.88589731,-31.54358924,8.443527539571784,-0.3443009593749995,8e-07,1.9313949057893728e-07,0.0,38,4,48.27211560981769,245.454595,mp-3847,DyCoC2,https://materialsproject.org/materials/mp-3847,8.157470752922197,38.48765852863904,-8.604250342815693,-0.5045126942092143