energy_per_atom,energy,density,formation_energy_per_atom,total_magnetization_uB,total_magnetization_T,band_gap,sgr,num_sites,cell_volume,weight,mp_id,formula,URL,tsne_cry_lin1_0,tsne_cry_lin1_1,tsne_cry_lin2_0,tsne_cry_lin2_1
-7.5721971525,-30.28878861,6.2887998188380445,-0.13545458750000086,3.7445443,0.8716193894850396,0.0,216,4,50.06676347769361,189.6130386,mp-1228804,AlVFe2,https://materialsproject.org/materials/mp-1228804,47.49938400325801,70.5037807733762,-8.604250342815693,-0.5045126942092143
-8.507261031666667,-51.04356619,10.078488138973468,-0.6218679133333337,9.45e-06,1.1064092213992934e-06,0.0,129,6,99.53904032126988,604.143,mp-1018726,HfVGe,https://materialsproject.org/materials/mp-1018726,50.04357709421425,60.393499561154925,-8.604250342815693,-0.5045126942092143
-8.238065694137932,-238.90390513,9.240551032066302,-0.03744686999999952,13.0132065,0.3648077939760332,0.0,225,29,415.7168622873728,2313.3770350000004,mp-1193176,Lu6Mn23,https://materialsproject.org/materials/mp-1193176,56.348599789251,67.98101040873529,-8.604250342815693,-0.5045126942092143
-8.01627138095238,-168.341699,7.832334156542274,-0.20022705005381106,31.8301514,1.4055184493048327,0.0,2,21,263.92442327559144,1244.8634,mp-1225737,Dy2Fe15Si2CN,https://materialsproject.org/materials/mp-1225737,60.52329795269465,75.21833408720086,-8.604250342815693,-0.5045126942092143
-5.691625696538463,-295.96453622,7.827793087721883,-0.40404468384615416,2.75e-07,4.534382509940555e-09,0.0,191,52,706.7925578461908,3331.825248,mp-29802,Sc(NiGe)6,https://materialsproject.org/materials/mp-29802,36.81000428774014,71.89581465080859,-8.604250342815693,-0.5045126942092143
-6.64297773,-13.28595546,7.934754964115082,-1.0954571800000004,1e-07,4.287420119781719e-08,0.0,221,2,27.18199860748199,129.88703859999998,mp-364,AlRh,https://materialsproject.org/materials/mp-364,36.30886671443904,53.6793524308249,-8.604250342815693,-0.5045126942092143
-7.527497283289473,-572.08979353,7.4993697824759975,-0.0019334885526309093,8.799505625,0.10041371623904716,0.0,62,76,1021.2749050749252,4612.3084,mp-571123,Cr11Ge8,https://materialsproject.org/materials/mp-571123,46.13247133975311,64.09751793670307,-8.604250342815693,-0.5045126942092143
-7.2950848275,-29.18033931,8.328450864798649,-0.017689915000000056,4.2908168,1.0611456802215888,0.0,139,4,47.12402627313636,236.35104500000003,mp-1210826,MnGaFe2,https://materialsproject.org/materials/mp-1210826,46.75666058218975,69.72848566631747,-8.604250342815693,-0.5045126942092143
-8.824517405,-35.29806962,7.508749682625295,-0.508835928333335,0.000215,4.48420609368998e-05,0.0,225,4,55.87664513515918,252.66719500000002,mp-862911,Ti2CoTc,https://materialsproject.org/materials/mp-862911,62.95172552687964,55.59445226659435,-8.604250342815693,-0.5045126942092143
-5.393707006666666,-32.36224204,8.598404532954536,-0.3403443441666667,0.00047389999999999997,6.495096604099445e-05,0.0,187,6,85.03124175597681,440.2986,mp-1226673,CeZnNi4,https://materialsproject.org/materials/mp-1226673,27.76593303618459,80.031519580615,-8.604250342815693,-0.5045126942092143
-8.6888743575,-34.75549743,8.00360716570717,0.06517475999999968,5.7183852,1.463158769822301,0.0,225,4,45.54695832725,219.5311,mp-1018067,CrFe3,https://materialsproject.org/materials/mp-1018067,52.2894975765508,69.91666359707428,-8.604250342815693,-0.5045126942092143
-6.662466191538463,-86.61206049,8.579620241018858,-0.27620994,11.280712199999998,0.7181220406046198,0.0,191,13,183.06937153567517,945.877,mp-18450,Lu(FeGe)6,https://materialsproject.org/materials/mp-18450,49.031966335191754,66.67411362979023,-8.604250342815693,-0.5045126942092143
-7.4737370325,-29.89494813,9.25462242851282,-0.6702996829166663,0.34990959999999993,0.06964691262150989,0.0,225,4,58.550608913582145,326.318,mp-1187497,TiGeRh2,https://materialsproject.org/materials/mp-1187497,35.628259220632636,56.563709451429865,-8.604250342815693,-0.5045126942092143
-7.23196334,-28.92785336,8.032434279642683,-0.12942302500000036,6.9952570000000005,1.662104508523709,0.0,221,4,49.04816620172154,237.258,mp-19870,GaFe3,https://materialsproject.org/materials/mp-19870,49.872827316115036,75.74380355258474,-8.604250342815693,-0.5045126942092143
-6.9206712925,-55.36537034,8.204398837891336,-0.09564989937500012,12.6426427,1.4045385213930914,0.0,166,8,104.90148520525558,518.297735,mp-1221827,Mn3Ni4Sn,https://materialsproject.org/materials/mp-1221827,34.73359979981945,73.0444448161897,-8.604250342815693,-0.5045126942092143
-9.304862555,-37.21945022,10.781888932035164,-0.7153916670833329,0.0013602,0.0002646805811594583,0.0,225,4,59.890524775920966,388.8695,mp-1187424,Ti2OsRh,https://materialsproject.org/materials/mp-1187424,62.876334402138006,55.55761168229449,-8.604250342815693,-0.5045126942092143
-8.431880086428572,-118.04632121,8.086563349344745,-0.19783703195571434,17.964358800000003,1.211431870016039,0.0,71,14,172.81846898243717,841.5987000000001,mp-1225484,ErV2Fe10N,https://materialsproject.org/materials/mp-1225484,61.13271797260614,75.25736336453795,-8.604250342815693,-0.5045126942092143
-6.6173451925,-79.40814231,8.529978273272938,-0.4973261091666667,2.765965325,0.1415222457982641,0.01999999999999957,62,12,227.77153425161026,1170.0334599999999,mp-21378,HoMnGe,https://materialsproject.org/materials/mp-21378,24.66559304965281,69.20724446568093,-8.604250342815693,-0.5045126942092143
-7.45684467,-22.37053401,8.80323268047308,-0.19978489333333246,3.980953,0.8972027005147248,0.0,216,3,51.70992473818841,274.1365836,mp-1221621,MnAlIr,https://materialsproject.org/materials/mp-1221621,35.908242572894395,51.50637186626188,-8.604250342815693,-0.5045126942092143
-6.8143798525,-27.25751941,5.593763042007066,-0.4260486200000004,0.34055040000000003,0.06441919492957472,0.0,225,4,61.608910577971926,207.538419,mp-1186936,Sc2CoNi,https://materialsproject.org/materials/mp-1186936,31.165787031690467,59.43892074205848,-8.604250342815693,-0.5045126942092143
-8.564769135,-34.25907654,16.12724121590437,-0.7119236100000004,2.2e-06,4.3537504036651256e-07,0.0,225,4,58.889325575594896,571.936182,mp-1184576,HfBeIr2,https://materialsproject.org/materials/mp-1184576,40.029943765146704,52.42704482257182,-8.604250342815693,-0.5045126942092143
-8.621132903333333,-25.86339871,11.496309030206866,0.6343837200000012,1.7527288,0.4095681412574159,0.0,216,3,49.873056290998726,345.2831,mp-631404,CrIrRu,https://materialsproject.org/materials/mp-631404,44.35948359893953,52.92509821761694,-8.604250342815693,-0.5045126942092143
-5.523342905,-66.28011486,8.245265606884708,-0.4112509749999997,0.226736225,0.012870963832017544,0.0,38,12,205.29920578771984,1019.3957744,mp-1216791,TmAlCo,https://materialsproject.org/materials/mp-1216791,23.66864163172027,71.92098474657861,-8.604250342815693,-0.5045126942092143
-7.59110192125,-60.72881537,8.468671279932286,-0.12172567625000053,0.215604,0.023905477280833018,0.0,194,8,105.10825413377407,536.0471699999998,mp-1188034,ZrCo3,https://materialsproject.org/materials/mp-1188034,60.374291777485844,65.36969291217358,-8.604250342815693,-0.5045126942092143
-6.334629375384616,-247.05054564,7.2338898558382825,-0.2657850942307694,37.7562781,0.8097100899944336,0.0,8,39,543.4217950170313,2367.335736,mp-1219537,Sc3(Ga4Fe5)4,https://materialsproject.org/materials/mp-1219537,46.95214089872295,71.29607627822307,-8.604250342815693,-0.5045126942092143
-8.427811291428572,-117.98935808,8.021452652867223,-0.19105161517000066,18.029183800000002,1.2128725092360972,0.0,71,14,173.2360773301057,836.8397000000001,mp-1225106,DyV2Fe10N,https://materialsproject.org/materials/mp-1225106,61.12648022694625,75.25851952272794,-8.604250342815693,-0.5045126942092143
-8.778850315,-35.11540126,10.708013065809858,-0.7775954358333337,0.0038054,0.0007316783498592898,0.0,225,4,60.61184958394267,390.8565,mp-972328,Ti2IrRh,https://materialsproject.org/materials/mp-972328,62.87908666452964,55.508072255957785,-8.604250342815693,-0.5045126942092143
-6.630746065,-26.52298426,8.461052693051652,0.1121222599999996,2.1091985,0.549148790751806,0.0,225,4,44.7615224710479,228.0763,mp-1007975,CrNi3,https://materialsproject.org/materials/mp-1007975,31.62425700998218,79.94263622957712,-8.604250342815693,-0.5045126942092143
-7.704006516666666,-46.2240391,8.859142016752774,-0.08601152666666677,2.507253,0.3095437862872289,0.0,227,6,94.3959793658444,503.61199999999997,mp-204,CeFe2,https://materialsproject.org/materials/mp-204,42.952918675971354,69.90206442597643,-8.604250342815693,-0.5045126942092143
-6.538395685,-26.15358274,7.79859798394409,-0.39791489,1.049208,0.20397560600431386,0.0,225,4,59.946079981883784,281.532302,mp-3791,ScCo2Sn,https://materialsproject.org/materials/mp-3791,44.67906640697832,45.679913093676895,-8.604250342815693,-0.5045126942092143
-7.213331086749999,-288.53324347,7.489729582966214,-0.08442433800000089,26.9472396,0.3977941765069672,0.0,140,40,789.4657445659847,3560.8225999999995,mp-1197734,Pr6Fe13Bi,https://materialsproject.org/materials/mp-1197734,53.80452974525238,81.20778429786431,-8.604250342815693,-0.5045126942092143
-7.113086099999999,-14.226172199999999,8.397917595797098,0.00595757499999916,3.1371035,1.6142755949026515,0.0,166,2,22.64793415862082,114.5384,mp-1224976,FeNi,https://materialsproject.org/materials/mp-1224976,49.450056022660064,75.75286479746048,-8.604250342815693,-0.5045126942092143
-5.71559278,-45.72474224,8.517244135257451,-0.19528482187500007,0.27367195,0.025475000377839674,0.0,194,8,125.19688260759052,642.1604,mp-863718,PmNi3,https://materialsproject.org/materials/mp-863718,28.208608931541608,81.45021578840334,-8.604250342815693,-0.5045126942092143
-5.598855365,-33.59313219,8.167426777096232,-0.4204743479166666,2.1e-05,2.7147832759500006e-06,0.0,187,6,90.1491335945083,443.40207000000004,mp-1222941,LaGaNi4,https://materialsproject.org/materials/mp-1222941,24.84446238564662,79.95589031194378,-8.604250342815693,-0.5045126942092143
-6.195728195,-24.78291278,7.866932758614143,-0.7648462037499995,8.400000000000001e-06,1.796198379670882e-06,0.0,225,4,54.500741787462566,258.2015,mp-866087,MgSiRh2,https://materialsproject.org/materials/mp-866087,37.42751722915301,53.996633952805794,-8.604250342815693,-0.5045126942092143
-6.997110443333334,-41.98266266,7.901588382607347,-0.1644034016666668,3.1476827999999997,0.3676800479646861,0.0,166,6,99.76962154387914,474.74853860000013,mp-1226839,Ce2AlFe3,https://materialsproject.org/materials/mp-1226839,42.405055957232214,70.38464294807021,-8.604250342815693,-0.5045126942092143
-8.299551493181818,-182.59013285,8.140766410028649,-0.08820289755681833,34.6935467,1.50706319558625,0.0,166,22,268.2839323631304,1315.25774,mp-1190608,Ho2Fe17C3,https://materialsproject.org/materials/mp-1190608,57.824981272676325,74.81297921785018,-8.604250342815693,-0.5045126942092143
-7.2638022,-43.582813200000004,8.504902834038813,-0.43971259166666604,7.037047,1.0024640242038978,0.0,187,6,81.80862311809634,419.00513860000007,mp-1225047,GdAlNi4,https://materialsproject.org/materials/mp-1225047,24.82132674732757,79.82002195439787,-8.604250342815693,-0.5045126942092143
-7.522093606875,-120.35349771,5.353839511718222,-0.44356154062499975,5.7275e-05,2.4880594372117083e-06,0.0,82,16,268.27597036684466,864.9639999999998,mp-1189044,Ti3Ge,https://materialsproject.org/materials/mp-1189044,42.41006814104961,64.19604810964472,-8.604250342815693,-0.5045126942092143
-5.846299476666666,-70.15559372,7.932919054444867,-0.3791665962500008,0.4983794,0.03330881602742166,0.0,65,12,174.3726286796819,833.0330786000001,mp-568040,La2AlNi9,https://materialsproject.org/materials/mp-568040,25.78245020047632,79.6066409732143,-8.604250342815693,-0.5045126942092143
-8.30116311681818,-182.62558857,8.205559801472717,-0.0907827566477279,34.455917,1.5033301491456632,0.0,166,22,267.1079860562504,1319.9151,mp-1191671,Er2Fe17C3,https://materialsproject.org/materials/mp-1191671,57.825204021289,74.81132006993705,-8.604250342815693,-0.5045126942092143
-6.9318551775,-27.72742071,8.086541177381713,-0.03969332000000048,0.9526952,0.19706095307661234,0.0,225,4,56.34181402233568,274.375,mp-998965,TiInFe2,https://materialsproject.org/materials/mp-998965,35.1593701453277,55.12824996583931,-8.604250342815693,-0.5045126942092143
-7.73417992625,-61.87343941,7.654643245627706,0.2921231912499991,9.64718405,0.8004389040009453,0.0,194,8,140.45907467707488,647.4789700000001,mp-1187368,TbMn3,https://materialsproject.org/materials/mp-1187368,55.79659271089839,68.59631460356772,-8.604250342815693,-0.5045126942092143
-8.081288918333334,-48.48773351,12.275389795604458,0.036389705520833836,0.14535479999999998,0.020202599569267017,0.0,216,6,83.84932089528712,619.84878,mp-1226700,CePuCo4,https://materialsproject.org/materials/mp-1226700,44.101573845111005,73.86103493337565,-8.604250342815693,-0.5045126942092143
-8.433715708333333,-50.60229425,17.042311462150778,-0.253010704583333,1.8e-05,1.9477739874778943e-06,0.0,191,6,107.6989256734569,1105.327,mp-569264,NdIr5,https://materialsproject.org/materials/mp-569264,31.666255963371892,63.950825736000795,-8.604250342815693,-0.5045126942092143
-6.5321543549999985,-39.19292613,10.129319249741162,-0.2636548399999998,1.9664699,0.2480441118006809,0.0,74,6,92.39230643904392,563.5948,mp-1225564,ErFeNi,https://materialsproject.org/materials/mp-1225564,42.559251153362176,70.01818834574625,-8.604250342815693,-0.5045126942092143
-6.853814782307693,-89.09959217,7.72333227855308,-0.20823095128205052,11.3310301,0.7501304851754208,0.008199999999999541,191,13,176.0394509154531,818.7769999999999,mp-22130,Ti(FeGe)6,https://materialsproject.org/materials/mp-22130,49.041797394775074,66.62365093878746,-8.604250342815693,-0.5045126942092143
-5.472021543333334,-65.66425852,8.265412838162867,-0.004205213333333309,5.7893509000000005,0.3755628442677329,0.0,47,12,179.64894932891394,894.211275,mp-1219998,Pr2(CoCu)5,https://materialsproject.org/materials/mp-1219998,39.63340050983656,75.27860506182596,-8.604250342815693,-0.5045126942092143
-7.117069616749999,-284.68278467,7.323722343578501,-0.05105796266666687,26.3868994,0.3974428026188205,0.0,140,40,773.7330572559082,3412.51,mp-1199952,Nd6InFe13,https://materialsproject.org/materials/mp-1199952,53.76438703808609,81.16737420663597,-8.604250342815693,-0.5045126942092143
-7.1380224575,-28.55208983,6.969835765863954,-0.5091190025000003,1.0095457,0.20918595254445368,0.0,225,4,56.243312878090585,236.0719286,mp-3909,ZrAlCo2,https://materialsproject.org/materials/mp-3909,44.25288378281927,46.281597824619226,-8.604250342815693,-0.5045126942092143
-5.752020408333332,-34.51212245,8.923884776891802,-0.31148423083333304,1.65e-06,1.9749253774955102e-07,0.0,227,6,97.36675164460594,523.2575999999998,mp-1343,NdNi2,https://materialsproject.org/materials/mp-1343,28.320172242148647,81.87564830631432,-8.604250342815693,-0.5045126942092143
-9.5091035525,-76.07282842,11.50261980272423,-0.06561893499999805,3.5000000000000004e-06,4.0572126768873064e-07,0.0,223,8,100.53509626528236,696.4105999999998,mp-1609,Cr3Ir,https://materialsproject.org/materials/mp-1609,56.049395516112135,57.76861284475967,-8.604250342815693,-0.5045126942092143
-7.762359156666666,-46.57415494,7.120925084135117,-0.3140328550000007,2.3745671,0.4245102197189921,0.0,123,6,65.18891066629169,279.551,mp-1225186,Fe2Si,https://materialsproject.org/materials/mp-1225186,49.18959981186321,67.45961007711458,-8.604250342815693,-0.5045126942092143
-7.822837205,-46.93702323,7.173065869713894,-0.3745109033333343,2.05586325,0.3702255006866951,0.0,164,6,64.7150545669749,279.551,mp-22787,Fe2Si,https://materialsproject.org/materials/mp-22787,49.18952639216894,67.57824621701585,-8.604250342815693,-0.5045126942092143
-6.446664472413793,-186.9532697,9.406045609014225,-0.5456515351724132,15.765089000000001,0.3709873076436391,0.0,71,29,495.2389598397046,2805.25789,mp-4193,Tm9(FeGe)10,https://materialsproject.org/materials/mp-4193,18.07762734330241,74.37996929956559,-8.604250342815693,-0.5045126942092143
-7.7622726616666675,-46.57363597,7.725446392943254,-0.05543418500000049,6.868273599999999,0.8231427079544853,0.0,216,6,97.24110368294443,452.40185,mp-1226473,CeYFe4,https://materialsproject.org/materials/mp-1226473,42.8927186362733,69.87150134279884,-8.604250342815693,-0.5045126942092143
-6.4355271850000015,-38.61316311,9.221408705580464,-0.27632104958333303,0.006936399999999999,0.0008619687853402338,0.0,191,6,93.78211399670954,520.7966700000002,mp-1018743,LaNi3Rh2,https://materialsproject.org/materials/mp-1018743,28.62148212485916,79.93974210902729,-8.604250342815693,-0.5045126942092143
-6.8414202975,-27.36568119,9.353986702181276,-0.2679600212500004,4.1944322,0.8213597843369721,0.0,216,4,59.51373012786267,335.24694500000004,mp-1221328,MnNiSnRh,https://materialsproject.org/materials/mp-1221328,46.17452657156298,44.96953438484356,-8.604250342815693,-0.5045126942092143
-7.484963101666667,-44.90977861,9.34548859280666,0.16369130166666798,2.4210596,0.29537534566479073,0.0,227,6,95.5231565895405,537.60288,mp-20075,TbMn2,https://materialsproject.org/materials/mp-20075,42.347940024227185,72.37712617663729,-8.604250342815693,-0.5045126942092143
-6.534009246666668,-39.20405548,10.986772982204387,-0.2853900800000003,1.9216268,0.25299791615145745,0.0,227,6,88.51757965658486,585.66678,mp-2206,LuCo2,https://materialsproject.org/materials/mp-2206,42.99344208395115,74.79234873973238,-8.604250342815693,-0.5045126942092143
-9.709021935,-19.41804387,15.098178716634214,0.32578829499999884,1.4627677,0.6384509343808246,0.0,221,2,26.70086079448013,242.77319500000002,mp-1007819,CoW,https://materialsproject.org/materials/mp-1007819,55.62735752181076,60.115999248236115,-8.604250342815693,-0.5045126942092143
-9.0585713325,-36.23428533,7.4584213492856195,-0.5036905608333324,0.5044858,0.10489829807357312,0.0,225,4,56.0477176275347,251.74204500000002,mp-865469,Ti2MnRu,https://materialsproject.org/materials/mp-865469,62.7762670848791,55.5337358627275,-8.604250342815693,-0.5045126942092143
-6.919223801666668,-83.03068562,8.312412776247433,-0.2740487348611123,2.1325307000000002,0.15939704691846054,0.0,35,12,155.9166332610002,780.4956,mp-1219126,SmFe2Ni2B,https://materialsproject.org/materials/mp-1219126,30.41691335149373,85.0808171981365,-8.604250342815693,-0.5045126942092143
-7.2119176855,-288.47670742,7.250269749748753,-0.07745331125000235,26.275671600000003,0.39553363475308784,0.0,140,40,774.1904906773964,3380.2818,mp-1197173,Pr6Fe13Sn,https://materialsproject.org/materials/mp-1197173,53.7615207874601,81.23611534372522,-8.604250342815693,-0.5045126942092143
-7.299876535,-29.19950614,6.512987911414357,-0.21153207333333413,7e-07,1.4873588633289562e-07,0.0,123,4,54.84786181683937,215.125,mp-1217096,Ti2FeCu,https://materialsproject.org/materials/mp-1217096,33.79225577679106,69.91990693147827,-8.604250342815693,-0.5045126942092143
-7.023823850625,-112.38118161,8.02488741196732,-0.3829151872916672,0.3551857,0.022307574419196303,0.0,38,16,185.5583702782549,896.7479800000001,mp-1217064,TiCoNi2,https://materialsproject.org/materials/mp-1217064,36.831553137414254,80.61779938084737,-8.604250342815693,-0.5045126942092143
-9.34310369,-37.37241476,12.519024072945571,-0.2986788849999993,3.9200000000000004e-05,7.314778169768396e-06,0.0,225,4,62.45429847379837,470.85124,mp-1184602,Hf2MnCo,https://materialsproject.org/materials/mp-1184602,31.402997523817398,59.18623692510854,-8.604250342815693,-0.5045126942092143
-6.3363226866666675,-95.04484029999999,6.941965621372336,-0.5457016137777789,4.6e-06,1.9948874212998664e-07,0.0,160,15,268.73044253716944,1123.440912,mp-1219331,ScTi4(NiSn)5,https://materialsproject.org/materials/mp-1219331,31.039104012996177,68.08112253752118,-8.604250342815693,-0.5045126942092143
-6.124535218333333,-36.74721131,6.553900481179867,-0.4103286305555554,1.25e-06,1.4884019484390794e-07,0.0,70,6,97.87397134878091,386.29400000000004,mp-567889,TiGe2,https://materialsproject.org/materials/mp-567889,42.35854527437664,63.94159449807494,-8.604250342815693,-0.5045126942092143