energy_per_atom,energy,density,formation_energy_per_atom,total_magnetization_uB,total_magnetization_T,band_gap,sgr,num_sites,cell_volume,weight,mp_id,formula,URL,tsne_cry_lin1_0,tsne_cry_lin1_1,tsne_cry_lin2_0,tsne_cry_lin2_1
-6.2973797636,-157.43449409,12.445020887733504,-0.3373496455999998,6.6600000000000015e-06,1.8606592695020052e-07,0.0,12,25,417.1428517700666,3126.3050000000007,mp-1210677,Mg2Ir3,https://materialsproject.org/materials/mp-1210677,39.36037939197799,54.49539765928974,-8.604250342815693,-0.5045126942092143
-7.0585978175,-28.23439127,6.4384996048387455,-0.237409260833334,0.9997135,0.2041283045251777,0.0,216,4,57.07550410563139,221.30200000000002,mp-999059,Ti2GaFe,https://materialsproject.org/materials/mp-999059,35.92319644198039,58.99993186500929,-8.604250342815693,-0.5045126942092143
-7.4081153725,-29.63246149,9.479034226884645,-0.84009876,4e-06,7.255591510978272e-07,0.0,225,4,64.24873701848396,366.758,mp-1188021,ZrGaRh2,https://materialsproject.org/materials/mp-1188021,33.67085986805113,57.344907265462865,-8.604250342815693,-0.5045126942092143
-8.400216295,-100.80259554,11.446768764303446,-0.7129161533333329,0.199710775,0.012969814825485823,0.0,62,12,179.45069678671481,1237.0264,mp-1212428,HfFeAs,https://materialsproject.org/materials/mp-1212428,48.30013969010127,61.905688957385514,-8.604250342815693,-0.5045126942092143
-8.349323936666666,-100.19188724,6.707820998134388,-0.8198360572222233,7.5e-08,4.9863482197983365e-09,0.0,62,12,175.28957453703998,708.0899999999998,mp-505822,TiSiRu,https://materialsproject.org/materials/mp-505822,43.17519859215563,54.619747093057114,-8.604250342815693,-0.5045126942092143
-7.48040235875,-59.84321887,8.898380364001136,0.4732398124999993,0.048104900000000006,0.006587799338531679,0.0,229,8,85.09937714685464,456.02458499999995,mp-1084832,Fe5Co3,https://materialsproject.org/materials/mp-1084832,48.21183022575733,74.69468826218845,-8.604250342815693,-0.5045126942092143
-6.21776357,-37.30658142,7.069490029927636,-0.3563113345833339,3.5264154000000003,0.4408217814908633,0.0,187,6,93.2283185907042,396.9052536,mp-1222882,LaMnAlNi3,https://materialsproject.org/materials/mp-1222882,24.754935996973014,80.16698991977049,-8.604250342815693,-0.5045126942092143
-6.2238330475,-24.89533219,8.303639419508954,-0.2872253300000001,4.0718945,0.9803747466610876,0.0,225,4,48.404064274040614,242.04784500000002,mp-20228,MnGaNi2,https://materialsproject.org/materials/mp-20228,34.320264411467754,77.51833819066233,-8.604250342815693,-0.5045126942092143
-7.887091230952381,-331.2578317,7.141366032009152,-0.2964818219727896,8.596779816666666,0.21228161849944788,0.0,8,42,471.95527114905497,2029.705572,mp-1225379,Fe5SiP,https://materialsproject.org/materials/mp-1225379,47.312845041008856,66.78287733172893,-8.604250342815693,-0.5045126942092143
-1.4190820816666667,-8.51449249,3.904147929092366,0.01949881083333338,3.3333333333333334e-08,3.393531398254655e-09,0.0,156,6,114.47332591405672,269.14200000000005,mp-1094429,MgZn,https://materialsproject.org/materials/mp-1094429,1.700309319224169,99.70693846764132,-8.604250342815693,-0.5045126942092143
-9.39867563,-37.59470252,8.348943814289875,-0.252755865000001,0.23701950000000002,0.05385272589059585,0.0,225,4,51.292493735067815,257.891045,mp-1186006,MnV2Ru,https://materialsproject.org/materials/mp-1186006,56.584451874239775,55.730332259484655,-8.604250342815693,-0.5045126942092143
-9.4997832075,-37.99913283,8.257825525843257,-0.6450955358333328,0.0001278,2.512415833389152e-05,0.0,225,4,59.28116907001018,294.80400000000003,mp-865650,Ti2TcRu,https://materialsproject.org/materials/mp-865650,63.075024507918044,56.123675609358074,-8.604250342815693,-0.5045126942092143
-5.685561575,-34.11336945,9.466146298526633,-0.7258345899999998,1.575e-05,1.7423829973920783e-06,0.0,12,6,105.34510520508232,600.53522,mp-1216632,TmNiGe,https://materialsproject.org/materials/mp-1216632,17.713205061794998,76.25297359763388,-8.604250342815693,-0.5045126942092143
-5.3910953133333335,-48.51985782,8.00225231342436,-0.8731920400000001,1.1666666666666666e-06,7.471320183202331e-08,0.0,189,9,181.9813442326868,876.9806658,mp-3197,TbAlPd,https://materialsproject.org/materials/mp-3197,3.391880759499055,68.15731404081157,-8.604250342815693,-0.5045126942092143
-7.0122363275,-28.04894531,4.444005724940767,-0.19982619374999988,0.9998450000000001,0.1803232810817375,0.0,216,4,64.61871325,172.935369,mp-999201,Sc2MnSi,https://materialsproject.org/materials/mp-999201,41.02508185199253,63.7465163276371,-8.604250342815693,-0.5045126942092143
-6.986385305,-27.94554122,9.978120267485798,-0.4664248462499998,0.0011832000000000001,0.00022755327412916915,0.0,225,4,60.59719198355872,364.12638,mp-864831,NbZnRh2,https://materialsproject.org/materials/mp-864831,40.240740607910396,51.36605084366235,-8.604250342815693,-0.5045126942092143
-6.4709107375,-25.88364295,7.097465282303079,-0.813223773749999,4.1e-06,7.424534409855679e-07,0.0,225,4,64.35644705756509,275.071912,mp-866069,MgScRh2,https://materialsproject.org/materials/mp-866069,38.5111065751428,55.84105193360714,-8.604250342815693,-0.5045126942092143
-4.4917749925,-17.96709997,7.692085348822019,-0.34823688999999897,1.2e-06,2.069716595738764e-07,0.0,225,4,67.56904667945551,312.99888860000004,mp-971985,TbAlCu2,https://materialsproject.org/materials/mp-971985,32.8718992296782,67.60209368426054,-8.604250342815693,-0.5045126942092143
-3.1658604964285715,-44.32204695,2.2808115744367035,0.07603826571428586,2.9299999999999997e-05,1.2922155866592357e-06,0.0,23,14,264.24700441726293,362.95300000000003,mp-1074532,Mg4Si3,https://materialsproject.org/materials/mp-1074532,-11.699707018776007,97.39843371828327,-8.604250342815693,-0.5045126942092143
-8.824655992,-44.12327996,7.763533048179942,0.04035839200000026,1.9e-06,3.881990608335245e-07,0.0,69,5,57.03961009158421,266.6778,mp-1226243,Cr4Ni,https://materialsproject.org/materials/mp-1226243,54.70377160474086,65.78366815919475,-8.604250342815693,-0.5045126942092143
-7.5847351299999985,-45.50841078,10.929092164390509,-0.15009787166666655,0.01435965,0.0017111145568795216,0.0,74,6,97.80075246187604,643.69064,mp-1223925,HoFeRu,https://materialsproject.org/materials/mp-1223925,42.73561739525464,69.07502004051632,-8.604250342815693,-0.5045126942092143
-6.289301101764706,-427.67247492,7.9686934666352744,-0.4682877685294115,43.3002574,0.429332401887573,0.0,127,68,1175.3690198771685,5640.43073,mp-1200816,Gd6(Ga3Co)7,https://materialsproject.org/materials/mp-1200816,17.487119370620974,84.21837755898055,-8.604250342815693,-0.5045126942092143
-7.188438873333332,-43.13063324,11.331015298365646,-0.7553322933333332,1e-07,1.0795741514109243e-08,0.0,227,6,107.95057252277377,736.6220000000002,mp-1388,DyRh2,https://materialsproject.org/materials/mp-1388,30.560329433244128,65.69993083396136,-8.604250342815693,-0.5045126942092143
-5.998522314166667,-71.98226777,7.90010041004719,-0.3980846658333341,7.033443400000001,0.40706521219391706,0.0032000000000005357,63,12,201.36381715341625,957.9987800000001,mp-22545,EuGa3Co2,https://materialsproject.org/materials/mp-22545,39.566553605296505,77.38424396148105,-8.604250342815693,-0.5045126942092143
-6.3083088125,-25.23323525,11.372094741986606,-0.4736630206249997,0.0004041,5.761445187229644e-05,0.0,225,4,81.74003954823462,559.7914000000002,mp-973757,PmBiRh2,https://materialsproject.org/materials/mp-973757,15.159093432038176,51.208962952077094,-8.604250342815693,-0.5045126942092143
-8.50409634,-17.00819268,9.85237077772424,-0.012275450000000632,0.0004034,0.0001800731968410115,0.0,187,2,26.107437484998737,154.9016,mp-1226170,CrRh,https://materialsproject.org/materials/mp-1226170,55.99813085466847,58.33205828524118,-8.604250342815693,-0.5045126942092143
-4.892485907307694,-127.20463359,5.000589692305523,-0.4661852996153842,7.670000000000001e-05,2.0866918448580477e-06,0.0,63,26,428.3654868628367,1289.990772,mp-1193161,Yb(Al5Ru)2,https://materialsproject.org/materials/mp-1193161,11.820336021981873,86.13933315539782,-8.604250342815693,-0.5045126942092143
-6.1356558225,-24.54262329,6.440934596316429,-0.13744601083333394,0.0,0.0,0.0,129,4,57.446829585670606,222.826,mp-2078,TiCu,https://materialsproject.org/materials/mp-2078,33.8239783556821,69.81998942890223,-8.604250342815693,-0.5045126942092143
-9.4996730475,-37.99869219,10.429709895040583,-0.6195668833333343,0.00023480000000000004,4.477037454071772e-05,0.0,225,4,61.12020363171946,383.891,mp-865807,Ti2MoIr,https://materialsproject.org/materials/mp-865807,62.806077116273784,56.24334656223876,-8.604250342815693,-0.5045126942092143
-7.575329115862068,-219.68454436,9.767245727280512,-0.18675135362068845,18.521516899999998,0.7580433808294786,0.0,225,29,284.74750007376497,1674.8770949999996,mp-541852,Co21(ReB3)2,https://materialsproject.org/materials/mp-541852,39.40926394466915,89.44502830237316,-8.604250342815693,-0.5045126942092143
-6.840136163076924,-355.68708048,12.861312430822373,-0.9964655923076916,1.0296545,0.013215581178259559,0.0,62,52,907.9933810325148,7032.648,mp-567579,Ce2Si4Pt7,https://materialsproject.org/materials/mp-567579,25.98888266686553,54.00972419415239,-8.604250342815693,-0.5045126942092143
-4.1322285563636365,-45.45451412,7.997174628048197,-0.4675285490909089,6.4e-06,3.762963492904577e-07,0.0,123,11,198.21083750884375,954.5856150000001,mp-1102278,Tm2Ga8Co,https://materialsproject.org/materials/mp-1102278,16.840778851563034,83.54754999045345,-8.604250342815693,-0.5045126942092143
-6.333903874166666,-76.00684649,3.63752313962902,-0.4657903145833338,0.0029785999999999997,0.00017466360037266755,0.0,25,12,198.74087822237732,435.35534299999995,mp-1219384,Sc4CoSi7,https://materialsproject.org/materials/mp-1219384,37.13347599952725,64.75434678764621,-8.604250342815693,-0.5045126942092143
-6.827767160689656,-198.00524766,7.086987603330687,-0.3857953263793112,20.5210995,0.7007797410942735,0.0,160,29,341.2687450178011,1456.495335,mp-1221908,Mn3Cr3Si7Ni16,https://materialsproject.org/materials/mp-1221908,50.143602672023505,50.100891616052465,-8.604250342815693,-0.5045126942092143
-6.682394771111111,-60.14155294,12.10120830247794,-0.8488317627777775,2.1333333333333334e-06,1.2853847258189194e-07,0.0,189,9,193.42072726348718,1409.55705,mp-1205755,TbSnIr,https://materialsproject.org/materials/mp-1205755,10.307512744257492,56.30314120778753,-8.604250342815693,-0.5045126942092143
-6.8508733925,-27.40349357,10.27049780157832,-0.3045101187499997,8e-06,1.6738510528403391e-06,0.0,225,4,55.699411260202815,344.50300000000004,mp-865895,GaGeRu2,https://materialsproject.org/materials/mp-865895,42.79552188537293,53.58122211449925,-8.604250342815693,-0.5045126942092143
-6.995448060689656,-202.86799376,8.72831279895358,-0.1804227799999992,18.8025582,0.7450249890639234,0.0,225,29,294.1193038745473,1545.9830949999996,mp-505544,Co21(B3Sb)2,https://materialsproject.org/materials/mp-505544,39.29327077549042,89.53736849480471,-8.604250342815693,-0.5045126942092143
-7.29521729125,-58.36173833,8.431490790746901,0.0814924162499997,7.448723299999999,0.7618046608810904,0.0,194,8,113.95034484387905,578.59,mp-1184324,Fe3Sb,https://materialsproject.org/materials/mp-1184324,50.959640259547406,67.18751163128026,-8.604250342815693,-0.5045126942092143
-8.868637178333334,-106.42364614,7.498063571214082,-0.1734807512500005,0.3796211,0.02694983704201641,0.0,156,12,164.16161929042013,741.2618600000002,mp-1215733,Zr3Mn8Si,https://materialsproject.org/materials/mp-1215733,53.01247320365723,59.90184677199209,-8.604250342815693,-0.5045126942092143
-8.160143297058822,-416.16730815,8.315811822876075,-0.5877146679411768,3.3333333333333334e-08,4.420301515914738e-10,0.0,174,51,878.8287956225536,4401.08586,mp-29939,Nb9As7Pd,https://materialsproject.org/materials/mp-29939,48.40933738036721,59.185140408091286,-8.604250342815693,-0.5045126942092143
-2.157694838333333,-12.94616903,4.371187967531995,-0.14524700722222228,3.07e-05,3.009416912705322e-06,0.0,63,6,118.8867474649618,312.9564000000001,mp-1185748,Mg2Ag,https://materialsproject.org/materials/mp-1185748,-24.09935650080458,88.58278984166522,-8.604250342815693,-0.5045126942092143
-7.328441689999999,-87.94130028,8.549613613908807,-1.0523510795833328,9.000000000000001e-07,5.303457306360065e-08,0.0,74,12,197.77020327335168,1018.2589999999999,mp-1103026,NdSi2Rh3,https://materialsproject.org/materials/mp-1103026,12.959667647083696,66.39554836437043,-8.604250342815693,-0.5045126942092143
-7.7258777279999995,-772.5877727999999,4.519680945658768,0.17124962533333246,9.509e-06,6.301366691825774e-08,0.0,1,100,1758.642328592391,4786.7,mp-1245170,Ti,https://materialsproject.org/materials/mp-1245170,59.721125130891,55.24999762888836,-8.604250342815693,-0.5045126942092143
-6.45684847,-103.30957552,10.476268832180118,-0.5263648893749995,4e-07,2.017436789983204e-08,0.0,55,16,231.06676413205926,1457.7902,mp-18561,Ga2AsRh5,https://materialsproject.org/materials/mp-18561,33.79127574450944,52.29110830952497,-8.604250342815693,-0.5045126942092143
-10.02794777,-40.11179108,10.694686868620504,-0.2341347716666675,1.56e-05,3.4278723885850122e-06,0.0,225,4,53.036808212973654,341.58309,mp-865656,TiMn2W,https://materialsproject.org/materials/mp-865656,51.571910029587116,60.62896689178189,-8.604250342815693,-0.5045126942092143
-7.372912286458334,-353.89978975,10.323537582530227,-0.458024513958333,0.001968258333333333,3.130504758863347e-05,0.0,55,48,732.7319992359849,4555.38,mp-1203443,HfFeGe2,https://materialsproject.org/materials/mp-1203443,48.66592880545388,62.31974178988686,-8.604250342815693,-0.5045126942092143
-7.60369175,-30.414766999999998,7.14426676289887,-0.4225639537500001,2.8160220000000002,0.7171184669614629,0.0,225,4,45.763851163962144,196.89338999999998,mp-20586,VCo2Si,https://materialsproject.org/materials/mp-20586,47.085601733169156,48.57961900343951,-8.604250342815693,-0.5045126942092143
-6.325751699285715,-177.12104758,16.067814189084185,-0.7890001917857147,1.15e-06,2.809187160483539e-08,0.0,15,28,477.08371577979017,4616.388,mp-1213024,Er2(GePt3)3,https://materialsproject.org/materials/mp-1213024,61.970666692477224,44.78587769344689,-8.604250342815693,-0.5045126942092143
-5.6569264977777785,-50.91233848,9.784892440170383,-0.7555131122222226,1.6666666666666665e-07,1.0033973107914405e-08,0.0,189,9,193.5767724180867,1140.6705,mp-567588,DyInRh,https://materialsproject.org/materials/mp-567588,7.402272897976352,55.153915886609326,-8.604250342815693,-0.5045126942092143
-7.737277408333332,-92.84732890000001,10.213119420507088,-0.11715213083333255,1.1527174999999998,0.0928854953172948,0.0,164,12,144.62801068749604,889.5323199999999,mp-1218046,TaCo4Si,https://materialsproject.org/materials/mp-1218046,60.072202119768455,65.09434044205834,-8.604250342815693,-0.5045126942092143
-7.007241219791666,-336.34757855,8.387704840381405,-0.7222531472916671,1.575e-06,2.2763906576214214e-08,0.0,55,48,806.3269788657732,4072.914,mp-31084,ZrGe2Rh,https://materialsproject.org/materials/mp-31084,32.34266515138257,53.23148625138771,-8.604250342815693,-0.5045126942092143
-8.32035703,-33.28142812,18.36667182604289,0.9020953290949992,1.1e-06,2.4801894796634173e-07,0.0,225,4,51.687467247685355,571.6979399999999,mp-1184598,HOs3,https://materialsproject.org/materials/mp-1184598,40.530726214649064,52.28053894914214,-8.604250342815693,-0.5045126942092143
-5.192200569,-51.92200569,9.424593420971314,0.0986885816250002,0.015409200000000001,0.0009746059529148248,0.000300000000000189,74,10,184.2588939214299,1045.7839999999999,mp-510173,PuGa4,https://materialsproject.org/materials/mp-510173,39.46173179506203,46.705275938009656,-8.604250342815693,-0.5045126942092143
-10.056660325,-40.2266413,10.874374647481957,-0.3037089587499988,2.49e-05,5.52250118551633e-06,0.0,225,4,52.54615673017827,344.1091,mp-865485,V2CrOs,https://materialsproject.org/materials/mp-865485,56.4019831369681,55.633307749589406,-8.604250342815693,-0.5045126942092143
-6.5036441542857135,-91.05101816,7.604490496374867,-0.7382299678571432,9.000000000000001e-07,4.854377080654656e-08,0.0,63,14,216.0659981916616,989.4810000000001,mp-1207381,Zr(SiPd)3,https://materialsproject.org/materials/mp-1207381,44.956975380724735,57.24974055681231,-8.604250342815693,-0.5045126942092143
-4.050740847,-121.52222541,8.259998285627017,-0.2287242656666668,1.7e-06,5.194570982110343e-08,0.055500000000000334,227,30,381.39646530160036,1897.1756,mp-30030,Zn6Ni7Ge2,https://materialsproject.org/materials/mp-30030,35.10400878977676,75.6837547877299,-8.604250342815693,-0.5045126942092143
-4.432786005555554,-39.89507405,8.52067687367931,-0.7103467113888884,5.1133333333333334e-05,3.1635490637197083e-06,0.0,189,9,188.3679268760506,966.567,mp-1080449,SmZnPd,https://materialsproject.org/materials/mp-1080449,8.657209110925637,56.03297173874663,-8.604250342815693,-0.5045126942092143
-9.584411883333333,-115.0129426,11.974818626874844,-0.09737501749999923,0.00122895,7.822957372151581e-05,0.0,194,12,183.07990470742038,1320.26324,mp-9394,U2Cr3Si,https://materialsproject.org/materials/mp-9394,48.01807399215306,63.11880130414684,-8.604250342815693,-0.5045126942092143
-8.848563245,-35.39425298,7.862718742625235,-0.658137582916666,7e-07,1.3095790103499134e-07,0.0,225,4,62.29364762506421,294.962912,mp-972957,ScTiRu2,https://materialsproject.org/materials/mp-972957,41.793237300882794,59.45111403087246,-8.604250342815693,-0.5045126942092143
-5.8705795795,-117.41159159,9.518180361632648,-0.7407107009999997,0.00319805,8.7035943422053e-05,0.0,36,20,428.2171293893397,2454.533,mp-1106269,Dy2Sn5Rh3,https://materialsproject.org/materials/mp-1106269,2.426318551010016,50.35642818797228,-8.604250342815693,-0.5045126942092143
-6.362156501666667,-76.34587802,4.790265842229926,-0.6679895833333339,7.829999999999999e-05,5.337378904409558e-06,0.0,139,12,170.96655269078556,493.19842400000005,mp-15605,ScSi3Ni2,https://materialsproject.org/materials/mp-15605,14.884603307033224,73.81442124027984,-8.604250342815693,-0.5045126942092143
-7.128375633999998,-35.64187817,7.6291669406081635,-0.6786807659999994,0.11307850000000001,0.017977098081258244,0.0,139,5,73.30572250466659,336.79521,mp-2938,Tm(FeSi)2,https://materialsproject.org/materials/mp-2938,16.058801165412195,72.87623205772437,-8.604250342815693,-0.5045126942092143
-5.863967141,-58.63967141,8.656796831557685,-0.7418839149999996,0.1653515,0.009621439342421757,0.0,12,10,200.28366054790988,1044.12779,mp-1205305,Tb2CoGe2,https://materialsproject.org/materials/mp-1205305,19.78430331834581,70.21316499953032,-8.604250342815693,-0.5045126942092143
-9.47548163,-75.80385304,8.586720984212414,0.06855104499999952,1.3e-06,1.5238331382872414e-07,0.0,223,8,99.422199344977,514.1166,mp-1272,Cr3Ru,https://materialsproject.org/materials/mp-1272,56.111878453770295,57.7597599337584,-8.604250342815693,-0.5045126942092143
-6.482364503333333,-19.44709351,7.340950607937925,0.31649877000000143,3.0382423,0.6643090611776004,0.0,216,3,53.30030045979546,235.63124,mp-1221616,MnCoSb,https://materialsproject.org/materials/mp-1221616,47.951318017904796,43.03607906596857,-8.604250342815693,-0.5045126942092143
-6.4682749773333335,-194.04824932,5.456167179334483,-0.7740372451111114,0.0478449,0.0012149293191817724,0.0,44,30,458.9465039926471,1507.9975789999999,mp-1217136,Ti8Al15Rh7,https://materialsproject.org/materials/mp-1217136,35.67770351320402,58.962519184121426,-8.604250342815693,-0.5045126942092143
-5.861707786666668,-70.34049344,6.825721173509173,-0.2202800675000004,1.736476825,0.0891830673022149,0.0,38,12,226.91542247612526,932.7461544,mp-1219123,SmAlFe,https://materialsproject.org/materials/mp-1219123,3.7399858304351112,67.17295679936193,-8.604250342815693,-0.5045126942092143
-5.9056617650000005,-141.73588236,7.59448629896373,-0.003887338333332953,0.0,0.0,0.0,64,24,351.8088268491008,1609.0,mp-640708,FeGe2,https://materialsproject.org/materials/mp-640708,46.716251222158384,67.65056699976664,-8.604250342815693,-0.5045126942092143