energy_per_atom,energy,density,formation_energy_per_atom,total_magnetization_uB,total_magnetization_T,band_gap,sgr,num_sites,cell_volume,weight,mp_id,formula,URL,tsne_cry_lin1_0,tsne_cry_lin1_1,tsne_cry_lin2_0,tsne_cry_lin2_1
-4.820108075,-19.2804323,10.974242146301437,-0.8169910800000002,7e-07,1.0620502861113377e-07,0.0,225,4,76.81223241002523,507.64,mp-865996,YbSbPd2,https://materialsproject.org/materials/mp-865996,28.928341635819734,41.77896639726779,-8.604250342815693,-0.5045126942092143
-5.801922615714285,-162.45383324,4.149977323532377,-1.8614094208721423,7.9999999000000015,0.37273035586458897,0.21850000000000014,1,28,250.13395219396068,625.12847,mp-1174676,Li4MnCo2O7,https://materialsproject.org/materials/mp-1174676,-89.06777448810301,-35.93557126547073,-5.056336556405373,-2.0132256612395776
-6.2314949539999995,-62.31494954,4.247776397722549,-1.647743104442,6.999999799999999,0.7686119936038257,0.6650999999999998,2,10,106.13736417851658,271.50689,mp-762633,LiMn2NiO6,https://materialsproject.org/materials/mp-762633,-65.90295615955566,-41.22987476613625,3.611326294045598,-0.07772721833724691
-7.230902619999998,-21.69270786,11.758306308419824,-0.17047513833333264,3.01e-05,5.880672618081597e-06,0.0,139,3,59.65088901148202,422.389,mp-1014231,Hf2Zn,https://materialsproject.org/materials/mp-1014231,31.276700432168077,60.68398732719522,-8.604250342815693,-0.5045126942092143
-5.6575453525,-22.63018141,1.298879405045324,4.09917901625,3.9693718000000002,0.05877189772152085,0.0,71,4,787.0992405717877,615.67176,mp-1093942,Ta2CuOs,https://materialsproject.org/materials/mp-1093942,-58.884691500719654,40.349820021947885,-8.604250342815693,-0.5045126942092143
-6.96623587,-27.86494348,14.869888483243086,-0.8058140199999997,5e-06,7.552208371577405e-07,0.0,225,4,77.15666861377629,690.92688,mp-1186396,PaGaPt2,https://materialsproject.org/materials/mp-1186396,32.06065357756136,42.03001297046275,-8.604250342815693,-0.5045126942092143
-6.0505870775,-72.60704493,7.6174079067057825,-0.2758881783333346,7.1226842999999995,0.5187088595809369,0.0,166,12,160.0285452108068,734.1006,mp-567249,GdMg2Ni9,https://materialsproject.org/materials/mp-567249,31.73773626633862,73.0349861046258,-8.604250342815693,-0.5045126942092143
-6.92746781,-277.0987124,3.941930902296023,-1.957301697538,10.00000005,0.2583124781529498,0.4377,1,40,451.1615123729917,1071.00614,mp-762514,LiMn3O6,https://materialsproject.org/materials/mp-762514,-66.19465216525707,-40.840580224282824,3.859523475801745,1.0074369257872369
-8.162394725,-32.6495789,14.939612491841102,-0.8408405874999998,0.0,0.0,0.0,225,4,65.27054704080817,587.229,mp-865020,HfMgIr2,https://materialsproject.org/materials/mp-865020,39.090205183186015,55.21815935148779,-8.604250342815693,-0.5045126942092143
-7.0677223960000015,-70.67722396,10.488555499195508,-0.3822945050000001,0.86865455,0.0638233074337886,0.0,129,10,158.61535225483004,1001.87101,mp-1216374,UCoNiGe2,https://materialsproject.org/materials/mp-1216374,18.90486925561761,66.88594384188693,-8.604250342815693,-0.5045126942092143
-5.81130924,-23.24523696,0.7673629117615777,3.97094109,2.17e-05,3.448612503351189e-07,0.06699999999999973,71,4,733.3187051859156,338.87886000000003,mp-1093780,Nb2CrRu,https://materialsproject.org/materials/mp-1093780,-59.405500367586214,42.627143329258665,-8.604250342815693,-0.5045126942092143
-6.788628186,-33.94314093,9.732028201655417,-0.6135511939999994,1.2873226,0.17756284348927753,0.0,139,5,84.49144352932096,495.18445,mp-3605,Th(CoGe)2,https://materialsproject.org/materials/mp-3605,11.382288738701124,69.52095841544173,-8.604250342815693,-0.5045126942092143
-6.446299653333334,-19.33889896,7.453165421018745,-0.11803030666666815,1.9999574,0.4521016163777878,0.0,216,3,51.553969810370276,231.3949,mp-505599,VNiSb,https://materialsproject.org/materials/mp-505599,47.86451419058998,42.26811777442399,-8.604250342815693,-0.5045126942092143
-6.671956212142858,-93.40738697,14.450338539101784,-1.2371494549999995,1.3e-06,5.1994407801362376e-08,0.0,148,14,291.38295530179363,2535.672,mp-1104664,Dy3Pt4,https://materialsproject.org/materials/mp-1104664,15.869040537996595,56.46635456399335,-8.604250342815693,-0.5045126942092143
-5.974234026666667,-71.69080832,10.53514892677233,-1.02426476,4.0475e-05,1.6453918894520251e-06,0.0,62,12,286.67837412669274,1818.8066,mp-21453,PrSnPt,https://materialsproject.org/materials/mp-21453,9.847600399492991,54.616811323008214,-8.604250342815693,-0.5045126942092143
-8.4297995915,-168.59599183,13.641759341177806,-0.8531417003333331,0.0,0.0,0.0,127,20,267.9658034989206,2201.408648,mp-22014,Sc2SiB2Ir5,https://materialsproject.org/materials/mp-22014,29.665395468016182,49.77826681423941,-8.604250342815693,-0.5045126942092143
-7.861026036666666,-23.58307811,7.314216873137313,-0.2325612849999992,0.2926904000000001,0.06710511686576376,0.0,216,3,50.83118902437489,223.89737999999997,mp-1100400,NbSiRh,https://materialsproject.org/materials/mp-1100400,32.31831272371104,51.89846586992121,-8.604250342815693,-0.5045126942092143
-7.70068727125,-61.60549817,6.985430044312095,0.3553652718750007,9.6845126,0.7662456631412691,0.0,194,8,147.29471572912814,619.62827,mp-1186625,PmMn3,https://materialsproject.org/materials/mp-1186625,55.84979196236973,68.52838927519521,-8.604250342815693,-0.5045126942092143
-7.359953990277778,-264.95834365,8.17555654246582,-0.6869122954365091,2.29989905,0.060513116928659336,0.0,62,36,442.93161316822494,2180.745144,mp-1197850,YbFe5P3,https://materialsproject.org/materials/mp-1197850,14.377422715894074,28.00405202251655,-8.604250342815693,-0.5045126942092143
-7.99199488,-111.88792832,6.456661284230107,-0.7075021327551018,4.00691805,0.27487168935497697,0.0,136,14,169.8861115985391,660.566872,mp-510133,Sc(Fe2P)2,https://materialsproject.org/materials/mp-510133,14.791511501451582,28.404673559548396,-8.604250342815693,-0.5045126942092143
-4.3755819275,-35.00465542,10.834976141193755,-0.2632918762500003,6.45e-06,5.681109262243657e-07,0.0,194,8,132.31345202701382,863.342,mp-1183675,CdPd3,https://materialsproject.org/materials/mp-1183675,34.488456402004445,40.477297419236635,-8.604250342815693,-0.5045126942092143
-7.8773703225,-31.50948129,8.741675352307407,-0.32244344874999964,1.84e-05,2.9736708313207224e-06,0.0,225,4,72.11113938924423,379.619,mp-865870,LiZr2Os,https://materialsproject.org/materials/mp-865870,27.951799139859293,44.429395056760384,-8.604250342815693,-0.5045126942092143
-5.8157820225,-23.26312809,10.386630960622366,-0.5025209449999997,3.14e-05,4.499910614395127e-06,0.0,225,4,81.32108950958869,508.66142,mp-1187575,Tm2GaRu,https://materialsproject.org/materials/mp-1187575,10.06106425030064,52.17900257812681,-8.604250342815693,-0.5045126942092143
-7.61960741,-45.71764446,9.905571061897566,-0.1180856616666664,7.3726937999999995,0.9805599929893029,0.0,187,6,87.62528729273437,522.708885,mp-1217317,ThMnCo4,https://materialsproject.org/materials/mp-1217317,44.37256694158248,76.58918598529974,-8.604250342815693,-0.5045126942092143
-8.59534059875,-68.76272479,6.985407289480594,-0.1749052412500003,4e-07,4.6329416720733536e-08,0.0,200,8,100.61913658709385,423.275595,mp-1216439,V6CoNi,https://materialsproject.org/materials/mp-1216439,56.761336513184325,54.27811417212696,-8.604250342815693,-0.5045126942092143
-11.730573990833333,-140.76688789,16.56717665168077,-0.015665383749999744,7.5e-08,5.741801207875923e-09,0.0,60,12,152.226596898383,1518.7628,mp-2034,W2C,https://materialsproject.org/materials/mp-2034,57.716464782377564,47.68451750460762,-8.604250342815693,-0.5045126942092143
-7.34695225,-44.0817135,6.6428748807430935,-0.5073223649999989,0.60179375,0.06286740638125994,0.0,129,6,111.55770129419865,446.27909000000005,mp-505331,CeMnSi,https://materialsproject.org/materials/mp-505331,20.074336526370896,47.47995575205857,-8.604250342815693,-0.5045126942092143
-5.192479032,-51.92479032,6.195204330215742,-0.6487842659999998,1.6522526999999998,0.07985361502104732,0.0,127,10,241.1344806538991,899.6339999999999,mp-22511,Ce2MgGe2,https://materialsproject.org/materials/mp-22511,-1.27570424781318,68.5226017589488,-8.604250342815693,-0.5045126942092143
-2.96449181,-11.85796724,13.299852837858861,-0.62726482375,1.6e-06,2.3616501399677206e-07,0.0,225,4,78.95540207471362,632.3821379999998,mp-865431,YbZnAu2,https://materialsproject.org/materials/mp-865431,-9.227080399807193,61.02156014229916,-8.604250342815693,-0.5045126942092143
-8.538701681860465,-734.32834464,11.128624726598254,-0.26556373348837153,0.15587615,0.0012537029358142295,0.0,14,86,1448.9802142940885,9710.796706799998,mp-1208546,Ta24Al19,https://materialsproject.org/materials/mp-1208546,35.990276823576224,64.80969877196908,-8.604250342815693,-0.5045126942092143
-7.516378585,-60.13102868,5.018855591698027,0.64935471125,2.94e-05,2.862119733344648e-06,0.0,229,8,119.71179972714178,361.82,mp-571211,V3Si,https://materialsproject.org/materials/mp-571211,50.2261484332397,65.58771019545813,-8.604250342815693,-0.5045126942092143
-5.6134849608333335,-67.36181953,3.588509591894049,0.18604492805555492,0.187308575,0.009824664940555918,0.0,38,12,222.18633192210805,480.156,mp-1094380,MgTi2,https://materialsproject.org/materials/mp-1094380,33.48622064332598,61.416686289932954,-8.604250342815693,-0.5045126942092143
-6.688297366666667,-40.1297842,8.04459127470894,-0.07312353916666699,3.7498742,0.4547640842700821,0.0,216,6,96.09658793942155,465.54628,mp-1219772,PrYCo4,https://materialsproject.org/materials/mp-1219772,42.577894579540256,74.25140854670879,-8.604250342815693,-0.5045126942092143
-4.660015226428572,-65.24021317,4.880595646780011,-1.8009123178571431,2.99999935,0.07558608232175472,0.0,11,14,462.5479409517481,1359.504,mp-1104603,Ce2Br5,https://materialsproject.org/materials/mp-1104603,-27.878027045807013,37.35415779511438,0.48549794343928293,0.0989520322143194
-9.69270915,-193.854183,6.234727226356305,-0.5134595454280003,0.00059985,2.3706086802749717e-05,0.05640000000000001,2,20,294.89011881155636,1107.2064,mp-1247461,VWN3,https://materialsproject.org/materials/mp-1247461,6.667618475972838,18.69108169644549,-6.3264114795985,-2.9770295939814324
-7.799953919285714,-218.39870974,6.849799499883684,-0.5539227028571422,0.000637225,1.97414623305424e-05,0.0,139,28,376.1758526471992,1551.7426,mp-1210174,Nb2Co2Si3,https://materialsproject.org/materials/mp-1210174,47.040818626482455,49.59063606857321,-8.604250342815693,-0.5045126942092143
-4.496740334693877,-220.3402764,6.833839306653166,-0.14873866096938773,7.82e-05,1.0149503709252058e-06,0.0,148,49,897.9235747097702,3695.34547,mp-1204258,La(Ga5Mo)8,https://materialsproject.org/materials/mp-1204258,11.729692044555211,91.60063890493916,-8.604250342815693,-0.5045126942092143
-6.1195664975,-24.47826599,0.5307849853739813,3.81668944,1.9995185000000002,0.025258043775422373,0.0,71,4,922.5781030439964,294.89858,mp-1096384,NbCr2Tc,https://materialsproject.org/materials/mp-1096384,-58.61430195275624,41.768786755097274,-8.604250342815693,-0.5045126942092143
-9.666490891666667,-57.99894535,13.524606440845686,-0.14923761395833304,3.16245685,0.4147623612005361,0.0,227,6,88.85926115293186,723.7327799999999,mp-863,PuCo2,https://materialsproject.org/materials/mp-863,44.05585423954997,73.84770149703233,-8.604250342815693,-0.5045126942092143
-7.855949905,-31.42379962,7.636165034470793,-0.28662725249999976,0.0021604,0.0004962447264538295,0.0,38,4,50.73593771878696,233.31459500000003,mp-999190,SmCoC2,https://materialsproject.org/materials/mp-999190,8.227787703708477,38.55157992983428,-8.604250342815693,-0.5045126942092143
-7.027000355568182,-618.37603129,4.0424261720649985,-1.8712467605327263,22.002228525,0.2535419476584413,0.0,15,88,1011.333228048087,2461.99566,mp-1176738,LiMn7O14,https://materialsproject.org/materials/mp-1176738,-75.99265377993684,-14.527076447241404,-8.604250342815693,-0.5045126942092143