energy_per_atom,energy,density,formation_energy_per_atom,total_magnetization_uB,total_magnetization_T,band_gap,sgr,num_sites,cell_volume,weight,mp_id,formula,URL,tsne_cry_lin1_0,tsne_cry_lin1_1,tsne_cry_lin2_0,tsne_cry_lin2_1
-6.036065995,-72.43279194,11.144282003644905,-0.9321465683333336,0.0,0.0,0.0,62,12,305.71663353174694,2051.7388,mp-11551,Tb2Pt,https://materialsproject.org/materials/mp-11551,14.178361680823595,55.650844527027004,-8.604250342815693,-0.5045126942092143
-5.65073033625,-45.20584269,9.461588493375636,-0.4725712037500003,8e-07,5.938879596993313e-08,0.0,62,8,156.9867121530441,894.4948800000001,mp-11871,HoNi,https://materialsproject.org/materials/mp-11871,2.1364043667016444,58.98056672040183,-8.604250342815693,-0.5045126942092143
-6.0753229175,-24.30129167,1.2317573027501874,3.307290775625,0.22187510000000002,0.002952645805436926,0.0,71,4,875.7388990094347,649.607,mp-1096313,Hf2RePd,https://materialsproject.org/materials/mp-1096313,-61.73460264301509,35.68373972015355,-8.604250342815693,-0.5045126942092143
-5.617827225,-22.471308899999997,13.722040299564082,-0.9809524074999992,1.67e-05,2.811316685584993e-06,0.0,225,4,69.22837355879342,572.076,mp-861652,LiLuPt2,https://materialsproject.org/materials/mp-861652,28.64147681157927,44.29806032956792,-8.604250342815693,-0.5045126942092143
-8.606781195,-137.70849912,5.1750677295752,-0.5176619830649987,7.0314284,0.5129640372742822,0.0,31,16,159.7474989721353,497.85287000000005,mp-1245396,Mn3SiN4,https://materialsproject.org/materials/mp-1245396,2.8727667485415203,17.747530219864032,-8.604250342815693,-0.5045126942092143
-5.639202341578947,-107.14484449,7.2688155272288,-0.17338600710526314,0.0001036,2.398806520380329e-06,0.0,204,19,503.3174206337232,2203.21317,mp-510232,Nd12Co6Sn,https://materialsproject.org/materials/mp-510232,-30.11643396496973,68.198013932411,-8.604250342815693,-0.5045126942092143
-7.8189964975,-31.27598599,14.662465387080633,0.5891530413100012,1e-07,2.494978265543449e-08,0.0,186,4,46.710085348263505,412.4474,mp-1184774,IrN,https://materialsproject.org/materials/mp-1184774,5.937619726026753,20.537057662776476,-8.604250342815693,-0.5045126942092143
-7.791114514210527,-296.06235154,4.378909515413532,-0.9463151097138148,0.00036005,4.644758257838276e-06,0.0,176,38,903.3938449388767,2382.2866,mp-1224361,K(MoS)9,https://materialsproject.org/materials/mp-1224361,64.71418502703996,31.90180198888565,-8.604250342815693,-0.5045126942092143
-4.0193235475,-16.07729419,0.5556879629572054,1.758271400833333,0.2977337,0.002988139316451422,0.0,71,4,1161.1934576378592,388.5854,mp-1097092,Y2AgRh,https://materialsproject.org/materials/mp-1097092,-69.02654946916634,41.06905217041935,-8.604250342815693,-0.5045126942092143
-6.234741918999998,-62.34741919,8.309643897960871,-0.06270708599999962,2.28189195,0.1430072645264406,0.0,64,10,185.95780205533336,930.56717,mp-1084826,Nd2Co3,https://materialsproject.org/materials/mp-1084826,42.55875709403636,81.16651869827598,-8.604250342815693,-0.5045126942092143
-5.63134537625,-45.05076301,9.882065834443118,-0.5031280012499995,0.0,0.0,0.0,62,8,152.99818451703112,910.51044,mp-11525,TmNi,https://materialsproject.org/materials/mp-11525,2.0586446570036463,58.97138989519089,-8.604250342815693,-0.5045126942092143
-9.481420605,-37.92568242,12.654524609942374,-0.07536597,3.9500000000000005e-05,5.322762978617133e-06,0.0,225,4,86.484324093594,659.07394,mp-1187445,ThPaTc2,https://materialsproject.org/materials/mp-1187445,20.933820294166683,56.042998138096934,-8.604250342815693,-0.5045126942092143
-7.41430792,-14.82861584,11.005778143777649,-1.2196249424999994,0.0,0.0,0.0,221,2,36.21694348432045,240.039912,mp-892,ScPt,https://materialsproject.org/materials/mp-892,22.41082846240912,52.45287811073562,-8.604250342815693,-0.5045126942092143
-5.915196255,-23.66078502,0.8311015737590915,3.3829785875,0.0016124000000000002,2.434802978547689e-05,0.0,71,4,771.7673341472463,386.27038,mp-1097587,ZrNbRu2,https://materialsproject.org/materials/mp-1097587,-62.61354902371545,38.57195458232408,-8.604250342815693,-0.5045126942092143
-8.398789730833334,-100.78547677,6.7122532898592935,-0.6138103095238101,2.09e-05,1.082404736990803e-06,0.0,124,12,225.02668865220159,909.605914,mp-1102006,Zr4CoP,https://materialsproject.org/materials/mp-1102006,25.251484812144927,58.064225064570245,-8.604250342815693,-0.5045126942092143
-7.727305877222222,-139.09150579,7.4769434200889515,-0.29241671277777925,2.665e-05,1.145660467619085e-06,0.0,2,18,271.0932557829859,1220.6572,mp-1216016,Zr3(VNi2)2,https://materialsproject.org/materials/mp-1216016,36.72169994879786,67.47334065599239,-8.604250342815693,-0.5045126942092143
-5.751021623076923,-74.7632811,4.6211310893791,-1.4156651730769223,5.9999997,0.5014864639914178,0.0,216,13,139.43424231752618,388.03298,mp-1222210,Mg(CoO2)4,https://materialsproject.org/materials/mp-1222210,-72.62843718129325,-22.252276345524965,-8.604250342815693,-0.5045126942092143
-5.9996740441666665,-71.99608853,12.244522735854089,-0.9952788974999992,0.00516275,0.00020811475135020443,0.0,62,12,289.10503707296886,2131.8096800000008,mp-1102133,Tm2Pt,https://materialsproject.org/materials/mp-1102133,14.64696357216935,56.8564589199926,-8.604250342815693,-0.5045126942092143
-7.44445934125,-59.55567473,5.654646716209045,-0.0770497062500004,0.00028015,2.747961124016014e-05,0.0,194,8,118.81122398344276,404.5888,mp-1187671,Ti3Ni,https://materialsproject.org/materials/mp-1187671,58.73563078059246,52.277760265260746,-8.604250342815693,-0.5045126942092143
-3.7307717325,-14.92308693,0.5105493032854369,2.372733130416667,4.1584324,0.056430248938517474,0.0,71,4,858.8060739323055,264.0485,mp-1096027,Ti2ZnRh,https://materialsproject.org/materials/mp-1096027,-65.17627993935143,40.83827078509632,-8.604250342815693,-0.5045126942092143
-5.40215318,-21.60861272,0.9133997429962396,2.9703160187499984,2.0000005,0.0267605458940023,0.0,71,4,870.9887856725563,479.098,mp-1097315,Zr2OsPd,https://materialsproject.org/materials/mp-1097315,-63.324130779142095,37.9870124786189,-8.604250342815693,-0.5045126942092143
-6.143962085,-24.57584834,1.1594206596424947,2.93697826,0.0001508,1.8876201186489796e-06,0.0,71,4,931.0310641104228,650.0640000000002,mp-1096071,Hf2TcPt,https://materialsproject.org/materials/mp-1096071,-61.70059659249802,35.67362050948176,-8.604250342815693,-0.5045126942092143
-3.3932565525,-13.57302621,0.6185377447829474,1.1308671662499994,0.00022810000000000001,2.696935496358271e-06,0.0,71,4,985.6713956304905,367.15485,mp-1097388,YZnPd2,https://materialsproject.org/materials/mp-1097388,-68.67538554894246,42.090715159028115,-5.556275113807176,-2.4442057659379994
-7.3813387175,-29.52535487,13.741370305063608,0.05988870124999845,5.59e-05,7.1073070060073225e-06,0.0,221,4,91.66090901032558,758.5166399999998,mp-983497,Pa3Zn,https://materialsproject.org/materials/mp-983497,10.459436828750082,70.087255638847,-8.604250342815693,-0.5045126942092143
-10.603415685,-42.41366274,12.0804031511308,0.2450885409375001,0.0018636,0.00040503175801489264,0.0,160,4,53.621758492685096,390.0977,mp-1219541,ReMo2C,https://materialsproject.org/materials/mp-1219541,57.13525294944575,47.431128779023076,-8.604250342815693,-0.5045126942092143
-6.728575491904763,-282.60017066,3.9736247076871374,-2.0368573171561897,36.0,0.9682433892876628,0.8212000000000002,5,42,433.30668347842726,1036.891095,mp-690435,Li7Mn11O24,https://materialsproject.org/materials/mp-690435,-67.19881520599456,-38.274332000057846,3.5757634607768427,1.1718448491698084
-7.009897619285715,-98.13856667,5.579080555372858,-0.5865404672544646,8.5e-07,3.130123211034308e-08,0.8114999999999997,176,14,316.4717293477545,1063.282,mp-1103933,Li(MoSe)3,https://materialsproject.org/materials/mp-1103933,64.02162256186178,31.817802996559823,-8.604250342815693,-0.5045126942092143
-5.586020225,-22.344080899999998,1.1042538812857072,2.5223636475000006,0.1180891,0.0016160556227309724,0.0,71,4,851.5907503280165,566.3055,mp-1097245,Hf2PdRh,https://materialsproject.org/materials/mp-1097245,-63.08488063329728,35.999033589092065,-8.604250342815693,-0.5045126942092143
-7.609237903999999,-38.04618952,7.400808538582008,0.10771488104799973,3.1919485,0.8218718576589259,0.0,139,5,45.26152614062653,201.72479,mp-1246772,Fe(CoN)2,https://materialsproject.org/materials/mp-1246772,2.605019578673359,16.434662047459764,-8.604250342815693,-0.5045126942092143
-8.8130850175,-35.25234007,10.145046428439594,-0.1982363562499998,0.0001121,1.6874557087208617e-05,0.0,225,4,77.41955265861436,472.993972,mp-865568,ThScTc2,https://materialsproject.org/materials/mp-865568,20.793196424250226,56.28975324455819,-8.604250342815693,-0.5045126942092143
-7.788215753947369,-295.95219865,4.402669757854434,-0.9483532890477532,4.2000000000000004e-06,5.2434127110946065e-08,0.0,176,38,933.4964600666079,2475.0256,mp-1219766,Rb(MoS)9,https://materialsproject.org/materials/mp-1219766,64.70006491614444,31.896822884788985,-8.604250342815693,-0.5045126942092143
-8.23618283,-32.94473132,11.985183388976832,-0.08492386500000038,1e-07,1.409025531466856e-08,0.0,225,4,82.71010363046659,596.97227,mp-865251,TmThTc2,https://materialsproject.org/materials/mp-865251,20.54357000890072,56.53697831932745,-8.604250342815693,-0.5045126942092143
-8.804207615,-35.21683046,15.453329486251636,-0.22384161749999976,0.0004372,6.067911149126575e-05,0.0,225,4,83.96888143783224,781.43227,mp-980647,TmThOs2,https://materialsproject.org/materials/mp-980647,20.258605391930463,55.244913904833155,-8.604250342815693,-0.5045126942092143
-9.026256626666667,-162.47261928,14.00163512320956,0.21766151513888746,0.042479,0.0014144724989140207,0.0,193,18,349.9912637775895,2951.12,mp-505692,Np5Ge4,https://materialsproject.org/materials/mp-505692,7.340671017776008,73.93265507466843,-8.604250342815693,-0.5045126942092143
-7.697369855555554,-138.55265740000002,7.163893224458494,0.014754074497779534,0.00492565,0.0003571577908910732,0.0,2,18,160.72404301679032,693.3952499999998,mp-1246097,Mn(CoN)4,https://materialsproject.org/materials/mp-1246097,2.8319108992178297,16.36496652068625,-8.604250342815693,-0.5045126942092143
-6.988539762916666,-167.72495431,9.36836784003581,-0.42504837125,3.7161915,0.15605971202896707,0.0,191,24,277.51388161088624,1565.6675699999998,mp-1190854,Tm2Co7B3,https://materialsproject.org/materials/mp-1190854,42.37920935291515,83.58873770334164,-8.604250342815693,-0.5045126942092143
-6.4810006975,-25.92400279,10.998170919670029,-0.4808426624999997,2.17e-05,3.3658936748518415e-06,0.0,225,4,75.13404462358042,497.63182,mp-865367,Tm2NiRu,https://materialsproject.org/materials/mp-865367,17.67962103335878,51.62699533937157,-8.604250342815693,-0.5045126942092143
-7.984645221538463,-103.80038788,8.780049505058441,-0.20567365384615444,0.7000554,0.04455037171322344,0.0,166,13,183.1295825879401,968.29208,mp-1105044,Nb6Ni7,https://materialsproject.org/materials/mp-1105044,54.01044343585331,59.17318150628346,-8.604250342815693,-0.5045126942092143
-7.2822577225,-29.12903089,11.228554209869836,-0.3533717412500001,0.0001446,2.1517748796626928e-05,0.0,225,4,78.31570960510032,529.57032,mp-1183786,DyHoRu2,https://materialsproject.org/materials/mp-1183786,19.664163390166895,53.25975462488183,-8.604250342815693,-0.5045126942092143
-9.42029011,-37.68116044,16.421538630375608,-0.3061372049999989,0.00025540000000000003,3.742698532758715e-05,0.0,225,4,79.52679375214942,786.4628799999999,mp-865608,LuPaOs2,https://materialsproject.org/materials/mp-865608,20.74252647097838,55.69170248483567,-8.604250342815693,-0.5045126942092143
-10.0048853875,-40.01954155,11.210712377304537,-0.3144262300000005,0.0003656,5.550347113967996e-05,0.0,225,4,76.76503817437448,518.2598800000002,mp-1188046,ZrPaTc2,https://materialsproject.org/materials/mp-1188046,20.76808780126261,56.43989809412771,-8.604250342815693,-0.5045126942092143
-4.21867547,-25.31205282,6.144809201821302,0.01962666708333316,0.0002227,1.2882512439855526e-05,0.0,38,6,201.46382446483003,745.5149999999999,mp-1186288,Nd5Mg,https://materialsproject.org/materials/mp-1186288,-47.97536585004692,68.412940072342,-8.604250342815693,-0.5045126942092143
-8.75257592,-43.762879600000005,9.244728960964448,-0.11402449174999987,4.28e-05,8.629020296076241e-06,0.0,166,5,57.804241402974206,321.8139,mp-1226355,Cr2Rh2C,https://materialsproject.org/materials/mp-1226355,44.680203688591654,67.23473026173826,-8.604250342815693,-0.5045126942092143
-6.5881162975,-26.35246519,10.996743176424122,-0.7314498074999998,1.4599999999999999e-05,2.299250403656408e-06,0.0,225,4,74.00209451253751,490.07099999999997,mp-1184063,DySbRh2,https://materialsproject.org/materials/mp-1184063,31.470452497621388,56.21700017085972,-8.604250342815693,-0.5045126942092143
-4.221808505,-16.88723402,1.3347533496863548,2.0287933875000004,4.9988964000000005,0.10311801851735816,0.0,71,4,564.9590951663681,454.11822699999993,mp-1096198,MnBePt2,https://materialsproject.org/materials/mp-1096198,-65.10821616930325,40.88566614596162,-8.604250342815693,-0.5045126942092143
-8.791913995,-35.16765598,11.994912935746651,-0.23598596625000035,6.12e-05,9.44031299041403e-06,0.0,225,4,75.55138953601289,545.7458799999999,mp-1186406,PaTc2Sn,https://materialsproject.org/materials/mp-1186406,56.837128284040425,45.027227334065536,-8.604250342815693,-0.5045126942092143
-8.540248738333334,-102.48298486,12.308426457306169,-0.3237407974999999,3.5018897000000004,0.25465928009240185,0.0,160,12,160.258245351795,1187.88344,mp-1224459,Hf3TaCo8,https://materialsproject.org/materials/mp-1224459,60.86726949028932,64.1397184904875,-8.604250342815693,-0.5045126942092143
-5.138152735,-20.55261094,0.5561678941619562,2.454469487500001,1.9364830000000002,0.0259912799296074,0.0,71,4,868.2873015134966,290.81732400000004,mp-1096509,Sc2TcRh,https://materialsproject.org/materials/mp-1096509,-66.42920215806565,42.90922980036042,-8.604250342815693,-0.5045126942092143
-7.58460362,-15.16920724,17.66096422286495,-0.02006423500000043,2.09e-05,6.854811821969633e-06,0.0,123,2,35.53269733325972,377.91444900000005,mp-1217961,TaAu,https://materialsproject.org/materials/mp-1217961,21.55099863793628,57.754829214148046,-8.604250342815693,-0.5045126942092143
-5.7858827834375,-185.14824907,4.264436059587124,-1.850533820059999,14.0000005,0.5795338636295568,0.0,2,32,281.5312838166769,723.001465,mp-1175680,Li9Mn2Co5O16,https://materialsproject.org/materials/mp-1175680,-84.16675036597167,-33.36232313060005,-4.842637140521474,-2.1087830024313607
-6.9449814824999985,-388.91896302,4.067830726832764,-2.2982045403571427,3.999997125,0.08073015472035983,0.7871000000000001,1,56,577.432630301229,1414.53958,mp-774950,Li2V3CoO8,https://materialsproject.org/materials/mp-774950,-36.193522879520955,-54.909398459663194,-6.015083729476392,-0.8816699460886183
-5.792994153125,-185.3758129,4.212725471987548,-1.8576451897474997,22.0000002,0.8996529392286406,0.2561,12,32,284.98703905414186,723.001465,mp-1176308,Li9Mn2Co5O16,https://materialsproject.org/materials/mp-1176308,-72.59998846065228,-51.480532177027655,3.926353364025929,2.931010834581498
-6.063063165,-24.25225266,11.240144376103132,-1.126649759375001,2e-07,5.5161986962426314e-08,0.0,166,4,42.253970222276,286.0159950000001,mp-19210,CoPtO2,https://materialsproject.org/materials/mp-19210,-15.699482169015873,2.9702442140678387,-8.604250342815693,-0.5045126942092143
-10.2479648625,-40.99185945,14.790746846273114,-0.5679281837500003,0.00011850000000000001,2.036889690571876e-05,0.0,225,4,67.79977737334382,603.9059120000001,mp-865001,HfScOs2,https://materialsproject.org/materials/mp-865001,40.39989407226775,59.071288725468385,-8.604250342815693,-0.5045126942092143
-6.280048000000001,-31.400240000000004,7.448175469420988,-1.0286167299760005,8.02e-05,7.414194983871831e-06,0.0,221,5,126.06304484741145,565.4427000000002,mp-1094085,Nd3SnN,https://materialsproject.org/materials/mp-1094085,-49.68443372911261,65.44593067879264,-8.604250342815693,-0.5045126942092143
-7.23196640076923,-188.03112642,6.23035224578871,-2.2032918955961533,0.0005067,1.541751474656319e-05,0.0,8,26,383.0133920625788,1437.0685,mp-775511,KLi(WO3)6,https://materialsproject.org/materials/mp-775511,-17.260287146381792,0.6767320889406478,-8.604250342815693,-0.5045126942092143
-7.903713035555556,-71.13341732,8.299221603472969,-0.5535817396031746,0.0,0.0,0.0,189,9,111.41090815395107,556.821486,mp-7632,NiMoP,https://materialsproject.org/materials/mp-7632,15.607007987085545,26.632235580785128,-8.604250342815693,-0.5045126942092143
-7.26458471,-29.05833884,13.587926066232455,-0.9728043724999996,0.000151,2.2748930253473888e-05,0.0,225,4,77.35589151001012,632.9909200000001,mp-866085,Tm2IrRh,https://materialsproject.org/materials/mp-866085,17.8777683856894,50.13113410117803,-8.604250342815693,-0.5045126942092143
-9.295448715,-167.31807687,9.612009773420857,-0.3876699125000001,6.854894099999999,0.2644973780410209,0.0,14,18,302.0346758902371,1748.3239999999998,mp-573390,Np2Si4Mo3,https://materialsproject.org/materials/mp-573390,51.98004811950179,58.73569167949343,-8.604250342815693,-0.5045126942092143
-5.743318365,-22.97327346,1.1050280718331449,3.340331355,2.2123467,0.033587756089770805,0.0,71,4,767.6259072576414,510.82700000000006,mp-1097293,Hf2VRh,https://materialsproject.org/materials/mp-1097293,-63.30798809352254,36.08579592955128,-8.604250342815693,-0.5045126942092143
-7.726088755,-30.90435502,9.876530977488839,-0.3566885900000001,1.9e-06,2.8631715014789293e-07,0.0,225,4,77.33634906754946,459.98006,mp-1187865,YTmRu2,https://materialsproject.org/materials/mp-1187865,19.27167206355333,53.38547178504775,-8.604250342815693,-0.5045126942092143
-5.295942332857143,-74.14319266,4.174557089356327,-2.317276637929285,8.999678999999999,0.8025223836920676,0.0,139,14,130.69148491002014,328.55539780000004,mp-759580,Li4Co3O3F4,https://materialsproject.org/materials/mp-759580,-6.144286078671024,12.469630200180786,-8.604250342815693,-0.5045126942092143
-5.89448771,-23.57795084,0.957855867000696,3.1848492074999992,0.0005274,7.500931189282186e-06,0.2408999999999999,71,4,819.4120977713126,472.665,mp-1097312,Zr2TcIr,https://materialsproject.org/materials/mp-1097312,-62.726151868163434,37.95194670290564,-8.604250342815693,-0.5045126942092143
-6.238845821875,-99.82153315,8.669693720025151,-0.4490674199999996,0.000575975,1.4019590433489209e-05,0.0,62,16,478.7907313854723,2499.772,mp-1189686,Nd3Ir,https://materialsproject.org/materials/mp-1189686,-31.161922089095274,67.28028430297393,-8.604250342815693,-0.5045126942092143
-3.996145045,-15.98458018,0.7026052991082868,2.486582060416666,3.5144777,0.04904369283263106,0.0,71,4,835.1318669516127,353.36,mp-1095897,Ti2ZnIr,https://materialsproject.org/materials/mp-1095897,-65.1713289353519,40.85862484555439,-8.604250342815693,-0.5045126942092143
-6.857262853548387,-425.15029692,4.09095067258475,-1.9858771753593545,31.003510499999997,0.5493429719750813,0.0,55,62,657.7255703202558,1620.39121,mp-1177463,Li4Mn9O18,https://materialsproject.org/materials/mp-1177463,-68.82494279795965,-41.97884607779961,-8.604250342815693,-0.5045126942092143
-5.7885140021875,-185.23244807,4.251921153802487,-1.8531650388099996,15.9999999,0.6603806542628892,0.4752000000000001,2,32,282.3599298251388,723.001465,mp-1175530,Li9Mn2Co5O16,https://materialsproject.org/materials/mp-1175530,-76.4499088263333,-53.031920382787725,3.833947295754424,2.277361051684528
-9.450284896,-94.50284896,8.469912366921935,-0.4113092006666662,9.85e-06,9.554607479191195e-07,0.0,127,10,120.14364615157406,612.8167599999998,mp-1079120,Nb(BMo)2,https://materialsproject.org/materials/mp-1079120,21.89153213577167,36.66034369980441,-8.604250342815693,-0.5045126942092143
-4.4978586775,-17.99143471,0.7534042097192125,1.8242928750000005,0.5065027,0.006430537546739754,0.0,71,4,917.9349673914996,416.47685,mp-1097327,YSbRh2,https://materialsproject.org/materials/mp-1097327,-67.71627309718916,41.80870736681939,-8.604250342815693,-0.5045126942092143