energy_per_atom,energy,density,formation_energy_per_atom,total_magnetization_uB,total_magnetization_T,band_gap,sgr,num_sites,cell_volume,weight,mp_id,formula,URL,tsne_cry_lin1_0,tsne_cry_lin1_1,tsne_cry_lin2_0,tsne_cry_lin2_1
-4.728909404375,-75.66255047,13.416240819220082,-0.4494506581249995,0.0005262,1.7181443461169645e-05,0.0,193,16,356.9181423656382,2883.702,mp-1189800,Yb5Ir3,https://materialsproject.org/materials/mp-1189800,25.418066329010593,54.76405096499689,-8.604250342815693,-0.5045126942092143
-8.247519465,-181.44542823,7.582104571508462,-0.017478172102275126,34.986288200000004,1.4691514303491962,0.0,166,22,277.529232461305,1267.2124,mp-978091,Pr2Fe17C3,https://materialsproject.org/materials/mp-978091,57.92395071604711,74.76550300039828,-8.604250342815693,-0.5045126942092143
-6.6636412100000015,-39.98184726,7.396871964048003,-0.12235267249999993,1.3617142666666666,0.18339552841191126,0.0,191,6,86.5315877811842,385.455,mp-22478,FeGe,https://materialsproject.org/materials/mp-22478,50.42255014138706,69.48138484653407,-8.604250342815693,-0.5045126942092143
-7.086876384615384,-92.12939300000001,8.028366924675618,-0.22478137769230627,5.7060413,0.350913390779128,0.0,35,13,189.50138881122453,916.2004900000001,mp-1225876,DyMn2(Cr2Ge3)2,https://materialsproject.org/materials/mp-1225876,47.21924863226386,64.36801707625693,-8.604250342815693,-0.5045126942092143
-5.241719722083333,-125.80127333,9.979601629844355,-0.463457114583333,8.949999999999999e-06,2.8854438592930715e-07,0.017000000000000348,164,24,361.48296345631724,2172.4608,mp-1222980,LuGaNi2,https://materialsproject.org/materials/mp-1222980,24.190303629510762,79.99065625086784,-8.604250342815693,-0.5045126942092143
-5.515752319090908,-121.34655102,9.420970412480008,-0.5643830886363642,4.125e-05,1.3825028423575456e-06,0.0,229,22,347.7245450347942,1972.79472,mp-1191722,Ho3(GaNi3)2,https://materialsproject.org/materials/mp-1191722,25.144708934120676,79.594425885273,-8.604250342815693,-0.5045126942092143
-5.7142957416666675,-34.28577445,8.24452715145929,-0.4661967766666664,3.4e-06,4.676496751606732e-07,0.0,187,6,84.72970758097749,420.6804886,mp-1217595,TbAlNi4,https://materialsproject.org/materials/mp-1217595,24.737268651300912,79.86466847120629,-8.604250342815693,-0.5045126942092143
-5.720050530000001,-34.32030318,7.434456630906613,-0.42209709125000106,3.5000000000000004e-06,4.557943814294904e-07,0.0,187,6,89.49041139127962,400.6606086,mp-1222982,LaAlNi4,https://materialsproject.org/materials/mp-1222982,24.808449809743372,79.94210855546633,-8.604250342815693,-0.5045126942092143
-7.5598261925,-30.23930477,15.145117598017805,-0.83957937,0.2580386,0.038182456541020704,0.0,225,4,78.75864547871316,718.32635,mp-1187371,TbLuIr2,https://materialsproject.org/materials/mp-1187371,16.953730035112187,49.385993278207515,-8.604250342815693,-0.5045126942092143
-6.44034756,-38.64208536,7.049924952305148,-0.6060596875000014,1.7e-06,2.3911630347952946e-07,0.0,65,6,82.8547021890858,351.76495,mp-1072437,YSiNi4,https://materialsproject.org/materials/mp-1072437,26.34011190670557,78.64057371641383,-8.604250342815693,-0.5045126942092143
-9.29852639625,-223.16463351,12.735898559342225,-0.2923764095833323,9.025e-06,2.424445652209386e-07,0.0,227,24,433.8226120948642,3327.30556,mp-1190841,Hf2Co,https://materialsproject.org/materials/mp-1190841,30.038867500419396,60.95469736828033,-8.604250342815693,-0.5045126942092143
-7.29269911,-437.5619466,9.052395735148156,-0.04444762333333377,0.0279185,0.0004688458025071322,0.0,1,60,693.9680500771001,3783.1531,mp-766580,Cr11Ni40Mo9,https://materialsproject.org/materials/mp-766580,37.68266488781345,81.41272630850844,-8.604250342815693,-0.5045126942092143
-6.184694066666666,-18.5540822,10.260867999567733,-0.12912643666666668,0.0062232,0.0014193349600580946,0.0,216,3,51.098280485971365,315.7485000000001,mp-961688,VGaPt,https://materialsproject.org/materials/mp-961688,44.97050569190898,52.5974811750489,-8.604250342815693,-0.5045126942092143
-7.120653371944443,-256.34352139,6.031339490128644,-0.6788065289814809,0.0027527,5.497322069491839e-05,0.0,62,36,583.5594803051167,2119.58,mp-1198692,Ti5Ge4,https://materialsproject.org/materials/mp-1198692,42.39318154194461,64.1065596274085,-8.604250342815693,-0.5045126942092143
-6.48873757125,-155.72970171,7.393879331913811,-0.17368016333333358,9.50044115,0.34953880262342835,0.0,166,24,316.75669682164903,1410.422,mp-652425,LiFe6Ge5,https://materialsproject.org/materials/mp-652425,48.96746641197855,66.66235858102236,-8.604250342815693,-0.5045126942092143
-7.4229593825,-29.69183753,4.83888744345645,-0.24755759583333334,0.00028450000000000003,5.438537851457245e-05,0.04290000000000038,216,4,60.96457390481947,177.6535836,mp-999052,Ti2MnAl,https://materialsproject.org/materials/mp-999052,35.996492703289526,58.817362975478495,-8.604250342815693,-0.5045126942092143
-7.318786025833332,-87.82543231,7.839674888173585,-0.1057714291666656,13.155569,0.8531804248360642,0.0,47,12,179.6992157612354,848.389225,mp-1226973,Ce2(MnNi)5,https://materialsproject.org/materials/mp-1226973,29.218739147335725,80.13211433787869,-8.604250342815693,-0.5045126942092143
-7.227722245,-28.91088898,9.704436583466784,-0.3874101574999997,3.0098752,0.6258870043956092,0.0,225,4,56.04411066498115,327.5301,mp-1183690,CrGaRh2,https://materialsproject.org/materials/mp-1183690,36.18596615149003,53.920695537052964,-8.604250342815693,-0.5045126942092143
-7.08380140375,-283.35205615,7.62987370389441,-0.03145944325000158,26.317940000000004,0.3967985336999127,0.0,140,40,772.9639890058071,3551.6284,mp-1201794,Pr6TlFe13,https://materialsproject.org/materials/mp-1201794,53.761590013232954,81.3388703389154,-8.604250342815693,-0.5045126942092143
-7.5069507625,-30.02780305,7.628919550564097,-0.0381978924999995,4.324037799999999,1.0187141272997986,0.0,123,4,49.466886980125686,227.26289,mp-1797,MnNi,https://materialsproject.org/materials/mp-1797,34.76697254393157,73.2807177061904,-8.604250342815693,-0.5045126942092143
-6.219190851666667,-37.31514511,8.866992879731999,-0.32143162291666744,0.0036924999999999996,0.00048215338855269667,0.0,65,6,89.25092137556021,476.58457,mp-1222858,LaNi4Rh,https://materialsproject.org/materials/mp-1222858,28.65534356200375,80.04993256947066,-8.604250342815693,-0.5045126942092143
-7.5314343940625,-241.00590061,6.861575940531048,-0.20954616343750046,3.67814475,0.1218256465263053,0.0,230,32,351.8580724305424,1453.9260000000004,mp-1196624,Fe5Si3,https://materialsproject.org/materials/mp-1196624,49.16358801340154,67.06312110020657,-8.604250342815693,-0.5045126942092143
-7.551931781666667,-90.62318138,9.995034143981384,0.07670479000000087,0.004209025,0.00026634381416347383,0.0,194,12,184.1689101486557,1108.54036,mp-11855,ErMn2,https://materialsproject.org/materials/mp-11855,42.329783264748094,72.29694701749848,-8.604250342815693,-0.5045126942092143
-6.6877821225,-26.75112849,6.5820340259510965,-0.20405269833333328,0.0121353,0.0024982454276378093,0.0,216,4,56.609959401853935,224.390195,mp-999054,Ti2GaCo,https://materialsproject.org/materials/mp-999054,35.72606178213181,58.752101082853386,-8.604250342815693,-0.5045126942092143
-7.421492083333334,-44.5289525,7.534179455121991,-0.03617875666666729,8.2400509,1.17958031563814,0.0,115,6,81.41038439238245,369.3743,mp-1226210,CrFe3As2,https://materialsproject.org/materials/mp-1226210,46.54609482140936,65.66401797749192,-8.604250342815693,-0.5045126942092143
-6.161498046666666,-36.96898828,7.353357674808838,-0.5008880050000002,5e-08,8.868981140391617e-09,0.0,194,6,65.70126031435612,290.9446,mp-507,SiNi2,https://materialsproject.org/materials/mp-507,36.720258349511674,72.79606226603883,-8.604250342815693,-0.5045126942092143
-9.1124461925,-36.44978477,8.248623421528112,-0.7375288208333329,0.0011417999999999999,0.0002228285695144664,0.0,225,4,59.71680914302496,296.6395,mp-865649,Ti2TcRh,https://materialsproject.org/materials/mp-865649,62.88932868527933,55.76780353038636,-8.604250342815693,-0.5045126942092143
-4.828326852342341,-535.94428061,8.131685019427351,-0.28270528322072064,0.0013727000000000001,9.353750129228796e-06,0.0,187,111,1710.2803145556834,8375.2688,mp-683971,Sm15(Ga11Ni13)4,https://materialsproject.org/materials/mp-683971,24.15502184665449,80.12974825133469,-8.604250342815693,-0.5045126942092143
-8.97794267375,-71.82354139,9.347714898207649,0.08251624374999977,1.39901785,0.17417573102159875,0.0,194,8,93.6080161468958,526.95,mp-985475,Fe3Mo,https://materialsproject.org/materials/mp-985475,53.13868992471154,72.30211534512863,-8.604250342815693,-0.5045126942092143
-7.935976232272727,-174.59147711,7.636136465660564,-0.05936701477272844,35.1851658,1.470273571873857,0.0,166,22,278.8938120841313,1282.518,mp-1190200,Sm2Fe17B3,https://materialsproject.org/materials/mp-1190200,57.22775741163164,77.95684174794545,-8.604250342815693,-0.5045126942092143
-8.24581361,-49.47488166,17.491263843004216,-0.8279727433333335,0.0,0.0,0.0,227,6,106.2138457063598,1118.802,mp-1761,LuIr2,https://materialsproject.org/materials/mp-1761,30.70999811977252,64.88168459413029,-8.604250342815693,-0.5045126942092143
-8.92815669,-17.85631338,12.612704762949967,-0.39604561500000013,0.4770451,0.17785777758353838,0.0,221,2,31.258202876289488,237.423195,mp-2027,HfCo,https://materialsproject.org/materials/mp-2027,31.223194848335986,59.197583695025976,-8.604250342815693,-0.5045126942092143
-7.386964396666666,-44.32178638,8.135208744827741,0.17900834333333293,4.55565555,0.7632918796695252,0.0,227,6,69.55649113437146,340.7668,mp-1077745,Fe2Ni,https://materialsproject.org/materials/mp-1077745,47.43176474239532,72.57947636703892,-8.604250342815693,-0.5045126942092143
-7.6831742125,-30.73269685,7.157178260667625,-0.3026561712499998,0.32623159999999995,0.08332805146283752,0.0,119,4,45.62598225342349,196.65499,mp-1221538,Mn2SiNi,https://materialsproject.org/materials/mp-1221538,51.18524723642786,46.40276549046237,-8.604250342815693,-0.5045126942092143
-6.69669915,-53.573593200000005,8.496856938537231,-0.09278513624999896,4.5044639,0.4644786928842306,0.0,160,8,113.0198540007972,578.3143349999999,mp-1221922,Mn3Ni3Sn2,https://materialsproject.org/materials/mp-1221922,34.69747917632717,72.65604440708806,-8.604250342815693,-0.5045126942092143
-8.642957716666666,-103.7154926,8.13142967425952,-0.16244374583333376,5.0597317,0.3837416386659228,0.0,156,12,153.66182614055202,752.4606785999998,mp-1220667,Nb3AlFe8,https://materialsproject.org/materials/mp-1220667,54.81329771893629,62.37829808076909,-8.604250342815693,-0.5045126942092143
-5.7165995325,-22.86639813,8.371165331000949,-0.12130563125000028,0.4091637,0.0589724054056503,0.0,225,4,80.85850033723244,407.626595,mp-1186456,Pm2CoNi,https://materialsproject.org/materials/mp-1186456,4.306137864034653,58.89691366560507,-8.604250342815693,-0.5045126942092143
-7.558380973214287,-211.63466725,11.023432740555569,-0.659416783214285,2.25e-07,6.3161569146419386e-09,0.0,62,28,415.1519047519706,2755.972,mp-15656,Si4Ir3,https://materialsproject.org/materials/mp-15656,35.341575476882,51.40534000227657,-8.604250342815693,-0.5045126942092143
-5.8809279625,-23.52371185,8.823817487490231,-0.12369951000000068,3.0045347000000002,0.7554887695782746,0.0,123,4,46.34753475521435,246.28279,mp-20551,GaCo2Ni,https://materialsproject.org/materials/mp-20551,37.786407846927055,77.94323204538173,-8.604250342815693,-0.5045126942092143
-8.02468272,-32.09873088,9.108181991342107,-0.3979943337499989,1.0292029,0.1927565284553063,0.0,225,4,62.225634362819356,341.3123020000001,mp-865165,HfScCo2,https://materialsproject.org/materials/mp-865165,31.160784219956923,59.234965220351896,-8.604250342815693,-0.5045126942092143
-7.412651252352941,-126.01507129,8.13886296690619,-0.07399365441176459,23.3871862,1.2786700659650556,0.0,155,17,213.15567641525033,1044.748,mp-17977,Fe12As5,https://materialsproject.org/materials/mp-17977,46.85096291025658,66.05023095670711,-8.604250342815693,-0.5045126942092143
-7.7630351175,-31.05214047,7.100217815032885,-0.4671850633333338,0.000124,2.3453731655690312e-05,0.0,225,4,61.61510044593661,263.457,mp-1187419,Ti2GaTc,https://materialsproject.org/materials/mp-1187419,36.33571347103588,58.77790436352488,-8.604250342815693,-0.5045126942092143
-8.809868832307693,-114.52829482,8.484269123631233,-0.000912292307692024,2.6539557,0.19230619425060588,0.0,139,13,160.83398536293666,821.7565400000002,mp-20656,DyMn12,https://materialsproject.org/materials/mp-20656,56.763238380394924,67.83809887821354,-8.604250342815693,-0.5045126942092143
-9.032585599999999,-18.065171199999998,16.26359784414743,0.13075703250000004,0.9098163,0.4167875964532685,0.0,187,2,25.43995594292943,249.163195,mp-1226000,CoOs,https://materialsproject.org/materials/mp-1226000,49.460052777563064,77.79613719877402,-8.604250342815693,-0.5045126942092143
-7.213529985,-43.28117991,8.262506979435019,-0.0327273366666662,3.86839445,0.6084780400320988,0.0,194,6,74.09062697436408,368.66,mp-20432,Fe2Ge,https://materialsproject.org/materials/mp-20432,49.09111793542179,67.89059883552186,-8.604250342815693,-0.5045126942092143
-5.652543573181817,-124.35595861,8.718505091116732,-0.5979726595454551,3.35e-06,1.1226633549697962e-07,0.0,229,22,347.75444317522346,1825.8522144,mp-1191848,Tm3(AlNi3)2,https://materialsproject.org/materials/mp-1191848,24.93853504712841,79.66508199534971,-8.604250342815693,-0.5045126942092143
-6.1492884108823525,-209.07580597,7.674659919213518,-0.4644570436764711,1.6e-06,5.010171909962321e-08,0.0,147,34,372.1729308133808,1720.1045,mp-1209041,Si9Ni25,https://materialsproject.org/materials/mp-1209041,36.71161482652786,72.37501514336597,-8.604250342815693,-0.5045126942092143
-8.389361304545455,-184.5659487,7.655719855714643,-0.05471621392045475,33.4644886,1.4206664054501918,0.0,166,22,274.5171675974136,1265.6291,mp-1191404,Ce2Fe17C3,https://materialsproject.org/materials/mp-1191404,57.93054752035259,74.77054693438345,-8.604250342815693,-0.5045126942092143
-8.1867800725,-98.24136087,16.54688546550265,-0.4691230908333329,3.5825e-05,2.521310444580874e-06,0.0,62,12,165.59121919092138,1650.0780000000002,mp-1103038,SiIr2,https://materialsproject.org/materials/mp-1103038,42.75688076609526,53.706285618389934,-8.604250342815693,-0.5045126942092143
-8.432986565,-33.73194626,8.247571737606465,-0.4364327927083345,6.3e-06,1.1804440111993973e-06,0.0,225,4,62.19745059532864,308.92253860000005,mp-861640,Ti2AlRe,https://materialsproject.org/materials/mp-861640,36.53431077511957,58.76117391645836,-8.604250342815693,-0.5045126942092143
-5.7913754129166675,-416.97902973,9.183058236051084,-0.6149687262499997,1.09e-05,1.1939990621387534e-07,0.0,174,72,1063.8978710197568,5883.532920000001,mp-1208263,TmNi3Ge2,https://materialsproject.org/materials/mp-1208263,18.584875483330077,75.33671231089579,-8.604250342815693,-0.5045126942092143
-5.549440097083332,-133.18656233,8.559396836761014,-0.21815600180555586,0.06694605,0.002374622685068339,0.0,127,24,328.5547669837773,1693.5649,mp-672335,YIn2Ni9,https://materialsproject.org/materials/mp-672335,31.828808508542217,74.67989884574435,-8.604250342815693,-0.5045126942092143
-8.93376784875,-71.47014279,6.636242430075746,-0.34991066249999925,5e-08,6.325554628459288e-09,0.0,223,8,92.11891649885463,368.1476,mp-729,Cr3Si,https://materialsproject.org/materials/mp-729,46.17028022373293,64.241938373032,-8.604250342815693,-0.5045126942092143
-7.66571974,-183.97727376,6.600697926958627,-0.2958120491666681,0.00069905,2.7140500329824383e-05,0.0,227,24,300.1703682781948,1193.1871999999996,mp-504625,V3SiNi2,https://materialsproject.org/materials/mp-504625,53.78313948578767,53.36800470398103,-8.604250342815693,-0.5045126942092143
-6.543021546875,-314.06503425,6.5464183046598485,-0.5335564631249999,0.990267575,0.015407262245874354,0.0,55,48,749.0391399228557,2952.970944,mp-1201682,ScFeGe2,https://materialsproject.org/materials/mp-1201682,18.882072064191817,73.91221073258204,-8.604250342815693,-0.5045126942092143
-7.152148303333332,-42.91288982,10.283709649282027,-0.6658244991666665,3e-07,3.092684362127368e-08,0.0,227,6,113.04805218994152,700.1060000000001,mp-2290,NdRh2,https://materialsproject.org/materials/mp-2290,30.365173962448818,65.22811121329586,-8.604250342815693,-0.5045126942092143
-7.219615400000001,-28.878461600000005,9.159916478785696,-0.4938934937500008,4.1200000000000005e-05,8.777143147822696e-06,0.0,225,4,54.70429962721608,301.76153860000005,mp-867904,AlGeRu2,https://materialsproject.org/materials/mp-867904,42.70245142920197,53.499196820848205,-8.604250342815693,-0.5045126942092143
-7.702400581875,-123.23840931,6.641177798692719,-0.38051235125000016,7.4550716,0.4779835561291549,0.0,193,16,181.76752358190757,726.9630000000002,mp-449,Fe5Si3,https://materialsproject.org/materials/mp-449,47.35313377635048,66.71228478165668,-8.604250342815693,-0.5045126942092143
-7.4930047925,-29.97201917,6.794058417266108,-0.3937213599999998,0.9418162,0.2330447240579645,0.0,216,4,47.0981998970979,192.7012336,mp-1008530,AlVFeCo,https://materialsproject.org/materials/mp-1008530,45.25031278967988,47.62110629766451,-8.604250342815693,-0.5045126942092143
-5.96528336125,-47.72226689,8.50340435680008,-0.3755830800000002,8.2e-06,1.0805533671372765e-06,0.0,123,8,88.43925162915977,452.8859,mp-1219193,SiNi6Ge,https://materialsproject.org/materials/mp-1219193,37.01374074304176,80.24408721970076,-8.604250342815693,-0.5045126942092143
-9.31919608,-55.91517648,13.679127866831601,-0.13164947166666607,0.59612945,0.08131634990563695,0.0,74,6,85.43584692613935,703.8003,mp-1216660,UMnCo,https://materialsproject.org/materials/mp-1216660,44.15692712001378,73.822021789691,-8.604250342815693,-0.5045126942092143
-8.95036292076923,-116.35471797,7.69706313358426,0.001819792307693127,2.6528917,0.1915477408936503,0.0,139,13,161.4060889580081,748.1623900000002,mp-22508,YMn12,https://materialsproject.org/materials/mp-22508,56.746413913763426,67.83404714759672,-8.604250342815693,-0.5045126942092143
-8.687098385,-17.37419677,9.527364320068674,0.2990703149999998,1.8253188000000002,0.788067792529141,0.0,221,2,26.9930883198533,154.87319499999998,mp-1006884,CoMo,https://materialsproject.org/materials/mp-1006884,55.5851636682462,60.20424506931076,-8.604250342815693,-0.5045126942092143
-6.148084025,-24.5923361,7.920800232690013,-0.4580623737500007,1e-07,2.7227929362068983e-08,0.0,221,4,42.801876769942275,204.1657,mp-828,SiNi3,https://materialsproject.org/materials/mp-828,36.979585497306545,80.076932374315,-8.604250342815693,-0.5045126942092143
-4.550926855,-36.40741484,11.033470505486843,-0.720344925,5e-08,4.412001382513397e-09,0.0,198,8,132.0723155113869,877.556,mp-12651,MgPt,https://materialsproject.org/materials/mp-12651,37.08927945179685,57.317985349308366,-8.604250342815693,-0.5045126942092143
-6.36566780923077,-82.75368152,6.030029320376332,-0.3867614576923072,10.3035403,0.6548314018421233,0.0,71,13,183.37258369877227,665.8934416000001,mp-1216757,Tm(AlFe)6,https://materialsproject.org/materials/mp-1216757,23.813433213001556,89.57585932449264,-8.604250342815693,-0.5045126942092143
-6.094581048888887,-54.85122944,8.267234483184465,-0.3283569777777776,8.667158800000001,0.5769029200049266,0.0,189,9,175.086009355609,871.6910949999999,mp-1224233,Ho3Mn3Ga2Ge,https://materialsproject.org/materials/mp-1224233,24.608108202845035,70.07194751702933,-8.604250342815693,-0.5045126942092143
-6.935934175833334,-83.23121011,13.029874075541851,-0.9476837208333344,6e-07,3.1621252427902526e-08,0.0,62,12,221.1309902882184,1735.16484,mp-1102700,TmGeIr,https://materialsproject.org/materials/mp-1102700,15.549953304346184,61.175256662768994,-8.604250342815693,-0.5045126942092143
-6.500340825,-13.00068165,10.5440664186236,0.062256374999999586,0.2737476,0.12535694223605906,0.0,166,2,25.44950606505044,161.5989,mp-1220054,NiRh,https://materialsproject.org/materials/mp-1220054,49.772607018563825,77.25937407438788,-8.604250342815693,-0.5045126942092143