energy_per_atom,energy,density,formation_energy_per_atom,total_magnetization_uB,total_magnetization_T,band_gap,sgr,num_sites,cell_volume,weight,mp_id,formula,URL,tsne_cry_lin1_0,tsne_cry_lin1_1,tsne_cry_lin2_0,tsne_cry_lin2_1
-4.0111949575,-48.13433949,9.43576243311708,-0.5652739608333336,2.25e-07,1.2356724197752124e-08,0.0,62,12,212.2054787225034,1205.8256,mp-1095431,YbGaNi,https://materialsproject.org/materials/mp-1095431,6.8439479335388125,47.643182289172145,-8.604250342815693,-0.5045126942092143
-6.061984493846153,-157.61159684,5.332804803464746,-2.2281183504326925,3.0000001,0.1058875756022519,0.0,155,26,330.18222661377115,1060.376975,mp-19235,Sr6(CoO3)5,https://materialsproject.org/materials/mp-19235,-35.813316224176056,-17.400794087696127,-8.604250342815693,-0.5045126942092143
-6.388004776111112,-114.98408597,3.2976740525986514,-0.9459695327244444,2.99924595,0.12793972816807153,0.0,2,18,273.20213252462,542.5536900000001,mp-1247294,Ca4MnN4,https://materialsproject.org/materials/mp-1247294,6.013257330004347,8.231766625377755,-8.604250342815693,-0.5045126942092143
-0.7558084316666666,-4.53485059,7.158859023662733,-0.2548847804022987,8.05e-06,3.7864069063008533e-07,0.0,74,6,247.7684616066758,1068.1709038,mp-574379,CsHg2,https://materialsproject.org/materials/mp-574379,-22.721922650757808,43.938361472407856,-8.604250342815693,-0.5045126942092143
-0.6468413591666667,-15.52419262,8.436586698591794,-0.21988015837643685,7e-07,9.260374851040786e-09,0.0,87,24,880.9411575682504,4475.7372595,mp-542239,Cs5Hg19,https://materialsproject.org/materials/mp-542239,-22.763708185016537,43.95956777404496,-8.604250342815693,-0.5045126942092143
-6.142314636875,-98.27703419,3.8816452562777854,-2.219534757499999,2.999995725,0.15595539182746748,1.6612999999999998,11,16,224.18041522559602,524.03998,mvc-2940,CaCoO2,https://materialsproject.org/materials/mvc-2940,-26.285515009150128,-28.785389081484162,-6.136839082537517,-3.0298083355435748
-2.709683288,-27.09683288,3.8246215298465223,-0.17773729419671264,0.0,0.0,1.2663,225,10,177.86515631247337,409.66631308,mp-989610,Cs2NaInH6,https://materialsproject.org/materials/mp-989610,37.56734138900786,-6.200352358902607,6.502353626169969,-2.9930605439344067
-3.4836539275,-13.93461571,1.1521502089255475,1.4677922700000012,5.0941397,0.08038677506118448,0.0,71,4,738.5223997241051,512.417183,mp-1093575,MnCuAu2,https://materialsproject.org/materials/mp-1093575,8.121685243481316,25.88168131228827,-8.604250342815693,-0.5045126942092143
-4.798921950416667,-115.17412681,2.6301672266336817,-0.23106881620999964,5.05e-06,2.1672761296165639e-07,0.0,141,24,271.5529705568196,430.1192,mp-1246380,Li3NiN2,https://materialsproject.org/materials/mp-1246380,1.8885902837941024,6.300577298851743,-8.604250342815693,-0.5045126942092143
-5.974601118000001,-29.87300559,9.654111971552414,-0.8809598960000002,2e-06,2.5854182927202056e-07,0.0,139,5,90.15225741516713,524.131,mp-567427,Yb(GeRh)2,https://materialsproject.org/materials/mp-567427,11.728380908894724,64.96552413007727,-8.604250342815693,-0.5045126942092143
-2.419490133269231,-125.81348693,4.910119339630587,-0.12008521569230787,2.5e-08,1.8869103577708196e-10,0.23599999999999974,64,52,1544.0670942004513,4565.71843136,mp-1200661,K(NaIn3)3,https://materialsproject.org/materials/mp-1200661,-39.18469688167189,48.39240223762576,-8.604250342815693,-0.5045126942092143
-5.19958454,-20.79833816,14.51937039319173,-0.3862521883333336,3.1e-06,4.5965148435140496e-07,0.0,225,4,78.5978116570497,687.241138,mp-574025,HfInAu2,https://materialsproject.org/materials/mp-574025,-7.9033222117357695,52.292570125968645,-8.604250342815693,-0.5045126942092143
-8.12430005,-24.37290015,6.795219673283669,0.8289790733333339,3.062727,0.716572157060792,0.0,216,3,49.81106017999986,203.835675,mp-631299,NbCrCo,https://materialsproject.org/materials/mp-631299,32.00624409850637,51.853378569813955,-8.604250342815693,-0.5045126942092143
-6.752016198,-67.52016198,5.474821076163138,-2.9739626360000004,0.0,0.0,3.3776,225,10,161.32834448774338,531.90187,mp-1206332,Sr2LaSbO6,https://materialsproject.org/materials/mp-1206332,30.03217731884048,-49.700638455960785,7.200822554980163,-2.278587667391485
-6.986441141875,-1006.04752443,3.7016384611806727,-2.7388504974516668,11.9999997125,0.0760952221956011,0.13139999999999974,1,144,1837.8128072311097,4096.8133888,mp-1247593,Ca4Mn3AlO10,https://materialsproject.org/materials/mp-1247593,-31.06639817904323,-11.342413450303116,-8.604250342815693,-0.5045126942092143
-5.254840465454546,-57.80324512,7.65018793258094,-1.7965796402272731,1.76e-05,1.1209973766311358e-06,0.0,139,11,182.97236396168884,842.9630000000001,mp-550722,Ba2Tl2CuO6,https://materialsproject.org/materials/mp-550722,-50.670489549796784,-2.2819663565150283,-8.604250342815693,-0.5045126942092143
-4.642023458571429,-129.97665684,4.711392096052754,-0.9614878962314286,0.9204993,0.029786874300488382,0.07820000000000027,62,28,360.143812240144,1021.82404,mp-697072,CuHIO4,https://materialsproject.org/materials/mp-697072,-54.89873549550222,-12.657969531255253,-4.841596337018007,-2.5678028509770234
-3.458773015833333,-41.50527619,7.608481541566288,-0.6883347591666666,6.525e-06,2.867537594265888e-07,0.0,62,12,265.1849196084194,1215.06,mp-11098,YbMgPd,https://materialsproject.org/materials/mp-11098,5.8337122198282305,48.61168300257664,-8.604250342815693,-0.5045126942092143
-8.421293669722223,-303.16657211,1.6371473548693165,0.09258907535777894,3.083333333333333e-07,3.6898930913065672e-09,0.05049999999999999,92,36,973.832181390797,960.114,mp-1097757,CrN2,https://materialsproject.org/materials/mp-1097757,-3.903887658339572,9.596106308185773,-8.604250342815693,-0.5045126942092143
-4.539227498333333,-54.47072998,6.336370102852943,-0.8092827683333338,0.0,0.0,0.0,62,12,278.00663823095533,1060.832,mp-30437,CaSnPd,https://materialsproject.org/materials/mp-30437,3.743631329597773,49.93224242013343,-8.604250342815693,-0.5045126942092143
-6.7138076665853665,-550.53222866,4.809845165630742,-0.41429559671268257,0.00013785,1.2153415371185713e-06,0.1817000000000002,2,82,1321.8612051277394,3828.8456784,mp-1029650,Na15Re7N19,https://materialsproject.org/materials/mp-1029650,3.136375778102584,2.8653684985758607,-6.724522252035763,-3.3514180009944883
-4.4328638719999995,-22.16431936,15.183505823313508,-0.5474591570000001,3.65e-05,4.670259093603537e-06,0.0,87,5,91.08132025930362,832.822188,mp-1068446,ScAu4,https://materialsproject.org/materials/mp-1068446,-9.946186429669085,57.24893527834669,-8.604250342815693,-0.5045126942092143
-3.2042915588888885,-28.83862403,2.9769523558801834,-1.1177981820354408,0.0,0.0,0.193,143,9,312.8160900821217,560.805,mp-776922,Rb2O,https://materialsproject.org/materials/mp-776922,7.243298427467347,1.0027725205782432,2.6420628644999247,-0.7472691334544295
-7.5018512263636365,-165.04072698,7.0527239184078265,-0.7238367910818174,0.0,0.0,0.0032999999999994145,2,22,393.3060504991341,1670.4689999999996,mp-1245391,Ti3Pb3N5,https://materialsproject.org/materials/mp-1245391,-11.041089548962569,27.182144680029086,-5.470832985096076,-3.4844516902731466
-7.378783167500001,-295.1513267,6.881605283442128,-2.6920483959420003,7.0000064,0.16832353182072274,0.0,2,40,484.65313858088285,2008.49936,mp-1200431,BaTbMn2O6,https://materialsproject.org/materials/mp-1200431,-31.206351161911936,9.376963530981461,-8.604250342815693,-0.5045126942092143
-3.879750775,-15.519003099999999,1.288609010112388,-0.4606532405950001,0.0,0.0,0.9858,191,4,44.88256418170143,34.8297,mp-2251,Li3N,https://materialsproject.org/materials/mp-2251,24.99280485984702,-14.738975808131725,5.919947348215553,-0.8420081746360459
-4.678459933333333,-28.070759600000002,8.465576682689964,-0.2852945191666662,1e-07,1.1846876442389814e-08,0.0,187,6,98.37246829771759,501.51165,mp-1219996,PrCu4Pd,https://materialsproject.org/materials/mp-1219996,4.266579198542433,43.096377801800365,-8.604250342815693,-0.5045126942092143
-7.435646310833333,-446.13877865,4.730281150151161,-2.7059857916086667,9.999827475,0.173675080431077,0.0,62,60,671.0153052401805,1911.4823399999998,mp-1227926,Ca2YMn3O9,https://materialsproject.org/materials/mp-1227926,-33.00012149350542,6.072664128769313,-8.604250342815693,-0.5045126942092143
-5.497724945882354,-186.92264816,4.123951255746803,-2.2881086524016223,0.9968094000000001,0.016821873368215744,0.6342000000000003,136,34,690.5819024560009,1715.0612151999999,mp-628617,Cs4K2Cu(SiO4)2,https://materialsproject.org/materials/mp-628617,-52.404058534903605,-15.8332059278682,3.710334190672117,1.0759036869966363
-6.877479886666666,-82.52975864,8.82986859773044,-0.9094774349999994,0.6694621000000001,0.03285692874455635,0.0,62,12,237.45234184331485,1262.6460000000004,mp-505282,CeGeRh,https://materialsproject.org/materials/mp-505282,12.860666385185661,63.77265840555753,-8.604250342815693,-0.5045126942092143
-5.7930810994444455,-834.20367832,5.253172124510448,-2.026902837083333,13.25710045,0.07829874020296618,0.0,1,144,1973.2004236611886,6242.28712,mp-1099990,BaSr7Co4(CuO5)4,https://materialsproject.org/materials/mp-1099990,-33.72685038973884,-15.97060419549148,-8.604250342815693,-0.5045126942092143
-4.473034391666666,-26.83820635,3.2711538852887982,-0.624868325793333,0.0,0.0,0.2574000000000001,131,6,110.22465506363156,217.1354,mp-29754,SrLiN,https://materialsproject.org/materials/mp-29754,24.65460458485285,-9.379027551497265,4.4473000992740666,-4.411670224449907
-6.114097545714286,-42.79868282,3.3403138366865104,-1.1130033450000008,3.2e-06,3.756118166516708e-07,0.0,123,7,99.28603313024956,199.7222,mp-1232312,Ca2Cu(CO)2,https://materialsproject.org/materials/mp-1232312,-46.42962073772453,-4.846929205821472,-8.604250342815693,-0.5045126942092143
-5.18235100625,-41.45880805,7.5893175521316145,-0.428005770625,1.0991488999999999,0.08499644434974507,0.0,38,8,150.7069216046113,688.79,mp-1025560,Ce2(CuGe)3,https://materialsproject.org/materials/mp-1025560,-3.1131657483849464,58.57222535763752,-8.604250342815693,-0.5045126942092143
-4.576137349142857,-160.16480722,4.669974757173254,-1.1672518072428577,8.0000005,0.2621613309812941,0.3853,2,35,355.6303428065915,1000.14795424,mp-760204,Na8(NiO2)9,https://materialsproject.org/materials/mp-760204,-64.47612277435657,-23.546976235738672,1.7310523416633792,-1.4391744930643195
-8.4912545,-161.3338355,6.165476868598037,-0.4118330918421048,4.0191832000000005,0.2068501527198205,0.0,174,19,226.4432524206472,840.7695339999998,mp-505626,Cr12P7,https://materialsproject.org/materials/mp-505626,14.450551771665983,26.108823591031467,-8.604250342815693,-0.5045126942092143
-5.863426203194446,-844.33337326,5.317339630236488,-2.058991208333333,7.994134700000001,0.04644928182298365,0.00649999999999995,1,144,2005.7180636163964,6422.663900000001,mp-1076893,Ba2Sr6Co5Cu3O20,https://materialsproject.org/materials/mp-1076893,-33.63821137781326,-15.98940178951762,-8.604250342815693,-0.5045126942092143
-5.166938071000001,-51.66938071,6.4340740323678665,-0.3898958356666668,8.295e-05,4.462100649443555e-06,0.0,127,10,216.64788601404118,839.4434,mp-1079508,Y2InCu2,https://materialsproject.org/materials/mp-1079508,-7.964843401853058,55.00766330108552,-8.604250342815693,-0.5045126942092143
-6.7192549066666665,-60.47329416,7.190606053573017,-2.5627369537499995,4.9845104000000005,0.4916048965518677,0.0,99,9,118.16360550625343,511.68199999999996,mp-611378,BaLuFeCuO5,https://materialsproject.org/materials/mp-611378,-48.53191582848979,-4.005930714324008,-8.604250342815693,-0.5045126942092143
-4.483122305416667,-107.59493533,3.0803470832064015,-0.19509653954333336,0.0,0.0,0.002699999999999925,64,24,242.3303057324877,449.5296,mp-1247364,Li3CuN2,https://materialsproject.org/materials/mp-1247364,1.909179203165574,4.718131025802713,-5.375675726808244,-3.0126747055943723
-5.2420739130000005,-104.84147826,3.1873619724187536,-0.5479181239520002,3.0001657,0.14189640086606692,0.0,59,20,246.40600595087543,472.96999000000005,mp-1247468,Mg5CoN4,https://materialsproject.org/materials/mp-1247468,0.978805029546038,4.149701691932571,-8.604250342815693,-0.5045126942092143
-5.88473571,-270.69784266,4.006872046661366,-0.8195071883173912,0.00017645,2.1996401950630585e-06,0.5273000000000003,136,46,934.8618622870758,2255.8168,mp-1245742,Sr11(CN5)2,https://materialsproject.org/materials/mp-1245742,25.121951972042677,-10.097241479275553,4.959278558766791,-4.309403730909096
-6.1653682246875,-197.29178319,2.8421856265068013,0.0792275109975007,0.012253525,0.00017394258242782915,0.2931,33,32,820.979958150445,1405.19276,mvc-14421,BaCa(CoN2)2,https://materialsproject.org/materials/mvc-14421,4.726272410849521,5.32170075851962,3.4856847720333364,-0.7856542315013079
-5.172680988,-25.86340494,7.7685225920605525,-0.4970009519999991,0.6055493000000001,0.0800396088988787,0.0014000000000002901,139,5,88.17023049293094,412.48800000000006,mp-20173,Ce(CuGe)2,https://materialsproject.org/materials/mp-20173,-2.9811017359631986,58.44499568621718,-8.604250342815693,-0.5045126942092143
-4.553531905454546,-100.17770192,4.33841446855729,-1.5614972645000007,0.9906093,0.05016212534151007,0.0,14,22,230.1462481484338,601.2925855999998,mp-643793,Cu3H2(OF2)2,https://materialsproject.org/materials/mp-643793,-55.95102950845982,-13.077064348837295,-8.604250342815693,-0.5045126942092143
-3.401631725,-20.40979035,7.025345781812272,-0.4918939572222219,3.8e-06,2.624645949353103e-07,0.0,194,6,168.72921906530618,713.8532,mp-1071876,CaAgBi,https://materialsproject.org/materials/mp-1071876,24.876682614091465,21.552089480896502,-8.604250342815693,-0.5045126942092143
-6.264113084,-31.32056542,4.907130468959733,-2.0640482312240005,3.0000002999999995,0.5985204348666234,0.7746000000000004,123,5,58.41437614688898,172.62284,mp-1218324,SrCrHO2,https://materialsproject.org/materials/mp-1218324,-39.563118574371494,-15.933121574719324,1.794425368183743,-1.126755936641457
-5.8753277775,-23.50131111,10.376201519364226,-0.6237289887499999,0.00011100000000000001,1.5552062317132967e-05,0.0,225,4,83.1787555486469,519.75865,mp-980069,YbPrRh2,https://materialsproject.org/materials/mp-980069,13.721864805139987,48.19141482044469,-8.604250342815693,-0.5045126942092143
-6.148069396,-61.48069396,6.895830079474776,-0.5732622984999999,0.00015590000000000002,9.25164508709389e-06,0.0,194,10,196.38331139362447,815.53394,mp-1078802,LaVGe3,https://materialsproject.org/materials/mp-1078802,10.132302967121381,65.18693593948865,-8.604250342815693,-0.5045126942092143
-7.033448971666666,-42.20069383,9.02670044065143,-0.4810321555555544,6.59e-05,1.1682955443948958e-05,0.0,191,6,65.73703650555831,357.3469350000001,mp-3040,TbCo3B2,https://materialsproject.org/materials/mp-3040,7.782344985714282,39.5735929379064,-8.604250342815693,-0.5045126942092143
-4.391226815,-26.34736089,11.247743385463552,-0.3497513991666666,6.4e-06,8.200417682236012e-07,0.0,216,6,90.95392141543283,616.0808890000002,mp-1024994,HoCu4Au,https://materialsproject.org/materials/mp-1024994,4.614146697013901,41.70212851621572,-8.604250342815693,-0.5045126942092143
-6.925717375886077,-1094.26334539,4.3717629780422875,-2.5936219110087344,42.005185600000004,0.27879362639091537,0.1623000000000001,1,158,1755.8907644444746,4622.799014400001,mp-1247597,Sr2Ca14Mn14Al2O47,https://materialsproject.org/materials/mp-1247597,-32.97107283587126,-8.377017178352697,2.7583214816962025,-0.6786466124407422
-3.7605100975,-60.16816156,4.691425779245553,-0.1112373322616662,5.2300000000000004e-05,3.171122157611232e-06,0.027700000000000058,29,16,192.2056474998764,543.0276,mp-1246010,Li2AgN,https://materialsproject.org/materials/mp-1246010,1.776014343616097,2.2128821100541383,-11.273605508696278,-1.0732899059938654
-6.98013854,-27.92055416,8.895834699592381,-0.6789598249999989,4.26e-05,6.855682293220461e-06,0.0,225,4,72.41630199258096,387.948393,mp-972879,Sc2RuAu,https://materialsproject.org/materials/mp-972879,-10.800092812393622,54.754399392744425,-8.604250342815693,-0.5045126942092143
-6.187123186309526,-519.71834765,2.7698809273742757,-2.14102032447279,0.9844632,0.009638710952539792,0.0,181,84,1190.3041760971432,1985.500344,mp-759334,LiCuPO4,https://materialsproject.org/materials/mp-759334,-57.60676684944072,-15.840383810778317,-8.604250342815693,-0.5045126942092143
-6.6133084875,-26.45323395,6.45678936351986,-0.19535762333333384,0.2778281,0.057758728794574485,0.0,123,4,56.057789716129186,217.9734,mp-1217071,Ti2CuNi,https://materialsproject.org/materials/mp-1217071,32.00989017864451,71.43248048996502,-8.604250342815693,-0.5045126942092143
-5.02938669,-20.11754676,7.815580681045137,-0.7828758437500003,2.3800000000000003e-05,3.1698191656006214e-06,0.0,225,4,87.50238644429575,411.84335,mp-1183553,CaTbPd2,https://materialsproject.org/materials/mp-1183553,14.560472792689044,45.75330944536246,-8.604250342815693,-0.5045126942092143
-6.616521529473684,-125.71390906,3.240577023528868,-0.9788434431073684,3.0,0.11419314604822535,0.0,12,19,306.16718715249385,597.4917350000002,mp-1246243,Ca8Mn3N8,https://materialsproject.org/materials/mp-1246243,5.752049466370293,7.822521222981789,-8.604250342815693,-0.5045126942092143
-3.926415535,-15.70566214,9.018390871009046,-0.2996801637500002,1.53e-05,2.08941343635725e-06,0.0,225,4,85.33839589498845,463.473,mp-983583,Er2ZnCu,https://materialsproject.org/materials/mp-983583,-8.773648383521985,55.663797820992315,-8.604250342815693,-0.5045126942092143
-4.65631857,-27.93791142,4.1014412622909155,0.0906642498733336,5e-06,4.511033878364629e-07,0.0,131,6,129.17288017336512,319.05,mp-1245656,KPdN,https://materialsproject.org/materials/mp-1245656,10.507648801329898,32.91007474654259,-8.604250342815693,-0.5045126942092143
-3.56270949,-21.37625694,10.373881125968335,-0.7128634716666671,7.45e-06,6.248776712588472e-07,0.0,74,6,138.94364697119178,868.0222759999998,mp-443,CaAu2,https://materialsproject.org/materials/mp-443,-10.42815854088792,49.123343248918154,-8.604250342815693,-0.5045126942092143
-6.84174258546875,-437.87152547,4.784388987190541,-0.4843541329087495,0.0357723375,0.000627462773601988,0.0,61,64,664.4109512627591,1914.3184,mp-1246214,CuSiN2,https://materialsproject.org/materials/mp-1246214,-51.99214966008642,-4.488351139836453,-11.331414936155536,-0.29091555442830536
-4.35904939,-43.5904939,3.592909992887963,-1.3132642493,0.981975,0.08748104787849477,0.0,11,10,130.81690871980913,283.04867712,mp-1079427,Na2CuO2,https://materialsproject.org/materials/mp-1079427,-55.30512311226775,-3.1446962578386235,2.521949413627151,-2.773619866149556
-6.90912215625,-552.7297725,4.602930408085647,-2.493046332441999,12.0000971,0.15641443151914286,0.23139999999999986,2,80,894.09850179515,2478.39592,mp-1247621,SrCa3Mn4O12,https://materialsproject.org/materials/mp-1247621,-33.6738806434627,6.1382039732392935,-4.807519687828885,-2.7438426484353977
-4.9996155600000005,-49.9961556,10.686423219885722,-0.7662165559999998,0.0,0.0,0.0,12,10,212.4389558582761,1367.154,mp-10998,Yb2Ge2Ir,https://materialsproject.org/materials/mp-10998,6.5397921972861415,48.500726171108255,-8.604250342815693,-0.5045126942092143
-6.9425121710810815,-256.87295033,4.358082850040458,-2.519659578011622,30.000000699999998,0.7407374556964138,0.0,1,37,471.99172749531687,1238.74176,mp-1247709,Sr3Ca5Mn8O21,https://materialsproject.org/materials/mp-1247709,-30.62632485851343,-9.621243953553805,-8.604250342815693,-0.5045126942092143
-4.8250139616666665,-28.95008377,8.109051807213191,-0.3751795733333333,0.0001056,1.0182312504675315e-05,0.0,164,6,120.86343248817288,590.2227,mp-1217584,TbCuGe,https://materialsproject.org/materials/mp-1217584,-5.18147881322007,56.368358693402776,-8.604250342815693,-0.5045126942092143
-5.952562660625,-95.24100257,4.049301159184105,-2.02978278125,1.50000585,0.08134613933151512,0.8463999999999996,1,16,214.8985247336244,524.03998,mvc-15525,CaCoO2,https://materialsproject.org/materials/mvc-15525,-26.226770592364954,-28.78827203468164,2.6134922767732798,-2.041199561951057