energy_per_atom,energy,density,formation_energy_per_atom,total_magnetization_uB,total_magnetization_T,band_gap,sgr,num_sites,cell_volume,weight,mp_id,formula,URL,tsne_cry_lin1_0,tsne_cry_lin1_1,tsne_cry_lin2_0,tsne_cry_lin2_1
-8.202084707727273,-180.44586357,8.091759475124887,-0.5279055359090912,22.10286525,0.714920835677127,0.0,229,22,360.30314186980974,1755.7469544,mp-580327,Gd3(AlNi3)2,https://materialsproject.org/materials/mp-580327,25.323294441971985,79.70113456170857,-8.604250342815693,-0.5045126942092143
-6.46151288,-38.76907728,9.908802904060996,-0.17902842333333288,1.8639772000000001,0.2341569223651544,0.0,227,6,92.77074025383202,553.58348,mp-2265,TbCo2,https://materialsproject.org/materials/mp-2265,42.654046170407966,74.17804902816009,-8.604250342815693,-0.5045126942092143
-8.31120782,-33.24483128,8.111429212833213,-0.7668906266666671,2.45e-05,5.0353539635380235e-06,0.0,225,4,56.70397533028492,276.9885386,mp-866155,TiAlRu2,https://materialsproject.org/materials/mp-866155,42.77338326029325,53.304804496651535,-8.604250342815693,-0.5045126942092143
-5.227066223333334,-94.08719202,8.410516504031953,-0.5416569154166674,8e-06,3.378624214142992e-07,0.0,189,18,275.9481737868457,1397.6586,mp-1219054,SmGa2Ni3,https://materialsproject.org/materials/mp-1219054,24.705177914938087,79.92479560593813,-8.604250342815693,-0.5045126942092143
-5.3151941460000005,-53.15194146,9.515472755499383,-0.643600678,0.0,0.0,0.0,164,10,164.42712009664405,942.2252315999999,mp-569916,Al3Pt2,https://materialsproject.org/materials/mp-569916,42.45945287771338,51.94060554590757,-8.604250342815693,-0.5045126942092143
-8.1955361925,-32.78214477,8.766725113765563,-0.3603501700000011,9.3e-06,2.1831929626824877e-06,0.0,225,4,49.64416990957835,262.093682,mp-867874,BeVRu2,https://materialsproject.org/materials/mp-867874,40.5072200120252,53.257506938871316,-8.604250342815693,-0.5045126942092143
-7.061037285,-28.24414914,13.962700469767606,-0.7597229175000004,2.8999999999999998e-06,6.759341882607617e-07,0.0,225,4,50.00011602813762,420.4277206,mp-865966,BeAlIr2,https://materialsproject.org/materials/mp-865966,39.652896706339654,52.406500477352495,-8.604250342815693,-0.5045126942092143
-7.4992800566666675,-44.99568034,9.609266315920756,0.14203408333333434,0.98788145,0.12229942649001307,0.0,227,6,94.13645457160278,544.75218,mp-2483,DyMn2,https://materialsproject.org/materials/mp-2483,42.33150262018019,72.35216648837685,-8.604250342815693,-0.5045126942092143
-5.61403081,-123.50867782,7.783303854010389,-0.4945042134090914,2e-07,6.372478784305018e-09,0.0,229,22,365.7623718187297,1714.4069544,mp-573541,Sm3(AlNi3)2,https://materialsproject.org/materials/mp-573541,25.35784742997579,79.72717810625623,-8.604250342815693,-0.5045126942092143
-6.110367668333333,-36.66220601,8.18369900050954,-0.5679189695833328,2e-06,2.779889881277868e-07,0.0,65,6,83.84551381727766,413.2191,mp-1070955,SmSiNi4,https://materialsproject.org/materials/mp-1070955,25.988479032181285,78.51232897095647,-8.604250342815693,-0.5045126942092143
-5.738851936666666,-34.43311162,7.681051185811452,-0.4678144912500001,2.2899999999999998e-05,3.0406155054950962e-06,0.0,65,6,87.7710722744479,405.9971386,mp-1220177,NdAlNi4,https://materialsproject.org/materials/mp-1220177,25.55933396501146,79.4596038169595,-8.604250342815693,-0.5045126942092143
-5.77009298,-34.62055788,8.437483824632059,-0.5320029308333337,8.7e-06,1.2008504851784528e-06,0.0,65,6,84.43212937221088,429.0141386,mp-1225548,ErAlNi4,https://materialsproject.org/materials/mp-1225548,25.44245248164,79.484363298769,-8.604250342815693,-0.5045126942092143
-5.862519071304347,-134.83793864,8.172460865047695,-0.34346496663043524,0.0,0.0,0.0,121,23,388.3785626495861,1911.4326899999999,mp-582055,La7Ni16,https://materialsproject.org/materials/mp-582055,28.14945823277852,81.35015802324571,-8.604250342815693,-0.5045126942092143
-4.738296916666667,-28.4297815,10.127263653974667,-0.0423099166666668,1.99943445,0.2429820653512108,0.0,74,6,95.89818308238836,584.862,mp-1215618,YbFeCu,https://materialsproject.org/materials/mp-1215618,40.96148037063743,74.19016371696485,-8.604250342815693,-0.5045126942092143
-5.573324031052632,-211.78631318,9.469044545490943,-0.3607274884210528,0.00012209999999999999,2.9382317857916888e-06,0.0,194,38,484.2917143604892,2761.6212,mp-1200461,Lu2Ga3Ni14,https://materialsproject.org/materials/mp-1200461,34.30588456751757,77.48885256816935,-8.604250342815693,-0.5045126942092143
-8.34010352625,-133.44165642,9.261615403231893,-0.7868445687499985,2.15e-05,1.0617269608173352e-06,0.0,55,16,235.99513044026523,1316.257,mp-17413,Ti3Rh5,https://materialsproject.org/materials/mp-17413,62.39446901725876,55.26584642091756,-8.604250342815693,-0.5045126942092143
-5.737621963333333,-68.85146356,3.538949809395872,0.061907925555555465,5.4600000000000006e-05,2.8243142870709137e-06,0.0,12,12,225.29784999306003,480.156,mp-1094351,MgTi2,https://materialsproject.org/materials/mp-1094351,33.634681028949544,61.21394813947092,-8.604250342815693,-0.5045126942092143
-8.958020655,-35.83208262,8.127256002401984,0.026374007499999408,0.1941596,0.05018907992333879,0.0,47,4,45.084479693003175,220.659135,mp-999545,Mn3Fe,https://materialsproject.org/materials/mp-999545,56.846090718504065,67.6692177521611,-8.604250342815693,-0.5045126942092143
-6.64148968,-59.77340712,13.003388772068794,-0.8417919616666659,0.00011216666666666665,7.022405555224415e-06,0.0,189,9,186.14669693676944,1457.6820000000002,mp-1079958,LuSnIr,https://materialsproject.org/materials/mp-1079958,8.755822893561634,55.56807936697298,-8.604250342815693,-0.5045126942092143
-7.169099007931035,-207.90387123,8.357962187679052,-0.14837385689655147,28.4892365,1.176577250080359,0.0,225,29,282.187512523377,1420.329485,mp-639154,Co23B6,https://materialsproject.org/materials/mp-639154,39.48202491620528,89.36935577913219,-8.604250342815693,-0.5045126942092143
-7.357017718666666,-220.71053156,7.527919956900947,-0.16752573441666715,18.78866685,0.540347952416633,0.0,42,30,405.2284078817301,1837.07034,mp-1223611,LaGa3Fe10C,https://materialsproject.org/materials/mp-1223611,55.8780877685001,74.3726230302324,-8.604250342815693,-0.5045126942092143
-5.932333097142857,-166.10532672,8.035823171534831,-0.16190992571428556,6.48651465,0.1884196467592091,0.0,140,28,401.20159006487813,1941.5292,mp-1213407,EuNi9Ge4,https://materialsproject.org/materials/mp-1213407,27.46934527211739,77.97442194747113,-8.604250342815693,-0.5045126942092143
-6.766638684473683,-257.13227001,10.562773964446377,-0.08801223888158018,6.22234655,0.15522931282124455,0.0,194,38,467.15165076147207,2971.5756,mp-567327,Pu2Ni17,https://materialsproject.org/materials/mp-567327,29.014423130078754,83.38908711909627,-8.604250342815693,-0.5045126942092143
-5.722866021666667,-34.33719613,8.665863447756488,-0.2761345500000007,1.75e-06,2.0603127820453527e-07,0.0,227,6,98.98794750830471,516.5889,mp-2016,PrNi2,https://materialsproject.org/materials/mp-2016,28.16913634766646,81.8584084460692,-8.604250342815693,-0.5045126942092143
-9.70384148,-29.11152444,10.303596478888648,0.7094286274999995,3.528982,0.8705422275908241,0.0,216,3,47.24295215754647,293.141145,mp-631383,MnCrRe,https://materialsproject.org/materials/mp-631383,51.53210130234861,47.032409851831844,-8.604250342815693,-0.5045126942092143
-7.230837845750001,-289.23351383,7.5088773574582435,-0.06889672400000109,25.6539194,0.3826348049506076,0.0,140,40,781.3519169962035,3533.235640000001,mp-1196549,La6Fe13Pb,https://materialsproject.org/materials/mp-1196549,53.65623500652517,81.17852829155227,-8.604250342815693,-0.5045126942092143
-8.24354746,-32.97418984,10.010451083281977,-0.634462940833334,3.85e-05,7.802944639668653e-06,0.0,225,4,57.50156055991204,346.6444,mp-865529,Ti2NiIr,https://materialsproject.org/materials/mp-865529,31.34456035588709,52.39719048936576,-8.604250342815693,-0.5045126942092143
-7.25568947,-29.02275788,9.278024700447487,-0.8502715091666673,0.0012878,0.0002592930783344893,0.0,225,4,57.8808532433783,323.401,mp-866157,TiGaRh2,https://materialsproject.org/materials/mp-866157,36.2059524267747,54.08835768462728,-8.604250342815693,-0.5045126942092143
-7.293914999999999,-29.175659999999997,7.5900633696097675,-1.10028598125,2.48e-05,4.756349668387438e-06,0.0,225,4,60.76525623850278,277.7484506,mp-867922,ScAlRh2,https://materialsproject.org/materials/mp-867922,34.304704833610565,57.6442924038354,-8.604250342815693,-0.5045126942092143
-7.672261799545454,-168.78975959,4.8743626355976915,-0.5505822199999993,0.9094594000000001,0.03548987880797859,0.0,72,22,298.64567340338465,876.6474479999998,mp-17334,Sc2Cr4Si5,https://materialsproject.org/materials/mp-17334,47.455000920888565,62.22700536033629,-8.604250342815693,-0.5045126942092143
-7.295203376551724,-211.56089792,8.37110169055823,-0.1331502999999994,18.5476461,0.7715440861406048,0.0,225,29,280.1595824668435,1412.3391849999996,mp-1194187,Mn2(Co7B2)3,https://materialsproject.org/materials/mp-1194187,39.47741202268085,89.35387187721581,-8.604250342815693,-0.5045126942092143
-5.633102183333333,-33.7986131,7.818996747714058,-0.4951068849999996,2.495e-05,2.664014929004993e-06,0.0,129,6,109.14687936225876,513.941,mp-1072082,YbFeSi,https://materialsproject.org/materials/mp-1072082,20.90478021684497,72.54310725331253,-8.604250342815693,-0.5045126942092143
-7.506740486666667,-90.08088584,7.570770956541885,0.18779087750000065,2.465442375,0.12887471766223235,0.0,194,12,222.94850109055682,1016.47236,mp-569334,NdMn2,https://materialsproject.org/materials/mp-569334,55.49246460733803,68.776084319267,-8.604250342815693,-0.5045126942092143
-9.256657010454543,-203.64645423,7.305969860052725,-0.8538250485064922,3.835e-05,1.269890121815865e-06,0.0013999999999994015,12,22,351.9465002126143,1548.4794160000001,mp-18254,Nb7P4,https://materialsproject.org/materials/mp-18254,46.270469633721206,61.67437435016181,-8.604250342815693,-0.5045126942092143
-7.594282395833334,-273.39416625,4.371057621377034,-0.7493980858333344,2e-07,4.319770871627359e-09,0.0,92,36,539.5686539350794,1420.313296,mp-504941,Sc2V3Si4,https://materialsproject.org/materials/mp-504941,50.00541708693191,60.395099844849064,-8.604250342815693,-0.5045126942092143
-7.215551845,-28.86220738,8.3038800681929,0.13167066875,7.4370761,1.5141668059566862,0.0,123,4,57.24083122605116,286.245,mp-1225154,Fe3Sn,https://materialsproject.org/materials/mp-1225154,50.360641469524424,67.31765732261763,-8.604250342815693,-0.5045126942092143
-5.6395575566666665,-33.83734534,9.439955957931863,-0.007008134999999528,0.03926325,0.005503304974486563,0.0,194,6,83.14575710460139,472.67319000000003,mp-20237,CoNiSn,https://materialsproject.org/materials/mp-20237,45.72878277390269,45.10797863947271,-8.604250342815693,-0.5045126942092143
-7.7479034846875,-247.93291151,5.488703945703604,-0.6630975334375,8.75e-06,1.9280569156433533e-07,0.0,86,32,528.8903347849093,1748.1808,mp-1199934,Ti3As,https://materialsproject.org/materials/mp-1199934,42.293947754090944,64.18830371826574,-8.604250342815693,-0.5045126942092143
-7.777298295,-31.10919318,14.811791624446096,-0.2979053724999989,4.1827387,0.8540785115116608,0.0,123,4,57.07427019819896,509.095045,mp-1221948,MnGaIr2,https://materialsproject.org/materials/mp-1221948,42.027474569043775,52.260829188421795,-8.604250342815693,-0.5045126942092143
-5.431701748636364,-119.49743847,8.139069311275957,-0.424254426363637,0.1619389,0.005058498346042541,0.0,229,22,373.084322795822,1828.6587,mp-1191719,Pr3(GaNi3)2,https://materialsproject.org/materials/mp-1191719,25.65371028048957,79.99422694383222,-8.604250342815693,-0.5045126942092143
-9.64251560375,-231.42037449,12.718146759297747,-0.18642010708333245,0.003170175,8.567999439864652e-05,0.0,227,24,431.2024650521341,3302.600000000001,mp-2754,Hf2Fe,https://materialsproject.org/materials/mp-2754,29.92242636157371,60.97145335240172,-8.604250342815693,-0.5045126942092143
-6.107452890416668,-146.57886937,8.245250892073782,-0.4765119106250009,6e-07,2.362659327484068e-08,0.0,141,24,295.95628883923246,1469.5432,mp-1191393,SmSi2Ni9,https://materialsproject.org/materials/mp-1191393,26.63741142543792,77.9346799080873,-8.604250342815693,-0.5045126942092143
-7.73894318,-30.95577272,6.949494967917493,-0.16282598499999956,1.0141829,0.2594304073737499,0.0,225,4,45.55885845252831,190.6676386,mp-16495,AlCrFe2,https://materialsproject.org/materials/mp-16495,47.600325012804156,69.86991922125776,-8.604250342815693,-0.5045126942092143
-8.298283578333333,-99.57940294,7.635074655451867,-0.06865360916666556,5.2652418,0.4096399158189111,0.0,164,12,149.79367637482562,688.7437600000002,mp-1220510,NbFe4Si,https://materialsproject.org/materials/mp-1220510,54.82042817771314,62.37369299869896,-8.604250342815693,-0.5045126942092143
-7.541511686666666,-45.24907012,9.950426593696175,0.08712488500000147,0.79327055,0.09994702113280504,0.0,227,6,92.49726772326662,554.27018,mp-571090,ErMn2,https://materialsproject.org/materials/mp-571090,42.32921051508553,72.29549660042112,-8.604250342815693,-0.5045126942092143
-6.043077575,-12.08615515,10.189910626379119,0.10099057000000043,2.1134383,0.914062084240022,0.0,166,2,26.94581392847802,165.353195,mp-1226001,CoPd,https://materialsproject.org/materials/mp-1226001,48.410596992901,77.91520343180812,-8.604250342815693,-0.5045126942092143
-7.382939462777778,-398.67873099,9.209746614590145,-0.9811522411111112,0.0,0.0,0.0,176,54,823.5678062139282,4567.704000000001,mp-22830,DySi3Rh5,https://materialsproject.org/materials/mp-22830,33.99523892564782,53.05070631978664,-8.604250342815693,-0.5045126942092143
-6.5347408966666665,-19.60422269,7.422161375001267,-0.11691999055555632,1.1599999999999999e-05,2.242260938258178e-06,0.0,216,3,60.29055274303082,269.4825,mp-1206684,TiSnRh,https://materialsproject.org/materials/mp-1206684,30.953398468240145,52.98391307397958,-8.604250342815693,-0.5045126942092143
-6.7868653399999985,-20.36059602,3.5616761372944503,0.286325283888889,3.7731502999999997,0.7617243220569109,0.0,216,3,57.72762759374999,123.8195,mp-1008689,Ti2Si,https://materialsproject.org/materials/mp-1008689,45.61456614942024,68.37730682161563,-8.604250342815693,-0.5045126942092143
-6.404616548461537,-83.26001513,8.457400107770399,-0.017969958461538208,6.9036799,0.4499772458766037,0.0,69,13,178.8000025798675,910.658,mp-1225497,Gd(GaFe)6,https://materialsproject.org/materials/mp-1225497,46.649047744524104,71.24042128126133,-8.604250342815693,-0.5045126942092143
-6.906103318,-34.53051659,7.636761058641528,0.018893685999999837,5.0423652,0.8639413611165747,0.0,164,5,68.01856386613218,312.815,mp-1225239,Fe3Ge2,https://materialsproject.org/materials/mp-1225239,49.14825576774393,66.53957415204633,-8.604250342815693,-0.5045126942092143
-9.357103118333336,-505.28356839,7.411832609091053,-0.8117455557142861,2.7777777777777774e-08,3.702939835914757e-10,0.0,51,54,874.2351639640406,3902.157396,mp-505064,Nb2P,https://materialsproject.org/materials/mp-505064,46.27127033248559,61.62242328117637,-8.604250342815693,-0.5045126942092143
-6.777237591666666,-40.66342555,8.600296079150148,0.19911547000000004,4.4547878,0.5835207323493719,0.0,194,6,88.9709357201121,460.8,mp-510164,Fe2Sn,https://materialsproject.org/materials/mp-510164,50.780851081980245,67.29854759170097,-8.604250342815693,-0.5045126942092143
-5.239736585,-20.95894634,9.825039427454152,-0.4733966150000004,2.44e-05,4.725511033505611e-06,0.0,225,4,60.175328855280476,356.04401,mp-1187602,TmGaNi2,https://materialsproject.org/materials/mp-1187602,31.813830239893605,75.99085453931637,-8.604250342815693,-0.5045126942092143
-5.5513996925,-22.20559877,11.807156696855607,-0.7380541049999998,3.07e-05,5.671238894373673e-06,0.0,225,4,63.08670736345263,448.574,mp-865757,YbGaRh2,https://materialsproject.org/materials/mp-865757,34.06206115462904,66.55092217514839,-8.604250342815693,-0.5045126942092143
-8.66045098125,-69.28360785,8.771346808640413,-0.013515451249999087,0.22742455,0.03128557250782092,0.0,194,8,84.71701887212309,447.49466000000007,mp-1185970,Mn3Co,https://materialsproject.org/materials/mp-1185970,44.972182282210404,79.97996173850146,-8.604250342815693,-0.5045126942092143
-8.804277279230769,-114.45560463,8.411275776922315,0.006373167692308139,0.38578229999999997,0.027834450041765636,0.0,139,13,161.52400732045732,818.1818900000002,mp-972084,TbMn12,https://materialsproject.org/materials/mp-972084,56.78232745530825,67.80357163746748,-8.604250342815693,-0.5045126942092143
-6.182081137916667,-148.36994731,9.260039399400464,-0.21612834263888914,5.872725599999999,0.2085305582376941,0.0,127,24,328.20669120281485,1830.2532,mp-1191355,GdIn2Ni9,https://materialsproject.org/materials/mp-1191355,31.766768831435414,74.74052207104356,-8.604250342815693,-0.5045126942092143
-5.950504258461539,-77.35655536,7.878700987707088,-0.28065097442307685,11.1892167,0.689248143689969,0.0,71,13,189.19145066956003,897.6499999999999,mp-1220971,Nd(GaFe)6,https://materialsproject.org/materials/mp-1220971,46.77023574311225,71.37848338850677,-8.604250342815693,-0.5045126942092143
-5.53051191,-22.12204764,8.651502954900147,-0.6982920474999998,2.78e-05,5.6295874858675655e-06,0.0,225,4,57.550042785636,299.839,mp-865125,MgGaRh2,https://materialsproject.org/materials/mp-865125,37.16982544175659,53.834577672554396,-8.604250342815693,-0.5045126942092143
-7.8186550075,-31.27462003,14.960406154027329,-0.3392620849999997,4.0417166,0.8335635377480463,0.0,225,4,56.50730258185425,509.095045,mp-865088,MnGaIr2,https://materialsproject.org/materials/mp-865088,41.86537878254922,52.1810985913081,-8.604250342815693,-0.5045126942092143
-5.8703606725,-23.48144269,11.365077526103153,-0.7472178012500006,5.6e-06,1.0010870744059805e-06,0.0,225,4,65.19189428657795,446.18699999999995,mp-865566,LuZnRh2,https://materialsproject.org/materials/mp-865566,40.70162812818249,51.80999523020854,-8.604250342815693,-0.5045126942092143
-9.7930176475,-39.17207059,10.173931670173383,-0.2752468941666653,0.0062317,0.0013137722173232073,0.0,225,4,55.279472716459104,338.69097,mp-867821,TaTiMn2,https://materialsproject.org/materials/mp-867821,51.246061553566115,60.751690913945,-8.604250342815693,-0.5045126942092143
-7.396493527733334,-554.73701458,9.24748516796866,-0.05427636906666825,0.0011834,1.5417467929651385e-05,0.0,1,75,894.5321186835761,4981.6188,mp-766895,Cr8Ni50Mo17,https://materialsproject.org/materials/mp-766895,37.74840092323564,81.68585079672769,-8.604250342815693,-0.5045126942092143
-6.4458604025,-25.78344161,8.593804712788303,-0.2286168100000001,0.9800131999999999,0.21068485520990135,0.0,225,4,54.209579038725074,280.55139,mp-865548,TiInCo2,https://materialsproject.org/materials/mp-865548,44.18766657238743,46.91567771088575,-8.604250342815693,-0.5045126942092143
-6.720665793333333,-20.16199738,10.328581724276585,-0.13440564499999988,0.46627929999999995,0.1060669584918617,0.0,216,3,51.232252169470264,318.6655,mp-961674,VGePt,https://materialsproject.org/materials/mp-961674,52.41602986458503,53.08650974344424,-8.604250342815693,-0.5045126942092143
-8.04447087,-32.17788348,7.557977455919651,-0.3348778504166656,1.9605966000000001,0.451410415491612,0.0,225,4,50.61673143801193,230.38309,mp-866376,TiMn2Ge,https://materialsproject.org/materials/mp-866376,50.871058598797795,60.57719582755494,-8.604250342815693,-0.5045126942092143
-9.21396008140625,-589.69344521,7.247884986598956,-0.8645752197098222,6.68375e-05,7.62362346888574e-07,0.0,62,64,1021.7300964757717,4459.625488000001,mp-648999,Nb5P3,https://materialsproject.org/materials/mp-648999,46.269389873495314,61.672271674893004,-8.604250342815693,-0.5045126942092143
-7.296231851,-291.84927404,7.509448083165727,-0.1354210265000006,26.3196337,0.41621500605486733,0.0,140,40,736.9525641019542,3332.7172,mp-1200485,Nd6Fe13As,https://materialsproject.org/materials/mp-1200485,53.769222350447215,81.06270909182064,-8.604250342815693,-0.5045126942092143