energy_per_atom,energy,density,formation_energy_per_atom,total_magnetization_uB,total_magnetization_T,band_gap,sgr,num_sites,cell_volume,weight,mp_id,formula,URL,tsne_cry_lin1_0,tsne_cry_lin1_1,tsne_cry_lin2_0,tsne_cry_lin2_1
-5.945812585,-35.67487551,7.843959586815551,-0.4237069683333334,2.195e-05,1.8384105582205674e-06,0.0,70,6,139.14558998469062,657.288,mp-755328,ZrSn2,https://materialsproject.org/materials/mp-755328,3.5560159435355074,53.557659797927656,-8.604250342815693,-0.5045126942092143
-9.416297323125,-150.66075717,13.74287000826592,-0.2731067837500003,1.2e-06,5.154766636663878e-08,0.0,193,16,271.29991933296384,2245.3188,mp-17013,Ta5Ge3,https://materialsproject.org/materials/mp-17013,41.90616483650569,65.41280624614181,-8.604250342815693,-0.5045126942092143
-4.8369275565625,-154.78168181,8.145907581950597,-0.05238088781250028,1.825e-06,3.1421468097456035e-08,0.0,142,32,676.8833379762866,3320.50556,mp-985707,CoSn3,https://materialsproject.org/materials/mp-985707,44.38524389509854,41.757720999958,-8.604250342815693,-0.5045126942092143
-9.47920630875,-75.83365047,11.15047827611466,-0.3801447062499985,1.5e-07,1.2387542622216646e-08,0.0,223,8,141.11836134059206,947.6062800000001,mp-2663,Nb3Pt,https://materialsproject.org/materials/mp-2663,46.440075163615035,57.61478306429561,-8.604250342815693,-0.5045126942092143
-4.4199998725,-17.67999949,9.063498986504124,-0.8090896800000005,2e-07,3.633663830822656e-08,0.0,225,4,64.14498046684318,350.1140000000001,mp-864975,Mg2PdPt,https://materialsproject.org/materials/mp-864975,37.07252452746752,56.29321097552985,-8.604250342815693,-0.5045126942092143
-7.6741782516666674,-46.04506951,9.720283628362823,-0.7092684083333332,0.0010803,0.00011503632235767476,0.0,216,6,109.44270397180591,640.64385,mp-1226466,CeYRh4,https://materialsproject.org/materials/mp-1226466,30.410107244983845,65.54371126025696,-8.604250342815693,-0.5045126942092143
-9.3764945175,-37.50597807,9.184591001876154,-0.35395677458333275,2.6241319,0.5020716722221513,0.0,225,4,60.911230062007206,336.9055,mp-1187461,Ti2VOs,https://materialsproject.org/materials/mp-1187461,62.858188019653646,56.04752731607886,-8.604250342815693,-0.5045126942092143
-6.757360394,-33.78680197,7.823924652699479,-0.8297535530000004,6e-07,9.653227738537572e-08,0.0,139,5,72.43627782260471,341.29639,mp-3239,Er(CoSi)2,https://materialsproject.org/materials/mp-3239,19.49560164049987,69.38077013404998,-8.604250342815693,-0.5045126942092143
-9.68229478,-232.37507472,11.202686596090686,-0.2580526699999979,1.546929675,0.05272139806208407,0.0,194,24,341.9487967639845,2306.92872,mp-1190880,HfMn2,https://materialsproject.org/materials/mp-1190880,48.60002017968632,61.451885543389594,-8.604250342815693,-0.5045126942092143
-5.2102952075,-62.52354249,8.244109453145729,-0.5421158974999999,7.000000000000001e-06,3.976821793692014e-07,0.0,38,12,205.1347976852184,1018.4365944,mp-1216813,TmAlNi,https://materialsproject.org/materials/mp-1216813,23.33246716625875,79.95759551880069,-8.604250342815693,-0.5045126942092143
-7.23832134,-28.95328536,9.40664832241096,-0.4913153262500005,5.7000000000000005e-06,1.254559911970802e-06,0.0,225,4,52.94937975440129,299.9485,mp-865615,GaSiRu2,https://materialsproject.org/materials/mp-865615,42.81474451635566,53.59099746415594,-8.604250342815693,-0.5045126942092143
-5.373762697999999,-53.73762698,8.436545058514824,-0.5154313064999997,5.55e-06,3.2525288260167646e-07,0.0,129,10,198.8608339773494,1010.3336,mp-1080144,Sm(NiSn)2,https://materialsproject.org/materials/mp-1080144,2.3869485090862517,55.26448067166642,-8.604250342815693,-0.5045126942092143
-7.097087325,-42.58252395,11.050568286132908,-0.12506430979166674,1.9287322,0.2819853258474445,0.0,191,6,79.71184287753341,530.467,mp-1025137,NpNi5,https://materialsproject.org/materials/mp-1025137,28.804087484219128,83.5347780505229,-8.604250342815693,-0.5045126942092143
-7.351979045,-29.40791618,13.505672608598182,-0.22916954499999956,3.0362982999999995,0.6206880658604569,0.0,225,4,57.00966234618758,463.677045,mp-1185894,MgMnIr2,https://materialsproject.org/materials/mp-1185894,38.9365388976756,54.67922659961343,-8.604250342815693,-0.5045126942092143
-6.021643526666666,-18.06493058,10.75436634038276,0.25039473,0.009128399999999998,0.0025642738535628373,0.0,164,3,41.48658487548978,268.685,mp-1224793,FePd2,https://materialsproject.org/materials/mp-1224793,50.782362464781635,76.84238893773323,-8.604250342815693,-0.5045126942092143
-7.072049063333334,-21.21614719,7.076406079898256,-0.44141339055555545,7.499999999999999e-06,1.6503731189932194e-06,0.0,216,3,52.96104546801988,225.6941,mp-961718,TiAsRh,https://materialsproject.org/materials/mp-961718,32.683103101738766,50.42307970780421,-8.604250342815693,-0.5045126942092143
-2.1532341706338034,-305.75925223,8.379860693309286,-0.2847799380985913,0.00023825,1.1545201248866526e-06,0.013100000000000113,194,142,2404.965381036509,12136.586,mp-1199665,Lu13Zn58,https://materialsproject.org/materials/mp-1199665,0.20818973958037265,93.31265347418513,-8.604250342815693,-0.5045126942092143
-6.510464447,-130.20928894,7.686092270532651,-0.7596337984999998,0.26034235,0.010524901730964287,0.0,15,20,288.27315327935395,1334.32217,mp-15826,Lu2Co3Si5,https://materialsproject.org/materials/mp-15826,20.83088352073545,68.76892949215626,-8.604250342815693,-0.5045126942092143
-5.855916345,-23.42366538,8.33488223674108,-0.5947480468749999,6e-07,9.356500966325426e-08,0.0,225,4,74.7334809102462,375.116,mp-862941,PmMgRh2,https://materialsproject.org/materials/mp-862941,38.43660627688916,56.05037557252099,-8.604250342815693,-0.5045126942092143
-4.156206171818182,-45.71826789,7.957701811763438,-0.4752819963636361,2.64e-05,1.5500011300699834e-06,0.0,123,11,198.49489398868027,951.235195,mp-985468,Er2Ga8Co,https://materialsproject.org/materials/mp-985468,17.088296388392322,83.7577718552997,-8.604250342815693,-0.5045126942092143
-8.3767203875,-33.50688155,8.111005493734915,-0.5440020083333339,0.0002515,4.769763947594533e-05,0.0,225,4,61.44952501846367,300.154,mp-865931,Ti2TcPd,https://materialsproject.org/materials/mp-865931,63.33411302375881,56.82865448243742,-8.604250342815693,-0.5045126942092143
-5.40070682,-86.41130912,9.33327051966964,-0.8748814056250005,4.5e-07,1.7021743975275965e-08,0.0,62,16,308.09587755926975,1731.692,mp-1105746,SmGaPd2,https://materialsproject.org/materials/mp-1105746,26.673441136309357,51.216970522715975,-8.604250342815693,-0.5045126942092143
-5.589718711724139,-162.10184264,5.3393153599591585,-0.6380149651724133,2.75e-05,7.039649395572369e-07,0.0,225,29,455.2595779087574,1463.8466176000004,mp-1194178,Ti6Al16Pd7,https://materialsproject.org/materials/mp-1194178,8.989013203052703,83.64135009507059,-8.604250342815693,-0.5045126942092143
-8.228168529166666,-98.73802235,11.511315663818682,-0.883470177499999,2.7225e-05,1.54423146219706e-06,0.0,62,12,205.4626661870519,1424.3239999999998,mp-1095472,ZrGeIr,https://materialsproject.org/materials/mp-1095472,44.49334865428807,57.55332603287411,-8.604250342815693,-0.5045126942092143
-9.950263455,-39.80105382,10.643476107146043,-0.5742306977083338,7.87e-05,1.5348831272122534e-05,0.0,225,4,59.75535735194871,383.011,mp-972275,Ti2ReRu,https://materialsproject.org/materials/mp-972275,63.09805233386732,56.242849710287246,-8.604250342815693,-0.5045126942092143
-8.5128651475,-34.05146059,9.866357713187023,-0.06298244875000059,2.2509169,0.4803414122704222,0.0,225,4,54.611846241316826,324.485,mp-1184276,FeTc2Ge,https://materialsproject.org/materials/mp-1184276,55.856622829978704,44.50526014875568,-8.604250342815693,-0.5045126942092143
-8.142891523571429,-114.00048133,9.266404450041806,-0.9902917598979599,7.2864799,0.3534784882194679,0.0,12,14,240.23274838108642,1340.5850480000001,mp-647029,Gd3P4Pd7,https://materialsproject.org/materials/mp-647029,27.93302833640598,50.060847845476275,-8.604250342815693,-0.5045126942092143
-1.3639963683333332,-8.18397821,4.9299100104475535,0.01933316833333354,6.5e-07,7.248939825991117e-08,0.0,194,6,104.49999977932065,310.2460000000001,mp-1094436,MgZn2,https://materialsproject.org/materials/mp-1094436,2.5254765792828096,98.38391408372006,-8.604250342815693,-0.5045126942092143
-5.05181369,-20.20725476,8.80387143105197,-0.28810526770833444,0.0001439,2.357141271345852e-05,0.0,225,4,71.14634753367224,377.2048,mp-862922,PmInNi2,https://materialsproject.org/materials/mp-862922,31.978265744420995,69.75937366798156,-8.604250342815693,-0.5045126942092143
-3.4007802641666665,-40.80936317,2.4157246593025743,0.1140457983333339,2.151666666666667e-05,1.1605048714011105e-06,0.0,2,12,216.07546267355502,314.343,mp-1073852,MgSi,https://materialsproject.org/materials/mp-1073852,-11.405941625238707,97.28824879546036,-8.604250342815693,-0.5045126942092143
-1.8334414625,-7.33376585,12.156875326716287,-0.33336808124999995,7.42e-05,9.27546108981875e-06,0.0,225,4,93.22788352517652,682.52521,mp-865983,TmCdHg2,https://materialsproject.org/materials/mp-865983,-18.67552940669838,62.244003039174636,-8.604250342815693,-0.5045126942092143
-2.032958685,-8.13183474,2.803070986605308,0.2845431199999999,0.00365545,0.0003823984179530291,0.0,194,4,111.40436014587826,188.056,mp-1095013,MgGa,https://materialsproject.org/materials/mp-1095013,-9.027376649135485,83.81546666624075,-8.604250342815693,-0.5045126942092143
-6.30536352,-50.44290816,7.1433517632678685,-0.3885368962500007,0.00285945,0.0003242796176812879,0.0,194,8,102.763830030933,442.072224,mp-1186988,ScNi3,https://materialsproject.org/materials/mp-1186988,34.87775391426048,70.75210425161931,-8.604250342815693,-0.5045126942092143
-3.738746843333333,-11.21624053,10.448516009544882,-0.34434152111111105,1.58e-05,2.965465295487835e-06,0.0,139,3,62.09286066730114,390.7034,mp-1018131,LuAg2,https://materialsproject.org/materials/mp-1018131,20.60674402936696,59.164074095286246,-8.604250342815693,-0.5045126942092143
-9.25726516,-37.02906064,6.599354430366463,-0.038685189999998926,3.46e-05,7.824061497497876e-06,0.0,225,4,51.53725354274349,204.8206,mp-1187695,V3Cr,https://materialsproject.org/materials/mp-1187695,56.64357197197213,55.67877757752447,-8.604250342815693,-0.5045126942092143
-6.9433949099999985,-83.32073892,12.74137708239246,-0.9254001466666656,3.3e-06,1.7072546615436705e-07,0.0,62,12,225.2646580251452,1728.464,mp-21153,ErGeIr,https://materialsproject.org/materials/mp-21153,14.009714035432918,61.26838725124897,-8.604250342815693,-0.5045126942092143
-6.28085977,-18.84257931,7.554320748189435,-0.5859708538888894,0.0,0.0,0.4713000000000003,216,3,60.008330518866174,272.997,mp-961682,TiSnPd,https://materialsproject.org/materials/mp-961682,31.00659790839745,52.87205088334977,-8.604250342815693,-0.5045126942092143
-6.61160235,-59.50442115,9.221482669478686,-0.5222685533333333,6.2333333333333335e-06,4.2292712820045204e-07,0.0,189,9,171.76403586291505,953.8583808,mp-1206017,ThAlCo,https://materialsproject.org/materials/mp-1206017,7.294369081455613,71.57139571171726,-8.604250342815693,-0.5045126942092143
-7.068464977142857,-148.43776452,9.456208183516702,-0.7049928078571425,6.91e-05,2.367363181077348e-06,0.0,143,21,340.16575159262123,1937.1289,mp-1216186,Y2As7Rh12,https://materialsproject.org/materials/mp-1216186,33.12597559206641,51.16125647497836,-8.604250342815693,-0.5045126942092143
-9.59820208,-28.79460624,11.437131068325552,0.6466036016666669,2.4110015,0.5639441230082309,0.0,216,3,49.82402777398654,343.168045,mp-631280,MnTcOs,https://materialsproject.org/materials/mp-631280,59.36373509277523,45.251950294778176,-8.604250342815693,-0.5045126942092143
-7.64803672625,-61.18429381,8.293093951675242,-0.19325834750000048,3.0586344,0.2767096090886101,0.0,6,8,128.8192467568575,643.3514,mp-1225013,FeMo3As4,https://materialsproject.org/materials/mp-1225013,48.846612796839324,59.379070843594754,-8.604250342815693,-0.5045126942092143
-4.127704902222224,-148.59737648,6.039527727264099,-0.5210256500000001,1.4925e-05,2.281088525205669e-07,0.0,62,36,762.5171702390235,2773.34256,mp-1212419,Ho2Mg3Ge4,https://materialsproject.org/materials/mp-1212419,1.5236374262769614,73.65266591234514,-8.604250342815693,-0.5045126942092143
-7.880269915,-31.52107966,8.770541432754518,-0.7205460800000011,0.06601069999999999,0.011913399927951016,0.0,225,4,64.57375544634442,341.062019,mp-862712,Sc2CoIr,https://materialsproject.org/materials/mp-862712,30.147885509588942,59.31846739612878,-8.604250342815693,-0.5045126942092143
-6.910613979500001,-138.21227959,5.5107613542185865,-0.7714802650000003,0.40007715,0.015628398163936106,0.0,15,20,298.33671827483016,990.07757,mp-1188435,Y2Co3Si5,https://materialsproject.org/materials/mp-1188435,20.842078749931268,68.77445461618579,-8.604250342815693,-0.5045126942092143
-6.6970386525,-26.78815461,10.129622560512338,-0.2206473908333333,4.2474746,0.8020794741492884,0.0,225,4,61.71501167101147,376.4740000000001,mp-1184829,InFeRh2,https://materialsproject.org/materials/mp-1184829,34.705848527193474,55.40598334919475,-8.604250342815693,-0.5045126942092143
-7.260931630625,-348.52471827,7.493226345870129,-0.5228657231249999,1.6521651916666666,0.024843753118661136,0.0,55,48,775.0213933734938,3497.3045399999996,mp-1198917,ZrMnGe2,https://materialsproject.org/materials/mp-1198917,47.4115946622133,53.28082055592464,-8.604250342815693,-0.5045126942092143
-8.17170865875,-65.37366927,10.794925756998564,-0.3917038837499991,2.105e-05,2.217074957043335e-06,0.0,194,8,110.64942242166443,719.316,mp-866161,VRh3,https://materialsproject.org/materials/mp-866161,63.31423940212918,53.310707580315416,-8.604250342815693,-0.5045126942092143
-7.390353223333333,-44.34211934,10.871296902202156,-0.1865109644791675,3.1194321,0.4428263207139489,0.024499999999999744,191,6,82.09553508108978,537.467,mp-21315,PuNi5,https://materialsproject.org/materials/mp-21315,28.79261957989339,83.54805728898165,-8.604250342815693,-0.5045126942092143
-9.72840725,-29.18522175,9.866629371359817,-0.3157032802777782,0.00011619999999999999,2.8539413509832264e-05,0.0,164,3,47.45025072448993,281.941,mp-1018125,Ti2Re,https://materialsproject.org/materials/mp-1018125,62.31437706430831,56.30844786319914,-8.604250342815693,-0.5045126942092143
-5.471155288333333,-32.82693173,6.562763462838823,-0.5353790791666668,1e-07,1.2416483840352746e-08,0.0,191,6,93.859621793126,370.9509272,mp-10897,PrAl2Ni3,https://materialsproject.org/materials/mp-10897,24.459603787448312,80.26530034033931,-8.604250342815693,-0.5045126942092143
-6.0722399175,-24.28895967,5.522664984655359,-0.4638118924999999,2.1621319,0.5000338448870679,0.0,123,4,50.39183940660738,167.59452219999997,mp-1221656,MnAl2Ni,https://materialsproject.org/materials/mp-1221656,34.20822198247012,77.68024914546756,-8.604250342815693,-0.5045126942092143
-6.706602960625,-107.30564737,13.711987895083704,-1.177343773125,1.15e-06,4.744179810044225e-08,0.0,62,16,282.49718655412244,2332.73528,mp-1190095,HoSiPt2,https://materialsproject.org/materials/mp-1190095,24.235138189243845,56.05332958472682,-8.604250342815693,-0.5045126942092143
-5.50639303875,-44.05114431,7.985960721861312,-0.3058916962499998,2.5e-08,2.667229197648787e-09,0.0,62,8,109.23381446589752,525.3335999999998,mp-1099,NiGe,https://materialsproject.org/materials/mp-1099,36.52215705384739,71.60037419240828,-8.604250342815693,-0.5045126942092143
-9.997366800714287,-279.92627042,12.173948078346024,-0.17203648321428489,0.00066025,1.3426176455452553e-05,0.0,194,28,573.1040621738334,4201.611,mp-1194467,Hf10SiMo3,https://materialsproject.org/materials/mp-1194467,28.41658993719503,60.5275408169006,-8.604250342815693,-0.5045126942092143
-6.496496495833332,-77.95795795,10.702156199498178,-0.9979788474999994,7.325e-06,3.9241332815526146e-07,0.0,62,12,217.5410933678175,1402.0500000000004,mp-20610,LuGeRh,https://materialsproject.org/materials/mp-20610,15.885317885832732,62.99352253659821,-8.604250342815693,-0.5045126942092143
-3.85175352875,-30.81402823,8.491941498774805,-0.4093035325000001,3.535e-05,2.232907247369714e-06,0.0,129,8,184.4999115817608,943.52642,mp-1080619,TmZnSn2,https://materialsproject.org/materials/mp-1080619,2.1313047230688293,53.611328608637436,-8.604250342815693,-0.5045126942092143
-2.2592978617241384,-65.51963799,8.102584021637574,-0.3026293208620691,4.39e-05,1.0009718884366337e-06,0.0,225,29,511.1166951096232,2493.98892,mp-1192847,Ho6Zn23,https://materialsproject.org/materials/mp-1192847,-0.003661118139531307,93.35034834078532,-8.604250342815693,-0.5045126942092143
-6.8250249075,-27.30009963,8.478268974529326,-0.10318460999999957,3.0093687,0.7473953900971404,0.0,225,4,46.924798064054784,239.58549,mp-567981,CrGaCo2,https://materialsproject.org/materials/mp-567981,44.93038880692129,47.15660639408296,-8.604250342815693,-0.5045126942092143
-6.88801228,-27.55204912,13.58052809808264,-0.6316225625000005,0.4907651,0.07781859003488484,0.0,225,4,73.49668325971743,601.084195,mp-1185467,Lu2CoIr,https://materialsproject.org/materials/mp-1185467,29.922159462286338,59.258015577953046,-8.604250342815693,-0.5045126942092143
-6.224332072142857,-348.56259604,8.31121797919457,-0.2877243546428576,4.079145792857143,0.07021549816775839,0.0,58,56,677.0389803842528,3388.66983,mp-606675,MnGaNi2,https://materialsproject.org/materials/mp-606675,34.21477229603053,77.70560643629419,-8.604250342815693,-0.5045126942092143
-5.147787254285714,-36.03451078,8.629306095087244,-0.3088650512500004,3.805968,0.3577466292947788,0.0,123,7,123.98438996259978,644.3084,mp-1025198,NpGa5Ni,https://materialsproject.org/materials/mp-1025198,16.774978178050652,83.00821627655044,-9.02575097630986,-4.171042515238904
-6.318101379642857,-176.90683863,16.316655221710374,-0.7872844971428573,4.85e-06,1.1951102739869881e-07,0.0,15,28,472.94559654609674,4647.22,mp-1211161,Lu2(GePt3)3,https://materialsproject.org/materials/mp-1211161,61.94439954055781,44.73222894544221,-8.604250342815693,-0.5045126942092143
-2.0839524630555557,-75.02228867,7.990223874817016,-0.2620282430555554,0.0,0.0,0.0,194,36,616.3615206440937,2965.824,mp-225,ErZn5,https://materialsproject.org/materials/mp-225,0.2605118205405679,93.30784372956087,-8.604250342815693,-0.5045126942092143
-6.699576885172414,-194.28772967,7.921043348614786,-0.7987636720689648,0.034254599999999996,0.0008566303616606392,0.0,225,29,466.01818593522097,2222.9831176,mp-983480,Hf6Al16Rh7,https://materialsproject.org/materials/mp-983480,10.139814270401075,83.29486613377163,-8.604250342815693,-0.5045126942092143
-6.092003494137932,-176.66810133,9.555337586088195,-0.7844961948275868,0.3005299,0.007417041405375264,0.0,225,29,472.20916390633033,2717.2610000000004,mp-1192814,Ce3(Si3Pd10)2,https://materialsproject.org/materials/mp-1192814,28.231578595193554,54.41167596712445,-8.604250342815693,-0.5045126942092143
-6.355236962272728,-139.81521317,5.6870817749128735,-0.7704148924999992,3.5000000000000004e-06,1.0920706318363552e-07,0.0,71,22,373.5035584225025,1279.190208,mp-637866,Sc9Ni5Ge8,https://materialsproject.org/materials/mp-637866,16.645458264257158,75.69951160552662,-8.604250342815693,-0.5045126942092143
-7.36772985,-29.470919399999996,12.642249500701576,-0.5579269137500003,0.25645830000000003,0.03377679029532088,0.0,225,4,88.48625383077274,673.6759999999998,mp-1186617,PmNdIr2,https://materialsproject.org/materials/mp-1186617,14.486586116734331,50.267730979881954,-8.604250342815693,-0.5045126942092143
-8.290806038333333,-99.48967246,9.230848667714149,0.0962131483333349,1.0058360999999998,0.0724578786694112,0.0,186,12,161.77783941841258,899.3144500000002,mp-30770,LuMn5,https://materialsproject.org/materials/mp-30770,56.19725634565462,67.88867097591339,-8.604250342815693,-0.5045126942092143
-5.692110668125,-91.07377069,9.843956128475387,-0.8168159137500002,5.5e-07,2.2086521590045415e-08,0.0,63,16,290.2102804543362,1720.4156000000007,mp-29779,Lu3Ni2Ge3,https://materialsproject.org/materials/mp-29779,17.504877063944974,75.91330001155833,-8.604250342815693,-0.5045126942092143