energy_per_atom,energy,density,formation_energy_per_atom,total_magnetization_uB,total_magnetization_T,band_gap,sgr,num_sites,cell_volume,weight,mp_id,formula,URL,tsne_cry_lin1_0,tsne_cry_lin1_1,tsne_cry_lin2_0,tsne_cry_lin2_1
-9.097244545,-109.16693454,7.53944893678714,-0.1961039355555556,4.9462008,0.3438985014761256,0.0,156,12,167.61731805710795,761.0433600000001,mp-1215398,Zr3TiMn8,https://materialsproject.org/materials/mp-1215398,53.09506096436846,60.32582104378217,-8.604250342815693,-0.5045126942092143
-6.0625865375,-24.25034615,1.136025018448474,2.633421060833335,4.9999328,0.08181601394759781,0.09709999999999974,71,4,712.2021459877852,487.239045,mp-1096473,TiMnIr2,https://materialsproject.org/materials/mp-1096473,-61.14921720393804,35.528671415434076,-8.604250342815693,-0.5045126942092143
-6.656016235,-93.18422729,15.135307162249186,-1.2757518907142855,7.2000000000000005e-06,2.970959641570769e-07,0.0,148,14,282.43152545171,2574.2772600000003,mp-1105001,Tm3Pt4,https://materialsproject.org/materials/mp-1105001,15.759328452350076,56.70686661279909,-8.604250342815693,-0.5045126942092143
-6.8871015758333325,-82.64521891,10.146156214518737,-0.7350427358333332,0.0,0.0,0.0,62,12,223.21451551063709,1363.8759999999995,mp-19841,ErGeRu,https://materialsproject.org/materials/mp-19841,15.677559810063475,63.14353847195932,-8.604250342815693,-0.5045126942092143
-7.311968465,-146.23936930000002,6.714510866154377,0.01217285404800066,0.025169475,0.0014801066797374158,0.0,62,20,198.17942581906368,801.3529799999999,mp-1245849,Mn(NiN)2,https://materialsproject.org/materials/mp-1245849,1.9628467391059023,16.090066170133436,-8.604250342815693,-0.5045126942092143
-8.77445136,-35.09780544,5.824263905739256,-0.2185906361899992,1.37287015,0.4069749507993969,0.0,6,4,39.31327375551452,137.88949,mvc-13808,MnN,https://materialsproject.org/materials/mvc-13808,3.735486181991675,16.556950545687364,-8.604250342815693,-0.5045126942092143
-5.850961367999999,-29.25480684,7.359328154883832,0.7615833449999997,7.0559947,1.181812871336884,0.0,123,5,69.58040588576173,308.37278,mp-1226058,Co4Ge,https://materialsproject.org/materials/mp-1226058,43.53165124823428,80.77494464164303,-8.604250342815693,-0.5045126942092143
-7.762282890000002,-46.57369734,5.932697655561771,-0.16802168999999978,0.26516609999999996,0.041680597727476384,0.0,99,6,74.14152083644183,264.8894222,mp-1221662,MnAl2Cr3,https://materialsproject.org/materials/mp-1221662,51.8789249391935,54.0725952905153,-8.604250342815693,-0.5045126942092143
-7.40054748625,-118.40875978,6.7462340104042555,-0.5146390954166664,5e-08,2.0207364028223517e-09,0.0,140,16,288.36182582454893,1171.521,mp-16687,Ti5Sb2Rh,https://materialsproject.org/materials/mp-16687,36.6897350675774,62.0209713181843,-8.604250342815693,-0.5045126942092143
-8.112996235,-32.45198494,12.818657104646578,-0.4508399225000002,6e-07,1.198713687591763e-07,0.0,225,4,58.33285242269778,450.30487999999997,mp-867771,TaCuRh2,https://materialsproject.org/materials/mp-867771,33.68451965979982,66.28762466052595,-8.604250342815693,-0.5045126942092143
-8.097103222222222,-72.873929,11.680861134162154,-0.3835377945138892,5.077146933333333,0.3725399721253523,0.0,189,9,158.8269813929125,1117.2492,mp-1091393,PuGaNi,https://materialsproject.org/materials/mp-1091393,24.4471985053154,65.97398368991331,-8.604250342815693,-0.5045126942092143
-8.00817672375,-64.06541379,8.205897372168081,-0.35624606171874884,4.897856299999999,0.42965228613855067,0.0,194,8,132.85146246954426,656.513,mp-867907,PuSi3,https://materialsproject.org/materials/mp-867907,48.15106776246601,58.16745107262434,-8.604250342815693,-0.5045126942092143
-7.2336894823076925,-188.07592654,6.760345488741822,-2.2429089014688333,0.99999995,0.030375676855563995,0.5535999999999999,66,26,383.6643458274658,1561.9648,mp-1179800,Rb(WO3)3,https://materialsproject.org/materials/mp-1179800,-17.123041833414792,1.014972014864285,-8.604250342815693,-0.5045126942092143
-4.369993175,-17.479972699999998,0.9653780509498148,2.7620619162500004,1.0002360000000001,0.012901059707290474,0.0,71,4,903.554854897592,525.2945,mp-1096292,Hf2ZnRh,https://materialsproject.org/materials/mp-1096292,-65.35114148234284,40.6127964587304,-1.3131890611846182,-0.4856724599733845
-5.277256119375,-84.43609791,4.767819026537978,-1.5807740087500006,1.00000015,0.08557711581897326,0.0,74,16,136.18204363561398,391.01239,mp-753536,Li2CoNiO4,https://materialsproject.org/materials/mp-753536,-67.26096863850536,-25.327907641249272,-8.604250342815693,-0.5045126942092143
-4.54475768,-22.7237884,11.695066834328005,-0.4709111180000001,1.2e-05,1.3407517143123372e-06,0.0,164,5,104.30624535314793,734.6220000000002,mp-1069815,In3Pt2,https://materialsproject.org/materials/mp-1069815,33.716932556037634,40.1259409075537,-8.604250342815693,-0.5045126942092143
-9.020988445833334,-108.25186135,11.114087294696894,-0.5412160874999993,5e-07,2.8092803266507918e-08,0.0,62,12,207.42082344010154,1388.28,mp-1095449,HfGeMo,https://materialsproject.org/materials/mp-1095449,51.903420738033844,58.72437265630957,-8.604250342815693,-0.5045126942092143
-6.93704581,-27.74818324,8.172054449229742,-0.7971533974999998,9.5e-06,1.5485434200966205e-06,0.0,225,4,71.49532515685559,351.851824,mp-972899,Sc2GaIr,https://materialsproject.org/materials/mp-972899,17.12743151849798,57.29413631168338,-8.604250342815693,-0.5045126942092143
-11.014357656086958,-1013.32090436,12.711753468292056,-0.3492621947282605,9.5e-07,6.449171681582065e-09,0.0,167,92,1716.7106227843142,13141.758000000002,mp-574458,Zr21Re25,https://materialsproject.org/materials/mp-574458,65.79580894881917,60.22413965018857,-8.604250342815693,-0.5045126942092143
-7.82632517875,-62.61060143,6.988508903561885,-0.24016943937500024,0.0,0.0,0.0,9,8,106.38378015518629,447.72449000000006,mp-567341,PrCoC2,https://materialsproject.org/materials/mp-567341,8.241021266856905,38.615306609536994,-8.604250342815693,-0.5045126942092143
-5.657689155,-90.52302648,4.5123444982614025,-1.7196981300600005,8.9705004,0.7335807724400458,0.0,160,16,142.51026830507163,387.257035,mp-1222664,Li4MnCo2NiO8,https://materialsproject.org/materials/mp-1222664,-80.56273867971963,-33.948708370305795,-8.604250342815693,-0.5045126942092143
-8.291610052222222,-74.62449047,6.074704800612556,-1.0360258618253968,2.3666666666666667e-06,2.4971674589688003e-07,0.0,189,9,110.4502885032024,404.057286,mp-1080486,TiFeP,https://materialsproject.org/materials/mp-1080486,14.637348732722714,27.14000286187272,-8.604250342815693,-0.5045126942092143
-6.127872365,-49.02297892,7.220395860228785,-1.7353625221484377,2.75e-06,1.532713857069612e-07,0.0,141,8,209.09759494060336,909.2032,mp-38593,Sm2AsSe,https://materialsproject.org/materials/mp-38593,14.70296432102761,32.79093122471544,-8.604250342815693,-0.5045126942092143
-10.796542435714288,-302.30318819999997,14.507141224635355,-0.4555943322959186,0.0015965,3.411683526594017e-05,0.0,194,28,545.3528811907762,4764.423524000002,mp-1193199,Hf9Re4P,https://materialsproject.org/materials/mp-1193199,28.271749491323696,60.51012513199027,-8.604250342815693,-0.5045126942092143
-5.463170044999999,-32.77902027,10.043387859508721,-0.4059929572222221,0.0,0.0,0.0,216,6,85.73126546511172,518.52581,mp-20896,TmInNi4,https://materialsproject.org/materials/mp-20896,31.133434416138268,74.74004044848185,-8.604250342815693,-0.5045126942092143
-8.949279576,-44.74639788,8.758370207069174,-0.2780659767500012,0.0,0.0,0.0,221,5,68.28751370182961,360.17661200000003,mp-7130,ScRu3C,https://materialsproject.org/materials/mp-7130,24.73621920651402,43.177436409367694,-8.604250342815693,-0.5045126942092143
-5.3995521192857145,-75.59372967,8.337403576195708,-0.7842211878571429,6.2e-06,2.331351547436066e-07,0.0,36,14,309.9283832562004,1556.12,mp-612918,Dy3Ge4,https://materialsproject.org/materials/mp-612918,1.351840090984458,75.1402191101424,-8.604250342815693,-0.5045126942092143
-6.9325376285,-138.65075257,6.168746533573402,-0.03611808745200022,6.670000000000001e-05,3.8502808594013966e-06,0.0,59,20,201.8881605563139,749.99555,mp-1247554,MgCo5N4,https://materialsproject.org/materials/mp-1247554,4.143846086750056,14.763849274954802,-8.604250342815693,-0.5045126942092143
-6.82328486,-27.29313944,1.2300142680348929,4.5052203256249985,0.7510026,0.010750612964027179,0.0,71,4,814.1147834125128,603.040805,mp-1096347,Ta2MnRe,https://materialsproject.org/materials/mp-1096347,-57.71421564924449,40.59743017614166,-8.604250342815693,-0.5045126942092143
-7.971002672999999,-79.71002673,7.48028968280094,-0.2754183089999998,0.0126741,0.0008865157674494875,0.0,123,10,166.61269630753048,750.5461799999998,mp-1215360,Zr5Co4Ni,https://materialsproject.org/materials/mp-1215360,30.71736730779384,59.065070959088146,-8.604250342815693,-0.5045126942092143
-4.2696448825,-17.07857953,11.292072774449716,-0.5911960491666663,3e-06,4.815237746722947e-07,0.0,225,4,72.60741038482037,493.7482,mp-866177,YbAgPd2,https://materialsproject.org/materials/mp-866177,29.24017697833411,55.38303157279182,-8.604250342815693,-0.5045126942092143
-8.409542278333333,-50.45725367,8.58413448871587,-0.4724598288888894,0.0,0.0,0.0,191,6,80.03460956416569,413.73785,mp-4382,YB2Ru3,https://materialsproject.org/materials/mp-4382,18.449245633273176,38.394456101612256,-8.604250342815693,-0.5045126942092143
-8.140204978333333,-146.52368961,6.354362728886103,-0.6661215089677768,0.0017046333333333337,0.00010064769628364705,0.0,152,18,197.38064569450816,755.3139,mp-1245938,V2AgN3,https://materialsproject.org/materials/mp-1245938,2.2665172665721935,18.207296803825614,-8.604250342815693,-0.5045126942092143
-6.449457213333332,-38.69674328,16.98722547395062,-0.18539574888888904,6e-07,8.919703425720576e-08,0.0,194,6,78.39317665397527,801.9580000000001,mp-1077788,BPt2,https://materialsproject.org/materials/mp-1077788,62.173606966677724,42.285464106620545,-8.604250342815693,-0.5045126942092143
-7.23095511923077,-94.00241655,7.177239096008745,-2.249493185765916,0.8035426,0.0488589415768301,0.0,191,13,191.66476402656818,828.4200519,mp-753119,Cs(WO3)3,https://materialsproject.org/materials/mp-753119,-17.09850912123694,0.8774629623256234,-8.604250342815693,-0.5045126942092143
-11.67559645375,-93.40477163,13.145600016920564,0.26450580421875003,5.6219954,0.2959682844583303,0.0,6,8,221.3720252578521,1752.484,mp-1186428,NdPu3,https://materialsproject.org/materials/mp-1186428,-36.274045235990684,72.97044640670538,-8.604250342815693,-0.5045126942092143
-6.869584614722222,-494.61009226,6.5297938154143305,-0.4511095195355905,1.4045577,0.01017135199474272,0.0,167,72,1609.304881107057,6328.3240000000005,mp-1198018,Cd2Mo15Se19,https://materialsproject.org/materials/mp-1198018,63.333291221370104,32.45556184355413,-8.604250342815693,-0.5045126942092143
-8.594453715,-68.75562972,6.432721770362562,-0.22024827687499915,1.49e-05,1.8327012308488152e-06,0.0,200,8,94.74843045241778,367.04363860000007,mp-1228922,AlCr6Si,https://materialsproject.org/materials/mp-1228922,46.19473429085993,64.284060152999,-8.604250342815693,-0.5045126942092143
-2.30091512,-9.20366048,10.91665289692178,-0.5755865368749999,0.00010290000000000001,1.0973101861275025e-05,0.0,225,4,109.28571339782043,718.462,mp-865158,YbNdHg2,https://materialsproject.org/materials/mp-865158,-20.85356711894861,59.586888403493674,-8.604250342815693,-0.5045126942092143
-6.876345110833332,-82.51614133,10.637002586111675,-0.7381337291666661,2.055e-05,1.0999580845366924e-06,0.0,62,12,217.7274156560034,1394.7079999999999,mp-22051,LuGeRu,https://materialsproject.org/materials/mp-22051,15.627181160531256,63.046298971258885,-8.604250342815693,-0.5045126942092143
-4.511846683333333,-27.071080100000003,10.715090791596994,-0.3855713549999997,5e-08,4.315193205606708e-09,0.0,186,6,135.03526050024394,871.3526400000001,mp-16750,HoCuPb,https://materialsproject.org/materials/mp-16750,-8.228302081276022,57.842230273906075,-8.604250342815693,-0.5045126942092143
-6.612794218108107,-489.34677214,14.296229486722453,-0.8644756478378374,0.01691105,0.0001601427214356785,0.0,225,74,1230.6676838332235,10595.299,mp-1201817,Er3Si11Pt23,https://materialsproject.org/materials/mp-1201817,60.47838823719521,43.70929605909769,-8.604250342815693,-0.5045126942092143
-7.512740255,-30.05096102,13.948597197076245,-0.6257396137499995,4e-07,7.237154007211172e-08,0.0,225,4,64.41241825694169,541.067,mp-1183038,ZrZnIr2,https://materialsproject.org/materials/mp-1183038,40.176948913027026,51.04635204923937,-8.604250342815693,-0.5045126942092143
-9.706100161666667,-232.94640388,12.982035686040154,-0.6209689816666663,4.945e-05,1.2246097925404386e-06,0.0,227,24,470.5935772468084,3679.084,mp-1190626,Hf2Rh,https://materialsproject.org/materials/mp-1190626,29.963187180646496,61.00881675566728,-8.604250342815693,-0.5045126942092143
-5.259030412,-105.18060824,11.575096666868165,-0.7788192263333329,4.675e-06,1.2481147630587135e-07,0.0,11,20,436.52037796746737,3042.8466,mp-1210096,Pr(InPt)2,https://materialsproject.org/materials/mp-1210096,32.11268244520963,40.781274462560894,-8.604250342815693,-0.5045126942092143
-6.949811473333334,-20.84943442,11.812847578471048,-0.27632675500000065,0.0,0.0,0.0,216,3,69.2006559245865,492.284,mp-20889,HfSnPt,https://materialsproject.org/materials/mp-20889,30.92171414506357,52.46043902444122,-8.604250342815693,-0.5045126942092143
-6.322450935,-25.28980374,11.577375292379033,-0.829550185833333,0.00037719999999999995,6.184183108922303e-05,0.0,225,4,71.08316740924538,495.596,mp-865884,LuInRh2,https://materialsproject.org/materials/mp-865884,32.15208786525829,55.93328074912162,-8.604250342815693,-0.5045126942092143
-8.695352034285714,-60.86746424,8.925641681587225,-0.33003340089285665,1.93e-05,2.1675434351939868e-06,0.0,12,7,103.76883178365108,557.77274,mp-1101061,Ho2Mo2C3,https://materialsproject.org/materials/mp-1101061,-14.803349823349778,32.78560315359256,-8.604250342815693,-0.5045126942092143
-6.9979685175,-1007.70746652,8.304040722572106,-0.12203455930555485,0.0010669,5.327275704990279e-06,0.0,118,144,2333.973759645433,11671.76,mp-569901,Ge23Mo13,https://materialsproject.org/materials/mp-569901,48.76704915342253,55.67156954739305,-8.604250342815693,-0.5045126942092143
-9.23235345375,-73.85882763,8.218913880806689,-0.5555691133333323,2e-07,2.7210545365305238e-08,0.0,38,8,85.65844319621162,423.97038,mp-1220383,NbB4Mo3,https://materialsproject.org/materials/mp-1220383,21.58005053349192,36.65442706572927,-8.604250342815693,-0.5045126942092143
-4.6120896975,-18.44835879,0.8594716808025441,1.6559645075000002,0.48485730000000005,0.005158155281711759,0.0,71,4,1095.461084640562,566.995269,mp-1093612,Y2IrAu,https://materialsproject.org/materials/mp-1093612,-68.3723408518878,39.70669885646072,-8.604250342815693,-0.5045126942092143
-8.51520282066667,-255.45608462,9.617869637390438,-0.5659780076666673,0.1223645,0.0036107212237860282,0.0,139,30,394.94708133866953,2287.54004,mp-1193899,Ta4Fe4Si7,https://materialsproject.org/materials/mp-1193899,47.9469289714705,57.98630516784981,-8.604250342815693,-0.5045126942092143
-5.582849775,-22.331399100000002,0.7989314984838355,3.2848443504166664,3e-07,4.92125242631587e-09,0.16460000000000008,71,4,710.4328591381026,341.809,mp-1095843,Ti2FeOs,https://materialsproject.org/materials/mp-1095843,-59.61782882503514,35.5904922641365,-8.604250342815693,-0.5045126942092143
-7.44710389,-29.78841556,11.602706721409097,-0.2840052000000002,1.0586313,0.18527128063177892,0.0,225,4,66.59077272196977,465.2906,mp-982739,TmHfCo2,https://materialsproject.org/materials/mp-982739,31.20245612054098,59.26401892983085,-8.604250342815693,-0.5045126942092143
-6.562474981666668,-39.37484989,11.452444976478148,-0.2880698144444445,4e-06,2.8141871419959657e-07,0.0,97,6,165.64733167381368,1142.44044,mp-1217282,Th4AgPd,https://materialsproject.org/materials/mp-1217282,22.49165876969337,55.65923564383983,-8.604250342815693,-0.5045126942092143
-7.909819126666666,-47.45891476,10.225679763267927,-0.3356590766666668,0.5413034999999999,0.060497126568693126,0.0,166,6,104.27579636282783,642.1354,mp-1226785,Ce2NiRu3,https://materialsproject.org/materials/mp-1226785,29.641023324835118,64.61546411180915,-8.604250342815693,-0.5045126942092143
-9.23325056,-36.93300224,11.14949819603682,-0.32334260124999936,0.0001327,2.2815360948288955e-05,0.0,225,4,67.78303436986172,455.12138,mp-862814,PaSiTc2,https://materialsproject.org/materials/mp-862814,56.37326224404779,46.22435118188192,-8.604250342815693,-0.5045126942092143
-6.26216799125,-150.29203179,6.093357534351168,-1.418173768750001,5.0005937000000005,0.2188226091068992,0.0,186,24,266.32185366451023,977.2695699999999,mp-753391,Co3WO8,https://materialsproject.org/materials/mp-753391,-77.81798180958464,-17.97862898021995,-5.623146427013552,-2.2557673305346735
-1.9909408525,-7.96376341,0.7490198442931133,1.7765258224999996,1.118698,0.014177105004594162,0.0,71,4,919.6079840495047,414.80785,mp-1093800,YZn2Pt,https://materialsproject.org/materials/mp-1093800,-70.94058387272719,42.37121280575668,-8.139285414822918,2.22414203203486
-3.987227403333333,-47.84672884,7.234672450570269,-0.6381207891666664,0.0,0.0,0.0,194,12,301.4683876506174,1313.444,mp-20201,NdZnSn,https://materialsproject.org/materials/mp-20201,-16.716778011696118,53.56429928175029,-8.604250342815693,-0.5045126942092143
-8.81017775560606,-581.47173187,6.550226515877466,-3.433633043093433,0.31209580000000003,0.004130621863363364,0.0,8,66,880.5416687264258,3473.41872,mp-773118,Ba6Li2Ta9Ti7O42,https://materialsproject.org/materials/mp-773118,-42.670409925644414,27.806512217723018,-8.604250342815693,-0.5045126942092143
-5.7926668828125,-185.36534025,4.229256534206431,-1.8573179194349996,16.0,0.6568605375155845,0.3796000000000004,1,32,283.8730989476302,723.001465,mp-1176040,Li9Mn2Co5O16,https://materialsproject.org/materials/mp-1176040,-89.08391970821764,-37.57722936353535,1.8447941031658728,-1.4683891092312802
-7.760845159166667,-93.13014191,9.935688268235783,-0.03843401000000076,3.6218807999999996,0.2433194696774554,0.0,25,12,173.47413052331348,1037.967095,mp-1217540,Th2(FeCo)5,https://materialsproject.org/materials/mp-1217540,44.24697761143649,76.45469729775336,-8.604250342815693,-0.5045126942092143
-7.0744952922352935,-601.33209984,4.130389544399752,-1.8041141344338816,85.000001,1.0093453419257978,0.0,146,85,981.4237765556186,2441.17266,mp-775739,LiMn28O56,https://materialsproject.org/materials/mp-775739,-76.73331588295905,-14.858851647696895,-8.604250342815693,-0.5045126942092143
-9.8373943525,-157.39830964,8.99140463141588,-0.3381884705357141,0.0,0.0,0.0,121,16,235.50024015596256,1275.175048,mp-10004,Mo3P,https://materialsproject.org/materials/mp-10004,56.32721110292119,48.08115276834815,-8.604250342815693,-0.5045126942092143
-5.12614837,-20.50459348,14.363205848401964,-0.2469979550000003,7.730000000000001e-05,9.684929422261827e-06,0.0,194,4,93.01660008467844,804.568,mp-1066274,PtPb,https://materialsproject.org/materials/mp-1066274,43.04861645082784,39.73015306498037,-8.604250342815693,-0.5045126942092143
-9.04358790875,-144.69740654,13.221950843006773,-1.1379920299999997,7.071030725,0.2850352939684058,0.0,62,16,289.1089343028653,2302.014,mp-1189670,GdSiPt2,https://materialsproject.org/materials/mp-1189670,24.156615767782025,55.81755760037999,-8.604250342815693,-0.5045126942092143
-6.772528143333332,-121.90550658,7.950192384126692,-0.2156901574999992,4.89e-05,2.082232907527473e-06,0.0,1,18,273.68877195148724,1310.3446158000004,mp-1228992,AlGe3Mo2,https://materialsproject.org/materials/mp-1228992,48.935319942216424,55.55302055499261,-8.604250342815693,-0.5045126942092143
-6.676019826666668,-80.11223792,9.9599539802631,-0.2016712729166663,3.6544795666666654,0.2474899415808999,0.0,166,12,172.0859494647683,1032.1757549999998,mp-411,ErCo3,https://materialsproject.org/materials/mp-411,43.341864801031704,75.24061192104291,-8.604250342815693,-0.5045126942092143