energy_per_atom,energy,density,formation_energy_per_atom,total_magnetization_uB,total_magnetization_T,band_gap,sgr,num_sites,cell_volume,weight,mp_id,formula,URL,tsne_cry_lin1_0,tsne_cry_lin1_1,tsne_cry_lin2_0,tsne_cry_lin2_1
-5.3794111337500015,-129.10586721,9.983829669663614,-0.6011485262500003,2.65e-05,8.547112597466024e-07,0.0,194,24,361.32987947811984,2172.4608,mp-1210999,LuGaNi2,https://materialsproject.org/materials/mp-1210999,24.005282790532327,79.97850500871672,-8.604250342815693,-0.5045126942092143
-4.9617213675,-19.84688547,7.520012248556238,-0.3980571300000007,4.1e-06,1.026107050119295e-06,0.0,123,4,46.56596557049254,210.8813,mp-1215533,ZnSiNi2,https://materialsproject.org/materials/mp-1215533,36.5414562397721,72.7273054824785,-8.604250342815693,-0.5045126942092143
-7.206380158928572,-201.77864445,9.565208935341088,-0.7634332674999992,4.25e-06,1.1044559950904095e-07,0.0,62,28,448.4540398490411,2583.2314,mp-1192507,Y(GeRh2)2,https://materialsproject.org/materials/mp-1192507,34.23952723925895,53.344806770551564,-8.604250342815693,-0.5045126942092143
-8.699136317916668,-208.77927163,8.050893720265936,-0.3683490920833326,1.3125e-05,4.365752544888987e-07,0.0,227,24,350.3625058156736,1698.68412,mp-505627,Nb3Co2Si,https://materialsproject.org/materials/mp-505627,47.536173976627744,57.09664766047978,-8.604250342815693,-0.5045126942092143
-8.266084865555555,-297.57905516,9.751026777975056,-0.6284339822222209,7.730000000000001e-05,1.427794426208695e-06,0.0,62,36,630.9446166637363,3705.03656,mp-672696,Hf2Nb3Ge4,https://materialsproject.org/materials/mp-672696,46.17449713766508,59.47180850768786,-8.604250342815693,-0.5045126942092143
-4.934856826666667,-59.21828192,7.982805795044338,-0.28180023958333383,14.0970563,0.8543456377242324,0.0,47,12,192.29688777980272,924.44,mp-1225527,Eu2(ZnNi)5,https://materialsproject.org/materials/mp-1225527,28.724752681621588,77.72473576968935,-8.604250342815693,-0.5045126942092143
-7.050454976666668,-21.15136493,10.50310625691845,0.2937028883333331,3.4653931000000004,0.6981965264119503,0.0,216,3,57.843191883703106,365.865045,mp-11480,MnSnIr,https://materialsproject.org/materials/mp-11480,47.111899931000146,43.71793271243003,-8.604250342815693,-0.5045126942092143
-2.194031884225352,-311.55252756,7.673641968957,-0.2973446786619718,4.605e-05,2.1478198329640236e-07,0.033199999999999896,194,142,2498.6717905279866,11546.80032,mp-1213598,Ho13(Mg2Zn27)2,https://materialsproject.org/materials/mp-1213598,-0.25027288697132305,93.45586645598465,-8.604250342815693,-0.5045126942092143
-6.197666392222222,-55.77899753,10.72608658946961,-0.9035983305555548,1.3333333333333332e-06,8.436330230446501e-08,0.0,189,9,184.18853465456607,1189.7475,mp-1079148,LuSnRh,https://materialsproject.org/materials/mp-1079148,8.62057516671604,55.60993919755615,-8.604250342815693,-0.5045126942092143
-5.5045929827272735,-121.10104562,9.685895003535162,-0.5804647109090908,1.9600000000000002e-05,6.672455243370325e-07,0.0,229,22,342.3322618298941,1996.81806,mp-1192294,Tm3(GaNi3)2,https://materialsproject.org/materials/mp-1192294,24.805029909463762,79.95141584988271,-8.604250342815693,-0.5045126942092143
-8.814946865,-35.25978746,8.980898496085295,-0.41643204875,2.0000001,0.4466711396057208,0.0,225,4,52.18185963637607,282.2216,mp-865791,CrSiRu2,https://materialsproject.org/materials/mp-865791,43.45754301468976,53.6555689088107,-8.604250342815693,-0.5045126942092143
-5.123180415,-20.49272166,10.420423090977293,-0.4146203858333335,9e-06,1.6165104153352136e-06,0.0,225,4,64.88456984750516,407.1718,mp-865945,LuInNi2,https://materialsproject.org/materials/mp-865945,32.01084528089661,69.89584744148972,-8.604250342815693,-0.5045126942092143
-7.951332645,-31.80533058,12.424464615989216,-0.9992591412499996,1e-07,1.910678216775576e-08,0.0,225,4,60.99438759618494,456.3714506,mp-861507,ScAlIr2,https://materialsproject.org/materials/mp-861507,41.895784931914775,52.09320425838921,-8.604250342815693,-0.5045126942092143
-7.371625609047619,-154.80413779,9.588239384261092,-0.9341047021428568,0.00015619999999999997,5.899998919264905e-06,0.0,147,21,308.5364832067847,1781.5429739999997,mp-1224115,Ho2P7Rh12,https://materialsproject.org/materials/mp-1224115,33.407997528158,51.67086534855895,-8.604250342815693,-0.5045126942092143
-8.619093738333332,-103.42912486,9.627540223360096,-0.0990774408333337,5.4265109,0.4239701093437584,0.0,164,12,149.16360404625826,864.8267599999999,mp-1217941,TaFe4Si,https://materialsproject.org/materials/mp-1217941,54.85099356831507,62.29506848932106,-8.604250342815693,-0.5045126942092143
-6.857005430909092,-75.42705974,8.198944701740142,-0.7365381698701299,0.0,0.0,0.0,187,11,155.06429336550588,765.633048,mp-10440,Mg(P2Rh3)2,https://materialsproject.org/materials/mp-10440,33.58539049921327,51.913144177759065,-8.604250342815693,-0.5045126942092143
-6.9603058299999985,-125.28550494,4.469207020068973,-0.4211225177777773,0.003297133333333333,0.00016244945076315646,0.0,3,18,236.53515139582802,636.6152999999998,mp-1216927,TiCrSi4,https://materialsproject.org/materials/mp-1216927,50.048826360095795,53.190319846752224,-8.604250342815693,-0.5045126942092143
-9.17222632,-18.34445264,10.331639430090934,0.040407869999999235,6.0599999999999996e-05,2.816587241537174e-05,0.0,187,2,25.07418605048014,156.00804499999995,mp-1221551,MnRu,https://materialsproject.org/materials/mp-1221551,56.1017452804327,58.708427276525256,-8.604250342815693,-0.5045126942092143
-6.0335689399999985,-36.20141364,5.873816487734139,-0.4651361897222218,1.9e-06,2.2993885049734444e-07,0.0,38,6,96.29831157270719,340.6355386,mp-1217076,Ti2AlGe3,https://materialsproject.org/materials/mp-1217076,41.76068555936504,62.93481897130586,-8.604250342815693,-0.5045126942092143
-6.870971043999998,-34.35485522,8.513941167512602,-0.4625372039999988,4.0949649,0.5769668035356634,0.0,139,5,82.71357362938572,424.0903,mp-3985,Tm(MnGe)2,https://materialsproject.org/materials/mp-3985,21.457148585594975,48.37549408655018,-8.604250342815693,-0.5045126942092143
-7.181449685,-28.72579874,7.926607100487506,-0.4964841254166671,1.9999999,0.466753808378395,0.0,225,4,49.936664599889276,238.37339,mp-4612,TiCo2Ge,https://materialsproject.org/materials/mp-4612,47.17395765247386,48.56829356776942,-8.604250342815693,-0.5045126942092143
-6.151161335454546,-135.32554938,6.285155404954174,-0.5540797272727283,7e-07,2.2945627376215255e-08,0.0,229,22,355.52940902578933,1345.6820544000002,mp-4577,Y3(AlNi3)2,https://materialsproject.org/materials/mp-4577,25.360064153643012,79.43638287390189,-8.604250342815693,-0.5045126942092143
-8.15982522375,-65.27860179,10.4654944382201,0.4593207645833335,0.30295059999999996,0.03543000529940313,0.0,194,8,99.65016616425119,628.0419999999998,mp-1183231,BRu3,https://materialsproject.org/materials/mp-1183231,50.10473640569321,77.6703869254258,-8.604250342815693,-0.5045126942092143
-6.7898634683333325,-40.73918081,9.445424807431834,-0.3692104262500007,4.4e-06,5.162348500981519e-07,0.0,191,6,99.33053723419329,565.00877,mp-1018742,LaNi2Rh3,https://materialsproject.org/materials/mp-1018742,28.526708222574435,79.88077076834875,-8.604250342815693,-0.5045126942092143
-5.813341015,-93.01345624,9.855819062250447,-0.91171731625,6.5e-07,2.5292697254197985e-08,0.0,62,16,299.49918057499815,1777.6214,mp-1208316,TbGePd2,https://materialsproject.org/materials/mp-1208316,27.67127649851832,53.547394032447784,-8.604250342815693,-0.5045126942092143
-8.028729346666667,-96.34475216,11.048224237369118,-0.30889503666666696,9.4475e-05,5.0721479563231244e-06,0.0,194,12,217.07130368998958,1444.2614,mp-1101970,TbRu2,https://materialsproject.org/materials/mp-1101970,30.40057572130825,63.742708324979496,-8.604250342815693,-0.5045126942092143
-6.454207355277778,-232.35146479,6.590342720084886,-0.7170275725000003,0.0,0.0,0.0,62,36,470.2980016643769,1866.5174,mp-21661,YSi3Ni5,https://materialsproject.org/materials/mp-21661,26.12974095130716,76.9228197377143,-8.604250342815693,-0.5045126942092143
-7.759575793333332,-23.27872738,12.112083817236226,-0.6141178349999995,1.4800000000000002e-05,3.1322100353439165e-06,0.0,216,3,55.06660047941043,401.6595,mp-961670,HfSiPt,https://materialsproject.org/materials/mp-961670,28.790948886692032,53.056697649050285,-8.604250342815693,-0.5045126942092143
-6.331137605,-37.98682563,8.106069055242878,-0.5856932191666667,3.1e-06,4.376451483178045e-07,0.0,65,6,82.54998583624256,402.9751,mp-1072537,CeSiNi4,https://materialsproject.org/materials/mp-1072537,25.936020769942452,78.45261186243133,-8.604250342815693,-0.5045126942092143
-8.219560808999999,-82.19560809,12.943909978141534,-0.2520708529999993,0.0217298,0.0014872441913686767,0.0,127,10,170.27499462728858,1327.29442,mp-1207894,U2GaCo2,https://materialsproject.org/materials/mp-1207894,26.301078582262072,65.19249425540495,-8.604250342815693,-0.5045126942092143
-7.361283099999999,-14.722566199999997,8.696085829051029,0.10746977000000067,1.3539973,0.7272293924145058,0.0,166,2,21.69820472145728,113.631445,mp-1221588,MnNi,https://materialsproject.org/materials/mp-1221588,37.65092138218701,81.01817983143832,-8.604250342815693,-0.5045126942092143
-1.5167068475,-6.06682739,4.1032463495147695,-0.07812595499999997,2.55e-06,4.0926621306431906e-07,0.0,51,4,72.6125544239755,179.428,mp-978268,MgZn,https://materialsproject.org/materials/mp-978268,1.9901373956663329,98.63131074154036,-8.604250342815693,-0.5045126942092143
-7.17168783,-43.03012698,10.636836893261547,-0.7016128474999993,5e-08,5.239891445626115e-09,0.0,227,6,111.20521191605663,712.3420000000001,mp-840,SmRh2,https://materialsproject.org/materials/mp-840,30.25978093905905,65.32850833617452,-8.604250342815693,-0.5045126942092143
-7.9414639875,-63.5317119,11.44344379290943,-0.08238360999999994,8.661142300000002,0.959134913998748,0.0,123,8,105.23807641172823,725.238,mp-11798,Fe3Pt,https://materialsproject.org/materials/mp-11798,50.64310338878818,76.73821651987414,-8.604250342815693,-0.5045126942092143
-4.98556231,-19.94224924,2.6711212355326954,0.7926941699999999,0.005484725,0.000437953029476659,0.0,191,4,145.95021864801163,234.7736,mp-1094136,Ni,https://materialsproject.org/materials/mp-1094136,30.078791932248546,80.66961464417709,-8.604250342815693,-0.5045126942092143
-9.084391745,-109.01270094,6.844266409086738,-0.8836787923809529,0.000354275,2.4335516224060396e-05,0.0,62,12,169.6591828702001,699.286568,mp-1102537,NbVP,https://materialsproject.org/materials/mp-1102537,53.19465310137549,52.19259913143112,-8.604250342815693,-0.5045126942092143
-7.9938760111111105,-143.8897682,8.181827343496696,-0.7235466050000005,0.0016618166666666663,7.104552438732883e-05,0.0,46,18,272.5987208971424,1343.1516,mp-1208217,TiAsRu,https://materialsproject.org/materials/mp-1208217,43.2633140711716,55.044180406598784,-8.604250342815693,-0.5045126942092143
-1.5025338375,-18.03040605,4.122416236167243,-0.06395294499999989,3.3333333333333334e-08,1.7916263917490192e-09,0.0,38,12,216.82468372926755,538.2840000000001,mp-1094475,MgZn,https://materialsproject.org/materials/mp-1094475,2.0715392948455498,98.639788630607,-8.604250342815693,-0.5045126942092143
-8.344314266666666,-25.0329428,7.0886639995407865,-0.6305833911111117,0.00010659999999999999,2.669834370828597e-05,0.0,139,3,46.531849253603774,198.6395,mp-1018124,Ti2Rh,https://materialsproject.org/materials/mp-1018124,62.06947439821077,55.35119726631985,-8.604250342815693,-0.5045126942092143
-6.7557580075,-27.02303203,8.279405326545746,-0.22412963791666665,1.5311968999999999,0.3127970702811613,0.0,123,4,57.048705207189826,284.44339,mp-1216996,TiCo2Sn,https://materialsproject.org/materials/mp-1216996,45.19723126312812,45.429043026206344,-8.604250342815693,-0.5045126942092143
-7.8672070211111125,-70.80486319,4.445878867996412,-0.6547709051851867,2.7000000000000004e-06,2.3785965717604422e-07,0.0,189,9,132.28798552678748,354.184,mp-11750,Ti6Si2B,https://materialsproject.org/materials/mp-11750,42.259491753404134,64.09399262574631,-8.604250342815693,-0.5045126942092143
-8.009747683181818,-176.21444903,5.519635429013907,-0.4034126354545448,0.84647235,0.030934315618749226,0.0,72,22,318.8964552072313,1060.01252,mp-17210,Nb2V4Si5,https://materialsproject.org/materials/mp-17210,53.480679835380535,52.2924006197916,-8.604250342815693,-0.5045126942092143
-7.4125493925,-29.65019757,8.288133828549194,-0.08833131874999989,3.0001431,0.725198514922871,0.0,216,4,48.2128152428258,240.641295,mp-1066006,VFeCoAs,https://materialsproject.org/materials/mp-1066006,46.5669769117667,48.385782969413064,-8.604250342815693,-0.5045126942092143
-7.20070916,-14.40141832,7.83253655925246,-0.6936480099999995,2e-07,8.585705000002473e-08,0.0,221,2,27.147601210515234,128.0515386,mp-542569,AlRu,https://materialsproject.org/materials/mp-542569,42.44560614962942,52.820647712500076,-8.604250342815693,-0.5045126942092143
-7.2522372046875,-232.07159055,6.073762337346352,-0.629446530572916,0.0246148,0.000530899103867388,0.0,6,32,540.3333165829887,1976.38,mp-1217254,Ti20(Ge3Sb)3,https://materialsproject.org/materials/mp-1217254,42.34225713172735,64.09420547413896,-8.604250342815693,-0.5045126942092143
-2.1068387175,-8.42735487,10.846570509271551,-0.4343651850000001,5.5299999999999996e-05,7.081953582633699e-06,0.0,225,4,91.00169528121643,594.4192099999999,mp-865981,TmMgHg2,https://materialsproject.org/materials/mp-865981,-17.912332784337927,63.813000679683036,-8.604250342815693,-0.5045126942092143
-8.440470941666666,-50.64282565,5.727371853200286,-0.7564561199999993,5e-08,5.902473624340657e-09,0.0,129,6,98.72187081447169,340.50199999999995,mp-5541,ZrVSi,https://materialsproject.org/materials/mp-5541,50.01702585030619,60.41132546369929,-8.604250342815693,-0.5045126942092143
-7.698207479019607,-392.60858143,7.169108482863963,0.15418164656862735,3.4966666666666665e-05,4.0794853892914034e-07,0.0,164,51,998.9098117216683,4312.6314,mp-29735,Nb10Ge7,https://materialsproject.org/materials/mp-29735,46.75951869984726,58.80784623997089,-8.604250342815693,-0.5045126942092143
-1.45016911,-2.90033822,4.032130627122223,-0.011588217499999942,6.3e-06,1.9872076903091738e-06,0.0,187,2,36.946620338261226,89.714,mp-1094782,MgZn,https://materialsproject.org/materials/mp-1094782,2.006314040988744,98.87473382352678,-8.604250342815693,-0.5045126942092143
-5.483551275,-21.9342051,10.441446937516494,-0.4895262474999997,7.2000000000000005e-06,1.3531155017750405e-06,0.0,225,4,62.011902348584535,389.93,mp-1187939,ZnSnRh2,https://materialsproject.org/materials/mp-1187939,34.54723270320489,55.098845415333926,-8.604250342815693,-0.5045126942092143
-5.652621415,-135.66291396,3.574318749893384,0.14690847388888886,0.0003871375,1.0112871799776222e-05,0.0,11,24,446.1369223514397,960.312,mp-1094359,MgTi2,https://materialsproject.org/materials/mp-1094359,33.52164528378726,61.37423472950896,-8.604250342815693,-0.5045126942092143
-7.650222724705883,-130.05378632,12.613075313608718,-0.21373669529411726,17.314138399999997,0.7659122088665181,0.0,229,17,263.45067758259086,2001.11118,mp-20246,Mn4Ge6Ir7,https://materialsproject.org/materials/mp-20246,41.953335125539716,51.591460796929866,-8.604250342815693,-0.5045126942092143
-5.917663751666668,-71.01196502,8.28867022792655,-0.3397294616666677,1.5065461000000002,0.08498917324402237,0.0,38,12,206.5837937008297,1031.1741544,mp-1222387,LuAlFe,https://materialsproject.org/materials/mp-1222387,4.781074117347719,70.84619606742048,-8.604250342815693,-0.5045126942092143
-5.113630309166667,-61.36356371,10.232473483324686,-0.8687371691666671,1.1425e-05,5.842005795819667e-07,0.0,62,12,227.9143408617812,1404.44,mp-1103238,LuGaPd,https://materialsproject.org/materials/mp-1103238,26.651928784725932,51.21853776811836,-8.604250342815693,-0.5045126942092143
-5.88145942,-11.76291884,10.175385369544736,-0.6926561349999991,7e-07,2.895774545728729e-07,0.0,221,2,28.171548620125193,172.6285,mp-2444,GaRh,https://materialsproject.org/materials/mp-2444,36.292623550733,53.388092112890966,-8.604250342815693,-0.5045126942092143
-8.960216795,-17.92043359,7.8473191990842945,0.08805057000000183,1.9503073,0.9960207650077952,0.0,65,2,22.819812998997183,107.8411,mp-1226211,CrFe,https://materialsproject.org/materials/mp-1226211,54.524017390847405,65.95665541503311,-8.604250342815693,-0.5045126942092143
-4.202569153461538,-109.26679799,4.4684614743960624,-0.4409570032051283,2e-07,5.083825006426618e-09,0.0,227,26,458.4762362129867,1233.746,mp-568621,Mg8BRh4,https://materialsproject.org/materials/mp-568621,-14.347474624491186,92.03588332464052,-8.604250342815693,-0.5045126942092143
-6.31570942,-25.26283768,13.735744276867365,-0.32702568374999963,1.8e-05,3.6046732074081567e-06,0.0,225,4,58.194780451930704,481.379,mp-865160,MgGeIr2,https://materialsproject.org/materials/mp-865160,40.257917126674606,53.83479954759697,-8.604250342815693,-0.5045126942092143
-4.275694975,-17.1027799,7.996229353738947,-0.3704642366666669,5.400000000000001e-06,1.0629247153189951e-06,0.0,225,4,59.20640367548118,285.105,mp-1187491,TiZn2Pd,https://materialsproject.org/materials/mp-1187491,37.89656987222634,57.89363551093936,-8.604250342815693,-0.5045126942092143
-7.173559961666666,-43.04135977,6.119379895362233,-0.16316594666666615,3.9347477,0.4538649723512812,0.0,166,6,101.03402411056506,372.3282386,mp-1216110,Y2AlFe3,https://materialsproject.org/materials/mp-1216110,42.12809690665274,70.49699942960744,-8.604250342815693,-0.5045126942092143
-8.133082105,-32.53232842,9.79342572728692,-0.4726040475,5e-07,1.0646169958237194e-07,0.0,225,4,54.733602874443456,322.8045,mp-865586,VGaRu2,https://materialsproject.org/materials/mp-865586,42.55394824860172,53.433406562930394,-8.604250342815693,-0.5045126942092143
-6.949666396666667,-166.79199352,7.951223837326389,-0.5675487395833336,7.0837573,0.2779672263235958,0.0,15,24,296.99388485168606,1422.1074,mp-1190689,GdSi3Ni8,https://materialsproject.org/materials/mp-1190689,26.46573174881934,77.68150868467829,-8.604250342815693,-0.5045126942092143
-7.548727856785715,-211.36437999,6.79957749933608,-0.42502611982142974,6.7870246,0.2230321448010945,0.0,12,28,354.6413651354883,1452.18594,mp-1223067,LaFe8Si5,https://materialsproject.org/materials/mp-1223067,47.766894304686595,67.61399486616182,-8.604250342815693,-0.5045126942092143
-4.638038483636363,-51.01842332,9.163323566617246,-0.4681026954545447,2.1000000000000002e-06,1.0928060852579217e-07,0.0,12,11,223.95131535709888,1235.82663,mp-1095591,Tm3(CuSn)4,https://materialsproject.org/materials/mp-1095591,-5.033785982068877,54.6615219836576,-8.604250342815693,-0.5045126942092143
-4.954608543333333,-59.45530252,12.16255098340292,-0.9889195699999996,4.15e-06,2.0703752503436373e-07,0.0,62,12,233.60194630463863,1711.0079999999998,mp-1102795,ErZnPt,https://materialsproject.org/materials/mp-1102795,17.937722478534212,59.5022467265763,-8.604250342815693,-0.5045126942092143
-7.574654882000001,-151.49309764,7.4056411663077215,-0.2580416310000004,6.916965525,0.35340811994898685,0.0,198,20,228.09539370388043,1017.2556,mp-1212682,Fe3SiNi,https://materialsproject.org/materials/mp-1212682,49.89578387015104,75.76347252872282,-8.604250342815693,-0.5045126942092143
-6.801554481538462,-88.42020826,6.699586031439817,-0.29840059499999955,8.0886507,0.5174543646716196,0.0,71,13,182.17192783798816,734.9881416000002,mp-1216958,U(AlFe)6,https://materialsproject.org/materials/mp-1216958,23.18369458150659,89.26816208202473,-8.604250342815693,-0.5045126942092143
-5.5415651425,-22.16626057,10.462986417806917,-0.5186203362499997,1e-07,1.7863837764598508e-08,0.0,225,4,65.23830391952521,411.0638,mp-11492,LuNi2Sn,https://materialsproject.org/materials/mp-11492,32.113148504359515,69.70504065066075,-8.604250342815693,-0.5045126942092143
-6.907351921666668,-41.44411153,11.52702519593639,-0.08662414333333382,0.0,0.0,0.0,12,6,96.664567629609,671.02,mp-10032,Ge2Os,https://materialsproject.org/materials/mp-10032,35.67687299951374,50.75304853718952,-8.604250342815693,-0.5045126942092143