energy_per_atom,energy,density,formation_energy_per_atom,total_magnetization_uB,total_magnetization_T,band_gap,sgr,num_sites,cell_volume,weight,mp_id,formula,URL,tsne_cry_lin1_0,tsne_cry_lin1_1,tsne_cry_lin2_0,tsne_cry_lin2_1
-7.881403175,-31.525612699999996,11.275351413886929,-0.7870021349999998,3.6000000000000003e-06,7.243065654641154e-07,0.0,225,4,57.92386149962832,393.313182,mp-865163,HfBeRh2,https://materialsproject.org/materials/mp-865163,39.586350425162266,69.46058881603221,-8.604250342815693,-0.5045126942092143
-6.137182016363636,-135.01800436,7.829618571812582,-0.14515215545454455,12.2473849,0.4921826065178847,0.0,12,22,289.9976858769449,1367.37,mp-570920,Ga5Fe6,https://materialsproject.org/materials/mp-570920,47.479536478955595,71.24182462387871,-8.604250342815693,-0.5045126942092143
-5.479717131842105,-208.22925101,9.531385364056213,-0.14876787500000058,8.14933315,0.2028242574128529,0.0,194,38,468.2519615489026,2687.7356,mp-1199108,Yb2Ni17,https://materialsproject.org/materials/mp-1199108,30.85357053544706,79.62566699606198,-8.604250342815693,-0.5045126942092143
-10.578915896666668,-63.47349538,9.21480138526215,0.2217197933333329,9.3221714,1.1284572126478365,0.0,227,6,96.2740882851778,534.25218,mp-1076939,GdMn2,https://materialsproject.org/materials/mp-1076939,55.79039299897157,68.38596628198772,-8.604250342815693,-0.5045126942092143
-5.770920408333333,-138.5020898,9.575442370296882,-0.4868629224999997,0.0009452999999999999,3.165792571199953e-05,0.0,194,24,347.98828987475264,2006.6627372,mp-1192042,Tm3AlNi8,https://materialsproject.org/materials/mp-1192042,26.80718445150536,80.87606165623751,-8.604250342815693,-0.5045126942092143
-7.2221941995000005,-288.88776798,7.810008269781776,-0.09886321549999906,26.45173385,0.4026528504808905,0.0,140,40,765.5980064868309,3600.8348,mp-1202553,Nd6Fe13Bi,https://materialsproject.org/materials/mp-1202553,53.77983639541737,81.03291704852221,-8.604250342815693,-0.5045126942092143
-6.9558855625,-27.82354225,7.905751665137503,-0.9285947124999998,4.2999999999999995e-06,9.249615097277122e-07,0.0,225,4,54.17790685880394,257.9385772,mp-867326,Al2RuRh,https://materialsproject.org/materials/mp-867326,36.444812120376994,53.46948706873951,-8.604250342815693,-0.5045126942092143
-6.69775479,-26.79101916,9.986696830063623,0.0037225431249998655,1.0112690999999998,0.1564798879734418,0.0,191,4,75.31572105859631,452.9585,mp-1065290,NdRh3,https://materialsproject.org/materials/mp-1065290,31.24588698897236,65.11692056764953,-8.604250342815693,-0.5045126942092143
-9.5477433225,-38.19097329,10.009060492918477,-0.5051945995833336,0.4323019,0.08907979089508249,0.0,225,4,56.55687213988221,340.90204500000004,mp-865768,Ti2MnOs,https://materialsproject.org/materials/mp-865768,62.83533207639123,55.51596295583079,-8.604250342815693,-0.5045126942092143
-7.184574175000002,-43.10744505,10.896647076976487,-0.2945519250000004,3e-06,3.388723756882715e-07,0.0,191,6,103.17215809246365,677.0275,mp-30620,DyRh5,https://materialsproject.org/materials/mp-30620,32.23588639114014,65.37529694416268,-8.604250342815693,-0.5045126942092143
-7.2100148325,-28.84005933,9.729248367871005,-0.4890663949999992,4.348445099999999,0.8984768480533034,0.0,123,4,56.403301838127405,330.47204500000004,mp-1221629,MnGaRh2,https://materialsproject.org/materials/mp-1221629,36.279666675056966,53.855811568193424,-8.604250342815693,-0.5045126942092143
-7.106130938888889,-127.91035690000001,6.200686536226053,-0.3917825383333333,3.4831074,0.15805221621859766,0.0,2,18,256.82878874181563,959.034852,mp-1219441,Sc3(MnNi2)2,https://materialsproject.org/materials/mp-1219441,41.85998655325604,72.30025237003149,-8.604250342815693,-0.5045126942092143
-8.046256666896554,-233.34144334,7.8609328945313255,0.2038573474137936,32.5014017,0.8422157156173726,0.0,225,29,449.7344725194637,2129.027035,mp-1192883,Nd6Mn23,https://materialsproject.org/materials/mp-1192883,56.1735555412625,68.1723354261368,-8.604250342815693,-0.5045126942092143
-7.526983644166666,-90.32380373,8.324016654519966,0.15129889833333485,2.144165025,0.12033500177105175,0.0,194,12,207.65560906335014,1040.94436,mp-1095689,SmMn2,https://materialsproject.org/materials/mp-1095689,55.5153029886441,68.74238802431174,-8.604250342815693,-0.5045126942092143
-7.21005732375,-57.68045859,7.7639597686959005,-0.8239297812499995,0.0,0.0,0.0,62,8,112.06429495714696,523.964,mp-818,SiRh,https://materialsproject.org/materials/mp-818,35.12398104534581,52.190207481132546,-8.604250342815693,-0.5045126942092143
-7.468734169655173,-216.59329092,8.23191961424862,0.11180928344827698,29.175898699999998,0.732290293868376,0.0,225,29,464.3210706115899,2301.815035,mp-1193270,Yb6Mn23,https://materialsproject.org/materials/mp-1193270,56.01103013027931,68.32612991843344,-8.604250342815693,-0.5045126942092143
-7.54752655,-90.5703186,9.631048208912393,0.08111002166666854,1.050199425,0.06403569985151726,0.0,12,12,191.1292006089468,1108.54036,mp-1095567,ErMn2,https://materialsproject.org/materials/mp-1095567,42.32426572229515,72.29562834273092,-8.604250342815693,-0.5045126942092143
-5.5478663037499985,-133.14879129,8.767069349586537,-0.1910816199999997,0.0014409333333333333,4.569271495961834e-05,0.0,194,24,367.5143929277971,1940.3483399999998,mp-1213915,CeZnCo2,https://materialsproject.org/materials/mp-1213915,41.655400937794646,76.5750606781496,-8.604250342815693,-0.5045126942092143
-7.1926989275,-57.54159142,8.028791039094964,-0.8065713849999998,7.5e-08,8.065630203614737e-09,0.0,14,8,108.36783188376968,523.964,mp-2287,SiRh,https://materialsproject.org/materials/mp-2287,34.96795019273036,52.65889304226646,-8.604250342815693,-0.5045126942092143
-7.1858051015,-287.43220406,7.759022926600121,-0.07231276775000026,26.1883375,0.3964329850596936,0.0,140,40,769.8667694483037,3597.2740000000003,mp-1196232,Nd6Fe13Pb,https://materialsproject.org/materials/mp-1196232,53.760122905046536,81.09843000242775,-8.604250342815693,-0.5045126942092143
-8.022308080344827,-232.64693433,7.6828206741229295,0.2316512889655175,32.419908899999996,0.8288576168494977,0.0,225,29,455.83669687104896,2109.020935,mp-1194037,Pr6Mn23,https://materialsproject.org/materials/mp-1194037,56.0994342178875,68.24297325585236,-8.604250342815693,-0.5045126942092143
-6.623454495,-26.49381798,8.844994556666403,-0.10923011374999893,4.836338,1.0307180414125021,0.0,216,4,54.683234453480225,291.27464,mp-1221649,MnCoNiSn,https://materialsproject.org/materials/mp-1221649,45.6524827897014,45.255685648887365,-8.604250342815693,-0.5045126942092143
-9.1396592225,-36.55863689,7.415794977938961,-0.1952865200000016,0.5634064999999999,0.1378826908158534,0.0,225,4,47.620015285676544,212.66604500000003,mp-1186011,MnV2Fe,https://materialsproject.org/materials/mp-1186011,56.17545853703321,56.14149526373105,-8.604250342815693,-0.5045126942092143
-6.670724166666666,-40.024345000000004,10.083993138122684,-0.1632669549999998,4.7773607,0.6141794872704179,0.0,166,6,90.65048930096813,550.495285,mp-1217710,Tb2FeCo3,https://materialsproject.org/materials/mp-1217710,42.692577185100326,74.18626982908093,-8.604250342815693,-0.5045126942092143
-6.9814219025,-27.92568761,9.955780878323194,-0.4353280625,4.2748041,0.9013529836887098,0.0,225,4,55.271180961230534,331.379,mp-865170,GaFeRh2,https://materialsproject.org/materials/mp-865170,36.27842579465992,53.82277196708822,-8.604250342815693,-0.5045126942092143
-7.217672981764705,-122.70044069,13.97350624338775,-0.882615420588235,7.400000000000001e-06,2.953543376720488e-07,0.0,229,17,291.9885314591172,2457.09584,mp-1189923,Tm4Ge6Ir7,https://materialsproject.org/materials/mp-1189923,41.617526642882574,54.782094564338976,-8.604250342815693,-0.5045126942092143
-8.648501577586206,-250.80654575,7.603507824993019,-0.17052772344827605,45.7542636,1.3329100064875197,0.0,225,29,400.04437585423966,1831.779,mp-582924,Zr6Fe23,https://materialsproject.org/materials/mp-582924,52.89667267180292,62.81055425413115,-8.604250342815693,-0.5045126942092143
-7.016516062232142,-785.84979897,8.544300033572847,-0.1202431784821434,30.8494971,0.2758800703789528,0.0,220,112,1303.1823462653458,6705.52194,mp-1210590,Nd2Co23B3,https://materialsproject.org/materials/mp-1210590,44.32887558599796,80.02626463941786,-8.604250342815693,-0.5045126942092143
-6.4525953075,-25.81038123,8.27358038699788,-0.02044859000000088,4.9222845,1.1903777572330927,0.0,225,4,48.19026736966642,240.1064,mp-622990,GaFe2Ni,https://materialsproject.org/materials/mp-622990,35.241136721431545,77.44028294318163,-8.604250342815693,-0.5045126942092143
-7.2120186691666675,-173.08844806,10.367582577706381,-0.5105413360416655,7.941666666666667e-05,2.1262181966172177e-06,0.0,194,24,435.2925672570274,2717.7509999999997,mp-864699,NdRh3,https://materialsproject.org/materials/mp-864699,32.01991612590448,65.2380392515862,-8.604250342815693,-0.5045126942092143
-6.752199995,-27.00879998,9.032226603869658,0.03419953250000063,1.3237558999999999,0.30515267275625724,0.0,160,4,50.555470683950325,274.98809500000004,mp-1216424,VCoNiPd,https://materialsproject.org/materials/mp-1216424,50.614173700023365,76.85612445630137,-8.604250342815693,-0.5045126942092143
-6.077662659230769,-158.01922914,8.536986524823554,-0.4422269807692312,5e-08,1.867592575217365e-09,0.0,129,26,312.00768645172246,1604.0607,mp-21601,Tb(SiNi5)2,https://materialsproject.org/materials/mp-21601,27.16918659566161,77.80657144179905,-8.604250342815693,-0.5045126942092143
-9.38276792,-56.29660752,13.39272914401709,-0.036069778333333836,0.00349225,0.0004703263804029908,0.0,74,6,86.53332961485056,697.9164099999999,mp-1216280,UCrCo,https://materialsproject.org/materials/mp-1216280,44.4981831909554,74.0186083536588,-8.604250342815693,-0.5045126942092143
-8.072714073448276,-234.10870813,8.226365682243197,0.16731446534482794,25.3473936,0.6757162055711938,0.0,225,29,437.1660238343085,2165.735035,mp-1193387,Sm6Mn23,https://materialsproject.org/materials/mp-1193387,56.256090686203116,68.11047512186052,-8.604250342815693,-0.5045126942092143
-6.484288285,-25.93715314,11.546562941528325,-0.9216849575,8.499999999999999e-05,1.528988541310094e-05,0.0,225,4,64.78763436767126,450.501,mp-865609,LuGaRh2,https://materialsproject.org/materials/mp-865609,34.18520074790388,57.59302110829028,-8.604250342815693,-0.5045126942092143
-6.419872081666668,-38.51923249,7.964112449273511,-0.22006096291666685,4.3446910999999995,0.5665720106002593,0.0,187,6,89.36783065319403,428.617115,mp-1222879,LaMnNi4,https://materialsproject.org/materials/mp-1222879,29.045799159046314,80.21706810979597,-8.604250342815693,-0.5045126942092143
-7.490546558333333,-44.94327935,9.680710887250688,-0.29020093333333224,0.0,0.0,0.0,191,6,103.50734025459136,603.43335,mp-11565,YRh5,https://materialsproject.org/materials/mp-11565,32.24602061479089,65.38349130923699,-8.604250342815693,-0.5045126942092143
-8.468609935,-33.87443974,9.177508731402572,-0.3643133662500002,3.8493141000000004,0.8666892680597336,0.0,225,4,51.76036845564757,286.0705,mp-3464,FeSiRu2,https://materialsproject.org/materials/mp-3464,42.94290312258798,53.56709894518029,-8.604250342815693,-0.5045126942092143
-7.221538465499999,-288.86153862,7.425006933311603,-0.09264985599999988,26.20109555,0.39919143351588493,0.0,140,40,764.9193820677887,3420.2940000000003,mp-21834,Nd6Fe13Sn,https://materialsproject.org/materials/mp-21834,53.76980540880561,81.03664688752913,-8.604250342815693,-0.5045126942092143
-6.270947259333334,-188.12841778,7.89087476060697,-0.3084982406666673,0.8131614,0.023525936677085163,0.0,65,30,402.8165065740314,1914.1824,mp-1216356,Y4ZrNi25,https://materialsproject.org/materials/mp-1216356,29.841367248336038,81.06040252824849,-8.604250342815693,-0.5045126942092143
-6.3178080749999985,-37.90684845,8.662698411798848,0.016748636666667,1.6885973,0.19836128848693327,0.0,227,6,99.20797782207256,517.54808,mp-2085,PrCo2,https://materialsproject.org/materials/mp-2085,42.000089762596026,74.78569646638127,-8.604250342815693,-0.5045126942092143
-8.385746480555555,-150.94343665,16.44109888314475,-0.4327487722222211,0.0011212,3.9587622682705066e-05,0.0,166,18,330.0662312491525,3268.006,mp-1188750,Nd2Ir7,https://materialsproject.org/materials/mp-1188750,31.54762580396036,63.97543813645315,-8.604250342815693,-0.5045126942092143
-6.4739619581818175,-71.21358154,9.05861830301004,-0.4953398572727291,7.960155800000001,0.4957875453037247,0.0,71,11,187.11275055535322,1020.7426300000001,mp-1095685,Tm3(FeGe)4,https://materialsproject.org/materials/mp-1095685,18.15384797769984,74.35717039037334,-8.604250342815693,-0.5045126942092143
-6.438283613333333,-19.31485084,8.983498162946429,-0.14357114,1e-07,2.3094043329264165e-08,0.024099999999999788,216,3,50.463509600295794,273.00703860000004,mp-961668,AlVPt,https://materialsproject.org/materials/mp-961668,44.919988817787896,52.6506033636997,-8.604250342815693,-0.5045126942092143
-7.96516678,-31.86066712,11.322832533506633,-0.2443450312499991,2.7000000000000004e-06,5.247358012358999e-07,0.02069999999999972,225,4,59.96536697477088,408.89,mp-866051,HfFe2Sn,https://materialsproject.org/materials/mp-866051,49.99454639296918,67.24885048330164,-8.604250342815693,-0.5045126942092143
-6.96194822,-27.84779288,7.183509670137023,-0.3549675375000003,4.9742682,1.2495744740100208,0.0,225,4,46.39214789083394,200.6929286,mp-10884,AlFeCo2,https://materialsproject.org/materials/mp-10884,44.31020784521429,47.458251348127185,-8.604250342815693,-0.5045126942092143
-6.295521075,-75.54625290000001,6.750705001144903,-0.4782114616666664,4.8125e-05,2.560735962440705e-06,0.0,62,12,219.01979563909143,890.3964279999999,mp-1102101,ScCoSn,https://materialsproject.org/materials/mp-1102101,34.566269693693926,68.84205148000684,-8.604250342815693,-0.5045126942092143
-9.097914315,-36.39165726,6.930633199062459,-0.27420651166666765,0.3425228,0.0798362917882108,0.0,225,4,49.99960303602132,208.68459,mp-865678,TiMn2V,https://materialsproject.org/materials/mp-865678,51.03296143431032,60.60339073257119,-8.604250342815693,-0.5045126942092143
-7.4668939483333325,-44.80136369,9.026335500796064,-0.07037884666666727,6.8985186,0.8308319839715298,0.0,216,6,96.76539198070007,525.996,mp-1226639,CeDyFe4,https://materialsproject.org/materials/mp-1226639,42.99349405101261,69.92520614340495,-8.604250342815693,-0.5045126942092143
-7.1051886164285705,-99.47264063,8.846941004141886,-0.2977276042857144,6.57643375,0.380962973293328,0.0,136,14,201.18014155652835,1071.838,mp-3501,Er(Fe2Ge)2,https://materialsproject.org/materials/mp-3501,48.294474147339926,67.6239517688626,-8.604250342815693,-0.5045126942092143
-6.209004085416668,-149.01609805,9.035775443022162,-0.3917309179166679,8.333333333333333e-08,2.7855093691735863e-09,0.0,194,24,348.65151599475854,1897.1772,mp-580354,CeNi3,https://materialsproject.org/materials/mp-580354,28.26968707736836,81.42323102253688,-8.604250342815693,-0.5045126942092143
-8.948292715,-35.79317086,7.545795825559997,-0.5682665408333332,1e-06,2.0961183662296695e-07,0.0,225,4,55.59831429520888,252.649,mp-1187428,Ti2FeRu,https://materialsproject.org/materials/mp-1187428,62.768345514785594,55.53722241791437,-8.604250342815693,-0.5045126942092143
-7.406399961666668,-133.31519931,8.054987729347241,-0.7841294688888891,0.00014398333333333333,6.072209194281693e-06,0.0,46,18,276.3394736821508,1340.475,mp-1208205,TiGeRh,https://materialsproject.org/materials/mp-1208205,35.550504230072775,57.291816001231815,-8.604250342815693,-0.5045126942092143
-9.104836525,-36.4193461,7.401169625309183,-0.4516959158333336,0.3144681,0.0654481313490826,0.0,225,4,55.99597010274533,249.579,mp-1187434,Ti2FeTc,https://materialsproject.org/materials/mp-1187434,62.88007834203494,55.61032147700529,-8.604250342815693,-0.5045126942092143
-7.85691487375,-125.71063798,7.221008120938711,-0.3453695365625009,13.7961975,0.9263994229298258,0.0,221,16,173.55556933696968,754.7225,mp-19800,Fe11Si5,https://materialsproject.org/materials/mp-19800,49.24079255324522,67.62047996425856,-8.604250342815693,-0.5045126942092143
-6.212885150000001,-37.277310899999996,7.806281083866797,-0.3197740583333347,1.5072875,0.215964103858616,0.0,191,6,81.33771234209098,382.37285,mp-2152,YNi5,https://materialsproject.org/materials/mp-2152,29.90830304417457,80.99456714435676,-8.604250342815693,-0.5045126942092143
-6.2336434925,-24.93457397,8.96455800449569,0.1236753300000002,4.8163761,1.2607862462434554,0.0,139,4,44.520123221244106,240.345585,mp-1183752,Co3Cu,https://materialsproject.org/materials/mp-1183752,47.30023649932856,79.92107067164073,-8.604250342815693,-0.5045126942092143
-7.884217825625,-126.14748521,8.231836065118745,-0.158642839375001,12.0257489,0.7613702337821162,0.0,166,16,184.0745151316821,912.51768,mp-1222097,Mn4Fe8SiGe3,https://materialsproject.org/materials/mp-1222097,49.866591246562464,65.97277021717001,-8.604250342815693,-0.5045126942092143
-8.931203515,-35.72481406,12.437685674068279,-0.3990924400000005,7.000000000000001e-06,1.2868052186014726e-06,0.0,63,4,63.396116388600795,474.84639,mp-1064981,HfCo,https://materialsproject.org/materials/mp-1064981,31.339869583680386,59.261175512180564,-8.604250342815693,-0.5045126942092143
-5.453735424545455,-119.98217934,8.253402476141872,-0.4513569793181818,0.00428685,0.00013432024536826182,0.058300000000000025,229,22,371.94115774041205,1848.6648,mp-1190620,Nd3(GaNi3)2,https://materialsproject.org/materials/mp-1190620,25.63479406180563,79.90616156607469,-8.604250342815693,-0.5045126942092143
-7.284629653333332,-43.70777792,9.209925888097477,0.13036964958333405,0.1389042,0.017472635541997832,0.0,216,6,92.64764551916542,513.856,mp-1226561,CeSmFe4,https://materialsproject.org/materials/mp-1226561,43.04455738954565,69.84653511493447,-8.604250342815693,-0.5045126942092143
-7.862438535,-31.44975414,6.773328298782857,-0.4256959700000005,0.0,0.0,0.0,225,4,46.48524908277457,189.6130386,mp-5778,AlVFe2,https://materialsproject.org/materials/mp-5778,47.60372239568881,70.33199597809921,-8.604250342815693,-0.5045126942092143
-7.532882223333332,-135.59188002,7.034064751089775,-0.5396474138888886,0.04009236666666666,0.0018705303221638245,0.0,46,18,249.7896091190041,1058.112,mp-1208403,TiFeGe,https://materialsproject.org/materials/mp-1208403,42.558899251498204,64.0719939726248,-8.604250342815693,-0.5045126942092143
-8.658874494137931,-251.10736033,8.286388813408736,0.04093919689655199,9.8996215,0.258587615633062,0.0,160,29,446.1576007898876,2226.4067649999997,mp-1216318,Y3Th3Mn23,https://materialsproject.org/materials/mp-1216318,56.25346290719037,68.09270575385453,-8.604250342815693,-0.5045126942092143
-9.074051073448276,-789.44244339,10.335991550855553,0.05816299482758538,136.6435466,1.5197034513175944,0.0,42,87,1047.870715466238,6522.45,mp-1227244,Fe74W13,https://materialsproject.org/materials/mp-1227244,53.015585042488965,72.37916759629765,-8.604250342815693,-0.5045126942092143
-6.8289666816666665,-40.97380009,7.8008122115555585,-0.2406153958333329,3.9389429,0.5428160006886467,0.0,65,6,84.56769077141584,397.27863,mp-1215928,YCo4Ge,https://materialsproject.org/materials/mp-1215928,41.76181826895589,75.85605559584492,-8.604250342815693,-0.5045126942092143
-7.591601885,-30.36640754,8.303500873104607,-0.09104218125000063,6.381114900000001,1.548311494788882,0.0,221,4,48.030339254108455,240.175,mp-20344,Fe3Ge,https://materialsproject.org/materials/mp-20344,50.5791088483897,75.80022934176942,-8.604250342815693,-0.5045126942092143
-7.380165955,-29.52066382,8.64688517940263,0.2612748062500003,4.2145074000000005,0.9056828733065044,0.0,225,4,54.2310599787726,282.3961,mp-1008226,CrFe2Sn,https://materialsproject.org/materials/mp-1008226,49.61687779684,66.78393058330309,-8.604250342815693,-0.5045126942092143
-8.2341640825,-32.93665633,13.893398054612886,-0.5754125274999993,3.9999998999999997,0.8363373220132522,0.0,225,4,55.73858382000276,466.3535836,mp-864950,MnAlIr2,https://materialsproject.org/materials/mp-864950,42.082640367444384,52.31351307698407,-8.604250342815693,-0.5045126942092143