energy_per_atom,energy,density,formation_energy_per_atom,total_magnetization_uB,total_magnetization_T,band_gap,sgr,num_sites,cell_volume,weight,mp_id,formula,URL,tsne_cry_lin1_0,tsne_cry_lin1_1,tsne_cry_lin2_0,tsne_cry_lin2_1
-6.744224426666666,-40.46534656,4.085709278057475,0.10410419444444467,9.66e-05,1.0506586038357937e-05,0.0,189,6,107.15018683701885,263.64,mp-1094343,MgTi5,https://materialsproject.org/materials/mp-1094343,59.29226514379739,54.10567590030252,-8.604250342815693,-0.5045126942092143
-6.7191629683333325,-40.31497781,7.503664972762363,-0.2672846450000001,0.02339845,0.002983119007376544,0.0,74,6,91.4100480749206,413.06489,mp-1215957,YCoNi,https://materialsproject.org/materials/mp-1215957,42.484399246304825,73.95613715565361,-8.604250342815693,-0.5045126942092143
-6.61104607,-26.44418428,1.367534262532753,4.393323509999998,0.483705,0.0071571902084650845,0.0,71,4,787.6176595312131,648.64126,mp-1095986,Ta2RhW,https://materialsproject.org/materials/mp-1095986,-57.789771329451334,40.221939072156744,-8.604250342815693,-0.5045126942092143
-9.071421855714286,-507.99962392,7.7785837258577075,-0.5458853866326521,0.0,0.0,0.0,62,56,814.0791824703282,3813.4502880000005,mp-21833,Mo4P3,https://materialsproject.org/materials/mp-21833,56.080735830451914,48.367349117787334,-8.604250342815693,-0.5045126942092143
-7.0545245725,-28.21809829,8.877307501065106,-0.3769149204166666,7.74e-05,1.2428182326754313e-05,0.0,225,4,72.5789652646405,388.01002400000004,mp-862431,Sc2AgOs,https://materialsproject.org/materials/mp-862431,19.413680901051272,56.86511725291765,-8.604250342815693,-0.5045126942092143
-5.2443734175,-20.97749367,8.085322115598764,-0.06882056875000052,0.6764525,0.09305954435602327,0.0,225,4,84.71373146208276,412.479195,mp-1186451,Pm2CoCu,https://materialsproject.org/materials/mp-1186451,10.690142832261262,50.66275452278365,-8.604250342815693,-0.5045126942092143
-11.736889065,-46.94755626,10.462925609629616,-0.5419455299999996,13.928662300000003,1.9727072675263813,0.0,225,4,82.28566666297813,518.4755,mp-1184387,Gd2RuRh,https://materialsproject.org/materials/mp-1184387,15.272568128921044,51.38783880291388,-8.604250342815693,-0.5045126942092143
-7.301390585,-29.20556234,9.207202934478778,-0.8542094149999997,8e-07,1.1395479168600926e-07,0.0,225,4,81.81535572226765,453.6422,mp-978910,TbYRh2,https://materialsproject.org/materials/mp-978910,17.193002021862487,51.203904587471435,-8.604250342815693,-0.5045126942092143
-6.083872795,-24.33549118,11.178598628652034,-1.0712403412500002,0.0001567,2.6758784034113325e-05,0.0,225,4,68.24644750419117,459.428912,mp-1185958,MgScPt2,https://materialsproject.org/materials/mp-1185958,37.24296663634411,57.15082296094865,-8.604250342815693,-0.5045126942092143
-6.161860035,-24.64744014,9.86642140106802,-0.6091525977083334,2.0600000000000003e-05,3.068476230513707e-06,0.0,225,4,78.23874662197981,464.871,mp-975537,NdInRh2,https://materialsproject.org/materials/mp-975537,31.79129236133771,56.051959485449274,-8.604250342815693,-0.5045126942092143
-6.3845793025,-25.53831721,11.810050260615627,-0.9903749250000002,5e-06,7.410315813151921e-07,0.0,225,4,78.6340627472038,559.2595,mp-973882,Lu2PdRh,https://materialsproject.org/materials/mp-973882,17.511198053593112,54.268921317760075,-8.604250342815693,-0.5045126942092143
-8.758786344999999,-157.65815421,6.278856570370924,-0.2913087593911112,0.98801815,0.06546539204932272,0.0,15,18,175.88571848602746,665.06187,mp-1245673,Mn3(FeN2)2,https://materialsproject.org/materials/mp-1245673,1.4517771436519262,14.941695324341648,-8.604250342815693,-0.5045126942092143
-6.455029685,-38.73017811,7.287398131842388,-0.7044761474999994,0.27559079999999997,0.029688880104254543,0.0,129,6,108.1803362957192,474.75739,mp-1019108,SmCoSi,https://materialsproject.org/materials/mp-1019108,18.684474332638192,69.73368471939182,-7.361671832281845,0.6806057533244413
-5.848672832999999,-58.48672833,9.270644229449328,-0.7506110049999997,0.08817785,0.005324706052390058,0.0,12,10,192.9928836059952,1077.4623900000001,mp-1095140,Er2CoGe2,https://materialsproject.org/materials/mp-1095140,19.610892436464827,70.33533367219694,-8.604250342815693,-0.5045126942092143
-6.7377276904545464,-148.23000919,6.302145215123707,-0.2906766813636365,1.86e-05,5.085048171369639e-07,0.0,63,22,426.280336910211,1617.83645,mp-582751,Y5GaCo5,https://materialsproject.org/materials/mp-582751,-27.50362127691054,66.35223557120746,-8.604250342815693,-0.5045126942092143
-10.615034476,-106.15034476,12.204756451952123,-0.6597007154279992,5e-08,5.22674597134588e-09,0.0,8,10,111.48489745292507,819.4002,mp-1216242,W2N3,https://materialsproject.org/materials/mp-1216242,5.486531134356655,20.726187980192694,-8.604250342815693,-0.5045126942092143
-8.594309664444445,-154.69757396,6.6779349758830975,-0.3502280877244444,4.0043869,0.2531832976994008,0.0,2,18,184.32252336959732,741.2615999999998,mp-1245884,Zr(FeN)4,https://materialsproject.org/materials/mp-1245884,1.3900478309499509,14.472541225705552,-8.604250342815693,-0.5045126942092143
-10.486738465714286,-293.62867704,12.395998040214806,-0.3295385633928569,2.7802903999999997,0.08456940148495712,0.0,44,28,383.13720848419837,2860.1363600000004,mp-1218173,Ta6V3Fe3C2,https://materialsproject.org/materials/mp-1218173,21.632477527162266,42.14946497570003,-8.604250342815693,-0.5045126942092143
-6.450143491666666,-38.70086095,10.371337503020511,-0.17589285249999995,0.0003673,4.777660555480132e-05,0.0,216,6,89.59485382550375,559.58845,mp-1217482,TbHoCo4,https://materialsproject.org/materials/mp-1217482,42.70249443907967,74.19118714985943,-8.604250342815693,-0.5045126942092143
-4.790808179166667,-57.48969815,11.437818897747958,-0.6546601724999999,4.625e-06,1.7463554293983465e-07,0.0,62,12,308.6430669595032,2125.9382760000003,mp-1102972,Er2Au,https://materialsproject.org/materials/mp-1102972,-31.517753626158573,41.68556656712822,-8.604250342815693,-0.5045126942092143
-5.9212292025,-23.68491681,10.692281740353117,-0.3110084149999999,0.000245,3.551589179118967e-05,0.0,225,4,80.39347247885854,517.6569999999999,mp-865593,Lu2GaTc,https://materialsproject.org/materials/mp-865593,17.633524133288827,56.03120779792877,-8.604250342815693,-0.5045126942092143
-6.2606007036666655,-187.81802111,9.606600330545216,-0.5110214776666662,2.4e-06,7.874514124329301e-08,0.0,191,30,355.19341273040817,2054.8756,mp-8531,Lu5Ni19B6,https://materialsproject.org/materials/mp-8531,30.435880650273905,85.12959917273731,-8.604250342815693,-0.5045126942092143
-5.79755287,-23.19021148,11.245734437148032,-0.9574701224999992,6.2e-06,8.789303904600865e-07,0.0,225,4,82.20810473062294,556.7412099999999,mp-972410,TmLuPd2,https://materialsproject.org/materials/mp-972410,16.856315365186447,54.205104166241036,-8.604250342815693,-0.5045126942092143
-6.5907884225,-52.72630738,14.052284404529846,-1.3232848375,0.000132575,8.979534071217218e-06,0.0,62,8,172.06211647155808,1456.07284,mp-1025409,TmPt,https://materialsproject.org/materials/mp-1025409,15.659561063918474,56.743033831582615,-8.604250342815693,-0.5045126942092143
-7.856489293793103,-227.83818952,11.342477582843204,-0.1580328565517238,0.28713449999999996,0.00942016745276035,0.0,225,29,355.22553905939264,2426.4034850000003,mp-1192795,Hf6Co23,https://materialsproject.org/materials/mp-1192795,60.40513640956808,65.08340582236032,-8.604250342815693,-0.5045126942092143
-7.02137478125,-112.34199650000001,4.4635977939230855,-0.8346808637499992,0.0,0.0,0.0,63,16,250.7332051059264,673.9812519999999,mp-9901,Sc3Co2Si3,https://materialsproject.org/materials/mp-9901,23.63719179820652,66.85263378369727,-8.604250342815693,-0.5045126942092143
-7.214774372022473,-1284.22983822,7.040228058003253,-0.6740769849999986,0.48532885,0.0014995591467183251,0.0,2,178,3771.811112799228,15991.44,mp-685296,Sm5(Mo3Se4)12,https://materialsproject.org/materials/mp-685296,63.08026367162924,33.059105358726605,-8.604250342815693,-0.5045126942092143
-4.9070021425,-19.62800857,11.819332861922573,-0.8354990762499996,2.55e-05,3.5350690152104997e-06,0.0,225,4,84.06586983778486,598.3614200000001,mp-865338,Tm2ZnPt,https://materialsproject.org/materials/mp-865338,14.407989833318467,57.51316949044559,-8.604250342815693,-0.5045126942092143
-7.4840367775,-29.93614711,11.606154229832333,-0.31058666583333405,1.1e-06,1.6320750738309768e-07,0.0,225,4,78.54706842452083,548.9960599999998,mp-1187726,ThInRu2,https://materialsproject.org/materials/mp-1187726,20.921405995454236,53.64109059152895,-8.604250342815693,-0.5045126942092143
-6.3979587208333335,-230.32651395,13.323729155040937,-1.2181579486111107,0.000558725,8.037796307465172e-06,0.0,62,36,810.0998197728499,6500.028200000002,mp-1199106,Tm5Pt4,https://materialsproject.org/materials/mp-1199106,15.158452909161706,56.80910119601504,-8.604250342815693,-0.5045126942092143
-7.656454605,-30.62581842,10.639244976977608,-0.5736287625000003,4.576666599999999,0.7953165004992871,0.0,225,4,67.06357653252078,429.683255,mp-978995,TmMnRh2,https://materialsproject.org/materials/mp-978995,34.389818786669785,57.71808856692052,-8.604250342815693,-0.5045126942092143
-9.798963624166666,-117.58756349,14.202820239018193,0.09150166250000068,0.000489425,2.375962073880881e-05,0.0,194,12,240.06236101208012,2053.2866,mp-1102111,PrRe2,https://materialsproject.org/materials/mp-1102111,67.18216075193915,59.846040302077036,-8.604250342815693,-0.5045126942092143
-5.07765108,-20.31060432,0.7288671069543663,3.0782185495833323,3.9999998999999997,0.056433426146264926,0.2568000000000001,71,4,826.0398332720689,362.577,mp-1095893,TiTc2Sn,https://materialsproject.org/materials/mp-1095893,-60.48724082275852,37.37607020212488,-8.604250342815693,-0.5045126942092143
-6.417563712222222,-231.03229364,12.540197313831408,-1.1670598122222229,0.001341925,1.8536592248420404e-05,0.0,62,36,843.6761547284848,6371.344,mp-1202228,Dy5Pt4,https://materialsproject.org/materials/mp-1202228,14.813894562437769,56.30241242668914,-8.604250342815693,-0.5045126942092143
-8.3523212615,-167.04642523,8.999690069621163,-0.2673221595000001,4.2000000000000004e-06,1.3298266221247868e-07,0.0,62,20,368.0710795708349,1994.8496,mp-864686,Nd2ReC2,https://materialsproject.org/materials/mp-864686,-15.830014201089769,34.452339069883905,-8.604250342815693,-0.5045126942092143
-4.423744644444444,-39.8137018,8.174174288154019,-0.6850565286111111,7.366666666666666e-05,4.4569457123897566e-06,0.0,189,9,192.6243127721589,948.2130000000001,mp-1087517,NdZnPd,https://materialsproject.org/materials/mp-1087517,8.88657296942819,56.34514298207542,-8.604250342815693,-0.5045126942092143
-8.173344224166668,-98.08013069,7.1340405745432225,-1.15090734154762,0.0,0.0,0.0,62,12,168.64217258552344,724.5238280000002,mp-8418,ZrCoP,https://materialsproject.org/materials/mp-8418,40.88745062527339,48.762927893441685,-8.604250342815693,-0.5045126942092143
-7.6520424552272726,-336.68986803,7.196686104527268,-0.08517413367545533,37.9007765,0.8468831791589948,0.0,194,44,521.5572999099363,2260.40104,mp-1207771,Y2Fe17H3,https://materialsproject.org/materials/mp-1207771,61.73599577308393,74.72110007950408,-8.604250342815693,-0.5045126942092143
-6.4192426475,-25.67697059,14.074678024851591,-0.5076336162499997,4.1200000000000005e-05,5.6755795514152574e-06,0.0,225,4,84.59884392065833,717.0572090000002,mp-863736,Ho2OsAu,https://materialsproject.org/materials/mp-863736,11.476673687646196,49.85399699332083,-8.604250342815693,-0.5045126942092143
-5.82407473375,-93.18519574,8.935132547813284,-0.5167417362500002,6.75e-07,1.82550757750709e-08,0.0,62,16,430.92090213179307,2318.7262,mp-1105609,Tb3Rh,https://materialsproject.org/materials/mp-1105609,-32.30535395060451,70.37861789290933,-8.604250342815693,-0.5045126942092143
-7.128017237999999,-498.96120666,13.157509473367035,-0.842039765,0.001448392857142857,1.0780110952259126e-05,0.0,140,70,1565.8154399346215,12406.954,mp-1196567,Er3Ir2,https://materialsproject.org/materials/mp-1196567,16.386892379191824,48.58372508586171,-8.604250342815693,-0.5045126942092143
-7.064150255,-84.76980306,8.785744959289325,-0.2988641833333337,0.6019340999999999,0.04299603276296406,0.0,194,12,163.154099097603,863.23192,mp-1220738,Nb2GaNi3,https://materialsproject.org/materials/mp-1220738,28.81538954523427,72.92979898019969,-8.604250342815693,-0.5045126942092143
-10.528084882142858,-294.7863767,14.296001348385424,-0.030392803392857107,0.0003883,1.3322750920160893e-05,0.0,227,28,339.6650870607344,2924.2628,mp-20696,Fe3W3C,https://materialsproject.org/materials/mp-20696,52.89627360302248,58.56961536276648,-8.604250342815693,-0.5045126942092143
-6.262644975,-25.0505799,10.713985738920844,-0.7443452583333334,5e-07,7.839918906923242e-08,0.0,225,4,74.32516146479698,479.55435,mp-864876,TbInRh2,https://materialsproject.org/materials/mp-864876,31.993838785198026,55.98702706282936,-8.604250342815693,-0.5045126942092143
-5.451915875,-21.8076635,1.021628791658358,3.2507615566666663,3.9999987999999997,0.060422754115393475,0.0,71,4,771.5014945584045,474.658,mp-1096454,Ti2PtW,https://materialsproject.org/materials/mp-1096454,-58.481155690294116,37.64544391214656,-8.604250342815693,-0.5045126942092143
-7.226257902,-108.39386853,7.156261876747137,-0.7058310514166674,0.0004454,1.6476590725554853e-05,0.0,148,15,315.03607367314083,1357.6799999999996,mp-1104431,Sm(Mo3Se4)2,https://materialsproject.org/materials/mp-1104431,63.095240482397536,33.114677073989824,-8.604250342815693,-0.5045126942092143
-8.356044343246754,-643.41541443,6.945906291808032,-0.07455084667896239,150.888775,1.946510259784789,0.0,6,77,903.3949594987524,3778.8312,mp-1097708,Fe65(BN)6,https://materialsproject.org/materials/mp-1097708,56.27426577715415,76.45946299532112,-8.604250342815693,-0.5045126942092143
-10.819900415,-302.95721162,15.797930571502222,-0.0650480233928578,0.0018192,5.827923815602832e-05,0.0,227,28,363.78434765190184,3460.948360000001,mp-640163,Co2W4C,https://materialsproject.org/materials/mp-640163,57.6206606617252,48.49008697562557,-8.604250342815693,-0.5045126942092143
-7.9663807549999985,-47.79828453,10.111469620045844,-0.5542010279166654,2.97366195,0.27275282119385863,0.0,129,6,127.05734380787578,773.6864,mp-19867,NpAs2,https://materialsproject.org/materials/mp-19867,46.556148885861454,20.432477329535374,-8.604250342815693,-0.5045126942092143
-7.436990388974358,-290.04262517,5.748694913750996,-2.6668734124158973,24.0001551,0.6044612621500629,0.0,1,39,462.72504062872605,1601.9286650000001,mvc-11916,Ca2La5Mn7NiO24,https://materialsproject.org/materials/mvc-11916,-30.749271287271398,9.470434770196677,-8.604250342815693,-0.5045126942092143
-4.863575701,-48.63575701,8.012210293062436,-0.4044416390000002,1.4e-06,8.265714260692638e-08,0.0,127,10,197.38996736401054,952.4196,mp-1205516,Er2MgNi2,https://materialsproject.org/materials/mp-1205516,3.8982822203485044,59.08923543294584,-8.604250342815693,-0.5045126942092143
-4.85970573,-48.597057299999996,7.8466021746820225,-0.39631143200000013,1.93e-05,1.1269568515091958e-06,0.0,127,10,199.58479316150348,943.1048800000001,mp-1205562,Ho2MgNi2,https://materialsproject.org/materials/mp-1205562,3.893346370810408,59.08118524565774,-8.604250342815693,-0.5045126942092143
-5.021371985,-20.08548794,1.0781865496109675,3.2612346525000007,9.131959599999998,0.16986032055648356,0.0,71,4,626.540962186687,406.81250000000006,mp-1097084,Fe2IrRh,https://materialsproject.org/materials/mp-1097084,7.156102397639081,24.428578568597374,-8.604250342815693,-0.5045126942092143
-5.880094401428572,-82.32132162,10.63223330575024,-0.9591296650000011,1.455e-05,5.897605806074397e-07,0.0,148,14,287.51776231991266,1840.94192,mp-1104206,Ho3Pd4,https://materialsproject.org/materials/mp-1104206,17.078312715582463,54.193982621805795,-8.604250342815693,-0.5045126942092143
-6.50918737875,-104.14699806,9.32485875108896,-0.16775281687500065,8e-07,2.0409510218338152e-08,0.013900000000000023,62,16,456.80918935872927,2565.24,mp-1190029,Sm3Os,https://materialsproject.org/materials/mp-1190029,-32.28935067684983,68.38005904044246,-8.604250342815693,-0.5045126942092143
-9.656725255,-38.62690102,14.518769396860373,0.37938304625000185,6.829999999999999e-05,9.832959893683771e-06,0.0,225,4,80.94944274888402,707.77396,mp-973969,HoTa3,https://materialsproject.org/materials/mp-973969,9.576642849439336,74.33064424247418,-8.604250342815693,-0.5045126942092143
-5.149168442416666,-617.90021309,9.981497758706666,-0.7559543309166666,0.003614375,1.5702147231388868e-05,0.0,6,120,2682.5732647645473,16124.944,mp-1229301,Ca4Er2(Sn5Pt3)3,https://materialsproject.org/materials/mp-1229301,3.6366619776470728,49.76233189941628,-8.604250342815693,-0.5045126942092143
-8.293323716896554,-240.50638779,7.260913104362662,-0.5478186881034489,3.3318422999999995,0.10368899163878376,0.0,225,29,374.48050523456436,1637.4625,mp-1192960,Zr6Fe16Si7,https://materialsproject.org/materials/mp-1192960,49.50321225549115,63.9997770971471,-8.604250342815693,-0.5045126942092143
-7.484226092467532,-576.28540912,6.150819442870926,-2.315641161539891,5.9999617999999995,0.06319333138244337,0.4239999999999999,12,77,1106.5082647234894,4098.6284479999995,mp-565234,BaP4(W2O7)8,https://materialsproject.org/materials/mp-565234,-18.78833413924664,0.011998077347877148,-8.604250342815693,-0.5045126942092143
-7.493833678333334,-44.96300207,7.058718530885256,-0.14809722500000078,2.8891111,0.3513431071058157,0.0,74,6,95.83192956843936,407.36809000000005,mp-1215958,YFeCo,https://materialsproject.org/materials/mp-1215958,42.52177985600064,74.05727247021694,-8.604250342815693,-0.5045126942092143
-9.66925544,-38.67702176,14.61630344583454,0.3641902137499997,1.9600000000000002e-05,2.8313974191371573e-06,0.0,225,4,80.67382840653252,710.1026400000002,mp-984707,ErTa3,https://materialsproject.org/materials/mp-984707,9.576863575271886,74.3343681336976,-8.604250342815693,-0.5045126942092143
-3.4817956260000003,-34.81795626,5.64240764457083,0.6121506519999997,0.03892725,0.0012317402600082279,0.0,227,10,368.30873167577863,1251.49,mp-1209093,Sm4Mg,https://materialsproject.org/materials/mp-1209093,-50.214113099223134,48.985298920821286,-8.604250342815693,-0.5045126942092143
-7.541388731666667,-45.24833239,6.301294741700051,-0.4450644538888895,0.0,0.0,0.0,63,6,70.48332457582974,267.4650772,mp-7574,AlBMo,https://materialsproject.org/materials/mp-7574,20.407608194372735,36.427119219243004,-8.604250342815693,-0.5045126942092143
-6.5094042125,-26.03761685,0.8377964583592826,4.402391992083333,0.0,0.0,0.10070000000000023,71,4,1023.1663254420613,516.221,mp-1096514,TiRe2Mo,https://materialsproject.org/materials/mp-1096514,-60.50020240403407,35.201182596263685,-8.604250342815693,-0.5045126942092143
-5.5081385025,-22.03255401,0.6871656930273905,3.821190809791666,6.0000117,0.08692624887649919,0.0,71,4,804.4120837108885,332.8825,mp-1096702,Ti2VRe,https://materialsproject.org/materials/mp-1096702,-60.31880924253965,36.50730323034777,-8.604250342815693,-0.5045126942092143
-9.01445407,-36.05781628,8.203387876684632,-0.6614297562499996,0.000883,0.00015026392474782222,0.0,225,4,68.48309873071747,338.319912,mp-1188014,ZrScRu2,https://materialsproject.org/materials/mp-1188014,39.85187228687683,59.560720665575225,-8.604250342815693,-0.5045126942092143
-7.065234338333332,-42.39140603,10.649762598161807,-0.584383023333333,4e-07,2.7851822586488676e-08,0.0,140,6,167.3723827066635,1073.43224,mp-16370,Th2Ge,https://materialsproject.org/materials/mp-16370,2.0067930894554555,71.37839932940777,-8.604250342815693,-0.5045126942092143
-7.0421139458064514,-436.61106464,4.097189005785536,-1.8414601533741928,30.99999975,0.5086142634933385,0.0,88,62,710.3143402909425,1752.6189,mp-766948,LiMn10O20,https://materialsproject.org/materials/mp-766948,-76.09897227764465,-14.571667085398953,-8.604250342815693,-0.5045126942092143
-7.278931205,-43.67358723,11.122744590004444,-0.2977896533333333,0.59561105,0.0710357898021414,0.0,74,6,97.71538790919507,654.5243899999998,mp-1225544,ErCoRu,https://materialsproject.org/materials/mp-1225544,31.08732106843566,62.88448829980055,-8.604250342815693,-0.5045126942092143