energy_per_atom,energy,density,formation_energy_per_atom,total_magnetization_uB,total_magnetization_T,band_gap,sgr,num_sites,cell_volume,weight,mp_id,formula,URL,tsne_cry_lin1_0,tsne_cry_lin1_1,tsne_cry_lin2_0,tsne_cry_lin2_1
-5.77501986,-80.85027804,8.389123136302048,-0.2736342896428577,0.9298777,0.03924033098697269,0.0,63,14,276.16624716943727,1395.20517,mp-1105102,Sm3GaCo3,https://materialsproject.org/materials/mp-1105102,24.26893064717845,71.75875398468642,-8.604250342815693,-0.5045126942092143
-7.191830950000001,-287.67323799999997,8.109486840991941,-0.09296255575000174,25.5931309,0.3968235333027133,0.0,140,40,751.6288229147713,3670.69,mp-1198585,Sm6Fe13Pb,https://materialsproject.org/materials/mp-1198585,53.75879168059093,81.0689570697966,-8.604250342815693,-0.5045126942092143
-9.4268671925,-37.70746877,10.108793616428779,-0.5591730670833339,3e-07,6.226807330338727e-08,0.0,225,4,56.147865933371,341.809,mp-1187427,Ti2FeOs,https://materialsproject.org/materials/mp-1187427,62.84579092704071,55.43828474432285,-8.604250342815693,-0.5045126942092143
-5.7878133883333325,-34.72688033,9.355842767288467,-0.3635260325,3e-07,3.6785631973921667e-08,0.0,227,6,95.04307100789984,535.4936,mp-1402,SmNi2,https://materialsproject.org/materials/mp-1402,28.3040886467675,81.73565519315494,-8.604250342815693,-0.5045126942092143
-8.027155315,-32.10862126,12.303103419395725,-0.3203193224999996,1.2709819,0.2690898946205399,0.0,221,4,55.0451937566754,407.835465,mp-864655,PaCo3,https://materialsproject.org/materials/mp-864655,47.03457996822735,78.31711488348158,-8.604250342815693,-0.5045126942092143
-6.57576629375,-52.60613035,8.644159629446651,-0.0807969862500002,6.806289100000001,0.8445896089388222,0.0,160,8,93.9165402849665,488.89519999999993,mp-1225085,Fe3Ni3Ge2,https://materialsproject.org/materials/mp-1225085,35.11835517576442,73.01626435506606,-8.604250342815693,-0.5045126942092143
-8.297210774090908,-365.07727406,8.048953284876568,-0.08337289528409092,35.30553385,0.7609876481935033,0.0,194,44,540.6828603518607,2620.7942,mp-1213192,Dy2Fe17C3,https://materialsproject.org/materials/mp-1213192,57.71043951620626,74.88701805599844,-8.604250342815693,-0.5045126942092143
-8.7665147075,-70.13211766,7.8129008144262695,0.2385117725000008,0.0024315,0.0003101737733097604,0.0,194,8,91.35800938972298,429.84299000000004,mp-1025503,Cr3Co,https://materialsproject.org/materials/mp-1025503,45.982620520742614,80.19108398609886,-8.604250342815693,-0.5045126942092143
-8.2475806675,-32.99032267,6.758132475902718,-0.687054102916667,0.0,0.0,0.4027999999999992,225,4,46.10559173325166,187.6425,mp-866141,TiFe2Si,https://materialsproject.org/materials/mp-866141,49.765109448298084,68.36083614573786,-8.604250342815693,-0.5045126942092143
-8.115920415172415,-235.36169204,7.9755527880805825,0.12385828724137972,14.931177100000001,0.3874535895571843,0.0,44,29,449.1090281363311,2157.066275,mp-1219945,Pr4Ho2Mn23,https://materialsproject.org/materials/mp-1219945,56.1328899090024,68.1887435312529,-8.604250342815693,-0.5045126942092143
-6.950752965,-41.70451779,7.793790702457932,0.2300496833333341,4.98387985,0.7394666994531169,0.0,191,6,78.54641545523388,368.66,mp-568258,Fe2Ge,https://materialsproject.org/materials/mp-568258,49.9494009977812,67.79840605219836,-8.604250342815693,-0.5045126942092143
-5.912971506388889,-212.86697423,9.60518047751754,-0.3953400441666667,1.4177153,0.03246918327254139,0.0,194,36,508.85622211573707,2943.4152,mp-1197874,Dy2Ni7,https://materialsproject.org/materials/mp-1197874,28.82230552447916,81.55063990924249,-8.604250342815693,-0.5045126942092143
-6.065124598333332,-72.78149518,8.17920107229415,-0.3004128914583326,2.3801067000000002,0.1676925520553108,0.0,47,12,165.40935961338562,814.74532,mp-1222838,LaYNi10,https://materialsproject.org/materials/mp-1222838,29.72815866597508,80.81143661635404,-8.604250342815693,-0.5045126942092143
-7.525060918333334,-45.15036551,7.633817779638169,-0.021218128750000176,7.7194183,0.8939351831110257,0.0,216,6,100.63660383250559,462.64585,mp-1218992,SmYFe4,https://materialsproject.org/materials/mp-1218992,43.01579995904829,69.92503952913736,-8.604250342815693,-0.5045126942092143
-5.774570171666666,-138.58968412,9.406204168204848,-0.4655418070833329,0.12000119999999999,0.003995623836827985,0.0,194,24,350.00836282304346,1982.6393972,mp-1191645,Ho3AlNi8,https://materialsproject.org/materials/mp-1191645,26.891230754399857,80.75557183478591,-8.604250342815693,-0.5045126942092143
-6.670434846538462,-173.43130601,8.298834026155522,-0.27636352807692244,11.592230800000001,0.36305831412864337,0.0,63,26,372.10718869198615,1859.6707,mp-21565,Tb(FeGe)6,https://materialsproject.org/materials/mp-21565,49.09378998570095,66.72578783264188,-8.604250342815693,-0.5045126942092143
-7.387844906666667,-44.32706944,9.708064244211466,0.011202398333333956,3.01381905,0.3723834215265324,0.0,74,6,94.32010232220229,551.4267299999998,mp-1223745,HoMnFe,https://materialsproject.org/materials/mp-1223745,42.3652817362,72.16965239221888,-8.604250342815693,-0.5045126942092143
-7.948256957083332,-190.75816697,9.003408713424259,-0.08747640958333254,2.495175516666667,0.09743042587036116,0.0,186,24,298.4584828647905,1618.2357899999995,mp-570557,NbCo3,https://materialsproject.org/materials/mp-570557,60.30998957440009,65.20852921939385,-8.604250342815693,-0.5045126942092143
-8.5638885025,-34.25555401,11.654024819483485,-0.21442223124999948,0.9999848,0.22391041804156794,0.0,225,4,52.04709871343128,365.27788,mp-1187225,TaFe2Ge,https://materialsproject.org/materials/mp-1187225,51.063583600574134,68.01066650325414,-8.604250342815693,-0.5045126942092143
-5.782471905,-138.77932572,9.451851352597176,-0.4761061879166668,0.02714035,0.0009017104457195267,0.0,194,24,350.7726880080114,1996.6114772,mp-1190746,Er3AlNi8,https://materialsproject.org/materials/mp-1190746,26.892663596723924,80.76830162809406,-8.604250342815693,-0.5045126942092143
-7.430114393448276,-646.41995223,7.435376884402705,0.0427599013218393,155.44416769999998,1.2552382176907837,0.0,164,87,1443.1972938372494,6462.1882049999995,mp-1222177,Nd18Mn49Ni20,https://materialsproject.org/materials/mp-1222177,55.49145171525328,68.71832257342085,-8.604250342815693,-0.5045126942092143
-8.736769686923077,-113.57800593,7.577636386621486,0.0002073676923074048,3.8940449999999998,0.27546498269178243,0.0,139,13,164.7449059180037,751.79021,mp-982188,Y(Mn2Fe)4,https://materialsproject.org/materials/mp-982188,56.22842763614138,68.06348240510027,-8.604250342815693,-0.5045126942092143
-7.0986825865,-283.94730346,8.190523888600211,-0.06654033025000103,25.95124205,0.40702162221547067,0.0,140,40,743.0500967807782,3665.0566,mp-1196845,Sm6TlFe13,https://materialsproject.org/materials/mp-1196845,53.761975074135314,81.09600844047607,-8.604250342815693,-0.5045126942092143
-8.461394215,-33.84557686,7.3930304208400095,-0.4786472033333338,9.3e-06,1.9116011571402482e-06,0.0,225,4,56.69739316696461,252.4274,mp-865878,Ti2TcNi,https://materialsproject.org/materials/mp-865878,62.814587265324576,55.48602872868256,-8.604250342815693,-0.5045126942092143
-7.394198216896553,-214.43174829,7.534676778070898,0.03981409189655312,53.1836427,1.3048493968307855,0.0,225,29,475.00165028382094,2155.31452,mp-1193759,Nd6Mn16Ni7,https://materialsproject.org/materials/mp-1193759,55.48467702716635,68.7177424022423,-8.604250342815693,-0.5045126942092143
-8.13904105,-32.5561642,13.864527146483528,-0.8004706391666658,1e-07,2.204887825524997e-08,0.0,225,4,52.85559037355921,441.313182,mp-866154,TiBeIr2,https://materialsproject.org/materials/mp-866154,39.814848975116064,52.40082766848939,-8.604250342815693,-0.5045126942092143
-7.228792324,-289.15169296,7.7403582730798375,-0.11452765400000114,25.8830871,0.4024561987710675,0.0,140,40,749.5055971265843,3493.71,mp-1196326,Sm6Fe13Sn,https://materialsproject.org/materials/mp-1196326,53.7682773522211,81.05117515359598,-8.604250342815693,-0.5045126942092143
-6.753201044615384,-87.79161358,8.60431823684041,-0.3903850692307698,6.372146,0.4807816207982408,0.0,71,13,154.45973600428212,800.355,mp-1225143,Gd(SiNi5)2,https://materialsproject.org/materials/mp-1225143,27.190915468297423,77.82024533189853,-8.604250342815693,-0.5045126942092143
-6.3088023,-113.5584414,7.692489137461548,-0.3774063377777779,1.3067549999999999,0.059922623578681215,0.0,166,18,254.1445367769961,1177.3310000000001,mp-574339,Y2Ni7,https://materialsproject.org/materials/mp-574339,29.43994045100338,81.40298442924903,-8.604250342815693,-0.5045126942092143
-7.475949933333332,-44.8556996,9.190810606754743,0.17750962375000034,5.242381099999999,0.6292690503479619,0.0,216,6,97.08891430153685,537.3711800000002,mp-1219078,SmErMn4,https://materialsproject.org/materials/mp-1219078,42.36061906708617,72.28755364723324,-8.604250342815693,-0.5045126942092143
-7.40149717,-44.40898302,9.808212176846187,-0.006000061666667261,2.8663203999999998,0.35481539419978514,0.0,74,6,94.1455307367536,556.0840900000002,mp-1225462,ErMnFe,https://materialsproject.org/materials/mp-1225462,42.36399765549631,72.17460125356938,-8.604250342815693,-0.5045126942092143
-5.482669927272728,-120.61873840000001,8.657295248469795,-0.4935859725,4.5e-07,1.4501931268687499e-08,0.030899999999999924,229,22,361.6297064498845,1885.3728,mp-504614,Sm3(GaNi3)2,https://materialsproject.org/materials/mp-504614,25.51741870399338,79.86959162781069,-8.604250342815693,-0.5045126942092143
-9.426584355,-56.55950613,8.256159816701,-0.029490538333334367,3.5678285000000005,0.473642892711627,0.0,191,6,87.78703338783106,436.475,mp-1181137,GdFe5,https://materialsproject.org/materials/mp-1181137,51.58727798415474,70.47345431800174,-8.604250342815693,-0.5045126942092143
-7.417732506666668,-44.50639504,9.05954553028307,-0.07136418250000058,6.2147104,0.6940574014060503,0.0,166,6,104.35251810235792,569.325,mp-1219187,Sm2Fe3Ru,https://materialsproject.org/materials/mp-1219187,43.21709764206332,70.04835962407779,-8.604250342815693,-0.5045126942092143
-8.063552510000001,-177.39815522,8.974121670136403,-0.5198159800000003,21.87198645,0.714976118730952,0.0,229,22,356.51197307859564,1926.7128,mp-1191116,Gd3(GaNi3)2,https://materialsproject.org/materials/mp-1191116,25.485100948105785,79.84473292779153,-8.604250342815693,-0.5045126942092143
-8.57722649,-34.30890596,10.237694434344057,-0.44642097500000055,3e-07,6.744016086694764e-08,0.3242000000000003,225,4,51.84180148480935,319.6194186,mp-867249,TaAlFe2,https://materialsproject.org/materials/mp-867249,47.99274970209136,70.32805627233917,-8.604250342815693,-0.5045126942092143
-8.242281367142857,-173.08790871,8.130903389598688,-0.13723573100619188,37.2649768,1.635298017218051,0.0,2,21,265.57144251537744,1300.3824,mp-1225785,Dy2Fe17CN,https://materialsproject.org/materials/mp-1225785,60.638423004496104,75.24906343861103,-8.604250342815693,-0.5045126942092143
-8.102782011339285,-907.51158527,7.646623393852682,-0.0977148350892857,50.96329420000001,0.4259172854612846,0.0,220,112,1394.4715368538455,6421.4079999999985,mp-568158,Nd2Fe23B3,https://materialsproject.org/materials/mp-568158,57.105582231989146,77.98987372447185,-8.604250342815693,-0.5045126942092143
-7.54789282875,-120.76628526,11.870168402663676,-0.16719724124999935,0.4104339,0.018010918733965188,0.0,62,16,265.5735293743807,1898.4212,mp-1208040,UCo2Sn,https://materialsproject.org/materials/mp-1208040,26.339775100027584,65.30366750462991,-8.604250342815693,-0.5045126942092143
-7.311994695,-29.24797878,7.681329132631914,-0.3501302591666677,0.0878703,0.02066049143121824,0.0,225,4,49.56543125769537,229.28,mp-636320,TiGaFe2,https://materialsproject.org/materials/mp-636320,48.04420111420312,70.6947019769066,-8.604250342815693,-0.5045126942092143
-8.809135149166666,-105.70962179,13.204390818175902,0.10630339411458324,1.0037378666666668,0.07368353580449534,0.001200000000000756,166,12,158.75495095460062,1262.3987550000002,mp-22452,PuCo3,https://materialsproject.org/materials/mp-22452,44.170686874936116,73.87678017648327,-8.604250342815693,-0.5045126942092143
-7.155528785,-14.31105757,10.321732049079916,0.0729373450000006,2.3779058999999996,1.0643714439118024,0.0,166,2,26.03627665902336,161.838695,mp-1226026,CoRh,https://materialsproject.org/materials/mp-1226026,49.670284684686095,77.50560201718488,-8.604250342815693,-0.5045126942092143
-6.023759989491526,-355.40183938,9.823266461611473,-0.28019033694915274,24.9753883,0.2955520686473748,0.0,6,59,984.8173091804707,5825.893045000001,mp-1224665,Lu12Co31Sn16,https://materialsproject.org/materials/mp-1224665,26.161621607606307,72.83123806928735,-8.604250342815693,-0.5045126942092143
-6.599852356666666,-19.79955707,9.579003892691725,-0.4076182038888885,1.18e-05,2.5136573972042875e-06,0.0,216,3,54.708316443264344,315.591,mp-961671,TiGePt,https://materialsproject.org/materials/mp-961671,30.628311656660472,53.32951626743081,-8.604250342815693,-0.5045126942092143
-8.014507002,-40.07253501,8.45170073543247,0.13275086000000014,0.0032751,0.0006857301240388144,0.0,166,5,55.66071286442392,283.29818,mp-1221725,Mn4Cu,https://materialsproject.org/materials/mp-1221725,56.8440812860021,67.65579096209218,-8.604250342815693,-0.5045126942092143
-6.5539793133333335,-39.32387588,8.461100422685666,-0.1568917850000003,3.8353471,0.4445069010465876,0.0,166,6,100.55498221379551,512.3672386000002,mp-1217696,Tb2AlFe3,https://materialsproject.org/materials/mp-1217696,42.28504681979628,70.70840287107814,-8.604250342815693,-0.5045126942092143
-8.552769493103451,-248.03031529999998,6.795935200339465,0.049542157931034767,1.8335983,0.04866662591014497,0.008799999999999919,225,29,439.08680652136223,1797.0101350000002,mp-1355,Y6Mn23,https://materialsproject.org/materials/mp-1355,56.04576666109571,68.20796901303021,-8.604250342815693,-0.5045126942092143
-7.12408166575,-284.96326663,7.825246576675865,-0.07269395116666715,25.996135600000002,0.40955949453989104,0.0,140,40,739.7231712550046,3485.9260000000004,mp-1201769,Sm6InFe13,https://materialsproject.org/materials/mp-1201769,53.76061142818956,81.07577979049906,-8.604250342815693,-0.5045126942092143
-6.5365935475,-52.29274838,9.408423080859158,-0.5517514849999996,0.0,0.0,0.0,62,8,123.9315679327213,702.182,mp-22239,GeRh,https://materialsproject.org/materials/mp-22239,35.024838910467835,52.32415195174518,-8.604250342815693,-0.5045126942092143
-6.633757341818183,-72.97133076,7.3902707937452705,-0.1648534609090911,11.265889199999998,0.9237296561607338,0.0,166,11,142.13401245876528,632.5709999999998,mp-624492,Li(Fe3Ge2)2,https://materialsproject.org/materials/mp-624492,49.005512907706034,66.74005179110335,-8.604250342815693,-0.5045126942092143
-5.909229981111111,-106.36613966,9.676559673071703,-0.3915985188888887,0.51610465,0.023815820894750782,0.0,166,18,252.5513206998021,1471.7076,mp-865205,Dy2Ni7,https://materialsproject.org/materials/mp-865205,28.822374903414026,81.60286492354103,-8.604250342815693,-0.5045126942092143
-8.241502786666667,-173.07155852,8.061550427810582,-0.13435993243476355,37.273829600000006,1.630700167277939,0.0,2,21,266.3835039674184,1293.2331,mp-1217736,Tb2Fe17CN,https://materialsproject.org/materials/mp-1217736,60.63018049476091,75.25605896472133,-8.604250342815693,-0.5045126942092143
-6.183302022244897,-302.98179909,7.602989600373603,-0.14219867295918334,23.8705873,0.2833724013139203,0.0,139,49,981.7094722822436,4494.881920000001,mp-1202244,La18In3Co28,https://materialsproject.org/materials/mp-1202244,42.53002989388005,81.1634511924327,-8.604250342815693,-0.5045126942092143
-6.193728597222222,-222.97422949999998,8.991707914923136,-0.38079061722222224,0.000522225,1.1921646108125028e-05,0.0,194,36,510.50366037137513,2764.3432000000007,mp-1204381,Ce2Ni7,https://materialsproject.org/materials/mp-1204381,28.405442458118873,81.31866865934145,-8.604250342815693,-0.5045126942092143
-6.807566595,-149.76646509,8.173901430752952,-0.09186511818181874,9.17164325,0.3767484788638107,0.0,12,22,283.70897429674295,1396.54,mp-636946,Fe6Ge5,https://materialsproject.org/materials/mp-636946,49.08288813690464,66.72431835044937,-8.604250342815693,-0.5045126942092143
-7.217891216190476,-151.57571554,8.221294001794606,-0.08896042369047748,24.1160762,1.0240772474235,0.0,1,21,274.4424942570361,1358.7590400000001,mp-1224299,Ho2Ga4Fe13C2,https://materialsproject.org/materials/mp-1224299,55.92307772101988,74.457270028244,-8.604250342815693,-0.5045126942092143
-7.0130309997500015,-280.52123999,7.458203355377479,-0.0209709212500016,26.55702965,0.41949802147267895,0.0,140,40,737.7802227085001,3313.692,mp-1196648,Nd6ZnFe13,https://materialsproject.org/materials/mp-1196648,53.765611802622566,80.9637741375565,-8.604250342815693,-0.5045126942092143
-8.07074872375,-129.13197958,7.4017767711782625,-0.29599171812500114,15.1067807,1.0078673656149186,0.0,166,16,174.68112054133232,778.6330999999999,mp-1226343,CrFe11Si4,https://materialsproject.org/materials/mp-1226343,49.32696284595851,67.78400573297495,-8.604250342815693,-0.5045126942092143
-6.489922107246377,-447.80462539999996,6.1370029824906345,-0.7226853187681163,6.666666666666667e-08,8.856247545378732e-10,0.0,71,69,877.2763492924187,3242.228844,mp-567443,Sc4Si7Ni12,https://materialsproject.org/materials/mp-567443,36.910336201501295,71.87763762907137,-8.604250342815693,-0.5045126942092143
-6.307314348888888,-227.06331656,7.720419509792738,-0.3759183866666665,1.298170775,0.029872563247987267,0.0,194,36,506.45022230267983,2354.6620000000003,mp-1201276,Y2Ni7,https://materialsproject.org/materials/mp-1201276,29.443374758864607,81.4022140958437,-8.604250342815693,-0.5045126942092143
-5.9098195816666665,-35.45891749,9.82004710483074,-0.3402943783333328,1.5564171999999998,0.2289915833336145,0.0018000000000002456,191,6,79.21071420122959,468.434,mp-11491,LuNi5,https://materialsproject.org/materials/mp-11491,29.935467329350203,80.91888331764852,-8.604250342815693,-0.5045126942092143
-6.072808700666668,-182.18426102,9.408912168159238,-0.2960267103333337,5.4508515,0.12488464305344575,0.0,186,30,508.6660368594569,2882.19304,mp-1212440,Ho3(Co2Sn)4,https://materialsproject.org/materials/mp-1212440,25.92684125218272,72.82360593498478,-8.604250342815693,-0.5045126942092143
-7.867321028333333,-47.20392617,8.548118678643805,-0.04988798666666838,9.8838229,1.3423688193112733,0.0,191,6,85.80854279393006,441.725,mp-568006,DyFe5,https://materialsproject.org/materials/mp-568006,51.465293254540995,70.32603778268488,-8.604250342815693,-0.5045126942092143
-6.583309665000002,-39.49985799,7.570291795547192,-0.2432695083333343,3.8866882000000005,0.5441027224321043,0.0,187,6,83.24846424416789,379.52445,mp-1215961,YFeNi4,https://materialsproject.org/materials/mp-1215961,29.945035559020273,80.96861787960873,-8.604250342815693,-0.5045126942092143
-8.956776418333334,-53.74065851,9.77580334564446,-0.4101359150000003,7.031688099999999,0.8783177641222514,0.0,227,6,93.3007983275072,549.2736,mp-543019,GdNi2,https://materialsproject.org/materials/mp-543019,28.31120654921423,81.78911591535987,-8.604250342815693,-0.5045126942092143
-6.077194132307692,-158.00704744,8.602708481440763,-0.4434523607692317,5e-08,1.873619505347338e-09,0.0,129,26,311.0040416236813,1611.21,mp-542389,Dy(SiNi5)2,https://materialsproject.org/materials/mp-542389,27.17113177205326,77.8203135793933,-8.604250342815693,-0.5045126942092143
-8.308222099999998,-49.8493326,8.158617293387412,-0.14309375666666568,10.781335400000001,1.2810638499444138,0.0,216,6,98.0797179560899,481.88863,mp-1224937,GdYCo4,https://materialsproject.org/materials/mp-1224937,42.65122211130503,74.39296281619791,-8.604250342815693,-0.5045126942092143
-7.429780735,-29.71912294,13.326437956527233,0.11867174250000012,0.0831924,0.021085319524776,0.0,221,4,45.98126279497274,369.016585,mp-1183698,Co3Ir,https://materialsproject.org/materials/mp-1183698,47.59226538580735,79.22987936802875,-8.604250342815693,-0.5045126942092143