energy_per_atom,energy,density,formation_energy_per_atom,total_magnetization_uB,total_magnetization_T,band_gap,sgr,num_sites,cell_volume,weight,mp_id,formula,URL,tsne_cry_lin1_0,tsne_cry_lin1_1,tsne_cry_lin2_0,tsne_cry_lin2_1
-3.650473531,-36.50473531,5.038348172491832,-0.550610008296875,3.9993735,0.19854416027735772,0.0,160,10,234.75360722545562,712.2810000000001,mp-1215532,Zn4FeSe5,https://materialsproject.org/materials/mp-1215532,26.141348104374266,14.048503844649177,-8.604250342815693,-0.5045126942092143
-5.4817321885000005,-109.63464377,3.0647745740481067,-0.5885964819519998,3.0002054,0.10231870558464796,0.0,59,20,341.7223455163558,630.6999900000001,mp-1246025,Ca5CoN4,https://materialsproject.org/materials/mp-1246025,6.961333142126031,7.763339195772607,-8.604250342815693,-0.5045126942092143
-2.354571378333333,-14.12742827,5.218440625848709,-0.3199729805555555,4.5e-07,3.862321036226552e-08,0.0,12,6,135.78180318163086,426.71040000000005,mp-1227020,CaZnAg,https://materialsproject.org/materials/mp-1227020,-12.4710928605454,49.385436695045996,-8.604250342815693,-0.5045126942092143
-4.676125386,-46.76125386,4.062461819538823,-0.3523398362254461,3.8789830999999997,0.2158333209493432,0.0,1,10,209.44829139553653,512.409324,mp-1220140,Ni2P2(SeS)3,https://materialsproject.org/materials/mp-1220140,17.371357845943383,5.422940647067209,-8.604250342815693,-0.5045126942092143
-5.8715517125,-23.48620685,8.540020053748567,-0.6179117356249995,1.6e-06,2.5204607748339826e-07,0.0,225,4,73.98053491756369,380.476,mp-867240,SmMgRh2,https://materialsproject.org/materials/mp-867240,38.42728401818341,56.10403100929086,-8.604250342815693,-0.5045126942092143
-6.668630268333334,-40.01178161,8.790600821455076,-0.1383113250000001,4.6008973,0.6372487567135977,0.006399999999999295,191,6,84.14163947940563,445.431,mp-22311,EuNi5,https://materialsproject.org/materials/mp-22311,29.440633375964232,74.9221436532217,-8.604250342815693,-0.5045126942092143
-6.303758770294117,-214.32779819,6.618601379749102,-2.657245894558823,1.405e-05,3.062775430528294e-07,1.1901000000000002,64,34,534.6118700783114,2130.864,mp-768510,Ba4Sn3O10,https://materialsproject.org/materials/mp-768510,2.3130026404025905,-27.308610475644027,5.791972523414347,-0.0350379373006878
-7.269628225,-29.078512899999996,4.30339612125187,-2.4641874432812507,6.999659599999999,0.8252488400436768,0.0,123,4,98.84835022603836,256.172,mp-1227176,CaEuS2,https://materialsproject.org/materials/mp-1227176,-9.595767500805822,11.717878490296904,-8.604250342815693,-0.5045126942092143
-8.115991900000001,-48.6959514,8.392013874929798,-0.6854894133333337,0.0003173,3.7413791199297447e-05,0.0,191,6,98.83614126767851,499.497,mp-30043,CeSi2Ru3,https://materialsproject.org/materials/mp-30043,15.203554002226241,65.66219863181841,-8.604250342815693,-0.5045126942092143
-3.8977143566666665,-35.07942921,2.364226545465351,-1.79737838284,3.0000004000000002,0.1439287778033604,1.0976,225,9,242.9131929896003,345.852645,mp-27304,K2MnCl6,https://materialsproject.org/materials/mp-27304,22.108842614333266,-2.3475621581760717,7.276334644229356,-4.397879248666961
-5.921090344,-29.60545172,7.412748550639378,-0.7482979620000002,0.0,0.0,0.0,139,5,109.41112480724371,488.418,mp-10698,Ba(GeRh)2,https://materialsproject.org/materials/mp-10698,7.831560235828906,35.60907817870186,-8.604250342815693,-0.5045126942092143
-4.724412056999999,-94.48824114,3.795321732526015,-1.6966058813000005,0.0,0.0,2.4072,19,20,344.2223747120796,786.7533542399998,mp-781712,Na2SnO2,https://materialsproject.org/materials/mp-781712,15.867950767204974,-21.66025062108201,7.3449493087417315,-1.1144015940445162
-7.470117349000001,-149.40234698,5.546983981575061,-2.759990787442,6.99999835,0.35220981264331336,0.0,31,20,231.61885685827363,773.71628,mp-40630,CaPrMn2O6,https://materialsproject.org/materials/mp-40630,-32.39196066093452,6.402343931608553,-8.604250342815693,-0.5045126942092143
-5.8072959258333325,-209.06265333,8.871959438874072,-0.9682168383333334,3.058333333333333e-05,4.817275606850524e-07,0.0,62,36,739.8790866783595,3953.04,mp-1208689,SmGePd,https://materialsproject.org/materials/mp-1208689,6.7857900166148095,64.05392036840433,-8.604250342815693,-0.5045126942092143
-6.742617067115384,-350.61608749,3.8809091302119665,-2.6421610155219777,2.99999975,0.04902393449820097,0.29849999999999977,15,52,713.1657579512695,1666.766896,mp-560776,Sr3Cu3(PO4)4,https://materialsproject.org/materials/mp-560776,-56.969333452332656,-15.009936213861373,3.6923724801231628,0.2553900863138195
-4.065290321666667,-24.39174193,7.476760740668796,-0.4177805841666669,0.0,0.0,0.0,156,6,154.68448340797215,696.4839999999999,mp-1220595,Nd2In3Cu,https://materialsproject.org/materials/mp-1220595,-6.580283136878138,53.78592671467825,-8.604250342815693,-0.5045126942092143
-5.637683757894738,-107.11599140000001,3.176399695603872,-0.6388177641599997,5.999999900000001,0.30228224544080795,0.0,12,19,231.3215166440996,442.4886,mp-1245778,Mg9(FeN4)2,https://materialsproject.org/materials/mp-1245778,-0.865271211020692,8.227261312041195,-8.604250342815693,-0.5045126942092143
-7.462878635454545,-164.18332998,7.758928410098415,-0.050763820948182055,37.4552726,1.6436743279545198,0.0,166,22,265.5673119245544,1240.8728199999996,mp-1190611,Nd2Fe17H3,https://materialsproject.org/materials/mp-1190611,61.691082810401646,74.83388331099948,-8.604250342815693,-0.5045126942092143
-4.2789317275,-17.11572691,9.439590810858652,-0.3520738624999997,6e-06,1.0867993237286301e-06,0.0,225,4,64.33974249768491,365.74921,mp-1187604,TmGaCu2,https://materialsproject.org/materials/mp-1187604,33.0027615263198,67.58877302136953,-8.604250342815693,-0.5045126942092143
-7.477906345,-89.73487614,7.620904504445731,-0.5806950299999999,6.953816675,0.3282127996638446,0.0,14,12,246.9136792652725,1133.1896,mp-5887,EuNiGe,https://materialsproject.org/materials/mp-5887,20.954314330927602,72.91544905849472,-8.604250342815693,-0.5045126942092143
-3.4807709375,-27.8461675,3.5531516987101384,-0.1808125399999998,0.0,0.0,0.0,63,8,132.55151008478495,283.6281544,mp-3034,MgAl2Cu,https://materialsproject.org/materials/mp-3034,3.1989619571034438,39.90936044818589,-8.604250342815693,-0.5045126942092143
-4.3836423625,-17.53456945,7.334934081854018,-0.5545803949999999,8e-07,1.6519820587552912e-07,0.0,225,4,56.43676194081967,249.2925,mp-4913,LiGa2Rh,https://materialsproject.org/materials/mp-4913,31.49272794860505,37.00648824837861,-8.604250342815693,-0.5045126942092143
-7.591311894545455,-167.00886168,7.762392062244268,-0.07290365663,35.2620779,1.5584838735990003,0.0,166,22,263.68353681623194,1232.62082,mp-1190701,Ce2Fe17H3,https://materialsproject.org/materials/mp-1190701,61.68668239509082,74.82554127094295,-8.604250342815693,-0.5045126942092143
-4.8709080238461535,-63.32180431,3.725504181618002,-0.807010408269231,0.0004038,1.9869245127564184e-05,0.0,166,13,236.84399306298718,531.3716,mvc-11277,Ca(NiS2)4,https://materialsproject.org/materials/mvc-11277,16.702713892783226,10.196961005227278,-8.604250342815693,-0.5045126942092143
-7.339205344,-36.69602672,8.562296294278541,-0.7883426915000001,3e-07,3.672457982566694e-08,0.0,139,5,95.2010737322143,490.88867,mp-569188,La(AsRu)2,https://materialsproject.org/materials/mp-569188,12.292361021357314,35.2817094720791,-8.604250342815693,-0.5045126942092143
-7.407084815714287,-103.69918742,6.676229653250362,-3.1553024885714285,0.0,0.0,0.029200000000000337,12,14,187.56383918783143,754.1040800000002,mp-1222453,LiLa4CuO8,https://materialsproject.org/materials/mp-1222453,-42.2163450036473,-4.479159695060325,-6.431147563230224,-3.3396166746315363
-4.5423029625,-36.3384237,6.591509895666331,-0.994217721875,5e-08,2.194360760271367e-09,0.0,63,8,265.5457795170948,1054.0839999999996,mp-740,NdTe3,https://materialsproject.org/materials/mp-740,-9.996255933107726,23.987557565650302,-8.604250342815693,-0.5045126942092143
-5.516714473846153,-358.58644080000005,10.752767009367282,-0.15635916446153802,0.0003069,4.035114043671329e-06,0.0,174,65,886.3770490720476,5739.706,mp-1224756,Hf14Cu51,https://materialsproject.org/materials/mp-1224756,24.51463066002621,40.812247233255356,-8.604250342815693,-0.5045126942092143
-8.829574161875,-282.54637318,5.9006833890355725,-0.6677215699107144,0.0,0.0,0.0,86,32,413.78826066454246,1470.3860960000002,mp-18350,V3P,https://materialsproject.org/materials/mp-18350,53.29862592214591,50.836427105163644,-8.604250342815693,-0.5045126942092143
-3.9307938841666665,-47.16952661,8.433298170746124,-0.22921284499999986,6.97e-05,2.652734748152708e-06,0.0,191,12,306.20789176643694,1555.1229999999998,mp-1095357,BaIn9Ir2,https://materialsproject.org/materials/mp-1095357,7.000384928201037,50.9048995010566,-8.604250342815693,-0.5045126942092143
-4.778855802727271,-52.56741383,7.947756519958824,-0.530669841136363,0.0001766,8.479122489373509e-06,0.0,71,11,242.72651343501323,1161.75,mp-864792,Nd3(CuSn)4,https://materialsproject.org/materials/mp-864792,-5.462657947079983,54.04163867463159,-8.604250342815693,-0.5045126942092143
-6.588577644210527,-250.36595048,8.119548047286518,-0.02160049315789455,20.2743705,0.4840050599987546,0.0,194,38,488.1742910507618,2387.0288600000003,mp-1199930,Y2Co14Cu3,https://materialsproject.org/materials/mp-1199930,40.184495616958216,75.8071347203612,-8.604250342815693,-0.5045126942092143
-6.751576788947369,-256.55991798,6.657560270783672,-0.6471444647368423,7.25e-06,1.3783773609723418e-07,0.0,64,38,612.9814083819183,2457.612,mp-1202318,Dy3(Si3Ru)4,https://materialsproject.org/materials/mp-1202318,9.965995146328474,60.07776678952549,-8.604250342815693,-0.5045126942092143
-5.1908223875,-20.76328955,10.449589860768436,-0.07887143083333381,2.7000000000000004e-06,4.1867776746039855e-07,0.0,225,4,75.15559060318972,472.94588,mp-862823,PaInCu2,https://materialsproject.org/materials/mp-862823,-9.394167177427667,54.49128213380521,-8.604250342815693,-0.5045126942092143
-5.986857575416668,-143.68458181,4.64480277992653,-1.964042508680556,4e-07,2.036881912183236e-08,0.0,5,24,228.86088197559292,640.1618,mp-770793,Li5Ti2Cu5O12,https://materialsproject.org/materials/mp-770793,-57.56273176674464,-5.3540078530955695,-4.562744008734119,-0.6043767773154362
-5.79560980974359,-226.02878258,4.895983447297882,-1.6452188284615392,0.9999995,0.02212580425557732,0.3786000000000001,2,39,526.7179810012842,1552.9912,mp-560007,Ba2Cu7(AsO4)6,https://materialsproject.org/materials/mp-560007,-57.00492261506293,-7.863974079620914,-8.604250342815693,-0.5045126942092143
-7.434945109411764,-126.39406686,9.325080415965212,-0.6464457776470579,1.2e-06,5.967620049005374e-08,0.0,191,17,234.34598067955918,1316.0155,mp-1225361,Dy2(B2Rh3)3,https://materialsproject.org/materials/mp-1225361,14.908665415228574,40.40869541202522,-8.604250342815693,-0.5045126942092143
-6.186879370588236,-105.1769493,6.4297669208276735,-1.8761479059047068,11.1407368,0.4986300070103839,0.0,1,17,260.3831828326682,1008.2287349999999,mvc-3169,Ba2Mn3Tl2O10,https://materialsproject.org/materials/mvc-3169,-51.541695695159206,-2.621954817486101,-8.604250342815693,-0.5045126942092143
-7.760597951666668,-93.12717542,3.9776678320005687,-3.0487354320833333,0.0,0.0,1.5117,119,12,171.19099082142532,410.0722,mp-1227255,CaCeV2O8,https://materialsproject.org/materials/mp-1227255,-3.7907494431445063,-13.714488110863293,6.0755669563492285,-0.49850808529088403
-4.4296731970000005,-44.29673197,6.39706361638741,-0.09536000499999986,0.9277939000000001,0.04825250981568093,0.004700000000000593,127,10,224.0830631917086,863.258,mp-22810,Ce2MgCu2,https://materialsproject.org/materials/mp-22810,-8.659621263932749,52.90897025416192,-8.604250342815693,-0.5045126942092143
-6.573852324285713,-46.01696627,7.304551370097957,-2.4936393949999998,0.9999995,0.13772287971213742,0.0,160,7,84.61962870574688,372.2336,mp-1222317,LuGaCuO4,https://materialsproject.org/materials/mp-1222317,-50.137167218552534,-5.5966998647118045,-8.604250342815693,-0.5045126942092143
-5.683895342727273,-62.52284877,4.518271114099506,-2.4631364328654546,7.0000117,0.4330819705325236,0.30489999999999995,107,11,188.3675500510112,512.5417950000002,mp-1218403,Sr3FeCo(ClO2)2,https://materialsproject.org/materials/mp-1218403,-26.94702661086191,-14.899893816338196,-8.604250342815693,-0.5045126942092143
-4.933788668181818,-217.0867014,2.1858096064415578,-0.7849424840472726,6.855e-05,9.726218404129102e-07,0.0,130,44,821.3738443502493,1081.1952,mp-1246584,Li2Ca5N4,https://materialsproject.org/materials/mp-1246584,24.7584333658514,-9.257502978538831,5.069686159884301,-4.4080529446230585
-7.106829123333332,-149.24341159,8.344923597543719,-0.8057188897619036,4.9937325999999995,0.23238681841398726,0.0,174,21,250.43280670750846,1258.5326739999996,mp-7788,Er2Co12P7,https://materialsproject.org/materials/mp-7788,11.775523981705794,26.48263081759098,-8.604250342815693,-0.5045126942092143
-3.4894015775,-13.95760631,13.556033301326089,-0.5900525518749999,7.2999999999999996e-06,9.391437174344141e-07,0.0,225,4,90.58749077520932,739.523138,mp-862912,PmHgAu2,https://materialsproject.org/materials/mp-862912,9.8002951819408,34.34945261598083,-8.604250342815693,-0.5045126942092143
-3.19438257,-28.74944313,2.6480312761880263,-1.5363918528400002,0.0,0.0,1.2004,225,9,249.1623196356593,397.3346,mp-23067,K2PdCl6,https://materialsproject.org/materials/mp-23067,7.4457134307733215,-8.048052421322051,7.2274400690583125,-4.674633349894681
-7.4709493325,-478.14075728,6.490888212696433,-2.8801939655468747,9.003540525,0.11699720029604968,0.5617999999999999,62,64,896.840644008632,3505.66426,mp-622353,La4(CoO3)3,https://materialsproject.org/materials/mp-622353,-32.647993826203326,-18.812248831415253,2.4117823973885257,-4.756236076830358
-5.66024921375,-316.97395597,4.5978829036530735,-0.7557880776271426,1.88385875,0.020201005866144785,0.0,60,56,1086.8078570110933,3009.27298,mp-1245614,Sr7MnN6,https://materialsproject.org/materials/mp-1245614,5.861695307495054,6.902128996083107,-8.604250342815693,-0.5045126942092143
-4.7098274875,-37.678619899999994,7.455681139979235,-0.4843853337499997,2.45e-06,1.4506199554506034e-07,0.0,63,8,196.82935275698756,883.7473,mp-1095168,PrCuSn2,https://materialsproject.org/materials/mp-1095168,-0.810223075822747,45.63163235870142,-8.604250342815693,-0.5045126942092143
-8.048355563,-80.48355563,6.105897510898617,-2.84075300925,3.9999998999999997,0.3236872602390109,0.15680000000000005,12,10,144.0163505057654,529.5563999999998,mp-1080787,Sr2GdRuO6,https://materialsproject.org/materials/mp-1080787,-26.63826647325564,-3.040724567548643,2.5857570211491794,0.022780095011857317
-7.901377560833333,-94.81653073,9.743662586699427,-0.9113087725,6.952900725,0.28322400438640905,0.06050000000000023,198,12,286.0970615180512,1678.7520000000002,mp-19798,EuGePt,https://materialsproject.org/materials/mp-19798,5.0034491016916665,48.39553869385075,-8.604250342815693,-0.5045126942092143
-6.387802253666665,-191.63406761,4.770446566178571,-2.2294447654523797,0.0,0.0,1.8755999999999995,43,30,365.3334881984874,1049.541048,mvc-8644,ZnSn2(PO5)2,https://materialsproject.org/materials/mvc-8644,-0.24559514921703865,-28.91057955830349,7.28175029862721,-1.2158499482733325
-7.30423659125,-116.86778546,3.146803183403138,-0.5842241510649995,0.998113625,0.05350369392307452,0.0,122,16,217.40706076945827,411.99707712,mp-1029407,NaCrN2,https://materialsproject.org/materials/mp-1029407,-1.9712991610422943,9.590737915231172,-8.604250342815693,-0.5045126942092143
-1.5029721675,-6.01188867,6.896621276221062,-0.16611149974999995,5.539999999999999e-05,5.9462526012578974e-06,0.0,216,4,108.5785000561911,450.95283856,mp-1221252,Na2TlHg,https://materialsproject.org/materials/mp-1221252,-36.05034597198507,46.432865066015175,-8.604250342815693,-0.5045126942092143
-4.34523263875,-34.76186111,2.554865184575738,-0.4831131437412064,0.0,0.0,1.9001,11,8,131.92769559182912,202.98076,mp-697144,RbH2N,https://materialsproject.org/materials/mp-697144,26.705930567877502,-16.3934705692767,9.029152525012679,-1.009902198214274
-3.977063208,-39.77063208,8.64922808243579,-0.3034135530000001,1.5e-07,8.168382413184252e-09,0.0,127,10,214.0092894111325,1114.7074,mp-1208521,Tb2CdCu2,https://materialsproject.org/materials/mp-1208521,-16.67071893341705,55.597543123614855,-8.604250342815693,-0.5045126942092143
-6.63752382,-26.55009528,9.8313441207563,-0.7104951525000001,1.5399999999999998e-05,2.2991916997008046e-06,0.0,225,4,78.05899678603319,462.15406,mp-1187456,ThMgRh2,https://materialsproject.org/materials/mp-1187456,38.393203289093506,56.34943796263342,-8.604250342815693,-0.5045126942092143
-7.475302979090909,-164.45666554,7.939994092763401,-0.06761966140272788,36.7520976,1.6343379328244747,0.0,166,22,262.07023489788605,1253.10882,mp-1190514,Sm2Fe17H3,https://materialsproject.org/materials/mp-1190514,61.702400075992976,74.80808563185342,-8.604250342815693,-0.5045126942092143
-6.801803096176472,-462.52261054,2.8080498214886718,-2.470508868591682,2.00003105,0.02657241685918498,0.0,198,68,877.1686643088997,1483.33357536,mp-1204704,Na3VP3NO9,https://materialsproject.org/materials/mp-1204704,-14.54081727657366,-50.022804014915245,8.18335556257858,-0.4558071092431791
-6.592244872,-32.96122436,7.107609202997133,-2.3482261547500016,1.0000008,0.20310894211798788,0.0,221,5,57.37843924686265,245.59707000000003,mp-1075921,LaNiO3,https://materialsproject.org/materials/mp-1075921,-29.427259543764947,11.175907580029234,-8.604250342815693,-0.5045126942092143
-3.8536318066666655,-11.56089542,3.603144738155111,0.03981353516666708,0.0,0.0,0.4806999999999997,216,3,86.02181381199186,186.65568128,mp-1100440,NaScSn,https://materialsproject.org/materials/mp-1100440,-35.419880138018385,49.90191551864722,-8.604250342815693,-0.5045126942092143
-8.129205993333334,-48.77523596,12.771526933061073,-0.8997996216666664,0.4227902,0.049028816909799273,0.0,191,6,100.49649749999728,772.9380000000001,mp-571044,CeSi2Ir3,https://materialsproject.org/materials/mp-571044,11.662046879676462,66.52914737899387,-8.604250342815693,-0.5045126942092143
-7.1013901675,-255.65004603,8.491527146758047,-0.850553165992063,1.1271958999999998,0.030176691572717417,0.0,62,36,435.316575321341,2226.085884,mp-1195792,TmCo5P3,https://materialsproject.org/materials/mp-1195792,11.779028744854806,26.544328868227144,-8.604250342815693,-0.5045126942092143
-6.312960355,-25.25184142,0.5698107685719868,3.886157210625,9.5797089,0.11229948524872783,0.0,71,4,994.1501314595853,341.1407,mp-1097336,VCr2Re,https://materialsproject.org/materials/mp-1097336,-57.32361214502408,36.02625041665354,-8.604250342815693,-0.5045126942092143
-5.655706015833332,-203.60541657,4.747790373895579,-0.5564793368911106,0.9679753000000001,0.015829045584210652,0.0,62,36,712.6675316224027,2037.6492,mp-1246313,Sr4RhN4,https://materialsproject.org/materials/mp-1246313,7.368150292991443,6.4312384594272105,-8.604250342815693,-0.5045126942092143
-6.645818595,-26.58327438,12.727896171000845,-0.7015921550000002,6.8e-06,1.0375764040451985e-06,0.0,225,4,76.377643269877,585.4284,mp-862992,Er2NiIr,https://materialsproject.org/materials/mp-862992,15.373687793437645,48.058015996713465,-8.604250342815693,-0.5045126942092143
-3.5816045722222225,-32.23444115,2.76668705131698,-0.4774073316088889,0.0,0.0,0.0,87,9,80.84640467765131,134.70126000000002,mp-27797,Li4H4Rh,https://materialsproject.org/materials/mp-27797,-5.630674873185961,1.006538625126399,-4.980968671633347,-3.5500072560575706
-4.0676789575,-48.81214749,3.4750177334271646,-0.9104511388541668,0.0,0.0,0.7014999999999998,62,12,196.01810717913474,410.208,mp-753508,LiCuS,https://materialsproject.org/materials/mp-753508,17.131017134275993,-2.1090412737032818,3.8838999367984575,-4.952322509319524
-6.266579007916667,-150.39789619,4.4373362194688895,-2.408429196354168,0.9999995999999999,0.031389523245611554,0.0,113,24,371.27228788233003,992.1236,mp-17265,Sr2CuGe2O7,https://materialsproject.org/materials/mp-17265,-49.15003367743333,-7.055581067366643,-6.048851416138395,0.5001354575018556