energy_per_atom,energy,density,formation_energy_per_atom,total_magnetization_uB,total_magnetization_T,band_gap,sgr,num_sites,cell_volume,weight,mp_id,formula,URL,tsne_cry_lin1_0,tsne_cry_lin1_1,tsne_cry_lin2_0,tsne_cry_lin2_1
-8.777888316029411,-1193.79281098,10.215163357858287,-0.2538884151470597,2.215e-05,7.272734433862416e-08,0.0,183,136,3549.387607366616,21834.82192,mp-680343,Ta21Te13,https://materialsproject.org/materials/mp-680343,57.95180433628089,32.961888687731516,-8.604250342815693,-0.5045126942092143
-6.7122027075,-26.84881083,15.790066299213677,-0.8770245987500003,3.7000000000000006e-06,6.466642671170982e-07,0.0,225,4,66.68072112706155,634.067,mp-983430,HfZnPt2,https://materialsproject.org/materials/mp-983430,31.42869249157745,43.137452619775075,-8.604250342815693,-0.5045126942092143
-7.3624699783333325,-88.34963974,8.820733440108171,-0.2918664927777783,5.4545976,0.41908647137967664,0.0,35,12,151.6828580253983,805.7347799999999,mp-1225817,DyFe2Co2B,https://materialsproject.org/materials/mp-1225817,42.3987798593533,83.43838134644002,-8.604250342815693,-0.5045126942092143
-6.13314477,-24.53257908,7.208377883786201,-1.740634927148438,2.8999999999999997e-05,3.227252311540629e-06,0.0,166,4,104.72310367418768,454.6016,mp-1219144,Sm2AsSe,https://materialsproject.org/materials/mp-1219144,14.615966071882292,32.66734095916222,-8.604250342815693,-0.5045126942092143
-5.83941731375,-46.71533851,13.212565725056189,-0.9661721070833336,5e-08,3.4917682615722933e-09,0.0,194,8,166.87912684262776,1327.8227000000004,mp-1092248,TbInPt2,https://materialsproject.org/materials/mp-1092248,22.80371035918669,51.699413332856636,-8.604250342815693,-0.5045126942092143
-3.34565749,-13.38262996,0.6508721775601308,1.7204485162500005,2.11616,0.022054459450738084,0.0,71,4,1118.2258066304396,438.3047,mp-1093968,Y2ZnPt,https://materialsproject.org/materials/mp-1093968,-70.95335649756862,42.920435153058314,-8.604250342815693,-0.5045126942092143
-4.8651568425,-19.46062737,0.7519983957748521,2.6624003699999994,1.9678956000000003,0.02860464789022736,0.0,71,4,801.7572135845273,363.087,mp-1093686,ZrGaRu2,https://materialsproject.org/materials/mp-1093686,-62.78003022352566,39.280909708945224,-8.604250342815693,-0.5045126942092143
-8.134512499444446,-146.42122499,13.714471588393705,-0.22193435777777876,1.6063011999999999,0.07246882680509005,0.0,2,18,258.317114466182,2133.45344,mp-1217393,U3(CoNi2)2,https://materialsproject.org/materials/mp-1217393,44.308199293520985,73.50993885723476,-8.604250342815693,-0.5045126942092143
-10.4610702675,-836.8856214,15.89123112063799,-0.029270293374999312,0.000331,3.573992302885949e-06,0.0,12,80,1079.3239360371272,10329.0472,mp-1220975,Ni3W6C,https://materialsproject.org/materials/mp-1220975,57.408007995095275,48.118578571599464,-8.604250342815693,-0.5045126942092143
-13.03167480125,-208.50679682,17.85564462160198,0.1319412663281252,19.54195075,0.6837878522406482,0.0,140,16,333.0611374220801,3581.38,mp-30823,Pu5Os3,https://materialsproject.org/materials/mp-30823,27.675514489157592,61.176266950496064,-8.604250342815693,-0.5045126942092143
-7.364211595,-14.72842319,12.383018805802045,-0.4682676250000011,2e-07,6.296766173933362e-08,0.0,221,2,37.01603156491301,276.03700000000003,mp-11495,LuRu,https://materialsproject.org/materials/mp-11495,19.793120535126274,53.067521359948046,-8.604250342815693,-0.5045126942092143
-3.5674626371428566,-24.97223846,13.020813586127401,-0.4853964371428573,0.8064937,0.06960707617438125,0.0,139,7,135.02836687055938,1058.800276,mp-1077954,Ce(ZnAu2)2,https://materialsproject.org/materials/mp-1077954,45.148358653864406,34.042885103252786,-8.604250342815693,-0.5045126942092143
-7.394820425142857,-258.81871488,5.807667457984687,-2.3133722640295926,3.0000001,0.06839202986279576,0.5717999999999999,8,35,511.20277542901914,1787.9108239999998,mp-1223452,KP2W7O25,https://materialsproject.org/materials/mp-1223452,-19.080827130638358,0.21929831935211325,3.183969794106863,1.4628913726421142
-6.38893095875,-51.11144767,7.994715088437101,0.4201046434375,5.12846995,0.21482854562980827,0.0,194,8,278.21033190075747,1339.4520000000002,mp-1186353,Nd3Np,https://materialsproject.org/materials/mp-1186353,-52.88703704414868,67.99784252064642,-8.604250342815693,-0.5045126942092143
-7.414432062,-37.07216031,7.821980669783424,-0.4335961386666668,1.0975988,0.2061830586295782,0.0,139,5,62.03946917125022,292.23735,mp-12075,Tb(FeB)2,https://materialsproject.org/materials/mp-12075,6.909172378815577,39.437484212660976,-8.604250342815693,-0.5045126942092143
-3.818165682,-19.09082841,6.912361555772643,-0.5477161774480003,0.0,0.0,0.0,71,5,50.683640554076135,210.98188,mp-644136,Li2H2Pt,https://materialsproject.org/materials/mp-644136,8.340825243657116,81.77853628438163,-11.337252650562863,-0.3493226791576386
-8.255565725,-33.022262899999994,11.011629829377945,-0.8511071250000004,7.0766827999999995,1.1477244962377988,0.0,221,4,71.85707022582497,476.51,mp-21427,GdPd3,https://materialsproject.org/materials/mp-21427,61.40073846555894,49.97544298823292,-8.604250342815693,-0.5045126942092143
-7.027378968095237,-147.57495833,10.59867265988567,-1.1154091809523807,0.0,0.0,0.0,174,21,341.10083573264166,2177.1340600000008,mp-13573,Sc5Si7Pt9,https://materialsproject.org/materials/mp-13573,23.673177520762557,56.292381086695535,-8.604250342815693,-0.5045126942092143
-7.328894338026316,-1113.99193938,6.5834392679688944,-2.2335282805773597,0.500091375,0.002558861309356728,0.0,189,152,2277.613583486307,9029.9176,mp-531981,Rb2(WO3)9,https://materialsproject.org/materials/mp-531981,-17.286123044333557,0.635179690747342,-8.604250342815693,-0.5045126942092143
-2.241801425,-8.9672057,0.4386988387077829,2.06776451875,3.0,0.029515480891528983,0.0,71,4,1184.5375125740645,312.9437000000001,mp-1095902,Y2ZnGa,https://materialsproject.org/materials/mp-1095902,-71.21838442594547,43.20704479336235,-6.970812177171204,1.6818501701207773
-6.157557505,-24.63023002,1.155464428002274,4.200322035625,3.0014258999999996,0.0409668108834108,0.0,71,4,853.8329221717055,594.1285,mp-1097571,Hf2VRe,https://materialsproject.org/materials/mp-1097571,-61.731401389617616,35.66343760225953,-8.604250342815693,-0.5045126942092143
-7.098169806785713,-198.74875459,5.997007113488098,-0.6341737858116535,0.07883385,0.0013153433763291036,0.0,148,28,698.4752504203772,2522.5309038,mp-5883,CsMo6Se7,https://materialsproject.org/materials/mp-5883,63.50279481932103,32.248793422606816,-8.604250342815693,-0.5045126942092143
-6.8790417125,-27.51616685,1.2239083497825511,4.7159271387500015,9.0024078,0.1277390391429332,0.0,71,4,821.3201251091508,605.35798,mp-1097630,TaCrRe2,https://materialsproject.org/materials/mp-1097630,-58.21089368808176,41.14547044122673,-8.604250342815693,-0.5045126942092143
-5.369022962000001,-26.84511481,10.81069872944692,-0.5261546759999994,1.39e-05,1.591990146505335e-06,0.0,65,5,101.7540847813513,662.45522,mp-1206382,Tm2Ni2Pb,https://materialsproject.org/materials/mp-1206382,2.7623020309376125,58.88387754071572,-8.604250342815693,-0.5045126942092143
-7.726090095000001,-77.26090095,7.245124537242598,-0.0055175759520011535,1.8760014999999999,0.24040456749551675,0.0,59,10,90.9427105407507,396.7936,mp-1247015,Fe2NiN2,https://materialsproject.org/materials/mp-1247015,1.1485306862266864,15.241509673019445,-7.785336360580344,-3.2590936891835063
-4.1163075125,-16.46523005,1.2359132162290003,2.2267423200000005,4.0000002,0.06821117513510264,0.0,71,4,683.4109121961483,508.652045,mp-1096720,MnCuPt2,https://materialsproject.org/materials/mp-1096720,-63.206637477792455,36.519015449423755,-8.604250342815693,-0.5045126942092143
-5.7605366009375,-184.33717123,4.206972335178241,-1.8251876375599991,22.0000005,0.8984243344065179,0.0,8,32,285.3767657492398,723.001465,mp-1100758,Li9Mn2Co5O16,https://materialsproject.org/materials/mp-1100758,-84.40167497240195,-35.6109725116521,0.37298866192317204,-2.35803680239159
-6.3947907,-25.5791628,11.89433215946558,-0.26307295124999897,4.1e-06,5.913461070715822e-07,0.0,225,4,80.80152214769005,578.776,mp-864959,Dy2CuOs,https://materialsproject.org/materials/mp-864959,-8.65142313727841,55.30061344658198,-8.604250342815693,-0.5045126942092143
-9.11808349,-36.47233396,7.866668485244798,-0.2188303062500001,0.0009374,0.00015580118953145009,0.0,225,4,70.11833703357078,332.179912,mp-1188017,ZrScTc2,https://materialsproject.org/materials/mp-1188017,63.12576351249563,58.321267791890676,-8.604250342815693,-0.5045126942092143
-7.271042605625,-581.68340845,4.395623140850685,-2.291444278662999,11.000152499999999,0.14097816952683287,0.0,14,80,909.3357515798524,2407.108280000001,mp-560083,CaMn3O6,https://materialsproject.org/materials/mp-560083,-71.61093342159619,-35.977131262312625,-8.604250342815693,-0.5045126942092143
-7.943866995,-31.77546798,12.11180953228022,-0.7794917212499994,0.00021129999999999999,3.570749501441785e-05,0.0,225,4,68.96322145946003,503.011,mp-866221,HfSnRh2,https://materialsproject.org/materials/mp-866221,31.821781128842467,56.50287174453745,-8.604250342815693,-0.5045126942092143
-8.1650355325,-32.66014213,4.859637064290106,-2.41140042828125,6.7711372999999995,0.8832667015882081,0.0,123,4,89.34025536817366,261.458,mp-1227084,CaGdS2,https://materialsproject.org/materials/mp-1227084,-43.497601921264334,40.20072129043995,-8.604250342815693,-0.5045126942092143
-8.38930013,-33.55720052,7.1121009510535,-0.2805865683333337,8e-07,1.5949183589665165e-07,0.0,225,4,58.45598155938893,250.3674,mp-865591,Ti2NiMo,https://materialsproject.org/materials/mp-865591,60.17956144803131,55.59212964419737,-8.604250342815693,-0.5045126942092143
-4.885519301428571,-34.19863511,10.209337835924929,-0.3921927514285711,0.0,0.0,0.0,123,7,117.01502469092043,719.4326000000002,mp-1025294,CdAsPd5,https://materialsproject.org/materials/mp-1025294,34.638161720228794,40.68006385426807,-8.604250342815693,-0.5045126942092143
-5.433607308888888,-97.80493156,7.266432391423111,-0.2313895800000007,2.535e-05,5.86549622200644e-07,0.0,71,18,503.6752745249041,2204.05678,mp-1210166,Nd6Co2Sn,https://materialsproject.org/materials/mp-1210166,-30.03774957258653,69.24110915120679,-8.604250342815693,-0.5045126942092143
-5.371106605,-21.48442642,9.807347771946137,-0.1742497912499994,4.41e-05,6.153668772422476e-06,0.0,225,4,83.51834904945025,493.26964000000004,mp-1184673,Ho2ZnTc,https://materialsproject.org/materials/mp-1184673,11.894685547954754,46.46589406580283,-8.604250342815693,-0.5045126942092143
-9.944529876428572,-278.44683654,9.2545927398072,-0.002457367678571489,1.3007389999999999,0.041621085744065325,0.0,227,28,364.2119441911965,2029.8428,mp-669355,Fe2Mo4C,https://materialsproject.org/materials/mp-669355,57.721926711065606,49.425283784393514,-8.604250342815693,-0.5045126942092143
-5.415156975,-21.660627899999998,9.672058536200792,-0.3587246225000005,1.58e-05,2.3420222604391388e-06,0.0,225,4,78.62189293278419,457.945,mp-977393,LiLu2Ru,https://materialsproject.org/materials/mp-977393,8.318907400072563,43.5366726993641,-8.604250342815693,-0.5045126942092143
-5.2292058975,-20.91682359,1.2392875370017666,4.127693679375,3.6799476,0.052169798827966435,0.0,71,4,822.0531543824103,613.51176,mp-1097369,Ta2ZnRe,https://materialsproject.org/materials/mp-1097369,-65.32424001666463,40.7060518883396,-8.604250342815693,-0.5045126942092143
-5.7896938584375,-185.27020347,4.197669429843971,-1.85434489506,19.999999,0.8149432523881087,0.4828000000000001,2,32,286.00921980040687,723.001465,mp-1175868,Li9Mn2Co5O16,https://materialsproject.org/materials/mp-1175868,-86.05502010741787,-41.65189433140336,3.0288624470521466,0.37067278152024624
-9.2220976675,-110.66517201,5.51690236779597,-0.6795775970233334,5.0650981,0.4834291619606717,0.0,63,12,122.10471767437812,405.67537999999996,mp-1245505,Mn2VN3,https://materialsproject.org/materials/mp-1245505,2.3541557290708512,17.75908778850527,-8.604250342815693,-0.5045126942092143
-9.6354256025,-38.54170241,14.29075649816106,0.41303342500000173,0.0022369,0.0003196950797135434,0.0,225,4,81.54325525778306,701.76899,mp-1187380,TbTa3,https://materialsproject.org/materials/mp-1187380,9.580328709763453,74.32834061755541,-8.604250342815693,-0.5045126942092143
-7.421027992567568,-1098.3121429000003,6.233094403619188,-2.2128880043040553,0.008919975,4.5892904494940447e-05,0.0,189,148,2265.1424564133604,8502.5684,mp-685441,K(WO3)9,https://materialsproject.org/materials/mp-685441,-17.71557731733445,-0.31569206159183577,-6.141740558240121,-2.4775910994814327
-9.53676198625,-76.29409589,7.903295348257692,-0.4189430501041649,2.56e-05,3.3435447343504032e-06,0.0,38,8,89.22986886116585,424.6874,mp-1215263,ZrB2Mo3C2,https://materialsproject.org/materials/mp-1215263,4.368548181653239,22.744249215429896,-8.604250342815693,-0.5045126942092143
-7.262140055833334,-87.14568067,8.153068629990528,-0.9316076558333334,0.0012045,4.62071170344149e-05,0.0,62,12,303.79131872895687,1491.5828,mp-1102657,Y2Pt,https://materialsproject.org/materials/mp-1102657,15.110675033603222,56.68787969942718,-8.604250342815693,-0.5045126942092143
-5.982244179166668,-71.78693015,10.757666299098725,-1.0384702066666671,0.0,0.0,0.0,62,12,282.80730730201657,1832.144,mp-20347,NdSnPt,https://materialsproject.org/materials/mp-20347,9.873546507790898,54.64750169913586,-8.604250342815693,-0.5045126942092143
-10.0171573125,-40.06862925,17.448407131370082,-0.32540299749999946,2e-07,3.353418755466549e-08,0.0,225,4,69.50557399705546,730.34209,mp-865270,TmTaOs2,https://materialsproject.org/materials/mp-865270,41.03726810654514,59.73778650483222,-8.604250342815693,-0.5045126942092143
-6.38955175625,-51.11641405,9.13459552793221,-0.49844034875,1.2718827,0.08752297938289817,0.0,25,8,169.3567046438368,931.6282,mp-1226998,Ce4Ni3Pt,https://materialsproject.org/materials/mp-1226998,2.33830386430991,58.21620706114691,-8.604250342815693,-0.5045126942092143
-5.29603101375,-42.36824811,9.51064099136724,-0.5290386229166675,0.00060795,3.506894144613277e-05,0.0,63,8,202.03314917162902,1157.133138,mp-639496,EuIn2Au,https://materialsproject.org/materials/mp-639496,5.4437783742126635,50.58441733062809,-8.604250342815693,-0.5045126942092143
-8.92494464,-107.09933568,8.073558140371768,-0.15749835666666692,9.42e-05,6.580468348989433e-06,0.0,38,12,166.82899200384648,811.1243,mp-1220522,NbVCo,https://materialsproject.org/materials/mp-1220522,57.346942294973424,55.61663426625592,-8.604250342815693,-0.5045126942092143
-8.658485063333334,-51.95091038,7.008407596031118,-0.1401934666666674,5e-08,5.1603173706093834e-09,0.0,140,6,112.920038977985,476.586,mp-1159,Zr2Fe,https://materialsproject.org/materials/mp-1159,25.666386152083444,58.29587929645548,-8.604250342815693,-0.5045126942092143
-6.4423192,-25.7692768,1.2462422568031448,4.037729615,0.0943822,0.001472171456672786,0.0,71,4,747.1522879968201,560.74126,mp-1097354,Ta2MoRh,https://materialsproject.org/materials/mp-1097354,-57.79566464182803,40.16433892284223,-8.604250342815693,-0.5045126942092143
-4.863405836,-48.63405836,13.238960565871885,-0.4590622176666663,0.0,0.0,0.0,12,10,194.35225560708113,1549.5100000000002,mp-510438,InPt,https://materialsproject.org/materials/mp-510438,33.803176635144546,40.69691806483331,-8.604250342815693,-0.5045126942092143
-8.976201229166668,-215.4288295,9.300865923940822,-0.18744872509416646,2.95e-06,1.151101502674336e-07,0.0,20,24,298.66602553447945,1672.862,mp-1220098,Ni4Mo6CN,https://materialsproject.org/materials/mp-1220098,-3.5273394405701763,19.5656463337226,-8.604250342815693,-0.5045126942092143
-9.305497295416666,-223.33193509,12.913787411881858,-0.481813022083332,0.000169325,4.381851907826778e-06,0.0,216,24,450.3403033975101,3502.2356,mp-1224677,Hf4NiRh,https://materialsproject.org/materials/mp-1224677,10.750733226946423,56.23783819401436,-8.604250342815693,-0.5045126942092143
-7.2111318725,-28.84452749,10.692227946421463,-0.2719621468750004,1e-06,1.4540669036124366e-07,0.0,225,4,80.14806432638494,516.07421,mp-1186655,PmTmRu2,https://materialsproject.org/materials/mp-1186655,19.527048993742614,53.674607664039634,-8.604250342815693,-0.5045126942092143
-8.192273698333333,-98.30728438,11.792392247645465,-0.8843030533333334,0.00021725,1.2696477151380895e-05,0.0,62,12,199.41323421065857,1416.142,mp-1102945,HfGeRh,https://materialsproject.org/materials/mp-1102945,43.15336176637325,57.41277113186336,-8.604250342815693,-0.5045126942092143
-5.7561537875,-23.02461515,15.306372212164847,-1.2140626674999997,0.0001669,2.4288327546913446e-05,0.0,225,4,80.08222907827968,738.175,mp-981512,YbLuPt2,https://materialsproject.org/materials/mp-981512,23.471625118333968,53.634362452817534,-8.604250342815693,-0.5045126942092143
-6.231093226666666,-74.77311872,9.23850933322043,-0.5028241769444447,2.5e-07,1.974291637274823e-08,0.0,191,12,147.5727363745278,821.0298399999998,mp-10398,HoNi4B,https://materialsproject.org/materials/mp-10398,30.418441477214646,85.12914907978302,-8.604250342815693,-0.5045126942092143
-6.361992355625,-101.79187769,10.233660834446392,-0.7456020200000006,1e-07,3.1685340318184585e-09,0.0,193,16,367.8062048735922,2266.7362,mp-30734,Ho5Rh3,https://materialsproject.org/materials/mp-30734,-31.927214860667892,71.00811274614901,-8.604250342815693,-0.5045126942092143
-5.05313071,-20.21252284,1.0400008822019844,2.2900903683333342,0.0003458,5.495498571608256e-06,0.0,71,4,733.3230180736393,459.2825386,mp-1096760,TiAlIr2,https://materialsproject.org/materials/mp-1096760,-59.520143284545895,34.94287915643951,-8.604250342815693,-0.5045126942092143
-7.191297263999998,-251.69540424,7.1144410214143825,-2.161957506857144,2.9594731,0.07878795463554737,0.0,200,35,437.7558899655323,1875.5286,mp-675212,Li3(WO3)8,https://materialsproject.org/materials/mp-675212,-17.495628841651108,1.6527097406933773,-8.604250342815693,-0.5045126942092143
-7.031503795833332,-253.13413665,4.125803872925799,-1.7210939653200001,3.0000000750000004,0.0832670273404795,0.02080000000000015,156,36,419.88042936579524,1043.24214,mvc-5444,MnO2,https://materialsproject.org/materials/mvc-5444,-77.25361924002489,-14.77051986234428,-9.137396391003874,-3.2200151949724414
-3.659702775,-14.6388111,0.5786303584308482,1.8933478550000005,1.6335084,0.01907432568611804,0.0,71,4,998.0438110048186,347.7777,mp-1095840,Y2CuPd,https://materialsproject.org/materials/mp-1095840,-68.79982047723807,40.750977047259006,-8.604250342815693,-0.5045126942092143
-7.11545736,-56.92365888,11.873205630098207,-1.1475793549999995,0.0,0.0,0.0,63,8,129.5652305341371,926.418824,mp-13572,ScSiPt2,https://materialsproject.org/materials/mp-13572,23.693979412021125,56.29683172643952,-8.604250342815693,-0.5045126942092143
-7.752824191666666,-46.51694515,16.119472066067686,-1.2449703016666664,4e-07,3.636427304599337e-08,0.0,139,6,128.19246800638285,1244.41212,mp-1070844,ThPt2,https://materialsproject.org/materials/mp-1070844,22.636447910432047,54.52824897699777,-8.604250342815693,-0.5045126942092143
-8.10885778,-16.21771556,6.903170456618238,0.027210923928572942,0.2421306,0.0924310517630757,0.0,225,2,30.528763245621697,126.913762,mp-1001785,MoP,https://materialsproject.org/materials/mp-1001785,14.046611402702293,27.888365789811722,-8.604250342815693,-0.5045126942092143
-8.14565642,-97.74787704,8.183636425007425,-0.3464382316666672,3.55e-06,2.786056834176152e-07,0.0,38,12,148.49636028627805,731.8347799999998,mp-1226108,CoSiMo,https://materialsproject.org/materials/mp-1226108,53.539273601186025,56.82767244974782,-8.604250342815693,-0.5045126942092143
-7.625326956842105,-144.88121218,7.35364187602016,0.0551059421557894,0.4799282999999999,0.032923021843737604,0.0,12,19,169.8846333404947,752.3284449999999,mp-1247229,Mn2Co9N8,https://materialsproject.org/materials/mp-1247229,2.761633791869276,16.453347331840543,-8.604250342815693,-0.5045126942092143
-6.629781131785713,-185.63387169,8.202742070536845,-0.6193786507142859,0.0,0.0,0.0,57,28,631.7218699600318,3120.5840000000003,mp-630836,Nd3(GeRu)2,https://materialsproject.org/materials/mp-630836,13.9799809191384,64.55721560078399,-8.604250342815693,-0.5045126942092143