energy_per_atom,energy,density,formation_energy_per_atom,total_magnetization_uB,total_magnetization_T,band_gap,sgr,num_sites,cell_volume,weight,mp_id,formula,URL,tsne_cry_lin1_0,tsne_cry_lin1_1,tsne_cry_lin2_0,tsne_cry_lin2_1
-6.6679813275,-26.67192531,6.210848004975758,-0.6401552524999996,1.22e-05,2.074355440908774e-06,0.0,225,4,68.54157557633393,256.36332400000003,mp-1186958,Sc2CuRh,https://materialsproject.org/materials/mp-1186958,-10.457432220308798,55.79234760211924,-8.604250342815693,-0.5045126942092143
-6.911025972564103,-269.53001293,4.207562906104353,-2.4737669820238457,26.0,0.6805798680091393,0.0,123,39,445.21693680554637,1128.11456,mp-1247674,Ca8Mn8O23,https://materialsproject.org/materials/mp-1247674,-36.223268953735754,6.0721533409313295,-8.604250342815693,-0.5045126942092143
-6.295189880833332,-75.54227857,6.5674810437623075,-0.6041538241666657,7.047979675,0.28729158614070033,0.0,62,12,285.9032968960933,1130.756,mp-1102076,EuMgPd,https://materialsproject.org/materials/mp-1102076,5.8356527907927465,48.58747667925382,-8.604250342815693,-0.5045126942092143
-6.7610287940000005,-33.80514397,7.613442143524301,-0.8258154120000007,0.0,0.0,0.0,139,5,73.40089593903694,336.53739,mp-5976,Dy(CoSi)2,https://materialsproject.org/materials/mp-5976,19.517154935699136,69.19830812881047,-8.604250342815693,-0.5045126942092143
-4.78997111,-62.26962443,3.7690525706109095,-0.756685789423077,0.0003949,2.0259836505803665e-05,0.0,166,13,227.15830788493642,515.5986,mvc-11269,Mg(NiS2)4,https://materialsproject.org/materials/mvc-11269,16.0678636935798,10.095583679944092,-8.604250342815693,-0.5045126942092143
-5.289986892,-52.89986892,8.557962339167139,-0.6620539489999999,1.48646235,0.07372599999256164,0.0,127,10,234.9690544803608,1210.9660000000001,mp-11965,Ce2CdPd2,https://materialsproject.org/materials/mp-11965,10.08255729422865,35.419805322308505,-8.604250342815693,-0.5045126942092143
-4.506238878333334,-27.03743327,7.752517610478289,-0.2593114663888893,0.0,0.0,0.0,216,6,88.6671025247082,413.957912,mp-13240,ScInCu4,https://materialsproject.org/materials/mp-13240,2.794656380028437,41.555518597004415,-8.604250342815693,-0.5045126942092143
-4.308942484,-172.35769936,3.27319903479305,-1.2631573433,0.5000000125,0.010144943808304323,0.06730000000000014,4,40,574.377999726902,1132.19470848,mp-769021,Na2CuO2,https://materialsproject.org/materials/mp-769021,-56.83272009401097,-3.420239199660009,-8.139285408173794,2.2241420306271733
-4.43368208090909,-48.77050289,7.427082368320717,-0.2508166977272724,0.1480776,0.006833304180717344,0.0,107,11,252.54341035115826,1129.5493,mp-1206380,Pr2Cu4Sn5,https://materialsproject.org/materials/mp-1206380,-5.138051719966321,53.89908550774347,-8.604250342815693,-0.5045126942092143
-4.149417617,-41.49417617,5.744237789908327,-0.7268712516666668,2.195e-05,1.0849335640572812e-06,0.0,15,10,235.78100100531086,815.6279999999998,mp-20792,Ca2InPd2,https://materialsproject.org/materials/mp-20792,-13.152182259681776,51.36270849668213,-8.604250342815693,-0.5045126942092143
-4.258653254444444,-38.32787929,8.142792302521865,-0.6313503627777782,1.6333333333333333e-06,8.796758330691306e-08,0.0,189,9,216.3862157658207,1061.094,mp-672254,CaPdPb,https://materialsproject.org/materials/mp-672254,-12.911891698910384,51.17407349510825,-8.604250342815693,-0.5045126942092143
-4.2373386250000005,-25.42403175,9.499257790707876,-0.2845988563888889,4.8e-06,5.967370931589803e-07,0.0,216,6,93.74230553049156,536.261,mp-1206262,ErInCu4,https://materialsproject.org/materials/mp-1206262,2.8958224656842355,41.65217219977921,-8.604250342815693,-0.5045126942092143
-4.275884551666667,-25.65530731,8.250185297529535,-0.15386563666666633,5.610000000000001e-05,7.6305377639631e-06,0.0,187,6,85.68112156239901,425.696182,mp-1225311,DyBeCu4,https://materialsproject.org/materials/mp-1225311,3.776247022637543,45.21472121881121,-8.604250342815693,-0.5045126942092143
-4.961467432,-24.80733716,8.051903024082899,-0.5293822204999991,0.0,0.0,0.0,139,5,87.17976202119408,422.73199999999997,mp-13400,Sm(CuGe)2,https://materialsproject.org/materials/mp-13400,-2.938834918082205,58.21328412888736,-8.604250342815693,-0.5045126942092143
-8.622954806388886,-310.42637303,1.5771213519390648,-0.10907206130888704,0.06327921666666668,0.0007295108247109122,0.0,166,36,1010.8967061351146,960.114,mp-1014995,CrN2,https://materialsproject.org/materials/mp-1014995,-4.8692325751985495,9.688656077962127,-8.604250342815693,-0.5045126942092143
-4.874914525,-29.24948715,8.105094708198559,-0.5999015841666662,5e-08,4.2754644845128606e-09,0.0,186,6,136.2900430441482,665.232,mp-12791,SmCuSn,https://materialsproject.org/materials/mp-12791,-5.836023384474466,54.300597425820314,-8.604250342815693,-0.5045126942092143
-4.278202491,-42.78202491,3.3811535270708486,-2.010654927691632,6.0000002,0.22126133344095447,0.0,225,10,316.0262567288154,643.4857999999998,mp-1113784,Rb2EuAgCl6,https://materialsproject.org/materials/mp-1113784,-19.55385718176312,10.067714512727985,0.7900917272589382,-2.404755325131241
-5.142175223333333,-30.85305134,6.775214807467946,-1.4050346258333335,5.5e-07,3.3179637522447675e-08,0.0,129,6,193.18281040808014,788.2109399999998,mp-1329,LaTe2,https://materialsproject.org/materials/mp-1329,-10.382976473984877,23.969453604244556,-8.604250342815693,-0.5045126942092143
-7.1447050675,-1057.41634999,3.872654967144445,-2.6847321352604503,26.999999900000002,0.16845938150885967,0.0,1,148,1867.8671670010642,4356.17886,mp-1247702,Ca8TiMn7O21,https://materialsproject.org/materials/mp-1247702,-30.87442589420177,-11.066355596762442,-8.604250342815693,-0.5045126942092143
-5.4905788375,-21.96231535,6.504191869612472,-0.7840881262500004,0.0001105,1.4756440052782715e-05,0.0,225,4,87.26861985421766,341.82385,mp-1183551,CaYPd2,https://materialsproject.org/materials/mp-1183551,14.567802748356257,45.704255737673705,-8.604250342815693,-0.5045126942092143
-4.937034993999999,-24.68517497,7.323927294779277,-1.0063769076249998,3.3e-06,4.6321328548073893e-07,0.0,164,5,83.02528220781383,366.189,mp-1018634,Lu(CuS)2,https://materialsproject.org/materials/mp-1018634,-14.764452863010135,21.338909929742663,-8.604250342815693,-0.5045126942092143
-6.221443597142858,-87.10021036,5.269406089959055,-1.7749075078571426,3.0000002999999995,0.2656171589311811,0.2497999999999996,15,14,131.62627728789496,417.6910572,mvc-4604,Al(CoO2)2,https://materialsproject.org/materials/mvc-4604,-42.42017929159876,-22.765338104838385,5.025428835011798,-1.7820524305160632
-6.971539337,-69.71539337,6.304010634657757,-2.5193359840959997,7.0000003,0.7011110168982635,0.6466000000000003,216,10,116.35597635456202,441.72964,mp-1218143,SrNdMnCoO6,https://materialsproject.org/materials/mp-1218143,-34.74895248094255,6.692822469073455,-8.604250342815693,-0.5045126942092143
-5.815917456607143,-325.69137757,4.6711365831922285,-1.5971974051785711,1.49999995,0.032825025478122966,0.7637,5,56,532.5539377810081,1498.08714,mp-1177976,Li2FeCo3O8,https://materialsproject.org/materials/mp-1177976,-73.63251901876153,-22.8827113195502,-8.604250342815693,-0.5045126942092143
-6.0852434860714295,-170.38681761,4.088667955988784,-1.1966464960119052,2.999961375,0.06405275576790992,0.0920999999999994,24,28,545.8273224981659,1343.9652,mp-1238893,TiCrAgS4,https://materialsproject.org/materials/mp-1238893,14.46974784187875,3.5372232737667852,-8.604250342815693,-0.5045126942092143
-3.8393581566666666,-34.55422341,9.267824646541802,-0.6782246599999999,3.4200000000000005e-05,1.9321382523516397e-06,0.0,189,9,206.2839006144804,1151.314707,mp-1205756,DyMgAu,https://materialsproject.org/materials/mp-1205756,-14.246641995190327,45.402053169540785,-8.604250342815693,-0.5045126942092143
-5.252883468333333,-31.51730081,7.317755534724983,-0.3122247329166665,3.76e-05,4.852084882101114e-06,0.0,216,6,90.31021634940821,397.98407000000003,mp-3289,LaMgNi4,https://materialsproject.org/materials/mp-3289,31.39586798085716,72.9976838011881,-8.604250342815693,-0.5045126942092143
-5.552230155,-66.62676186,3.2557665567059324,-0.16129653846000025,0.3970028,0.02024179721826276,0.0,62,12,228.57142062035945,448.15278,mp-1029444,KCoN,https://materialsproject.org/materials/mp-1029444,-2.344892757233828,12.243508760045085,-8.604250342815693,-0.5045126942092143
-4.797785005,-28.78671003,8.775772017035465,-0.5597404666666659,1.42e-05,1.2684115408223258e-06,0.0,194,6,130.46847528922677,689.512,mp-1072824,DyCuSn,https://materialsproject.org/materials/mp-1072824,-5.506879623667476,55.65870536468326,-8.604250342815693,-0.5045126942092143
-3.9406494566666654,-11.82194837,1.8664018214714764,-0.25228235512666625,0.027946600000000002,0.003928491133103326,0.0,160,3,82.90498197345694,93.183,mp-1247003,KCaN,https://materialsproject.org/materials/mp-1247003,6.460334423646606,2.1251764296271443,-8.604250342815693,-0.5045126942092143
-6.927944686346153,-1080.75937107,4.238786568515839,-2.6901429597310256,18.00000125,0.11955393142825502,0.17589999999999995,1,156,1754.6322230276596,4478.974188800001,mp-1247705,SrCa7Mn6Al2O23,https://materialsproject.org/materials/mp-1247705,-33.02013811673524,-8.520805868247681,2.8345623308366097,-0.6486403751044674
-4.033050750555557,-72.59491351,8.121074386347217,-0.1540772549999995,0.51681615,0.020209308828636457,0.0,166,18,298.03141407143835,1457.5600000000004,mp-640899,Ce2Zn2Cu5,https://materialsproject.org/materials/mp-640899,2.309724594157088,43.67417125073761,-8.604250342815693,-0.5045126942092143
-6.044512286000001,-60.44512286,7.177034416979472,-0.5020043805000001,7.105e-05,4.33160232319046e-06,0.0,194,10,191.15819973992524,826.207,mp-977446,NdVGe3,https://materialsproject.org/materials/mp-977446,10.077583506008699,65.26113046902246,-8.604250342815693,-0.5045126942092143
-3.981780065,-15.92712026,11.804062442811771,-0.8020327112500003,3.26e-05,4.612672904056535e-06,0.0,225,4,82.36493666206631,585.497138,mp-1184216,ErMgAu2,https://materialsproject.org/materials/mp-1184216,-15.036448071782047,44.65575854707915,-8.604250342815693,-0.5045126942092143
-4.150177735,-58.10248829,2.3995281135352453,-0.547193687108571,0.0,0.0,0.8922999999999999,141,14,198.46984045848598,286.7948,mp-15845,SrLi4N2,https://materialsproject.org/materials/mp-15845,24.88059505559091,-14.50611228465602,6.161796446632207,-1.5579774137662423
-9.177399248214286,-256.96717895,6.558251274073191,-0.5249974771257148,0.00029130000000000003,7.276642516405574e-06,0.0,74,28,466.5378381022316,1842.5778,mp-1215416,Zr7V5N2,https://materialsproject.org/materials/mp-1215416,-4.789294187061156,20.534126007036022,-8.604250342815693,-0.5045126942092143
-2.9281932,-11.7127728,9.094498494435696,-0.4291162180357144,7.96e-05,9.235989702539792e-06,0.0,221,4,100.44008122276865,550.093762,mp-1187909,Yb3P,https://materialsproject.org/materials/mp-1187909,-14.157409306448743,44.78292739584361,-8.604250342815693,-0.5045126942092143
-6.832503922407407,-368.95521181,3.937227228707705,-2.4078155729254838,3.9999997000000005,0.07035123308998455,0.1961000000000004,90,54,662.6217273888237,1571.1116960000002,mp-1195138,SrTiCu4P4O17,https://materialsproject.org/materials/mp-1195138,-57.858256334747544,-12.147875825071154,-4.582296494745347,-0.5851060315380463
-3.3961994,-13.5847976,10.354247150496617,-0.47683928375,9.2e-06,1.2996858034817651e-06,0.0,225,4,82.49485808056181,514.3945,mp-977423,Yb2ZnRh,https://materialsproject.org/materials/mp-977423,13.267163571964385,48.05357067488537,-8.604250342815693,-0.5045126942092143
-4.0235064880000015,-40.23506488,2.582978264707544,-1.054691559625001,0.92068715,0.05895175745797436,0.0,38,10,182.00895349069833,283.116,mp-754086,Li2CuS2,https://materialsproject.org/materials/mp-754086,-51.13209832814951,-4.788743101481437,-4.846582580270017,-1.6591886640264533
-4.3344308525,-121.36406387,8.622122923801987,-0.1469876057142849,0.0,0.0,0.04329999999999945,62,28,409.5521907405893,2126.544,mp-30699,SmCu6,https://materialsproject.org/materials/mp-30699,3.561333847694003,43.845173572672046,-8.604250342815693,-0.5045126942092143
-6.285557771578947,-238.85119532,6.791656444100591,-0.6537493421052626,0.0027660000000000002,4.68636878329303e-05,0.0,127,38,687.8490501178405,2813.3240600000004,mp-1207788,Y5(Co2Ge5)2,https://materialsproject.org/materials/mp-1207788,20.03184994604439,67.36994838138756,-8.604250342815693,-0.5045126942092143
-4.40171091625,-35.21368733,1.6548367355560514,-0.5161409581549998,0.0,0.0,2.0569,11,8,110.62163558799595,110.24176000000001,mp-24428,KH2N,https://materialsproject.org/materials/mp-24428,26.57087144384426,-16.331399240136264,8.40343192490069,-1.1042225498686682
-4.27185568,-68.34969088,3.801152065589093,-2.12069219761875,1.99993055,0.11647844864021112,0.0,63,16,200.0998505939466,458.05003200000004,mp-752721,LiCu2F5,https://materialsproject.org/materials/mp-752721,-62.03550744026662,-12.609233990074468,-8.604250342815693,-0.5045126942092143
-6.0385974675,-24.15438987,11.414123403646952,-0.4343352099999995,2.05e-05,3.191517125420483e-06,0.0,225,4,74.85729151649076,514.55,mp-865595,Lu2CuRu,https://materialsproject.org/materials/mp-865595,-9.859267477850137,55.44209647469514,-8.604250342815693,-0.5045126942092143
-5.341169486,-53.41169486,5.771651078506108,-1.6259677694999999,0.0,0.0,1.3793000000000002,141,10,170.56239968626542,592.8356,mp-7374,Ba(CuO)2,https://materialsproject.org/materials/mp-7374,12.932527113040473,-16.279377346698567,6.656005483398973,-3.16838175955908
-5.658591138333333,-135.80618732,2.2130055956139416,-0.5405798607933328,0.3877975,0.015091121078745303,0.0,141,24,299.47524508314837,399.1116,mp-1247005,Li3VN2,https://materialsproject.org/materials/mp-1247005,1.9746278853909731,6.667026273554554,-8.604250342815693,-0.5045126942092143
-5.427837891666666,-32.56702735,6.223903901206242,-0.3646970166666659,0.00043559999999999996,4.2265822055280106e-05,0.0,164,6,120.10911814958568,450.1837,mp-1215959,YCuGe,https://materialsproject.org/materials/mp-1215959,-5.043695574428941,56.76446358352701,-8.604250342815693,-0.5045126942092143
-6.22890903875,-49.83127231,9.780603627997493,-0.4041559162499997,5.5e-07,4.873727595259461e-08,0.0,129,8,131.51608290833494,774.6320000000002,mp-1080469,HfCuGe2,https://materialsproject.org/materials/mp-1080469,21.83211673413435,39.66379193319948,-8.604250342815693,-0.5045126942092143
-7.057911586666666,-42.34746952,9.378274910593335,-0.5155036863888883,0.0025223000000000003,0.0004539898394200915,0.0,191,6,64.74824990219025,365.680585,mp-5353,ErCo3B2,https://materialsproject.org/materials/mp-5353,7.797664430664579,39.59251507348146,-8.604250342815693,-0.5045126942092143
-4.307622268947369,-81.84482311,4.108216358085759,-0.6798942228126306,1.93e-05,1.1565971843702153e-06,0.0,229,19,194.4699962527372,481.12377999999995,mp-697126,Ca4(H4Rh)3,https://materialsproject.org/materials/mp-697126,-11.13051087032567,33.360308908298684,-8.604250342815693,-0.5045126942092143
-6.783203493333334,-101.7480524,6.58066097450197,-2.431006415583333,7.000000900000001,0.4711176067153858,0.0,164,15,173.15944624812076,686.2251249999998,mp-1218251,SrLa2(CoO3)3,https://materialsproject.org/materials/mp-1218251,-39.86155205938643,-4.124459059411465,-8.604250342815693,-0.5045126942092143
-4.942298498,-24.71149249,3.5867582045786945,-1.6686849075000003,0.9921721,0.2282410458569513,0.0,71,5,50.66064202217823,109.4268,mp-4711,Li2CuO2,https://materialsproject.org/materials/mp-4711,-58.310094077308456,-1.660205850837165,-8.604250342815693,-0.5045126942092143
-6.370642094705883,-108.30091561,14.131093525848826,-0.7295469829411763,1e-07,4.009487437665517e-09,0.0,229,17,290.6622094156042,2473.519,mp-17578,Yb4Ge6Ir7,https://materialsproject.org/materials/mp-17578,6.830008827670909,48.52667769501983,-8.604250342815693,-0.5045126942092143
-3.73563485,-44.8276182,9.316373439769338,-0.5231256583333336,7.5e-07,3.450532954703727e-08,0.0,62,12,253.31010293655518,1421.184,mp-1207590,YbCuSn,https://materialsproject.org/materials/mp-1207590,-4.9430933817419325,46.798073273588635,-8.604250342815693,-0.5045126942092143
-7.093432164499999,-141.86864329,4.029372100370547,-2.8701310237499995,0.9999991,0.04005077451501765,0.0,139,20,290.9819953552092,706.0808,mp-556493,BaCu(SiO3)2,https://materialsproject.org/materials/mp-556493,-54.32122488510903,-19.784352083067624,1.2277602364369644,0.9724741827905706
-4.677291914545455,-51.45021106,9.045581221643008,-0.4830198740909088,3.3e-06,1.7021228976591078e-07,0.0,71,11,225.94381288412248,1230.8010000000002,mp-1095537,Er3(CuSn)4,https://materialsproject.org/materials/mp-1095537,-5.090221275380624,54.60492638571476,-8.604250342815693,-0.5045126942092143
-3.9501462566666663,-23.70087754,8.642552024431966,-0.3685313116666673,2.05e-05,1.6746236272211396e-06,0.0,156,6,142.66389411566868,742.518,mp-1225615,Er2In3Cu,https://materialsproject.org/materials/mp-1225615,-6.618607605839224,53.89077828150812,-8.604250342815693,-0.5045126942092143
-8.590486493333334,-51.54291896,8.978726060487238,-0.4620790338888886,6.9155117,1.2252316549382234,0.028999999999999918,191,6,65.77843541861311,355.671585,mp-21252,GdCo3B2,https://materialsproject.org/materials/mp-21252,7.770286316198965,39.561313984536035,-8.604250342815693,-0.5045126942092143
-6.193789035297621,-1040.55655793,3.2748467026930084,-2.1476861734608854,1.0000568416666666,0.005788206749055589,0.0,169,168,2013.529874503257,3971.000688,mp-759776,LiCuPO4,https://materialsproject.org/materials/mp-759776,-57.432697367323534,-15.478242573014764,-8.139285247322759,2.2241419965734104
-4.002960380833334,-96.07104914,2.4307937982262877,-1.2109524988541671,0.0,0.0,2.2334,14,24,405.77425708571684,593.996,mp-753748,Li3CuS2,https://materialsproject.org/materials/mp-753748,46.01758533748964,-8.951518787020937,9.155208331458397,-0.8371210760014998
-4.22970042,-25.37820252,9.308632878802443,-0.270621867222222,2.6e-06,3.1958227536561516e-07,0.0439999999999996,216,6,94.81304422778179,531.502,mp-1080384,DyInCu4,https://materialsproject.org/materials/mp-1080384,2.9031516482385875,41.726353298319395,-8.604250342815693,-0.5045126942092143
-5.10305919875,-40.82447359,4.041703909372055,-0.6763952149479167,0.0,0.0,1.7433999999999994,122,8,113.79510977992868,276.974,mp-12954,CuBS2,https://materialsproject.org/materials/mp-12954,13.429681326392656,-17.551582401160257,6.049928377209219,-4.436072557653634
-3.8872004625,-15.54880185,7.750174843055277,-0.5688722000000004,1.42e-05,2.114190093788357e-06,0.0,225,4,78.27475885757032,365.329,mp-866279,CaCdPd2,https://materialsproject.org/materials/mp-866279,25.26736279177184,31.834096749583512,-8.604250342815693,-0.5045126942092143
-4.435685021111111,-39.92116519,10.013532261285544,-0.8635592694444448,0.0,0.0,0.0,189,9,198.0849950760285,1194.51,mp-4106,YbSnPd,https://materialsproject.org/materials/mp-4106,5.670814410468748,49.07618406575232,-8.604250342815693,-0.5045126942092143
-3.9823544777272732,-87.61179851,2.950052328921998,-1.3427760969999998,1.0,0.03899353671644833,0.0,9,22,298.87170423409555,530.9644313599998,mp-778925,Na6CuO4,https://materialsproject.org/materials/mp-778925,-55.69384806463229,-3.0081384660717667,-8.604250342815693,-0.5045126942092143
-5.048459872857143,-282.71375288,4.7369451665328315,-1.2123148292857149,0.999998925,0.022052149913796358,0.3624000000000001,96,56,528.4769190304208,1507.56238,mp-1178042,Li2CoNi3O8,https://materialsproject.org/materials/mp-1178042,-62.59824309236411,-24.839567897396897,1.0152107317501904,-2.362372058352123
-4.5031547875,-54.03785745,3.0419309392957703,0.2475763691666669,1.2593940166666666,0.06208966575525843,0.0,38,12,236.3849002225373,433.032,mp-1094399,MgTi,https://materialsproject.org/materials/mp-1094399,-18.051529577812666,38.964223653853374,-8.604250342815693,-0.5045126942092143
-3.3896678191666667,-40.67601383,3.7386573549268314,-1.247079898497816,0.0,0.0,1.8238,63,12,325.43725363553045,732.7129037999999,mp-23065,CsCu2Cl3,https://materialsproject.org/materials/mp-23065,48.13090847797514,-10.991856387668104,7.535852581982497,-0.6946749789557929