energy_per_atom,energy,density,formation_energy_per_atom,total_magnetization_uB,total_magnetization_T,band_gap,sgr,num_sites,cell_volume,weight,mp_id,formula,URL,tsne_cry_lin1_0,tsne_cry_lin1_1,tsne_cry_lin2_0,tsne_cry_lin2_1
-2.514941844,-12.57470922,1.2432103357555622,-0.5417672557240001,0.4295702,0.0111530980160669,0.0,123,5,448.8653222584028,336.05594,mp-1208831,Sr2HBr2,https://materialsproject.org/materials/mp-1208831,-34.36793276694911,48.84211654865697,-8.604250342815693,-0.5045126942092143
-5.831329693076923,-75.80728601,6.188478748359644,-2.0205563016346155,4.8598586,0.3316346984719073,0.0,123,13,170.78160750624522,636.4670286,mvc-2490,Sr2AlTlCo2O7,https://materialsproject.org/materials/mvc-2490,-42.39648808826013,-19.691480051691705,-8.604250342815693,-0.5045126942092143
-5.240713933333333,-31.444283600000002,7.557193867043152,-0.3269711912500005,1e-07,1.3150385852841332e-08,0.0,216,6,88.62146634307055,403.3206,mp-11194,NdMgNi4,https://materialsproject.org/materials/mp-11194,31.50425998895786,72.89254601504695,-8.604250342815693,-0.5045126942092143
-5.14075847,-30.84455082,10.084930048811326,-0.3257718216666661,1e-05,1.2224329956148298e-06,0.0,74,6,95.3349984364437,578.9967999999999,mp-1225545,ErCuNi,https://materialsproject.org/materials/mp-1225545,39.3665224593428,74.3795563010419,-8.604250342815693,-0.5045126942092143
-7.31080507,-58.48644056,5.773373581537249,-2.4343776917187503,0.053373699999999996,0.004682896557477727,0.0,99,8,132.82816507187556,461.81788,mvc-7244,BaTaCuO5,https://materialsproject.org/materials/mvc-7244,-52.74717276139553,-1.4811338147583404,-8.604250342815693,-0.5045126942092143
-3.20461828125,-25.63694625,6.074270842385437,-0.3032923466666668,0.0,0.0,0.0,63,8,182.20828633748462,666.52,mp-19968,CaIn2Cu,https://materialsproject.org/materials/mp-19968,-15.381292101828668,50.22543782062328,-8.604250342815693,-0.5045126942092143
-4.5985642375,-73.5770278,3.1001148589435763,0.15216691916666658,0.12081035,0.004552516587038057,0.0,59,16,309.2644732156002,577.376,mp-1094388,MgTi,https://materialsproject.org/materials/mp-1094388,-17.662076617464162,38.947311520809016,-8.604250342815693,-0.5045126942092143
-4.047270267857144,-56.66178375,6.2006117337435995,-0.8411286042380952,0.3016672,0.008230757564669185,0.0,31,14,427.1355414048114,1594.965,mp-1212465,KCeAgTe4,https://materialsproject.org/materials/mp-1212465,-9.653100785595383,23.015517949251706,-8.604250342815693,-0.5045126942092143
-4.2359247983333335,-25.41554879,9.209603307106944,-0.27317611388888885,1.5e-06,1.836480655827048e-07,0.0,216,6,95.18802772777931,527.92735,mp-22229,TbInCu4,https://materialsproject.org/materials/mp-22229,2.9504436580738047,41.756730003652685,-8.604250342815693,-0.5045126942092143
-5.97579521076923,-77.68533774,7.402117028400136,-1.9583336793269237,5.3269007,0.3194424854962889,0.0,123,13,194.33872641688663,866.2958000000001,mp-1214738,Ba2EuCu2HgO7,https://materialsproject.org/materials/mp-1214738,-46.70597644552226,-5.134169613083519,-8.604250342815693,-0.5045126942092143
-5.859164884761905,-123.04246258,9.53420462578196,-0.2020751990476196,0.13208396666666666,0.003483017861162584,0.0,147,21,441.94866759487314,2537.5067549999994,mp-1225765,Er4Co3,https://materialsproject.org/materials/mp-1225765,-27.689721673781317,67.30847218963814,-8.604250342815693,-0.5045126942092143
-4.8545705825,-19.41828233,4.496472805245737,-1.9410130212350003,0.0,0.0,0.0,123,4,38.955341537030414,105.4848032,mp-1147631,LiCuOF,https://materialsproject.org/materials/mp-1147631,-58.45957237635099,-1.1698345755941455,-8.604250342815693,-0.5045126942092143
-5.462863290625,-87.40581265,4.87369984434824,-1.9237488875,1.575e-06,1.1237517189234627e-07,0.3741000000000003,11,16,163.33814407301173,479.3992,mvc-4732,MgCuO2,https://materialsproject.org/materials/mvc-4732,-59.0457869038821,-0.7059220175040646,-8.604250342815693,-0.5045126942092143
-6.097061355,-73.16473626,5.837012257289237,-0.14755963118999915,1.00296375,0.08554101765069796,0.0,36,12,136.64327159116974,480.319,mp-1247292,Ga2NiN3,https://materialsproject.org/materials/mp-1247292,-0.5613353626503584,10.203540481217038,-8.604250342815693,-0.5045126942092143
-5.6417753775,-67.70130453,3.5710092519680696,0.1577545113888886,8.025e-06,4.1887263940949785e-07,0.0,63,12,223.27519393874957,480.156,mp-1094384,MgTi2,https://materialsproject.org/materials/mp-1094384,33.57706316221023,61.449508514804386,-8.604250342815693,-0.5045126942092143
-4.362116662,-21.81058331,1.50323613021224,-0.7787666388630001,0.0751865,0.002173549505772063,0.0,123,5,403.13245163965826,364.9437032,mp-1207260,Pr2S2F,https://materialsproject.org/materials/mp-1207260,-22.42534562777435,11.701233278356085,-8.604250342815693,-0.5045126942092143
-8.03219770173913,-369.48109428,6.396210890481767,-3.1989559974078263,10.99999975,0.2020029965616065,0.06289999999999996,7,46,634.6178609560569,2444.4771100000007,mp-772266,La6Mn3O14,https://materialsproject.org/materials/mp-772266,-33.784680039504565,-10.285158214107607,-8.604250342815693,-0.5045126942092143
-6.897963710317462,-869.1434275,4.019859467032062,-2.0736163341631744,7.000225861111112,0.06067992621623752,0.015400000000000082,70,126,1344.4493211348995,3254.66442,mp-1199729,LiMn2O4,https://materialsproject.org/materials/mp-1199729,-67.35667973157028,-37.82667881018191,2.288132776681109,-1.6313040991607048
-6.904969197368421,-262.3888295,4.3625689800918135,-2.478911235004736,14.00000005,0.3550747228132208,0.0,51,38,459.50020352297514,1207.19916,mp-1247667,SrCa3Mn4O11,https://materialsproject.org/materials/mp-1247667,-36.05616671806195,6.1612206781138035,-8.604250342815693,-0.5045126942092143
-5.169582656666667,-15.50874797,3.5274786520591443,-0.4848962391266666,1e-07,2.1046120359086106e-08,0.0,187,3,55.373933882918045,117.6307,mp-1245836,CaCuN,https://materialsproject.org/materials/mp-1245836,5.1663889070196065,4.301707209836384,-4.6300445279728,-1.6269139748945285
-7.013806682777778,-1009.98816232,4.119044096965917,-2.5766574553522217,16.0025592875,0.0984106989048538,0.0,1,144,1895.066944332548,4700.80144,mp-1076184,SrCa3Mn4O10,https://materialsproject.org/materials/mp-1076184,-29.878362404115283,-10.055374636139238,-8.604250342815693,-0.5045126942092143
-7.440077733333332,-66.9606996,6.860582524806538,-0.4984928373809525,1.3542696,0.15343200736036708,0.0,189,9,102.86475364191406,424.98978600000004,mp-1079966,CrNiP,https://materialsproject.org/materials/mp-1079966,15.040694204998484,24.454381260351955,-8.604250342815693,-0.5045126942092143
-5.72123206,-22.88492824,10.655416351524542,-0.6205853774999994,5.720000000000001e-05,8.481812493378216e-06,0.0,225,4,78.59316690988409,504.31992,mp-1187608,Tm2CuRh,https://materialsproject.org/materials/mp-1187608,-9.936302496107132,55.224669512048465,-8.604250342815693,-0.5045126942092143
-6.191776895357143,-173.36975307,3.185425992540753,-2.1456740335204083,0.994758475,0.033601974081380666,0.3292999999999999,33,28,345.0088876512329,661.8334480000001,mp-758071,LiCuPO4,https://materialsproject.org/materials/mp-758071,-57.24418614359341,-15.1577486133701,2.868643308584039,-1.563870509963447
-6.5658609125,-367.6882111,3.8039081067877074,-2.0399292395085715,37.94620020000001,0.7777501761221364,0.0,12,56,568.5983604764507,1302.526385,mp-531021,Li11Mn13O32,https://materialsproject.org/materials/mp-531021,-65.88449302119125,-38.452811559578414,-5.296989802951617,-2.7631465216415934
-5.9252177275,-23.70087091,10.671855438079293,-0.6829237043749998,1.12e-05,1.601321431163021e-06,0.0,225,4,81.51113381269705,523.851,mp-865905,YbPmRh2,https://materialsproject.org/materials/mp-865905,13.755421161971706,48.20861154490139,-8.604250342815693,-0.5045126942092143
-5.182809694444446,-46.64528725,5.8283548786479695,-1.5533170661805558,2.9021131000000002,0.21319803395918435,0.0,139,9,158.63848937354152,556.807995,mp-1078706,Ba2CoCu2(SO)2,https://materialsproject.org/materials/mp-1078706,-30.409649643742704,-18.696112167510673,-8.604250342815693,-0.5045126942092143
-9.039709888888888,-81.357389,6.625189950613722,-3.205536224861111,14.0,1.4690821986244278,0.4447999999999994,123,9,111.06043417353183,443.10699999999997,mp-1184317,Gd2Mg2O5,https://materialsproject.org/materials/mp-1184317,29.33670244487478,-20.15571621508464,-5.5449958226936085,-3.749583201449296
-5.525135620555557,-99.45244117,5.842182442549868,-1.8384858631944452,4.5e-07,1.915007845420645e-08,0.0,46,18,273.8541860385907,963.4860000000001,mp-1097775,Ba2Cu2O5,https://materialsproject.org/materials/mp-1097775,-49.17310238839202,1.3167668990229922,-8.604250342815693,-0.5045126942092143
-7.359867706,-147.19735412,7.61737318120179,-2.631490466346,6.0,0.299853070819302,0.3833000000000002,14,20,233.19550620008857,1069.73528,mp-1237349,Dy2MnCoO6,https://materialsproject.org/materials/mp-1237349,-41.87876792268435,-22.109983296176015,3.699436765629677,0.406535677137376
-6.919275580769232,-269.85174765,4.198779051623578,-2.4782908273838458,25.0283607,0.6554877962786272,0.0,99,39,444.98484701735407,1125.172615,mp-1247680,Ca8Mn7CrO23,https://materialsproject.org/materials/mp-1247680,-36.24997167177171,6.042306495895153,-8.604250342815693,-0.5045126942092143
-8.341345309166668,-100.09614371,10.875914955533457,-0.3984427325000013,0.002971275,0.00017443355305886014,0.0007000000000001451,62,12,198.51359271116118,1300.19042,mp-20811,UCoSi,https://materialsproject.org/materials/mp-20811,10.452295731066807,26.204870889554908,-8.604250342815693,-0.5045126942092143
-7.730079400000001,-30.920317600000004,10.520524222617352,-0.4816032637500003,7.0765917,1.0965807632636406,0.0,225,4,75.2074637852557,476.485,mp-1184434,EuSnRh2,https://materialsproject.org/materials/mp-1184434,6.065986249628943,47.28443143055657,-8.604250342815693,-0.5045126942092143
-6.6283854075,-26.51354163,12.953291322077524,-0.7287754299999998,3e-06,4.632095939969005e-07,0.0,225,4,75.47813078740555,588.77882,mp-865365,Tm2NiIr,https://materialsproject.org/materials/mp-865365,17.82003679880806,50.167045579126366,-8.604250342815693,-0.5045126942092143
-5.303552710833333,-63.64263253,3.700658598820509,-0.8517702479066666,2.4186805000000002,0.11706850539228575,0.0,191,12,240.77747568975516,536.59397,mp-1095503,As4INO6,https://materialsproject.org/materials/mp-1095503,-11.142331622463667,26.99550972973477,-8.604250342815693,-0.5045126942092143
-7.559472271111112,-136.07050088,5.488968803531726,-0.346110265615694,11.7194643,0.4773621033403169,0.0,58,18,286.11277496934423,945.7556,mp-1246868,Cr4Se3N2,https://materialsproject.org/materials/mp-1246868,11.985833353438704,6.003023204403463,-8.604250342815693,-0.5045126942092143
-6.22538385025,-249.01535401,3.236942424311838,-2.311538499349,1.000130575,0.02657724884995464,0.10849999999999982,14,40,438.55504261823785,854.88952,mp-703515,CaCuSiH2O5,https://materialsproject.org/materials/mp-703515,-53.72126047377622,-17.993451663526656,1.3515658181553356,-1.7029148517713109
-7.4344879575,-59.47590366,6.6247521318365585,-0.569440898571429,0.0,0.0,0.0,194,8,108.57495419125084,433.161848,mp-10208,NiMoP2,https://materialsproject.org/materials/mp-10208,14.945607483136499,26.05412631234757,-8.604250342815693,-0.5045126942092143
-5.33442565,-42.6754052,4.96505278275786,-1.8966405943750004,1.99999895,0.19542086013648688,1.735,63,8,119.27138838746485,356.6244000000001,mp-19190,SrNiO2,https://materialsproject.org/materials/mp-19190,-32.146051097457594,-19.395164993880414,-8.604250342815693,-0.5045126942092143
-5.62764946375,-90.04239142,5.155705554314936,-2.021767283789062,3.09501455,0.14822021107838704,0.0,99,16,243.3507534180959,755.56479,mvc-14036,Sr2CoCuSO3,https://materialsproject.org/materials/mvc-14036,-34.92749602376833,-16.452934882498685,-5.9909597606524505,-0.751161570100143
-6.072267248571428,-85.01174148,3.778868823929865,-0.7563759817342851,0.00026295,1.3150006812294485e-05,0.0,176,14,233.0368626942081,530.3192,mp-1247259,Ca3RhN3,https://materialsproject.org/materials/mp-1247259,7.587569576404968,7.646205063235216,-8.604250342815693,-0.5045126942092143
-6.598705802857142,-46.19094062,6.248195698442372,-2.6536203846428568,8.5e-06,1.0527224775642953e-06,0.0,107,7,94.09844729064152,354.06907,mp-1218202,SrLaCuO4,https://materialsproject.org/materials/mp-1218202,-44.621567187683546,-1.6260540642806487,-8.604250342815693,-0.5045126942092143
-6.712590925555557,-60.41331833,7.043925187578339,-2.56137192263889,4.9684892,0.4857559051470571,0.0,99,9,119.20204025318804,505.64921,mp-1205946,BaTmFeCuO5,https://materialsproject.org/materials/mp-1205946,-48.524976760738475,-3.9791611988403095,-8.604250342815693,-0.5045126942092143
-4.812819536666667,-28.87691722,9.137375343757624,-0.5874525666666658,1.5e-06,1.3760849550195113e-07,0.0,186,6,127.03501404527508,699.03,mp-1206800,ErCuSn,https://materialsproject.org/materials/mp-1206800,-6.098127695967892,54.59797756335354,-8.604250342815693,-0.5045126942092143
-7.4928537864285705,-104.89995301,6.951866328240527,-2.669703701428572,6.0202372,0.3848422574173849,0.0,38,14,182.30907059377398,763.23908,mp-1218839,Sr2EuTa(CuO4)2,https://materialsproject.org/materials/mp-1218839,-46.954374418310394,-6.396268630242324,-8.604250342815693,-0.5045126942092143
-3.9707198375,-15.88287935,11.509858827570536,-0.7814643074999998,0.0002847,3.960093621362738e-05,0.0,225,4,83.783681851592,580.7381379999998,mp-867762,DyMgAu2,https://materialsproject.org/materials/mp-867762,-14.913794317035597,44.690542828772756,-8.604250342815693,-0.5045126942092143
-4.4337064875,-17.73482595,10.008897811256206,-0.7789658950000002,0.00011479999999999999,1.5901027873014998e-05,0.0,225,4,84.13837436008312,507.143988,mp-866171,YMgAu2,https://materialsproject.org/materials/mp-866171,-14.921001349831318,44.702884191211346,-8.604250342815693,-0.5045126942092143
-5.0692333827272735,-55.76156721,8.626510834673239,-0.635547203636363,0.0,0.0,0.0,71,11,196.63499596497115,1021.52005,mp-3852,Tb3(CuGe)4,https://materialsproject.org/materials/mp-3852,-4.73641886621845,54.97255957283002,-8.604250342815693,-0.5045126942092143
-5.891885901923077,-153.18903345,6.4776754424774685,-2.3756471243269237,3.53e-05,1.2211439002468443e-06,0.0,46,26,336.8878036308401,1314.1816,mp-1208528,Sr2YbGaCu2O7,https://materialsproject.org/materials/mp-1208528,-46.54300643369115,-5.066213124814716,-8.604250342815693,-0.5045126942092143
-8.63158965125,-69.05271721,5.613561967253102,-0.15054003468749855,0.43157845,0.05900211701802933,0.0,194,8,85.24513127561174,288.1768,mp-1078494,Cr2SiC,https://materialsproject.org/materials/mp-1078494,-0.4707395388064324,17.364585327260485,-8.604250342815693,-0.5045126942092143
-4.958566345,-29.75139807,8.316671775901924,-0.11790245999999982,0.0,0.0,0.0,216,6,81.65334653843723,408.954,mp-30603,ZrCu5,https://materialsproject.org/materials/mp-30603,24.693814790201554,40.72287328680413,-8.604250342815693,-0.5045126942092143
-6.8811548937037035,-371.58236426,8.01963971236997,-0.61522885037037,1.2817885166666667,0.022014628188965383,0.0,176,54,678.5509284887261,3277.08885,mp-1198238,ErCo5Si3,https://materialsproject.org/materials/mp-1198238,49.262894087435896,50.658956536675355,-8.604250342815693,-0.5045126942092143
-6.027509895,-24.11003958,10.444104743346122,-0.12936201499999989,8.1e-06,1.19686967581947e-06,0.0,225,4,78.87067954420465,496.064,mp-1184097,Er2CuTc,https://materialsproject.org/materials/mp-1184097,-10.044495147955304,55.320115776325494,-8.604250342815693,-0.5045126942092143
-5.084498705925926,-274.56293012,3.046597335073886,-1.2705751309356474,0.10952939999999999,0.002397941195213036,0.0,7,54,532.3161071037846,976.6424,mp-707201,Cu4H10SO12,https://materialsproject.org/materials/mp-707201,-54.90271718021585,-13.915239947149251,-8.604250342815693,-0.5045126942092143
-6.6258701725,-26.50348069,6.551144227494126,-0.2079193083333335,0.021686,0.004574266389234443,0.0,25,4,55.25040020680274,217.9734,mp-1217130,Ti2CuNi,https://materialsproject.org/materials/mp-1217130,31.996909239129767,71.41914292010806,-8.604250342815693,-0.5045126942092143
-2.170807345,-13.02484407,4.425095775042321,-0.3618508925,3.4e-06,3.050849616218859e-07,0.0,8,6,129.87798551608606,346.10600000000005,mp-1227661,Ca2Zn3Ga,https://materialsproject.org/materials/mp-1227661,-12.942160678816768,49.71903747570641,-8.604250342815693,-0.5045126942092143
-6.138594235,-220.98939246,6.163668728546857,-0.3826321893911115,1.956095125,0.03610715243884771,0.0,52,36,631.3557771316111,2343.49676,mp-1246197,Ba3(CoN2)2,https://materialsproject.org/materials/mp-1246197,3.6403028202491163,7.933336777973138,-8.604250342815693,-0.5045126942092143
-6.71080142962963,-362.3832772,3.999111353235004,-2.295719810271164,2.994061,0.050119146685007214,0.00790000000000024,90,54,696.2006166284717,1676.674696,mp-559899,BaVCu4P4O17,https://materialsproject.org/materials/mp-559899,-57.87154976516615,-12.24425250927317,0.7475195113572215,-2.359874391042448
-6.492647970526316,-123.36031144,4.321164407437179,-0.913578709423158,1.8446031999999999,0.057730784132730736,0.0,12,19,372.3684944768139,969.0019,mp-1247459,Sr8Cr3N8,https://materialsproject.org/materials/mp-1247459,4.509302350661167,8.490811808174321,-8.604250342815693,-0.5045126942092143
-5.984303795,-23.93721518,10.876350661692221,-0.4038868124999997,9.699999999999999e-06,1.4735357328080182e-06,0.0,225,4,76.71644859158444,502.48442,mp-865319,Tm2CuRu,https://materialsproject.org/materials/mp-865319,-10.07179092409861,55.080994527188,-8.604250342815693,-0.5045126942092143
-5.098528116000001,-50.98528116,6.043038399496111,-0.3754247186666661,3.2e-06,2.045025498136813e-07,0.0,127,10,182.3596199957801,663.6436480000001,mp-1078544,Sc2InCu2,https://materialsproject.org/materials/mp-1078544,-7.402777272971668,54.80965940820425,-8.604250342815693,-0.5045126942092143
-7.561601498333334,-45.36960899,7.152903026214626,-0.21699540000000184,1.32e-05,1.3603006785557246e-06,0.0,97,6,113.08797931433668,487.1354,mp-1215371,Zr4CuNi,https://materialsproject.org/materials/mp-1215371,24.948421292151203,58.274851303817094,-8.604250342815693,-0.5045126942092143
-6.8817803842857135,-48.17246269,5.723516612681619,-2.7492616192857144,1.9999982,0.2643423149924995,0.0,107,7,88.17395946791244,303.9164449999999,mp-1227079,CaPrCoO4,https://materialsproject.org/materials/mp-1227079,-35.391407320816874,-18.34682514808007,1.5066905572891345,2.0430205008344293
-3.86309128625,-30.90473029,5.792408908418491,-0.18071352812499966,9.5e-07,6.65166591715165e-08,0.0,194,8,166.44494284332072,580.6049399999998,mp-12947,LaMgCu2,https://materialsproject.org/materials/mp-12947,-8.704010056587055,52.792684365346005,-8.604250342815693,-0.5045126942092143
-5.388893283333334,-32.3333597,6.8196794532490665,-0.6419071025000006,0.0,0.0,0.0,194,6,117.8461057745801,483.98300000000006,mp-8121,SmCuSi,https://materialsproject.org/materials/mp-8121,-4.188399361392501,57.360460267706216,-8.604250342815693,-0.5045126942092143
-4.5524002775,-18.20960111,11.862212305453145,-0.6620297550000003,1.7e-06,2.1764319522202783e-07,0.0,225,4,91.02931103883327,650.276198,mp-1187438,ThMgAu2,https://materialsproject.org/materials/mp-1187438,-9.273839951304293,51.79631488806874,-8.604250342815693,-0.5045126942092143
-6.617516207272727,-145.58535656,6.849772425894844,-2.0522634378030307,1.0000001,0.04035950191715907,0.4230999999999998,14,22,288.75643613954946,1191.1288,mp-554812,CuB2(PbO3)2,https://materialsproject.org/materials/mp-554812,-54.36818578490664,-14.356419058101356,-8.604250342815693,-0.5045126942092143
-4.211510033928572,-117.92228095,3.6753254755381,-2.1473119400507144,5e-08,1.7173060470742151e-09,0.3101999999999999,2,28,339.31240131643375,751.0112575999998,mp-867599,Li2Cu3F9,https://materialsproject.org/materials/mp-867599,-58.450768236955135,-5.452997470551553,-8.604250342815693,-0.5045126942092143
-10.280631386666666,-61.68378832,7.342784761005072,-0.7693864841266667,14.47929575,1.1734609666423836,0.0,136,6,143.7991167395798,635.8694,mp-1184048,Eu2N,https://materialsproject.org/materials/mp-1184048,-24.66653002665268,44.2098247314709,-8.604250342815693,-0.5045126942092143