energy_per_atom,energy,density,formation_energy_per_atom,total_magnetization_uB,total_magnetization_T,band_gap,sgr,num_sites,cell_volume,weight,mp_id,formula,URL,tsne_cry_lin1_0,tsne_cry_lin1_1,tsne_cry_lin2_0,tsne_cry_lin2_1
-6.507279525,-104.1164724,7.4558583790567425,-2.0720509331250003,6.9917583,0.34335982873318155,0.0,123,16,237.30907719435132,1065.5232,mp-22543,Sr2GdCu3(PbO4)2,https://materialsproject.org/materials/mp-22543,-46.560129181466024,-4.02544539722623,-8.604250342815693,-0.5045126942092143
-5.9860825325,-167.61031091,6.679719618678898,-2.1105289464732158,1.6887993000000001,0.0509376134374948,0.0,38,28,386.38198969027763,1554.2684,mp-1228235,Ba4Dy2Cu6NiO15,https://materialsproject.org/materials/mp-1228235,-48.80743895549207,-0.02467930767693529,-8.604250342815693,-0.5045126942092143
-6.2748011099999985,-163.14482886,5.738476135440334,-2.4971966652884623,3.6000000000000003e-06,1.1636968552629495e-07,0.0,46,26,360.52888680991407,1245.91254,mp-541332,Sr2LaGaCu2O7,https://materialsproject.org/materials/mp-541332,-45.569784607742776,-2.5848085291417378,-8.604250342815693,-0.5045126942092143
-6.497172459230769,-168.92648394,6.466510829380883,-2.188913473173078,6.9247594,0.2243614070475016,0.0,47,26,359.69463573967306,1400.73145,mp-1228341,Ba4GdY(Cu3O7)2,https://materialsproject.org/materials/mp-1228341,-47.713752672141396,0.4390176452755889,-8.604250342815693,-0.5045126942092143
-6.423982509615384,-167.02354525,6.3243498075230935,-2.293186082307693,3.2e-06,1.064754570690806e-07,0.0,42,26,350.2497974532812,1333.96577,mp-1228381,Ba3LaY2(Cu3O7)2,https://materialsproject.org/materials/mp-1228381,-48.21826898792196,-1.0309795322019744,-8.604250342815693,-0.5045126942092143
-6.0801828505333315,-456.01371379,6.032640392776513,-2.067628081133333,0.0073693,8.2525874110849e-05,0.0,65,75,1040.6711889299927,3780.69705,mp-1229203,Ba10PrY4(CuO2)20,https://materialsproject.org/materials/mp-1229203,-49.1313256710019,0.19537369452720652,-8.604250342815693,-0.5045126942092143
-5.9951814491999995,-449.63860869,6.149136233627987,-2.0499747876000005,0.0015072,1.6522689703934456e-05,0.0,65,75,1063.0839615065404,3936.70245,mp-1229131,Ba10Pr4Y(CuO2)20,https://materialsproject.org/materials/mp-1229131,-49.04945051076354,0.3791607831758696,-8.604250342815693,-0.5045126942092143
-6.478476220555557,-116.61257197,5.994241812516204,-2.621677797361111,6.55e-06,3.0952019222923215e-07,0.0,8,18,246.62082208753793,890.2560000000001,mp-1218135,SrNdGaCuO5,https://materialsproject.org/materials/mp-1218135,-46.057745988169955,-4.42960380383999,-8.604250342815693,-0.5045126942092143
-6.266707687692307,-162.93439988,6.139126482110453,-2.5121130000961545,0.00010590000000000001,3.548183064539116e-06,0.0,46,26,347.83026607292055,1285.9523,mp-541327,Sr2TbGaCu2O7,https://materialsproject.org/materials/mp-541327,-46.51198278307068,-3.9973179336459683,-8.604250342815693,-0.5045126942092143
-6.40025599576923,-166.40665589,5.476063772003164,-2.5041290420192315,2e-07,6.707722226363945e-09,0.0,46,26,347.48203277573737,1145.9133,mp-556575,Sr2YGaCu2O7,https://materialsproject.org/materials/mp-556575,-46.624775137843635,-3.683972896559133,-8.604250342815693,-0.5045126942092143
-6.327645566153848,-164.51878472,5.130825631624396,-2.5010809006730783,1.87e-05,6.378203259508254e-07,0.0,46,26,341.68088155859164,1055.7445400000001,mp-1214174,Ca2LaGaCu2O7,https://materialsproject.org/materials/mp-1214174,-45.545928655184355,-2.6580641706013397,-8.604250342815693,-0.5045126942092143
-6.058143852307693,-157.51174016,6.689887088283753,-2.179179764134616,7.68e-05,2.473180480904076e-06,0.0,47,26,361.8952120329705,1457.98325,mp-1228179,Ba4PrDy(Cu3O7)2,https://materialsproject.org/materials/mp-1228179,-47.471957210911405,0.5423729563051695,-8.604250342815693,-0.5045126942092143
-6.266609196923077,-162.93183912,6.232953007420952,-2.5137084162500014,0.0011934,4.037156397171168e-05,0.0,46,26,344.498937651215,1293.1016000000004,mp-653925,Sr2DyGaCu2O7,https://materialsproject.org/materials/mp-653925,-46.52008100488491,-3.894758976268741,-8.604250342815693,-0.5045126942092143
-6.399268693076923,-83.19049301,7.354537226503076,-2.0900550624038465,6.2650068,0.3710197952416916,0.0,123,13,196.78948666381686,871.5818,mp-1214867,Ba2GdCu2HgO7,https://materialsproject.org/materials/mp-1214867,-47.5636722813046,-3.3505457553931275,-8.604250342815693,-0.5045126942092143
-5.102126252121212,-168.37016632,6.932488491533299,-1.9246190275378792,0.0294058,0.0005894594197732971,0.0,12,33,581.3752166701064,2427.1498,mp-1228271,Ba8Cu4Hg4O17,https://materialsproject.org/materials/mp-1228271,-50.74552644368753,-1.2945936149594737,-8.604250342815693,-0.5045126942092143
-6.060734013846153,-78.78954218,6.442568654893992,-2.198597146442308,0.0011987,7.994772798218297e-05,0.0,25,13,174.73576542388514,677.9408000000002,mp-1227474,BaSrSmCu3O7,https://materialsproject.org/materials/mp-1227474,-47.27275990086198,0.4943734048821546,-8.604250342815693,-0.5045126942092143
-6.266289992692308,-162.92353981,6.242197985985876,-2.515495528557693,5.15e-06,1.7382452329745526e-07,0.0,46,26,345.28173838841235,1297.96224,mp-541325,Sr2HoGaCu2O7,https://materialsproject.org/materials/mp-541325,-46.58087438740645,-4.079830029599706,-8.604250342815693,-0.5045126942092143
-5.958105372666666,-89.37158059,6.322713064727143,-2.039836903499999,4.7e-06,2.5837600183451445e-07,0.0,65,15,211.99377667478757,807.1931999999998,mp-1214577,Ba2Sm(CuO2)4,https://materialsproject.org/materials/mp-1214577,-49.28431002017466,0.2518060733550209,-8.604250342815693,-0.5045126942092143
-6.126655921153847,-159.29305395,6.327747694490509,-2.1760787464423084,2.49e-05,7.987643384779688e-07,0.0,65,26,363.29390141487914,1384.3891,mp-1228182,Ba4PrY(Cu3O7)2,https://materialsproject.org/materials/mp-1228182,-47.60094578316392,0.506458903644777,-8.604250342815693,-0.5045126942092143
-6.03980014923077,-78.51740194,6.266369619988128,-2.17248387048077,2.3e-05,1.5131370769287003e-06,0.0,25,13,177.14422166756756,668.4884500000002,mp-1227458,BaSrPrCu3O7,https://materialsproject.org/materials/mp-1227458,-46.88639368899048,0.6812158603991527,-8.604250342815693,-0.5045126942092143
-6.077412186153847,-79.00635842,7.109360223959202,-2.2114245485576927,9.000000000000001e-07,5.969478590457902e-08,0.0,47,13,175.70476443402688,752.2548,mp-20324,Ba2LuCu3O7,https://materialsproject.org/materials/mp-20324,-48.39344282357174,-0.3988223509772771,-8.604250342815693,-0.5045126942092143
-5.283796046363637,-116.24351302,5.177502193322403,-2.2487298428654543,1.9999999,0.053914277353910633,0.16810000000000036,51,22,432.3182934774562,1347.9532000000004,mp-559757,Ba3Cu2(ClO2)2,https://materialsproject.org/materials/mp-559757,-50.4534905024376,-1.0011319211758951,-8.604250342815693,-0.5045126942092143
-5.399433697999999,-80.99150547,7.066057486641479,-1.893081263000001,2.8e-06,1.4189419392139325e-07,0.0,139,15,229.9698138547115,978.5857999999997,mp-6885,Ba2CaTl2(CuO4)2,https://materialsproject.org/materials/mp-6885,-46.984585720140856,-2.256338850050709,-8.604250342815693,-0.5045126942092143
-6.768570352727273,-74.45427388,6.521932746707868,-2.669087433409091,5.489999999999999e-05,4.2698857857850615e-06,0.0,139,11,149.84198362952043,588.51934,mp-1218240,SrLa2(CuO3)2,https://materialsproject.org/materials/mp-1218240,-44.32759269855322,-2.021693358284027,-8.604250342815693,-0.5045126942092143
-5.93132232625,-94.90115722,7.637689968151162,-2.0908435690625,1.3e-06,6.47903457565436e-08,0.0,123,16,233.8355202063029,1075.5322,mp-14825,Sr2ErCu3(PbO4)2,https://materialsproject.org/materials/mp-14825,-46.575350928196706,-4.48534352738178,-8.604250342815693,-0.5045126942092143
-6.110171878571428,-171.0848126,6.04050087307359,-2.1016225604017857,1.6856656000000003,0.05078715575428691,0.0,38,28,386.8075657223133,1407.0801,mp-1228275,Ba4Y2Cu6NiO15,https://materialsproject.org/materials/mp-1228275,-48.58088891054757,0.07831910996023947,-8.604250342815693,-0.5045126942092143
-6.384180783076923,-165.98870036,5.411185190117094,-2.3184133916346155,3.8927680000000002,0.13148736784933648,0.0,46,26,345.026074812985,1124.33369,mp-542434,Sr2YCoCu2O7,https://materialsproject.org/materials/mp-542434,-47.831963994300786,-2.1618525797482584,-8.604250342815693,-0.5045126942092143
-5.088025603599999,-127.20064009,6.754792639122987,-1.9000292993499996,0.9036698000000001,0.0234822150999513,0.0,12,25,448.4852190212628,1824.3622,mp-1228333,Ba6Cu3Hg3O13,https://materialsproject.org/materials/mp-1228333,-50.76948624362825,-1.325042503238994,-8.604250342815693,-0.5045126942092143
-6.04061226625,-193.29959252,6.984904419249125,-2.081385199375,5.7000000000000005e-06,1.401072209877665e-07,0.0,53,32,474.12380843233217,1994.3581,mp-1198573,Sr2YCu3(PbO4)2,https://materialsproject.org/materials/mp-1198573,-46.80358874558939,-4.018859737185741,-8.604250342815693,-0.5045126942092143
-6.206347217692307,-80.68251383,6.570218342750595,-2.238268629519232,2.5197877999999996,0.16069885803039458,0.0,47,13,182.7378899528424,723.0349950000002,mp-1214586,Ba2SmCoCu2O7,https://materialsproject.org/materials/mp-1214586,-48.882324371596134,-2.867359729855949,-8.604250342815693,-0.5045126942092143
-6.319449715454545,-139.02789374,6.166865681016608,-2.2863956638257577,0.22158779999999997,0.009125781898793357,0.0,38,22,282.9783357358625,1050.91741,mp-1227548,Ca2La3Cu4AgO12,https://materialsproject.org/materials/mp-1227548,-44.0933177908793,-3.5484467709955827,-8.604250342815693,-0.5045126942092143
-6.1262775000000005,-159.28321499999998,6.320513448962142,-2.1757003252884632,6.26e-05,2.0058426378613528e-06,0.0,47,26,363.7097153045283,1384.3891,mp-1228236,Ba4PrY(Cu3O7)2,https://materialsproject.org/materials/mp-1228236,-47.50728153303445,0.5493523872035703,-8.604250342815693,-0.5045126942092143
-6.11329478875,-48.90635831,4.899745828304097,-2.0280493166249998,9.000000000000001e-07,9.698980818152522e-08,0.0,123,8,108.14186038674544,319.09375,mp-1147560,KY(CuO2)2,https://materialsproject.org/materials/mp-1147560,-48.53923598540142,-1.4526076680831623,-8.604250342815693,-0.5045126942092143
-5.945301317333334,-89.17951976,6.178482105392053,-2.022544025000001,0.0,0.0,0.0,65,15,214.40214645466338,797.74085,mp-6779,Ba2Pr(CuO2)4,https://materialsproject.org/materials/mp-6779,-49.02672860828186,0.4217654321596748,-8.604250342815693,-0.5045126942092143
-5.812443104493671,-918.36601051,5.152578650816532,-1.877965748908228,0.39654175,0.002279415940808729,0.0,66,158,2027.4155132408796,6290.98,mp-683950,Ca10Pr4Cu24O41,https://materialsproject.org/materials/mp-683950,-51.38319224927654,-0.16034423254739855,-8.604250342815693,-0.5045126942092143
-6.963275067307693,-181.04515175,6.014728332135266,-2.3116596450961544,6.9438527,0.2324460619895176,0.0,46,26,348.14145029724307,1261.0219900000004,mp-560285,Sr2GdCoCu2O7,https://materialsproject.org/materials/mp-560285,-47.2159051887024,-0.6112110700232593,-8.604250342815693,-0.5045126942092143
-5.842002202307693,-75.94602863,5.823924841645179,-1.8364459178846155,8e-07,4.581354487536352e-08,0.0,65,13,203.50426589803973,713.74025,mp-643471,Ba2Y(Cu2O3)2,https://materialsproject.org/materials/mp-643471,-51.0891525483362,-1.016994256398749,-8.604250342815693,-0.5045126942092143
-6.542658965,-117.76786137,5.84168781784298,-2.6679165462500007,2.15e-06,1.002139877210958e-07,0.6958000000000002,8,18,250.02736475008885,879.58294,mp-1218226,SrLaGaCuO5,https://materialsproject.org/materials/mp-1218226,-45.80523414714367,-4.563426956089071,-8.604250342815693,-0.5045126942092143
-5.086971747142857,-35.60880223,4.4376680254686365,-2.4544101291457148,1e-07,9.114857045150378e-09,0.0,139,7,127.85789963387651,341.6908,mp-23102,Sr2Cu(ClO)2,https://materialsproject.org/materials/mp-23102,-45.21442551537412,-2.0352569636116544,-8.604250342815693,-0.5045126942092143
-6.0561584742666685,-454.21188557,5.994109820355347,-2.043603704866667,1.7004503,0.018921044070141814,0.0,65,75,1047.3606987677204,3780.69705,mp-1229217,Ba10PrY4(CuO2)20,https://materialsproject.org/materials/mp-1229217,-49.14892717382119,0.23410597662702015,-8.604250342815693,-0.5045126942092143
-5.989745879111111,-269.53856456,6.074507953549091,-2.0295729713333333,0.0011351,2.06695585448558e-05,0.0,65,45,640.0005541784926,2341.22075,mp-1228680,Ba6Pr2Y(CuO2)12,https://materialsproject.org/materials/mp-1228680,-49.1131443322161,0.34770010399880824,-8.604250342815693,-0.5045126942092143
-4.88796386,-34.21574702,4.735092499862754,-2.1482125839285717,5.3e-06,4.0904012301891095e-07,0.0,139,7,151.00362976301656,430.5928,mp-546898,Sr2Cu(BrO)2,https://materialsproject.org/materials/mp-546898,-45.20922213068895,-1.8431420339100983,-8.604250342815693,-0.5045126942092143
-6.075301946153847,-78.9789253,6.882202656400553,-2.2031931485576934,1.4499999999999998e-05,9.467092732872772e-07,0.0,47,13,178.49612755492433,739.7878000000002,mp-622105,Ba2DyCu3O7,https://materialsproject.org/materials/mp-622105,-47.85664221597925,0.3972321377494344,-8.604250342815693,-0.5045126942092143
-6.041693950625,-193.33420642,6.9583686865414425,-2.08246688375,1.6e-06,3.9178933904314654e-08,0.0,17,32,475.93187914799347,1994.3581,mp-643629,Sr2YCu3(PbO4)2,https://materialsproject.org/materials/mp-643629,-46.848848806783494,-3.97498624558658,-8.604250342815693,-0.5045126942092143
-6.666788209230769,-173.33649344,5.138541424662309,-2.7154739839423083,0.0,0.0,0.0,46,26,342.6820755187833,1060.4303772,mp-643741,Sr2YAlCu2O7,https://materialsproject.org/materials/mp-643741,-46.589350613330964,-3.7354414175387127,-8.604250342815693,-0.5045126942092143
-7.031978590769231,-182.83144336,4.996523677176773,-2.761508659839745,1.15e-06,3.658753982979943e-08,0.0,46,26,366.30433614254616,1102.2013,mp-1239322,Sr2YTiCu2O7,https://materialsproject.org/materials/mp-1239322,-45.26339535135863,-3.4032373955783015,-8.604250342815693,-0.5045126942092143
-6.0610528143076925,-393.96843293,6.595315252553594,-2.187814086903846,0.0021093,2.7589457597556025e-05,0.0,25,65,890.9895650481261,3538.825,mp-1229001,Ba8Sr2Sm5(Cu3O7)5,https://materialsproject.org/materials/mp-1229001,-47.28596684494295,0.5397940000999042,-8.604250342815693,-0.5045126942092143
-6.582179406,-98.73269109,6.464241681337834,-2.0394403073333343,6.921688400000001,0.3857351132038079,0.0,65,15,209.12227637014286,814.0831999999998,mp-1214720,Ba2Gd(CuO2)4,https://materialsproject.org/materials/mp-1214720,-49.32145165962068,0.15874800195718244,-8.604250342815693,-0.5045126942092143
-6.092175641153847,-158.39656667,6.2563641999372575,-2.192374674326924,1.47e-05,4.834390044744703e-07,0.0,35,26,354.36683960339064,1335.1375400000004,mp-1228470,Ba3CaLa2(Cu3O7)2,https://materialsproject.org/materials/mp-1228470,-46.87921660236801,0.6201209255648615,-8.604250342815693,-0.5045126942092143
-5.597795092222222,-100.76031166,6.8315343538312145,-2.072009314583334,0.4794045,0.02187132198710716,0.0,139,18,255.44917214195183,1050.9297,mp-1218439,Sr4TlCu2BiO10,https://materialsproject.org/materials/mp-1218439,-46.69106969269661,-3.162105716846761,-8.604250342815693,-0.5045126942092143
-6.350783669999998,-82.56018771,6.134118638435532,-2.2480100785576926,2.4227845,0.15765667843793696,0.0,47,13,179.09350731417786,661.5808450000002,mp-1214571,Ba2YCoCu2O7,https://materialsproject.org/materials/mp-1214571,-48.940818677413006,-2.9484765390486807,-8.604250342815693,-0.5045126942092143
-7.146201065555554,-128.63161918,6.126590958794176,-2.857358393101852,0.0,0.0,0.0,100,18,236.3034074911997,871.846,mp-10350,BaNdCuBO5,https://materialsproject.org/materials/mp-10350,-47.943476174657214,-5.579246775205399,-8.604250342815693,-0.5045126942092143
-5.991788902222222,-269.6305006,6.0852041838481234,-2.0316159944444445,0.0092556,0.00016883625293082506,0.0,12,45,638.8755971331445,2341.22075,mp-1228902,Ba6Pr2Y(CuO2)12,https://materialsproject.org/materials/mp-1228902,-49.18106996600137,0.3069847829430847,-8.604250342815693,-0.5045126942092143
-4.8991742785,-97.98348557,7.431787537997644,-1.724054761875,0.00136755,4.3325656082076365e-05,0.0,107,20,367.85400893922724,1646.3406,mp-619126,Ba2TlCuHgO5,https://materialsproject.org/materials/mp-619126,-50.54859105853204,-2.0962933751419044,-8.604250342815693,-0.5045126942092143
-6.062664885769231,-157.62928703,6.4272110029790905,-2.1713489655769243,6.0599999999999996e-05,1.9057093193988785e-06,0.0,47,26,370.5897421123422,1434.38872,mp-1228253,Ba4LaPr(Cu3O7)2,https://materialsproject.org/materials/mp-1228253,-47.01748625202511,0.6692497496129298,-8.604250342815693,-0.5045126942092143
-5.969825047333332,-89.54737571,6.53673788164659,-2.058950258666667,0.0,0.0,0.0,65,15,208.13665623462512,819.3332,mp-6691,Ba2Dy(CuO2)4,https://materialsproject.org/materials/mp-6691,-49.48164498356642,0.09369688286117303,-8.604250342815693,-0.5045126942092143
-6.085758773999999,-91.28638161,5.936250640512718,-2.050754635333334,0.0,0.0,0.0,65,15,208.60453528130614,745.7390499999998,mp-6790,Ba2Y(CuO2)4,https://materialsproject.org/materials/mp-6790,-49.21180269227586,0.1792036448773831,-8.604250342815693,-0.5045126942092143
-5.4819220007142855,-76.74690801,6.074516051175897,-1.9930475715066964,0.0247809,0.0011547349995784913,0.0,229,14,250.0991256242717,914.9024,mp-1147645,Ba4Cu3SeO6,https://materialsproject.org/materials/mp-1147645,-50.5560576133992,-1.0543075324894549,-8.604250342815693,-0.5045126942092143
-5.512918030625,-88.20668849,5.786553853690955,-1.8937389525,0.792292375,0.034542750938195574,0.0,55,16,267.3043230857827,931.4872,mp-754008,BaCuO2,https://materialsproject.org/materials/mp-754008,-47.731060345642604,-1.1896260784053443,-8.604250342815693,-0.5045126942092143
-6.179574292307692,-401.672329,6.25564928103087,-2.1901424400192298,0.0001143,1.4833676613538346e-06,0.0,47,65,897.9969283460267,3382.97005,mp-1228989,Ba10PrY4(Cu3O7)5,https://materialsproject.org/materials/mp-1228989,-47.71745714640235,0.4826446092140941,-8.604250342815693,-0.5045126942092143
-6.075608159333331,-91.13412239,5.6725382321316244,-2.0566400406666663,0.0012862,7.356733705801447e-05,0.0,38,15,203.75153852103875,696.0320499999998,mp-1227433,BaSrY(CuO2)4,https://materialsproject.org/materials/mp-1227433,-48.78476723597967,0.2692605729837689,-8.604250342815693,-0.5045126942092143
-5.990320785333332,-269.56443534,6.1476875875395525,-2.0301478775555557,0.008590700000000001,0.00015831654918801836,0.0,2,45,632.3822414972492,2341.22075,mp-1228207,Ba6Pr2Y(CuO2)12,https://materialsproject.org/materials/mp-1228207,-49.05313251819288,0.3591142425729668,-8.604250342815693,-0.5045126942092143
-6.324750259846153,-411.10876689,6.298904220503975,-2.192245683019231,6.7543856,0.08783914777438458,0.0,47,65,896.1385586689336,3399.3124,mp-1229303,Ba10GdY4(Cu3O7)5,https://materialsproject.org/materials/mp-1229303,-47.77721121050377,0.4581888182004365,-8.604250342815693,-0.5045126942092143
-5.943202266923077,-77.26162947,7.166137092852316,-2.1920697329807703,1.3500000000000001e-05,7.873268064458554e-07,0.0,25,13,199.82791534785045,862.3670999999998,mp-1228402,Ba2NdTlCu2O7,https://materialsproject.org/materials/mp-1228402,-46.89359206617116,-2.268045977254839,-8.604250342815693,-0.5045126942092143
-6.142181135692308,-399.24177382,6.306700011536738,-2.1786524017884608,0.0038256999999999996,4.929674442128458e-05,0.0,47,65,904.4198785088823,3434.97185,mp-1229245,Ba10Pr2Y3(Cu3O7)5,https://materialsproject.org/materials/mp-1229245,-47.5168965941557,0.5580999714331872,-8.604250342815693,-0.5045126942092143
-6.166970519038463,-320.68246699,6.283098412007103,-2.184014446346155,0.0028131999999999996,4.5661367290229774e-05,0.0,47,52,718.0077374770168,2716.7764,mp-1228958,Ba8PrY3(Cu3O7)4,https://materialsproject.org/materials/mp-1228958,-47.66760291522442,0.5049030996287343,-8.604250342815693,-0.5045126942092143
-6.478275486111111,-116.60895875,5.908289332389449,-2.619411964861111,1.05e-05,4.927537361767772e-07,0.0,8,18,248.334352695759,883.5873,mp-1218089,SrPrGaCuO5,https://materialsproject.org/materials/mp-1218089,-46.04565949715274,-4.49333509869064,-8.604250342815693,-0.5045126942092143