energy_per_atom,energy,density,formation_energy_per_atom,total_magnetization_uB,total_magnetization_T,band_gap,sgr,num_sites,cell_volume,weight,mp_id,formula,URL,tsne_cry_lin1_0,tsne_cry_lin1_1,tsne_cry_lin2_0,tsne_cry_lin2_1
-6.260460750357143,-175.29290101,8.343316975025656,-0.18056497303571464,11.6171153,0.3628335691989854,0.0,42,28,373.1369577390052,1874.8128399999998,mp-1223198,LaGa3Co10,https://materialsproject.org/materials/mp-1223198,40.41224737081766,77.63882292915136,-8.604250342815693,-0.5045126942092143
-8.173461258970589,-555.79536561,8.622007016046544,-0.10913926848039067,30.6854642,0.3894536044288217,0.0,136,68,918.2361731825237,4767.752239999999,mp-1226123,ErThFe14B,https://materialsproject.org/materials/mp-1226123,56.28349622982608,77.80680377046949,-8.604250342815693,-0.5045126942092143
-8.437962943846154,-109.69351827,8.758012541483174,-0.22701377038461604,17.976259,1.2958730737065216,0.0,71,13,161.66435664497348,852.6499100000002,mp-1217053,U(Fe5Si)2,https://materialsproject.org/materials/mp-1217053,49.8064192129055,68.95197562190296,-8.604250342815693,-0.5045126942092143
-9.605777245,-57.63466347,9.733440991647466,-0.17131150166666606,5.17949155,0.6430361763467402,0.0060999999999999934,227,6,93.87050407577213,550.2327799999999,mp-542633,GdCo2,https://materialsproject.org/materials/mp-542633,42.77352180288448,74.4913838750455,-8.604250342815693,-0.5045126942092143
-6.3849141383333325,-38.30948483,8.325580845620454,-0.2526600650000006,4.290034400000001,0.5895162400562308,0.0,187,6,84.80909494425525,425.2143186,mp-1225308,DyAlCo4,https://materialsproject.org/materials/mp-1225308,41.003884951940144,77.68217466605797,-8.604250342815693,-0.5045126942092143
-7.7259917618421055,-293.58768695,7.285249575581419,-0.05240210723684263,60.1240128,1.3230195416282486,0.0,2,38,529.6135979178853,2323.5630999999994,mp-1220120,Pr4Fe29Si5,https://materialsproject.org/materials/mp-1220120,50.69360912198904,70.53518185812379,-8.604250342815693,-0.5045126942092143
-9.102526592439023,-373.20359029,8.049976350543599,-0.03803136015244075,74.2124743,1.6353929829286664,0.0,2,41,528.8496351961211,2563.7621,mp-1225869,Gd4Fe34C3,https://materialsproject.org/materials/mp-1225869,56.86815742202735,75.76151331223856,-8.604250342815693,-0.5045126942092143
-7.53069581375,-60.24556651,10.004962399356797,0.11830472124999948,3.73789455,0.4722803049979626,0.0,194,8,92.23688715726944,555.7391700000001,mp-1183807,Co3Ru,https://materialsproject.org/materials/mp-1183807,47.56629333785328,78.98031134130504,-8.604250342815693,-0.5045126942092143
-6.4018595283333335,-38.41115717,9.3086848858642,-0.08974693250000006,1.8254941999999998,0.22231339104997624,0.0,227,6,95.69566434236764,536.4527800000002,mp-336,SmCo2,https://materialsproject.org/materials/mp-336,42.76563542064528,74.56783216552796,-8.604250342815693,-0.5045126942092143
-8.03856048962963,-217.04113322,7.912168219045003,-0.09762716044271733,44.4707092,1.5028376495404316,0.0,8,27,344.85729423730623,1643.18264,mp-1217796,Tb2Ti2Fe22H,https://materialsproject.org/materials/mp-1217796,56.842237011328535,76.74198944300932,-8.604250342815693,-0.5045126942092143
-8.130897789411764,-552.90104968,8.471682227226951,-0.08396083933823541,29.56493015,0.3894643212526784,0.0,136,68,884.6808094155642,4513.4348,mp-567623,Er2Fe14C,https://materialsproject.org/materials/mp-567623,56.39780873244078,77.1944570248465,-8.604250342815693,-0.5045126942092143
-8.374846211463415,-343.36869467,7.178777354196005,-0.05337774990853842,74.6510676,1.6421251728232298,0.0,2,41,529.7941908139692,2290.3855,mp-1216228,Y4Fe34C3,https://materialsproject.org/materials/mp-1216228,56.76543785938453,75.66031289336348,-8.604250342815693,-0.5045126942092143
-7.713434628965517,-223.68960424,8.606807749848354,-0.0510631320689656,51.5037466,1.3769222248782755,0.0,225,29,435.92004549055997,2259.435,mp-1194186,Dy6Fe23,https://materialsproject.org/materials/mp-1194186,51.63569521118685,73.36130303239484,-8.604250342815693,-0.5045126942092143
-8.127903987205883,-552.69747113,8.403651930474943,-0.07971402654411844,29.644288525,0.3889793395937539,0.0,136,68,888.1614611398387,4494.8053599999985,mp-571245,Ho2Fe14C,https://materialsproject.org/materials/mp-571245,56.3920439488749,77.21288508944909,-8.604250342815693,-0.5045126942092143
-8.093664293793104,-234.71626452,6.911346712622013,-0.04606377965517328,49.8313476,1.3296299920214856,0.0,225,29,436.766435864928,1817.8701,mp-30641,Y6Fe23,https://materialsproject.org/materials/mp-30641,51.804039064021566,72.90367129317045,-8.604250342815693,-0.5045126942092143
-8.304868095,-116.26815333,8.103058441821178,-0.11153885752976274,21.958748899999996,1.470637902433834,0.0,44,14,174.012026741224,849.1397,mp-1222300,LuTiFe11C,https://materialsproject.org/materials/mp-1222300,56.975755418312396,75.62489016642735,-8.604250342815693,-0.5045126942092143
-7.496080348421053,-284.85105324,7.418600764566883,-0.1032168521052633,28.9330913,0.6444229520739266,0.0,194,38,523.2403951402121,2337.6214,mp-1200648,Y2Ga3Fe14,https://materialsproject.org/materials/mp-1200648,48.19563712848233,70.82177656368485,-8.604250342815693,-0.5045126942092143
-7.97941759264706,-542.6003962999999,7.7411988932129026,-0.059044068039216815,30.934418,0.38863562729650825,0.0,136,68,927.6342305034873,4324.499999999999,mp-5182,Nd2Fe14B,https://materialsproject.org/materials/mp-5182,56.203732506129846,77.81708695583778,-8.604250342815693,-0.5045126942092143
-6.5799299950000005,-39.47957997,7.701464323862434,-0.22619603333333296,3.0833931,0.4137217865023181,0.0,187,6,86.85562152879828,402.8303186,mp-1226661,CeAlCo4,https://materialsproject.org/materials/mp-1226661,40.81950010670687,77.7419066582413,-8.604250342815693,-0.5045126942092143
-5.867382362142857,-82.14335307,8.898361116240352,-0.033223627499999964,11.4049406,0.6058733902433495,0.0,38,14,219.375728691783,1175.5727550000001,mp-672646,Sm2(InCo3)3,https://materialsproject.org/materials/mp-672646,41.21698268895902,78.35248286579404,-8.604250342815693,-0.5045126942092143
-6.71678726763158,-255.23791617,7.263766061282501,-0.2052610255263164,16.77948025,0.3946218374655305,0.0,194,38,495.5355510463025,2167.6420916,mp-1204905,Y2Al3Co14,https://materialsproject.org/materials/mp-1204905,41.0164735157803,77.81502168008122,-8.604250342815693,-0.5045126942092143
-8.098818986911764,-550.71969111,8.08299263247438,-0.038016326102940506,30.45271105,0.3924133813793408,0.0,136,68,904.3979739663088,4402.3308,mp-1220835,NdDyFe14C,https://materialsproject.org/materials/mp-1220835,56.33731636418851,77.35165142192473,-8.604250342815693,-0.5045126942092143
-8.301596730714285,-116.22235423,7.9317148239621185,-0.10530018074404726,22.2452692,1.4716828347459197,0.0,44,14,176.15739072242783,841.4317,mp-1225513,ErTiFe11C,https://materialsproject.org/materials/mp-1225513,57.00136478614463,75.64900412756305,-8.604250342815693,-0.5045126942092143
-8.296786571428571,-116.15501200000001,7.857836463593999,-0.09777339967261968,22.2960288,1.4696138671737569,0.0,44,14,176.80791506530795,836.6727,mp-1225715,DyTiFe11C,https://materialsproject.org/materials/mp-1225715,56.962280173055255,75.66489066133964,-8.604250342815693,-0.5045126942092143
-6.791708765,-40.75025259,10.300450903236618,-0.2975984333333344,2.912732,0.40032437139343496,0.0,65,6,84.79415648603205,525.98465,mp-1217356,ThCo2Ni3,https://materialsproject.org/materials/mp-1217356,30.286421067544104,82.07673722565285,-8.604250342815693,-0.5045126942092143
-8.380705241875,-134.09128387,8.075536874530243,-0.005239155000001715,36.638926700000006,2.31600653532726,0.0,221,16,184.36581177372682,896.6081949999998,mp-18695,Fe15Co,https://materialsproject.org/materials/mp-18695,49.27224436844792,74.07812537094412,-8.604250342815693,-0.5045126942092143
-8.121222656029412,-552.24314061,7.687929217687763,-0.11234300200980256,31.0364066,0.3991664701820401,0.0,136,68,906.138966679605,4195.2234,mp-1216335,YErFe14B,https://materialsproject.org/materials/mp-1216335,56.29966989128697,77.77604000544949,-8.604250342815693,-0.5045126942092143
-6.962309742916666,-167.09543383,8.995109159265885,-0.2866229450000001,0.00158765,5.447777630586923e-05,0.0,194,24,339.6353006824362,1839.79812,mp-1191126,Ce3Co8Si,https://materialsproject.org/materials/mp-1191126,41.73319726600643,76.47764228744987,-8.604250342815693,-0.5045126942092143
-8.128161197105264,-308.87012549,8.067690286560667,0.030529986578946032,58.627867,1.3338975830583115,0.0,8,38,512.2229533758339,2488.6233,mp-1219348,Sm4Cr3Fe31,https://materialsproject.org/materials/mp-1219348,51.2868274387381,70.78411192859903,-8.604250342815693,-0.5045126942092143
-8.581018965,-17.16203793,8.711997256966097,0.030547789999999964,0.0506194,0.02038346822249708,0.0,221,2,28.94118703984909,151.839575,mp-1009264,NbCo,https://materialsproject.org/materials/mp-1009264,46.495975640954136,76.76073212608708,-8.604250342815693,-0.5045126942092143
-6.752512675,-27.010050699999997,7.362749832091332,-0.4586946899999997,1.0047815,0.22050509369737872,0.0,225,4,53.104390864277285,235.462302,mp-1208943,ScCo2Ge,https://materialsproject.org/materials/mp-1208943,41.95767864989399,76.81618663838988,-8.604250342815693,-0.5045126942092143
-8.178819192682926,-335.3315869,7.828609514638381,-0.0281834182012212,75.1670583,1.6283833936988783,0.0,2,41,537.9579339734788,2536.2021,mp-1219344,Sm4Fe34C3,https://materialsproject.org/materials/mp-1219344,56.79240702230477,75.96806795713951,-8.604250342815693,-0.5045126942092143
-6.839863325,-82.07835990000001,8.285477833945823,-0.18949909027777775,3.4875152000000003,0.2617066402954611,0.0,191,12,155.30262430559875,774.9028599999998,mp-11610,PrCo4B,https://materialsproject.org/materials/mp-11610,42.407156648660774,83.21711283378228,-8.604250342815693,-0.5045126942092143
-8.285794852794117,-563.43404999,7.139138591664243,-0.09024187824754858,61.15988285,0.7889292725464788,0.0,65,68,903.4539102794811,3884.2102,mp-1216422,Y4Fe28BC,https://materialsproject.org/materials/mp-1216422,56.35550866262973,77.3257923870627,-8.604250342815693,-0.5045126942092143
-8.193897555365853,-335.94979977,8.033588366174241,-0.05193343137195353,74.97401640000001,1.6445127602438037,0.0,2,41,531.3136294880536,2570.4635,mp-1217662,Tb4Fe34C3,https://materialsproject.org/materials/mp-1217662,56.966393615847565,75.64148108075949,-8.604250342815693,-0.5045126942092143
-8.294066249285715,-116.11692749,7.811166550231981,-0.09348016395833372,22.3080315,1.4679435874730271,0.0,44,14,177.10438348440888,833.0980500000002,mp-1217503,TbTiFe11C,https://materialsproject.org/materials/mp-1217503,57.00187171416916,75.636129383103,-8.604250342815693,-0.5045126942092143
-6.22023737,-37.32142422,8.407332163040959,-0.18094710625,4.3538377,0.5712655504788864,0.0,187,6,88.82017570021077,449.69778,mp-1220210,NdGaCo4,https://materialsproject.org/materials/mp-1220210,40.88421895960569,77.74136075051136,-8.604250342815693,-0.5045126942092143
-8.055474123684213,-153.05400835,7.68117977562713,-0.014178733245614694,34.3494904,1.5056256473306435,0.0,160,19,265.8769706372483,1229.871,mp-1220302,Nd2TiFe16,https://materialsproject.org/materials/mp-1220302,51.20623587198576,71.97321244791759,-8.604250342815693,-0.5045126942092143
-8.19185573097561,-335.86608497,8.30873767702331,-0.06445613576219572,74.88968179999999,1.6728686745137058,0.0,2,41,521.7200942251453,2610.49894,mp-1217051,Tm4Fe34C3,https://materialsproject.org/materials/mp-1217051,57.07993820429671,75.44027118117866,-8.604250342815693,-0.5045126942092143
-7.562318470588236,-514.237656,8.379385320811469,-0.02268114745097993,31.014141925,0.40042662567221615,0.0,136,68,902.6393243769453,4554.883999999999,mp-1196806,Yb2Fe14B,https://materialsproject.org/materials/mp-1196806,56.287732694053325,77.92086119461916,-8.604250342815693,-0.5045126942092143
-7.363831908,-36.81915954,7.995466245945331,0.010166517999999769,9.200678300000002,1.7614556523673583,0.0,69,5,60.873119749325454,293.103,mp-1224889,GaFe4,https://materialsproject.org/materials/mp-1224889,48.26780667901136,71.33006137760495,-8.604250342815693,-0.5045126942092143
-7.814538390625,-125.03261425,8.333737463824418,-0.07416089531250059,26.887417300000003,1.6660535367460318,0.0,221,16,188.07781134875245,943.905,mp-601833,Fe13Ge3,https://materialsproject.org/materials/mp-601833,50.024130845170156,68.4311199826047,-8.604250342815693,-0.5045126942092143
-7.989832545,-543.30861306,7.96447103686325,-0.08108751318627416,31.3519,0.3967931974546929,0.0,136,68,920.8249427827808,4416.567999999998,mp-1220643,NdErFe14B,https://materialsproject.org/materials/mp-1220643,56.27282621346305,77.85323341385656,-8.604250342815693,-0.5045126942092143
-8.298883165714285,-116.18436432,7.954383329167251,-0.10182585931547652,22.036371399999997,1.466086694890561,0.0,44,14,175.16924513591078,839.1030199999999,mp-1224127,HoTiFe11C,https://materialsproject.org/materials/mp-1224127,57.014893541527464,75.64023870996455,-8.604250342815693,-0.5045126942092143
-7.053887477499999,-84.64664973,9.147503202108878,-0.2449457774999999,14.5535934,1.029655924395806,0.0,25,12,164.7234927110454,907.42141,mp-1224982,GdTm(FeNi4)2,https://materialsproject.org/materials/mp-1224982,29.977136668569184,80.86798131325074,-8.604250342815693,-0.5045126942092143
-8.072886288382353,-548.95626761,7.750949420308219,-0.0005057783088254972,30.566047425,0.3864462764962225,0.0,136,68,921.7806411845797,4302.624,mp-1200780,Pr2Fe14C,https://materialsproject.org/materials/mp-1200780,56.29276326245503,77.59622818487026,-8.604250342815693,-0.5045126942092143
-7.427661138421053,-141.12556163,7.5675485238501,-0.11751221631578952,27.725245899999997,1.2397237419178684,0.0,166,19,260.6321074837906,1187.7746158,mp-1106052,Dy2Al3Fe14,https://materialsproject.org/materials/mp-1106052,48.12949229743304,71.26306814689559,-8.604250342815693,-0.5045126942092143
-8.119052627777778,-219.21442095,7.765275165477488,-0.08131496229456855,41.4818596,1.4080426127252894,0.0,8,27,343.3363978444772,1605.56394,mp-1227780,Ce2Ti2Fe22H,https://materialsproject.org/materials/mp-1227780,56.83413711975648,76.73861766150777,-8.604250342815693,-0.5045126942092143
-8.336501518235295,-566.88210324,9.013150354337073,-0.10497407627450923,29.799342600000003,0.3749851880734187,0.0,136,68,926.1258307944217,5026.868479999999,mp-1198402,Th2Fe14B,https://materialsproject.org/materials/mp-1198402,56.29299024336033,77.67226912588028,-8.604250342815693,-0.5045126942092143
-8.125649997794119,-552.54419985,8.332948059154269,-0.07423861183823653,29.720402275,0.388376950746805,0.0,136,68,891.8229892720527,4475.3628,mp-571165,Dy2Fe14C,https://materialsproject.org/materials/mp-571165,56.34409589141801,77.38317734197804,-8.604250342815693,-0.5045126942092143
-8.01829498647059,-545.24405908,8.317238621675893,-0.12117844745098108,30.78764925,0.3986014318101362,0.0,136,68,900.1504508525069,4508.636,mp-3680,Er2Fe14B,https://materialsproject.org/materials/mp-3680,56.30684258384698,77.82145743679935,-8.604250342815693,-0.5045126942092143
-8.030833127941179,-546.0966527,7.681061694946375,-0.035549397806373485,62.38627345,0.7772519797564823,0.0,65,68,935.4156575229456,4326.899399999998,mp-1220656,Nd4Fe28BC,https://materialsproject.org/materials/mp-1220656,56.24731288076738,77.75781191925631,-8.604250342815693,-0.5045126942092143
-5.6382903875,-45.106323100000004,9.250310178929217,-0.2508131870833328,2.0440853,0.16687497321665756,0.0,51,8,142.75299661566743,795.2294199999999,mp-1079173,HoInCo2,https://materialsproject.org/materials/mp-1079173,41.27968468979131,78.83329043330971,-8.604250342815693,-0.5045126942092143
-8.0226716775,-64.18137342,11.292935688087425,-0.20161897000000015,2.765773,0.3084886941895957,0.0,194,8,104.4851830725012,710.57917,mp-1184721,HfCo3,https://materialsproject.org/materials/mp-1184721,47.69535625908882,77.86440560431461,-8.604250342815693,-0.5045126942092143
-8.015956539117647,-545.08504466,8.25303323791043,-0.117586989509804,30.81724165,0.3975472188133769,0.0,136,68,903.404962491564,4490.00656,mp-14698,Ho2Fe14B,https://materialsproject.org/materials/mp-14698,56.30791878329403,77.83625249806704,-8.604250342815693,-0.5045126942092143
-8.247215429999999,-313.39418634,8.46088182817844,-0.019077051578947433,29.8113272,0.6563693201942924,0.0,194,38,529.3104468105389,2696.97552,mp-1197659,Dy2Nb2Fe15,https://materialsproject.org/materials/mp-1197659,51.54477419594373,72.2300461298647,-8.604250342815693,-0.5045126942092143
-8.232448482647058,-559.80649682,7.085875293086778,-0.11180571362745148,30.879154575,0.3955968996325273,0.0,136,68,909.6827297514633,3881.8108,mp-5434,Y2Fe14B,https://materialsproject.org/materials/mp-5434,56.30655100178441,77.64226592042998,-8.604250342815693,-0.5045126942092143
-7.918903441499999,-158.37806883,7.9322029948169375,-0.10968050343750094,30.084164500000004,1.3606693983508322,0.0,12,20,257.66935167078856,1230.8567,mp-1225614,Dy2Fe15Si2C,https://materialsproject.org/materials/mp-1225614,55.630868052222425,75.0248393277828,-8.604250342815693,-0.5045126942092143
-6.74279191,-40.45675146,7.752281023097825,-0.1838118883333332,4.7008184,0.6676178956018209,0.0,191,6,82.05837872014494,383.092235,mp-1215948,YCo3Ni2,https://materialsproject.org/materials/mp-1215948,42.957788952759024,77.90896717167755,-8.604250342815693,-0.5045126942092143
-8.121701959705883,-552.27573326,8.23182986066378,-0.06769989257352904,30.080878775,0.3908148026245231,0.0,136,68,897.0092926499827,4446.7656,mp-1197275,Tb2Fe14C,https://materialsproject.org/materials/mp-1197275,56.36907069794147,77.35551419044711,-8.604250342815693,-0.5045126942092143
-8.124312074264706,-552.45322105,8.529167979977512,-0.08787311536764765,29.5001887,0.3900901567681528,0.0,136,68,881.3273135647634,4526.83648,mp-570414,Tm2Fe14C,https://materialsproject.org/materials/mp-570414,56.37959724749,77.51517613988966,-8.604250342815693,-0.5045126942092143
-7.47580962,-29.90323848,6.813016511414652,-0.1939106724999995,5.995278599999999,1.4737391314483823,0.0,225,4,47.40958806276235,194.5165386,mp-2018,AlFe3,https://materialsproject.org/materials/mp-2018,48.06260305585498,71.01783088543527,-8.604250342815693,-0.5045126942092143
-7.735121296315789,-146.96730463,7.439713331978424,-0.056512420000000486,30.098544800000003,1.360734386106859,0.0,166,19,257.7802062183233,1154.9326999999996,mp-1188725,Y2Ga2Fe15,https://materialsproject.org/materials/mp-1188725,50.93026388427283,70.39999937775994,-8.604250342815693,-0.5045126942092143
-8.091563095,-16.18312619,7.668113787086849,0.003036745000001062,0.0099065,0.004852208420009195,0.0,221,2,23.79349415273959,109.87469499999999,mp-1002109,VCo,https://materialsproject.org/materials/mp-1002109,45.7139914217826,76.68823813084836,-8.604250342815693,-0.5045126942092143
-8.284675667058824,-563.35794536,8.039854767349766,-0.10859056156862787,30.212871500000002,0.3827235758756951,0.0,136,68,919.9923485779257,4454.339639999998,mp-1216311,YThFe14B,https://materialsproject.org/materials/mp-1216311,56.29683371808378,77.80039712942498,-8.604250342815693,-0.5045126942092143
-8.082023909230767,-105.06631082,6.849552347045027,-0.2526792873076923,20.2858749,1.4784914723855638,0.0,71,13,159.9014295775327,659.5769120000001,mp-1219497,Sc(Fe5Si)2,https://materialsproject.org/materials/mp-1219497,49.76011925252418,69.06273171899272,-8.604250342815693,-0.5045126942092143
-7.9822790789705875,-542.79497737,7.928213171497393,-0.07244075995098054,31.359467025,0.3962788540774039,0.0,136,68,922.2426485338393,4403.2306,mp-1220557,PrErFe14B,https://materialsproject.org/materials/mp-1220557,56.27201337099616,77.86334443009106,-8.604250342815693,-0.5045126942092143
-7.776025319473685,-295.48896214,7.955953199911827,-0.12119751276315888,56.963497600000004,1.3198127687136352,0.0,2,38,502.9927777930053,2409.9325,mp-1226028,Dy4Fe29Si5,https://materialsproject.org/materials/mp-1226028,50.93899800695652,70.31453214502713,-8.604250342815693,-0.5045126942092143