energy_per_atom,energy,density,formation_energy_per_atom,total_magnetization_uB,total_magnetization_T,band_gap,sgr,num_sites,cell_volume,weight,mp_id,formula,URL,tsne_cry_lin1_0,tsne_cry_lin1_1,tsne_cry_lin2_0,tsne_cry_lin2_1
-5.7692752233333335,-34.61565134,8.294557276490648,-0.5248463900000004,7e-07,9.604891786824091e-08,0.0,65,6,84.93427642758711,424.2551386,mp-1225297,DyAlNi4,https://materialsproject.org/materials/mp-1225297,25.433892999206208,79.51638775155362,-8.604250342815693,-0.5045126942092143
-7.1144220988888875,-256.11919556,6.146050432690537,-0.626235993333333,0.0,0.0,0.0,62,36,576.3437027332169,2133.185296,mp-21719,Sc2V3Ge4,https://materialsproject.org/materials/mp-21719,53.47903665746577,52.85737481348733,-8.604250342815693,-0.5045126942092143
-6.86638973,-75.53028703,10.002394175245536,-0.7492114165909087,8.599999999999999e-06,5.704271767654107e-07,0.0,187,11,175.70158142242767,1058.353,mp-1103010,Sm(Ge2Rh3)2,https://materialsproject.org/materials/mp-1103010,34.234066962294186,53.29217474631543,-8.604250342815693,-0.5045126942092143
-8.594222514545454,-189.07289532,8.386647138201406,-0.6150953454545448,21.0629855,0.7043423441699442,0.0,229,22,348.508646899211,1760.1628,mp-1192140,Gd3(SiNi3)2,https://materialsproject.org/materials/mp-1192140,18.923321247681233,76.38857532474526,-8.604250342815693,-0.5045126942092143
-5.145625533333333,-61.7475064,9.887873808402595,-0.7499002200000001,1.145e-05,5.91955540822384e-07,0.0,62,12,225.42071565108776,1342.2939999999999,mp-1212903,ErZnRh,https://materialsproject.org/materials/mp-1212903,17.158035938939832,59.0963621513569,-8.604250342815693,-0.5045126942092143
-4.989180252857143,-34.92426177,6.606873299446755,-0.11299255908857173,1.4044389,0.19465354376691696,0.0,38,7,84.08489048265798,334.55294,mp-1078008,CaNi5H,https://materialsproject.org/materials/mp-1078008,31.49150742895557,78.80130646782024,-8.604250342815693,-0.5045126942092143
-7.520629951666668,-45.12377971,9.861496488460457,0.09947325000000024,1.349831,0.16949311991056082,0.0,216,6,92.81213251788664,551.1863900000002,mp-1225536,DyTmMn4,https://materialsproject.org/materials/mp-1225536,42.32486884300724,72.2948161448203,-8.604250342815693,-0.5045126942092143
-3.511237022692308,-91.29216259,7.459018432639066,-0.02702433769230831,8.5737455,0.27635158263678955,0.0,217,26,361.56473014220535,1624.122,mp-1207450,Zn9Fe4,https://materialsproject.org/materials/mp-1207450,5.315639731495355,96.09932381310287,-8.604250342815693,-0.5045126942092143
-7.632713104166666,-91.59255725,10.997407357116627,-0.2488818558333333,1.49446835,0.08901760738097142,0.0,38,12,195.65377529079063,1295.7745744,mp-1216421,UAlCo,https://materialsproject.org/materials/mp-1216421,25.892749246660465,65.04591567542289,-8.604250342815693,-0.5045126942092143
-8.4290815025,-33.71632601,6.35231553408988,-0.5188457429166675,1.9998993999999999,0.4797953314691826,0.0,225,4,48.57687354905053,185.82859,mp-865652,TiMn2Si,https://materialsproject.org/materials/mp-865652,50.86609318269265,60.56172053699424,-8.604250342815693,-0.5045126942092143
-9.718977775,-58.31386665,13.349115407604733,-0.08148565666666603,1.45829735,0.19584187316350812,0.0,74,6,86.7796631028083,697.6239099999999,mp-1216584,UMnFe,https://materialsproject.org/materials/mp-1216584,54.15127597838429,64.10430044086627,-8.604250342815693,-0.5045126942092143
-5.77661653875,-92.42586462,10.34313084938345,-0.9123144449999998,1.575e-06,6.289976443725848e-08,0.0,62,16,291.8159102978913,1817.6568399999999,mp-1189166,TmGePd2,https://materialsproject.org/materials/mp-1189166,27.822553265971152,53.777501559163255,-8.604250342815693,-0.5045126942092143
-7.25983537,-29.03934148,8.760479596558707,-0.8475455949999997,0.45513240000000005,0.08652561106972746,0.0,225,4,61.301415894262284,323.4069120000001,mp-973066,ScGeRh2,https://materialsproject.org/materials/mp-973066,34.5619954604963,57.38251908904224,-8.604250342815693,-0.5045126942092143
-8.410851712777777,-151.39533083,6.8264031077050635,-0.8813638333333339,0.0,0.0,0.0,46,18,258.36690353953253,1062.135,mp-11560,TiSiRu,https://materialsproject.org/materials/mp-11560,43.13014649472553,54.520140483820775,-8.604250342815693,-0.5045126942092143
-7.4069890725,-29.62795629,10.04679377003385,-0.4413584362499998,4.7958164000000005,0.8911554424628334,0.0,225,4,62.717178507536325,379.459045,mp-4990,MnSnRh2,https://materialsproject.org/materials/mp-4990,34.77180816294297,55.79373755062693,-8.604250342815693,-0.5045126942092143
-6.6818546925,-26.72741877,10.515720986840098,-0.3151681887500004,0.6857849,0.09352710478273972,0.0,225,4,85.45310648938548,541.150195,mp-863660,Pm2CoIr,https://materialsproject.org/materials/mp-863660,14.667820649708073,50.21154545397043,-8.604250342815693,-0.5045126942092143
-9.432071133333332,-56.59242679999999,15.359649655226553,-0.6736792199999991,4.5e-07,5.099144972831658e-08,0.0,227,6,102.84722587009679,951.316,mp-715,ZrIr2,https://materialsproject.org/materials/mp-715,30.821283504346177,62.9356447519331,-8.604250342815693,-0.5045126942092143
-8.5617523175,-34.24700927,13.43918823178026,0.005957360312500271,0.008179899999999999,0.00186448681901538,0.0,221,4,51.128859405615714,413.79958500000004,mp-1186120,NpCo3,https://materialsproject.org/materials/mp-1186120,47.11902675292038,78.64682871101742,-8.604250342815693,-0.5045126942092143
-5.520343560909091,-121.44755834,9.634171278832266,-0.5718790368181821,0.00017445,5.93699632079668e-06,0.0,229,22,342.4377395100399,1986.7668,mp-1190853,Er3(GaNi3)2,https://materialsproject.org/materials/mp-1190853,25.111211954069162,79.59744759681716,-8.604250342815693,-0.5045126942092143
-7.594507887777778,-68.35057099,4.506018201028387,-0.62214006111111,2.103660366666667,0.17327479176347654,0.0,189,9,141.48736768395653,383.938371,mp-9550,ScMnSi,https://materialsproject.org/materials/mp-9550,25.1300899401858,68.57600715357185,-8.604250342815693,-0.5045126942092143
-7.9887944925,-127.82071188,6.019222829907143,-0.47335174,6.620264,0.3981359843906773,0.0,38,16,193.78551171535787,702.4455,mp-1216470,V5Fe5Si6,https://materialsproject.org/materials/mp-1216470,53.744820512346685,52.40443361606184,-8.604250342815693,-0.5045126942092143
-7.1568672525,-28.62746901,9.498180850878553,-0.25047251124999903,5.0025026,0.993987070155832,0.0,216,4,58.65216065251069,335.48674,mp-1221622,MnCoSnRh,https://materialsproject.org/materials/mp-1221622,45.41512351543196,45.14824549747103,-8.604250342815693,-0.5045126942092143
-7.42954304,-29.71817216,7.408917180945338,-0.4092352825000001,2.02697,0.4433043594615082,0.0,225,4,53.2871810706532,237.7543086,mp-5149,NbAlCo2,https://materialsproject.org/materials/mp-5149,44.78987583419684,46.17758113254737,-8.604250342815693,-0.5045126942092143
-6.597997325714287,-92.37196256,8.95347955853436,-0.2246182185714289,6.71818695,0.3896578565302577,0.0,136,14,200.93059733644955,1083.4,mp-613612,Yb(Fe2Ge)2,https://materialsproject.org/materials/mp-613612,48.57596965335552,67.1010882318519,-8.604250342815693,-0.5045126942092143
-5.734436645833332,-68.81323975,8.756278194138346,-0.07484668666666631,3.716108,0.25583839494533384,0.0,47,12,169.27781048298488,892.6279750000001,mp-1226892,Ce2(CoCu)5,https://materialsproject.org/materials/mp-1226892,39.630631387408755,75.24078171936058,-8.604250342815693,-0.5045126942092143
-7.818576840714287,-218.92015154,7.157224101364617,-0.4061432892857145,9.393707000000001,0.3124616902702991,0.0,140,28,350.3625348046498,1510.126,mp-1193262,CeFe9Si4,https://materialsproject.org/materials/mp-1193262,47.84760111418983,67.65387926062253,-8.604250342815693,-0.5045126942092143
-6.965442377857142,-195.03238658,6.8596715079346025,-0.7165734607142856,7.95e-06,2.272460559167613e-07,0.0,62,28,407.7070317813858,1684.234,mp-540791,Si4Rh3,https://materialsproject.org/materials/mp-540791,35.029729789708036,51.33424781092704,-8.604250342815693,-0.5045126942092143
-3.784220498333333,-22.70532299,6.979156209267933,-0.6957208916666661,5e-08,5.024888484914781e-09,0.0,140,6,115.96341697478823,487.388,mp-13208,Mg2Pt,https://materialsproject.org/materials/mp-13208,36.05506257813281,58.32019303265173,-8.604250342815693,-0.5045126942092143
-6.548179416923077,-85.12633242,5.949820596129207,-0.2464645776923067,6.9572484,0.439874359354786,0.0,71,13,184.32586889428364,660.4517116000002,mp-1216785,Tm(MnAl)6,https://materialsproject.org/materials/mp-1216785,13.009551975191641,89.05029831851203,-8.604250342815693,-0.5045126942092143
-6.686286008333332,-40.11771605,8.865207346760203,-0.07907953833333299,7.4829576,0.8181560995441729,0.0,166,6,106.58952809776058,569.055135,mp-1225525,Er2Mn3Ga,https://materialsproject.org/materials/mp-1225525,24.36813995502162,70.2763575707855,-8.604250342815693,-0.5045126942092143
-8.219616495,-32.87846598,11.50128239986398,-0.2890501600000004,9.021939199999998,1.7854900445860569,0.0,225,4,58.88706247884527,407.86559000000005,mp-865032,Mn2PtRh,https://materialsproject.org/materials/mp-865032,62.758294504449175,47.863074952662345,-8.604250342815693,-0.5045126942092143
-4.7424989253571415,-132.78996991,8.630768850712165,-0.2140177836309525,5.6399999999999995e-05,1.4109917625191515e-06,0.0,8,28,465.834933011131,2421.2099399999997,mp-1226684,La2In11Ni15,https://materialsproject.org/materials/mp-1226684,32.86411830256142,73.61417742817557,-8.604250342815693,-0.5045126942092143
-7.028305992222222,-63.25475393,5.9684233345354185,-0.5566012822222217,1.8458555,0.1485979620737431,0.0,189,9,144.76456646902176,520.3227360000002,mp-9549,ScFeGe,https://materialsproject.org/materials/mp-9549,18.521598939193392,74.19033921967521,-8.604250342815693,-0.5045126942092143
-6.206341274285713,-173.77755568,7.336418272909642,-0.5897578091071439,1.5e-07,4.954093644890238e-09,0.0,140,28,352.8616617263569,1558.97614,mp-11726,LaSi4Ni9,https://materialsproject.org/materials/mp-11726,26.267177402135683,78.24013112775494,-8.604250342815693,-0.5045126942092143
-5.418856381666667,-32.51313829,8.971015164598994,-0.3138597434722226,0.2152165,0.02743878372473031,0.0,216,6,91.4088268738758,493.8336,mp-1206218,NdInNi4,https://materialsproject.org/materials/mp-1206218,31.160513613642678,74.82026262031016,-8.604250342815693,-0.5045126942092143
-7.18807372,-28.75229488,8.45247034714505,-0.06903004500000076,3.1819751,0.8240008542611739,0.0,123,4,45.0035260622659,229.0768,mp-2213,FeNi,https://materialsproject.org/materials/mp-2213,36.88733331888295,80.40698836842793,-8.604250342815693,-0.5045126942092143
-6.45364607,-25.81458428,12.671536146478473,-0.6836230899999993,4e-07,8.164123454999808e-08,0.0,225,4,57.09891496274522,435.72053860000005,mp-865921,MgAlIr2,https://materialsproject.org/materials/mp-865921,40.521217415846145,53.606256948742676,-8.604250342815693,-0.5045126942092143
-7.488168942413792,-217.15689933,8.524398773775008,-0.26033035482758604,18.172625,0.7305102663515092,0.0,225,29,289.9137200291313,1488.275855,mp-1192832,Nb2(Co7B2)3,https://materialsproject.org/materials/mp-1192832,39.45474416918793,89.3958875148403,-8.604250342815693,-0.5045126942092143
-7.06304781,-28.25219124,8.515426556504227,-0.12311202999999883,3.0534079,0.7621215537584863,0.0,216,4,46.69151957211554,239.43924,mp-999552,MnGaFeCo,https://materialsproject.org/materials/mp-999552,44.69120412069784,47.05885228405593,-8.604250342815693,-0.5045126942092143
-7.225775151034482,-209.54747938,7.859157160836773,-0.2586677437931032,21.088655300000003,0.8354048784829168,0.0,225,29,294.1909499962418,1392.374919,mp-1193429,Sc2(Co7B2)3,https://materialsproject.org/materials/mp-1193429,39.46427517426647,89.41456171083297,-8.604250342815693,-0.5045126942092143
-5.966247498333334,-35.79748499,7.757414558223464,-0.5003387766666663,3e-07,4.06424401890086e-08,0.0,65,6,86.02385623276209,401.87113860000005,mp-1226626,CeAlNi4,https://materialsproject.org/materials/mp-1226626,25.53025995713511,79.55558411797206,-8.604250342815693,-0.5045126942092143
-6.383295955,-25.53318382,9.890682142483117,-0.27666257125000016,4.2592935999999995,0.903978472359018,0.0,225,4,54.91069203253662,327.065,mp-977361,ZnFeRh2,https://materialsproject.org/materials/mp-977361,37.25545801154674,51.905720584526556,-8.604250342815693,-0.5045126942092143
-7.191444158333333,-43.14866495,10.80172845541822,-0.2977517766666651,0.0,0.0,0.0,191,6,103.52924105061348,673.45285,mp-11562,TbRh5,https://materialsproject.org/materials/mp-11562,32.29700242088246,65.45167611450348,-8.604250342815693,-0.5045126942092143
-6.536251045,-26.14500418,10.769401155709732,0.4024833237500003,4.9999997,0.997540940755713,0.0,225,4,58.413963764168756,378.84289,mp-1018080,CrCo2Bi,https://materialsproject.org/materials/mp-1018080,46.498845645415294,44.93422353861924,-6.715555750779173,-3.245790526333496
-7.35675988125,-117.7081581,4.064446084576292,-0.6777632137500005,0.06215845,0.002761754449511263,0.0,193,16,262.29652769821985,642.014472,mp-1208991,Sc3V2Si3,https://materialsproject.org/materials/mp-1208991,50.01202785060264,60.440632430590476,-8.604250342815693,-0.5045126942092143
-7.0504351739999995,-211.51305522,7.660346198610469,-0.2228873377499999,15.33573665,0.4421228712062835,0.0,140,30,404.239816335196,1864.8263399999998,mp-1211902,LaGa4Fe9C,https://materialsproject.org/materials/mp-1211902,55.8291354716837,74.33491035900958,-8.604250342815693,-0.5045126942092143
-6.4244633066666665,-38.54677984,7.406053031890508,-0.4164976033333332,5e-08,6.29899710100286e-09,0.0,227,6,92.5073038270192,412.5853,mp-1019,YNi2,https://materialsproject.org/materials/mp-1019,28.76787935905201,81.9656699554952,-8.604250342815693,-0.5045126942092143
-5.398935448333333,-97.18083807,8.123535213499165,-0.5105304533333334,0.005931066666666666,0.00024737796649896356,0.0,189,18,279.41467901100486,1366.9266,mp-1227952,CeGa2Ni3,https://materialsproject.org/materials/mp-1227952,24.266644967451906,80.07110043343097,-8.604250342815693,-0.5045126942092143
-5.147507821666667,-61.77009386,9.417326903511428,-0.7317646766666664,0.0,0.0,0.0,62,12,230.80627950427376,1308.9594000000004,mp-13378,TbZnRh,https://materialsproject.org/materials/mp-13378,17.134903616485804,59.08468825479754,-8.604250342815693,-0.5045126942092143
-7.7175917854545455,-84.89350964,10.12255174585199,-0.7488626136363634,7.063301400000001,0.4710612629199604,0.0,187,11,174.74621350407705,1065.243,mp-1102792,Gd(Ge2Rh3)2,https://materialsproject.org/materials/mp-1102792,34.2388710511955,53.29701263441475,-8.604250342815693,-0.5045126942092143
-7.284445695,-29.13778278,10.575963893428833,-0.8779326024999996,0.0004731,0.00010112508358224504,0.0,225,4,54.52196278694623,347.25007719999996,mp-865989,Al2IrRu,https://materialsproject.org/materials/mp-865989,41.965213333605725,52.49879817124176,-8.604250342815693,-0.5045126942092143
-7.544534515,-30.17813806,4.794545609534723,-0.2497690783333333,0.0006881,0.00013252734949013015,0.0,123,4,60.50948729337971,174.7116386,mp-1217087,Ti2AlCr,https://materialsproject.org/materials/mp-1217087,36.34125385856815,59.387513248275155,-8.604250342815693,-0.5045126942092143
-7.153052605,-28.61221042,6.62284997180176,-0.2713037920833345,3.0000016,0.6134533715020929,0.0,216,4,56.9924538495481,227.307195,mp-999067,Ti2CoGe,https://materialsproject.org/materials/mp-999067,35.62383285894649,57.325377075546996,-8.604250342815693,-0.5045126942092143
-7.40978688,-66.68808192,8.471854626582099,-0.3668090849999999,3.9396582,0.3387694169586388,0.0,189,9,135.52885693383462,691.4506349999999,mp-1079184,MnGeRh,https://materialsproject.org/materials/mp-1079184,47.76487745343315,44.72354335500857,-8.604250342815693,-0.5045126942092143
-6.260793497692307,-81.39031547,7.7612820322568785,-0.2999843376923081,11.021682499999999,0.7107914044898401,0.0,71,13,180.7104038487618,844.632,mp-1103910,Zr(GaFe)6,https://materialsproject.org/materials/mp-1103910,46.81404032755701,71.28652601078954,-8.604250342815693,-0.5045126942092143
-6.34973459,-25.39893836,8.579740283967459,-0.7749246599999989,2e-06,3.808936165692505e-07,0.0,225,4,61.19327951741013,316.1759120000001,mp-867769,ScZnRh2,https://materialsproject.org/materials/mp-867769,40.58228034425657,51.82131836260146,-8.604250342815693,-0.5045126942092143
-7.1338968975,-28.53558759,7.024892728236822,-0.2326979674999992,2.996685,0.7505625362789232,0.0,225,4,46.52984848684186,196.84402859999997,mp-10883,AlCrCo2,https://materialsproject.org/materials/mp-10883,44.80867750667481,47.17438254685366,-8.604250342815693,-0.5045126942092143
-3.00674695,-12.0269878,9.480584715688419,-0.4550425725,4.4e-06,8.359711969114028e-07,0.0,225,4,61.339296364175006,350.207,mp-1185617,MgZn2Pt,https://materialsproject.org/materials/mp-1185617,37.5831793233578,55.766565482041685,-8.604250342815693,-0.5045126942092143
-8.502623315833334,-102.03147979,10.909437364341382,0.07351081416666716,3.500592625,0.19597252940203627,0.0,194,12,208.17271338270982,1367.6566,mp-12748,ThMn2,https://materialsproject.org/materials/mp-12748,55.31010942028867,68.89783382379797,-8.604250342815693,-0.5045126942092143
-6.36417415,-31.82087075,9.712343253598096,0.11163485799999863,0.027306200000000003,0.0055421279765095225,0.0,166,5,57.4198619810458,335.8436,mp-1220081,Ni4Ru,https://materialsproject.org/materials/mp-1220081,36.92962082393843,80.54974227437908,-8.604250342815693,-0.5045126942092143
-6.984297420727272,-384.13635814,7.97172319778926,-0.8896065301948056,0.017796400000000004,0.0002542465737655679,0.0,143,55,815.7451062039411,3916.134478,mp-1227454,Ca6P19Rh30,https://materialsproject.org/materials/mp-1227454,33.43849922331184,51.632419042153046,-8.604250342815693,-0.5045126942092143
-5.825212497857143,-81.55297497,8.770700192409379,-0.3354981701785706,3.6668749,0.16142854724351371,0.0,71,14,264.72391858305855,1398.2291699999998,mp-22002,Sm3Co6Sn5,https://materialsproject.org/materials/mp-22002,25.819546278824234,72.79239698951099,-8.604250342815693,-0.5045126942092143
-6.624913085,-79.49895702,8.152171310542718,-0.4884263666666666,2.9041373,0.1449869838282911,0.0,62,12,233.43477675685318,1146.01358,mp-21154,TbMnGe,https://materialsproject.org/materials/mp-21154,24.34018958107804,69.30052809239336,-8.604250342815693,-0.5045126942092143
-8.861542016666666,-53.16925210000001,14.3596406712776,-0.7965293733333331,0.0,0.0,0.0,227,6,109.47339395266528,946.6797,mp-2762,YIr2,https://materialsproject.org/materials/mp-2762,31.095628286043997,64.905201161125,-8.604250342815693,-0.5045126942092143
-5.697060185833332,-68.36472223,3.5358595071592647,0.10246970305555554,0.01664115,0.0008600512129665228,0.0,63,12,225.4947578306952,480.156,mp-1094506,MgTi2,https://materialsproject.org/materials/mp-1094506,33.76521211960727,61.19980305964045,-8.604250342815693,-0.5045126942092143
-5.679622918181818,-62.475852100000004,9.932220873358947,-0.8943422427272726,1e-07,5.6994521379985346e-09,0.0,71,11,204.4769302449521,1223.0426300000001,mp-9694,Tm3(GePd)4,https://materialsproject.org/materials/mp-9694,27.656993936412547,53.69451503062953,-8.604250342815693,-0.5045126942092143
-7.833682910909091,-172.34102404,7.827161677120287,-0.10332294232954614,30.638015399999997,1.2809726308925649,0.0,166,22,278.73930118669944,1313.8730999999998,mp-1191783,Sm2Ga2(Fe5C)3,https://materialsproject.org/materials/mp-1191783,57.98122153804741,74.71483813989255,-8.604250342815693,-0.5045126942092143
-8.3229077425,-99.87489291,13.031581631154086,-0.8008551158333338,5.65e-06,3.2484100659359157e-07,0.0,38,12,202.7005969949524,1590.7541544,mp-1224426,HfAlIr,https://materialsproject.org/materials/mp-1224426,33.20889600942884,59.00233131004071,-8.604250342815693,-0.5045126942092143
-5.384928140588236,-91.54377839,7.625535979843245,-0.2811451208455885,0.090101,0.004356922273529121,0.0,99,17,241.00565127177785,1106.7474,mp-1220046,Ni11(GeSe2)2,https://materialsproject.org/materials/mp-1220046,34.64635369248427,72.74166970296496,-8.604250342815693,-0.5045126942092143