energy_per_atom,energy,density,formation_energy_per_atom,total_magnetization_uB,total_magnetization_T,band_gap,sgr,num_sites,cell_volume,weight,mp_id,formula,URL,tsne_cry_lin1_0,tsne_cry_lin1_1,tsne_cry_lin2_0,tsne_cry_lin2_1
-7.858531738958334,-754.41904694,6.959623506582142,-0.0628497756250006,3.07149524375,0.0233717917645548,0.0,217,96,1531.5644123424945,6419.0672,mp-1178900,YFe2,https://materialsproject.org/materials/mp-1178900,42.78552205410399,69.5986450671201,-8.604250342815693,-0.5045126942092143
-8.401635601111114,-75.61472041,12.203739293433257,-0.3524099518253981,1.99e-05,2.0772289988441705e-06,0.0,189,9,111.64676071005293,820.521486,mp-1079407,NiPW,https://materialsproject.org/materials/mp-1079407,15.727239941015227,26.68564239422201,-8.604250342815693,-0.5045126942092143
-9.202389678333333,-110.42867614,10.79689325464555,-0.0277525833333326,2.1000000000000002e-06,1.3759054484858616e-07,0.0,194,12,177.87222261026488,1156.5325200000002,mp-1218034,Ta2V3Cu,https://materialsproject.org/materials/mp-1218034,58.27182246610789,55.451231646230475,-8.604250342815693,-0.5045126942092143
-7.4970980785000005,-149.94196157,5.9404606837722405,-2.8025931934419988,7.000000999999999,0.3604082363438116,0.0,31,20,226.35016860203166,809.7516800000002,mp-1227156,CaTbMn2O6,https://materialsproject.org/materials/mp-1227156,-32.142634079396785,6.023254114942922,-8.604250342815693,-0.5045126942092143
-7.1580358,-136.0026802,8.330763961394656,-0.3228110678947353,0.0663941,0.004125282559002192,0.0,166,19,187.5656105609793,940.99855,mp-1205300,Tm(Co2B)6,https://materialsproject.org/materials/mp-1205300,39.01966125768589,88.01525005606251,-8.604250342815693,-0.5045126942092143
-9.199836445,-36.79934578,11.166724040953886,-0.8740481424999995,7.1900664999999995,1.047326639150597,0.0,225,4,80.00703656117234,538.028,mp-1185598,GdLuRh2,https://materialsproject.org/materials/mp-1185598,16.743754945774864,51.23090753451103,-8.604250342815693,-0.5045126942092143
-6.692692770714286,-93.69769879,15.703492582236507,-1.291989619285714,1.145e-05,4.834045183106025e-07,0.0,148,14,276.04012083327217,2610.474,mp-1104877,Lu3Pt4,https://materialsproject.org/materials/mp-1104877,15.977555317949589,56.529428507714265,-8.604250342815693,-0.5045126942092143
-3.5011577000000003,-14.004630800000001,0.5317696912470322,1.1257726525000007,7.159999999999999e-05,6.862890690624197e-07,0.0,71,4,1215.8594320251084,389.36585,mp-1097161,SrYPd2,https://materialsproject.org/materials/mp-1097161,-71.10243683045721,51.017675347772226,-8.604250342815693,-0.5045126942092143
-7.26977886,-43.61867316,9.691967149655456,-0.10387101833333408,3.28667135,0.4040940673945351,0.0,227,6,94.78753560026706,553.24064,mp-1926,HoFe2,https://materialsproject.org/materials/mp-1926,43.05475123096922,69.9201466551295,-8.604250342815693,-0.5045126942092143
-4.947042685,-19.78817074,0.6734440813516862,2.964144745833333,4.2613455,0.06422652419655256,0.0,71,4,773.2318866154902,313.5900000000001,mp-1096046,TiGaTc2,https://materialsproject.org/materials/mp-1096046,-60.54506719178357,37.51703793334897,-8.604250342815693,-0.5045126942092143
-4.4468245471428585,-217.89440281,6.949034453583593,-0.14163752564625864,0.0061638000000000005,8.203691984773315e-05,0.0,148,49,875.6219099697017,3664.3082,mp-1203027,Ga40AgMo8,https://materialsproject.org/materials/mp-1203027,11.721108766436643,91.59338265228862,-8.604250342815693,-0.5045126942092143
-6.904299815,-27.61719926,1.5796146859392175,4.156466885,0.054224400000000006,0.000812460904668593,0.0,71,4,777.8031733243279,739.89788,mp-1095910,HfTaOs2,https://materialsproject.org/materials/mp-1095910,-60.99118759397215,35.174665750571286,-8.604250342815693,-0.5045126942092143
-7.1102272675,-28.44090907,7.340398817605956,-0.4225639833333332,4.970000000000001e-05,9.815623011862884e-06,0.0,25,4,59.008686305108064,260.8474,mp-1217097,Ti2NiPd,https://materialsproject.org/materials/mp-1217097,58.89178976511321,52.270033542030134,-8.604250342815693,-0.5045126942092143
-8.550921953333333,-205.22212688,4.834656812059009,-1.5714726405208337,0.0007681833333333332,2.7219092576343955e-05,0.0,149,24,328.90362890525006,957.6024,mp-557812,Ti3O,https://materialsproject.org/materials/mp-557812,-6.251324345717862,19.71626860851369,-8.604250342815693,-0.5045126942092143
-8.266213046111114,-297.58366966,6.316183164759614,0.053196488525556,5.112796425,0.19443118996097392,0.0,62,36,306.4573164306687,1165.6699999999996,mp-1246069,Fe4CN4,https://materialsproject.org/materials/mp-1246069,1.2083412295162308,14.95510808884118,-8.604250342815693,-0.5045126942092143
-9.9486692075,-39.79467683,16.072575811712447,-0.4498269118750001,4.042826399999999,0.5277165719158909,0.0,63,4,89.28156369765037,864.168,mp-1066577,NpPt,https://materialsproject.org/materials/mp-1066577,22.2348677002362,55.17996839615868,-8.604250342815693,-0.5045126942092143
-7.251364082820513,-565.60639846,6.095825133604207,-2.899210740256412,1.91288575,0.019553597863058943,0.004299999999999749,88,78,1140.0916899862516,4185.2672,mp-29908,Sr11(ReO6)4,https://materialsproject.org/materials/mp-29908,-25.37057737609532,-6.3482775784660825,-8.604250342815693,-0.5045126942092143
-0.701434545,-2.80573818,0.3386183160589287,0.6630747738750001,0.3732718,0.0037356851359204033,0.0,71,4,1164.4808319473516,237.46176928,mp-1093671,NaLi2Hg,https://materialsproject.org/materials/mp-1093671,-43.28859095829668,46.703039511526605,-8.604250342815693,-0.5045126942092143
-5.3457252675,-21.38290107,12.16990200682297,-0.7117417425000001,2.8999999999999998e-06,4.2054951637414243e-07,0.0,225,4,80.36339723276666,588.9742100000002,mp-1206954,TmPd2Pb,https://materialsproject.org/materials/mp-1206954,27.97346784030826,40.67310457930638,-8.604250342815693,-0.5045126942092143
-5.303926958,-26.51963479,4.727613576550481,-0.8708553136939663,2.0477977,0.25403392314957923,0.0,139,5,93.94480367429732,267.46419,mp-560663,Rb(CoS)2,https://materialsproject.org/materials/mp-560663,9.970698840927296,28.99696953868523,-8.604250342815693,-0.5045126942092143
-6.6554817633333325,-19.96644529,6.409676390369322,0.12695159928571442,1.8e-05,5.5995485465217774e-06,0.0,216,3,37.46251401577319,144.605207,mp-1063388,MnNiP,https://materialsproject.org/materials/mp-1063388,12.499075977907712,25.233970119190413,-8.604250342815693,-0.5045126942092143
-8.67693079,-34.70772316,8.978200766302741,-0.5767690250000008,4.8254979,0.8638739443886169,0.0,225,4,65.09823042093339,351.973045,mp-1188022,ZrMnRh2,https://materialsproject.org/materials/mp-1188022,33.43013256569015,57.40542130166374,-8.604250342815693,-0.5045126942092143
-7.538299003888889,-271.37876414,6.751091350840262,-0.7054682883333325,0.00035045,6.297340103156217e-06,0.0,62,36,648.5542995361751,2636.763856,mp-1200971,Sc2Nb3Ge4,https://materialsproject.org/materials/mp-1200971,46.06886862885943,59.711968958955545,-8.604250342815693,-0.5045126942092143
-5.841914321785715,-163.57360101,4.249393295725339,-1.901401126943572,6.000000099999999,0.28624456196532505,0.5804999999999998,5,28,244.28198502941385,625.12847,mp-1174786,Li4MnCo2O7,https://materialsproject.org/materials/mp-1174786,-76.16411069401595,-53.03567316032849,3.77821893931168,4.324774233838712
-6.794989754107143,-380.51942623,3.975459751226106,-2.070114279007143,50.000000299999996,0.997509121833515,0.5118999999999998,1,56,584.1583093026168,1398.520475,mp-531804,Li9Mn15O32,https://materialsproject.org/materials/mp-531804,-66.77803864440826,-38.375103171149625,3.5442733298660856,1.0415052027733072
-5.538273220555557,-99.68891797,9.372114427007999,-0.2764096963888897,4.1e-06,1.0991015105397143e-07,0.0,71,18,434.73387225199536,2453.646375,mp-1213103,Dy12Co5Bi,https://materialsproject.org/materials/mp-1213103,-29.51424360597393,70.89495398815572,-8.604250342815693,-0.5045126942092143
-7.399900988333332,-44.39940593,8.971599844304153,-0.17668361166666693,0.2447744,0.036644520431295714,0.0,227,6,77.84565546744611,420.58635999999996,mp-1077429,NbNi2,https://materialsproject.org/materials/mp-1077429,28.780007732338447,73.06225458385462,-8.604250342815693,-0.5045126942092143
-5.795251125,-23.1810045,10.701858479357764,-0.9198119049999997,1.09e-05,1.5020838359912978e-06,0.0,225,4,84.56871912017338,545.02932,mp-976343,HoErPd2,https://materialsproject.org/materials/mp-976343,16.81128107538878,54.11262558716162,-8.604250342815693,-0.5045126942092143
-8.107125315,-48.64275189,10.303795722584075,-0.4867050247222231,1.1e-06,1.616489321607996e-07,0.0,191,6,79.30439798429072,492.091,mp-3093,ErB2Ru3,https://materialsproject.org/materials/mp-3093,18.47293793759702,38.40051548433897,-8.604250342815693,-0.5045126942092143
-4.662727415,-9.32545483,7.412558280695608,0.03355271625,0.1211412,0.020787674210610417,0.0,187,2,67.9146390847806,303.16735,mp-1187356,TbNd,https://materialsproject.org/materials/mp-1187356,-51.8266426956656,68.6855586142344,-8.604250342815693,-0.5045126942092143
-10.439382708333332,-125.2725925,16.13966851082089,-0.13724981333333375,7.695e-05,3.837098928301999e-06,0.0,164,12,233.7130996633734,2271.58282,mp-1217475,TbThRe4,https://materialsproject.org/materials/mp-1217475,66.98827930745497,59.89343145370029,-8.604250342815693,-0.5045126942092143
-8.425943103333333,-202.22263448,9.958413061022377,-0.7086521633333346,3.225e-06,7.46284525556936e-08,0.0,227,24,503.61970005282654,3020.2560000000008,mp-1191960,Zr2Pt,https://materialsproject.org/materials/mp-1191960,26.17392319976345,57.97304421956039,-8.604250342815693,-0.5045126942092143
-7.311834230135137,-541.07573303,6.561617091096783,-0.5950939913569824,0.0150363,0.00011118004783399229,0.0,2,74,1576.1282492096855,6228.067999999998,mp-685942,Ti2(Mo3Se4)5,https://materialsproject.org/materials/mp-685942,63.06235965399061,32.655440046641594,-8.604250342815693,-0.5045126942092143
-7.9702249175,-31.88089967,7.8764587883176835,-0.5832935825000005,6e-07,8.6873881982357e-08,0.0,225,4,80.48954074546701,381.7872,mp-866173,Y2RuRh,https://materialsproject.org/materials/mp-866173,16.68918109279717,52.16005462458178,-8.604250342815693,-0.5045126942092143
-7.38974956625,-59.11799653,7.144632096960343,-0.8046154837500001,8.25e-07,6.311296922638173e-08,0.0,62,8,152.33958337271142,655.456,mp-1025513,ZrGe,https://materialsproject.org/materials/mp-1025513,3.3400251057406227,79.19848367963095,-8.604250342815693,-0.5045126942092143
-6.242732250625,-99.88371601,10.73993271844384,-0.5932291893750001,0.000100175,2.747688451860048e-06,0.0,62,16,424.8829367102608,2748.0318399999996,mp-1189120,Ho3Ir,https://materialsproject.org/materials/mp-1189120,-32.68916011896709,70.56556058569723,-8.604250342815693,-0.5045126942092143
-7.1072607283333324,-127.93069311,7.631364027127705,-0.1400686527777779,8.7176286,0.3954519060445369,0.0,166,18,256.91065541627927,1180.68813,mp-1188333,Y2Co7,https://materialsproject.org/materials/mp-1188333,43.21390375812505,75.03114425311333,-8.604250342815693,-0.5045126942092143
-7.040102394590162,-429.44624607,6.712147643467878,-0.4622090010655728,5e-07,4.597872611764814e-09,0.0,1,61,1267.3322813185207,5122.7469999999985,mp-530701,Ni5(Mo3Se4)8,https://materialsproject.org/materials/mp-530701,62.963171472764685,33.325563877502496,-8.604250342815693,-0.5045126942092143
-6.85936312,-102.89044679999999,6.944903664397807,-0.4955629319166671,0.87782,0.030307952952377138,0.0,148,15,337.5408149380134,1411.7033,mp-1103923,Tl(Mo3Se4)2,https://materialsproject.org/materials/mp-1103923,63.44103005277883,33.337786821414994,-8.604250342815693,-0.5045126942092143
-5.8111729225,-23.24469169,11.03981290914974,-0.94611929625,2.51e-05,3.51839814892125e-06,0.0,225,4,83.1392620761055,552.7373200000002,mp-1184836,HoLuPd2,https://materialsproject.org/materials/mp-1184836,16.7656583565606,54.197169454806,-8.604250342815693,-0.5045126942092143
-3.9425623075,-15.77024923,0.5842454433447176,2.49638623875,0.0004029,4.210667363992389e-06,0.1291000000000002,71,4,1115.1255349727471,392.3467,mp-1097546,Y2MgOs,https://materialsproject.org/materials/mp-1097546,-70.35061322602543,42.901955003492944,-6.0253917032908095,0.39215395008148296
-5.92037052,-23.68148208,0.6291022708207719,3.62463023,1.0000089,0.017468005212656627,0.0,71,4,667.1722587586603,252.76104500000002,mp-1097684,MnV2Mo,https://materialsproject.org/materials/mp-1097684,6.828009823454508,23.409288408455215,-8.604250342815693,-0.5045126942092143
-5.073033335,-20.29213334,9.617795031339384,-0.61537019875,1.85e-05,2.5313471115850157e-06,0.0,225,4,85.17211934532169,493.3145,mp-1184107,Dy2ZnRh,https://materialsproject.org/materials/mp-1184107,11.638648958101433,46.38710031130199,-8.604250342815693,-0.5045126942092143
-5.788914210625,-92.62262737,11.568043446721106,-0.9327943718750004,5e-07,1.4139764750282212e-08,0.0,140,16,412.1024988172838,2870.8868,mp-31462,Er5BiPt2,https://materialsproject.org/materials/mp-31462,-5.984210753152893,32.165736204299606,-8.604250342815693,-0.5045126942092143
-6.99188826875,-279.67553075,7.1847296208558635,-0.012157049000001051,26.4023119,0.3953205725455392,0.0,140,40,778.3411094611791,3367.6838,mp-1202860,Pr6CdFe13,https://materialsproject.org/materials/mp-1202860,53.80365167514713,81.23663270577816,-8.604250342815693,-0.5045126942092143
-5.50407345875,-44.03258767,2.9055996356798466,-3.3134683208925004,0.9994924999999999,0.10770547489501588,0.0,148,8,108.14817302501528,189.2369192,mvc-14721,MgVF6,https://materialsproject.org/materials/mvc-14721,-39.31468842963379,-33.07434779427204,3.8286110453472895,1.3239749629687123
-5.086620890333333,-152.59862671,3.0445349171643588,-1.8075349985,3.0,0.12212211742474816,0.4087000000000001,118,30,286.28879890837817,524.89958,mp-849462,Li7(CoO3)2,https://materialsproject.org/materials/mp-849462,-45.49528291783533,-32.4023606484323,0.9172290456525704,-0.7992983820268188
-8.55704509,-136.91272144,4.839896709077803,-1.5775957771875009,0.0,0.0,0.0,163,16,219.03169503806495,638.4016,mp-2591,Ti3O,https://materialsproject.org/materials/mp-2591,-6.248257082909335,19.713984211739408,-8.604250342815693,-0.5045126942092143
-10.282025915,-20.56405183,17.346159958828284,-0.8729985649999996,9.000000000000001e-07,2.955584678891545e-07,0.0,221,2,35.487591914427455,370.707,mp-1002122,HfIr,https://materialsproject.org/materials/mp-1002122,39.79263042745368,60.65826498367621,-8.604250342815693,-0.5045126942092143
-7.056812106388889,-508.09047166,6.910421489890763,-0.4835182570355904,0.02538105,0.00018351986139935865,0.014300000000000425,167,72,1611.7732350064314,6707.48,mp-1200386,Mo15Pb2Se19,https://materialsproject.org/materials/mp-1200386,63.57443831129726,33.111986153721105,-8.604250342815693,-0.5045126942092143
-6.889441529142858,-241.13045352,4.798238757066801,-1.199880905,0.0048372,9.509779592337994e-05,0.0,1,35,592.7902068649979,1712.9070000000002,mp-677108,Li7(Mo3S4)4,https://materialsproject.org/materials/mp-677108,67.12152167754365,33.178198790410576,-8.604250342815693,-0.5045126942092143
-5.3025145675,-21.21005827,0.6469537992174115,3.1983693541666662,1.0,0.01541342252978924,0.18109999999999984,71,4,756.0984427719474,294.5795,mp-1096337,Ti2MoRh,https://materialsproject.org/materials/mp-1096337,-59.249088335735294,36.42764778914558,-8.604250342815693,-0.5045126942092143
-6.79127561,-13.58255122,8.972931861748833,-0.7749505724999999,3e-07,6.200729411999109e-08,0.0,225,2,56.3840025820564,304.67806,mp-1093,ThGe,https://materialsproject.org/materials/mp-1093,7.556970390529102,74.32726495448884,-8.604250342815693,-0.5045126942092143
-6.0081363296875,-192.26036255,7.500797156502874,-0.4212156996875001,2.469552275,0.03593021202647001,0.0,130,32,801.0061880756367,3618.2136,mp-616173,Ce5NiGe2,https://materialsproject.org/materials/mp-616173,0.18764832601746054,71.7382765783998,-8.604250342815693,-0.5045126942092143
-3.8156062025,-15.26242481,0.827231170400895,0.979673889375,2e-06,2.0707831845260225e-08,0.29179999999999984,71,4,1125.5707366802062,560.72587,mp-1093906,LaBiPd2,https://materialsproject.org/materials/mp-1093906,-69.04952446597879,42.5644353373386,-8.604250342815693,-0.5045126942092143
-7.5606545516666674,-45.36392731,8.114894293422486,-0.07529596333333426,6.8791678,0.8251812283791794,0.0,216,6,97.15473930493714,474.78585,mp-1225043,DyYFe4,https://materialsproject.org/materials/mp-1225043,42.87587276421122,69.78541670915068,-8.604250342815693,-0.5045126942092143
-7.928363936666668,-47.57018362,6.576465570753862,-0.1551564891666679,5.9298215999999995,0.7661261615988251,0.0,216,6,90.20253905950096,357.241762,mp-1215942,YScFe4,https://materialsproject.org/materials/mp-1215942,42.936486626723735,69.24990009757296,-8.604250342815693,-0.5045126942092143
-8.870379415,-106.44455298,7.730798384714969,-0.8761246190476181,9.6e-06,7.245278611265973e-07,0.0,62,12,154.41645217425852,718.9005679999998,mp-1102980,NbFeP,https://materialsproject.org/materials/mp-1102980,45.99526681987717,61.90673941261827,-8.604250342815693,-0.5045126942092143
-6.024605127222222,-108.44289229,7.535038964297283,-0.8512463105555557,3.3333333333333334e-08,1.0877758254411045e-09,0.0,190,18,357.1221355231549,1620.515472,mp-17092,ScSnPd,https://materialsproject.org/materials/mp-17092,9.049992399250069,54.02103549286729,-8.604250342815693,-0.5045126942092143
-5.316627831578948,-101.0159288,7.3715719782469655,-0.2875669010526318,7.6e-05,1.7167870052022297e-06,0.0,204,19,515.9107798641593,2290.2644,mp-1210867,Nd12Ni6Pb,https://materialsproject.org/materials/mp-1210867,-29.75546020868125,68.61502783988124,-8.604250342815693,-0.5045126942092143
-5.816903718571429,-162.87330412,4.158564857358666,-1.8763905237292855,8.0000002,0.3735016595164905,0.15710000000000024,8,28,249.6174197244074,625.12847,mp-1174790,Li4MnCo2O7,https://materialsproject.org/materials/mp-1174790,-77.1079134358207,-52.89013422953476,3.3614898409561094,0.6742482274615306
-6.4229652999999995,-19.268895899999997,7.282243352930591,-0.5280382072222226,0.0,0.0,0.4597000000000007,216,3,51.36745308104528,225.2704,mp-924130,TiNiSn,https://materialsproject.org/materials/mp-924130,31.05922505721724,68.06915527949494,-8.604250342815693,-0.5045126942092143
-6.053444054500001,-121.06888109,9.023647810531443,-0.6101373955,0.00070785,1.577133164606799e-05,0.0,186,20,523.0585428284395,2842.3879,mp-1106174,Tb7Rh3,https://materialsproject.org/materials/mp-1106174,-32.26803730523642,70.25365072828274,-8.604250342815693,-0.5045126942092143
-4.0342197990000015,-40.34219799,10.05606698954986,-0.8010562076666673,2.5e-07,1.3094094316677285e-08,0.0,127,10,222.50612548506885,1347.476,mp-21267,Yb2InPd2,https://materialsproject.org/materials/mp-21267,15.354256938438866,54.69309862388344,-8.604250342815693,-0.5045126942092143
-9.872522888125,-157.96036621,7.360064001537997,-0.3178149631249987,21.476469075,0.4963160995395514,0.0,62,16,504.29184529400834,2235.19,mp-1189512,Eu3Rh,https://materialsproject.org/materials/mp-1189512,-27.37882174527886,65.00522063895782,-8.604250342815693,-0.5045126942092143
-7.598104693684211,-288.72797836,11.043731423441637,0.12566452539473671,4.95373895,0.13007710486798466,0.0,194,38,443.8228745038819,2951.72863,mp-1195194,Np2Co17,https://materialsproject.org/materials/mp-1195194,45.492202344847115,77.11977553146771,-8.604250342815693,-0.5045126942092143
-4.538503414,-45.38503414,10.262303478710306,-0.7726448656666669,1.74e-05,7.859700754600511e-07,0.0,127,10,258.0005694540536,1594.470276,mp-1205853,Nd2InAu2,https://materialsproject.org/materials/mp-1205853,-13.457766217551107,55.171614636706884,-8.604250342815693,-0.5045126942092143
-5.5154882225,-176.49562312,4.333416613922348,-1.7202895571875,18.000000600000003,0.7488913532434959,0.0,2,32,280.111623655384,730.991765,mp-1175488,Li9Co7O16,https://materialsproject.org/materials/mp-1175488,-76.91891066596222,-29.167187445305355,0.2466192257679964,0.487272241213114
-5.84737385125,-327.45293567,5.341966930466524,-1.4259977169642863,7.91725985,0.17273405503424255,0.0,212,56,534.1636835584917,1718.4087,mp-759353,LiCo5O8,https://materialsproject.org/materials/mp-759353,-74.03321062087761,-22.46675210430644,-8.604250342815693,-0.5045126942092143