energy_per_atom,energy,density,formation_energy_per_atom,total_magnetization_uB,total_magnetization_T,band_gap,sgr,num_sites,cell_volume,weight,mp_id,formula,URL,tsne_cry_lin1_0,tsne_cry_lin1_1,tsne_cry_lin2_0,tsne_cry_lin2_1
-7.76344433,-93.16133196,8.562324058996344,-0.1828213791666672,2.1141544999999997,0.1634717807813479,0.0,160,12,150.7201632259321,777.1662386,mp-1220669,Nb3AlCo8,https://materialsproject.org/materials/mp-1220669,60.26155218293153,65.16249406203012,-8.604250342815693,-0.5045126942092143
-7.371343655,-29.48537462,14.447430319350431,-0.6507257912500002,4.5e-06,1.0824335329416578e-06,0.0,225,4,48.4494335037801,421.5316820000001,mp-865904,BeSiIr2,https://materialsproject.org/materials/mp-865904,39.72924834338483,52.39872655593833,-8.604250342815693,-0.5045126942092143
-9.254468795,-18.50893759,7.386353411320284,-0.13524149499999893,0.043960400000000004,0.021523256901839045,0.0,65,2,23.80296585057525,105.879545,mp-1221550,MnV,https://materialsproject.org/materials/mp-1221550,56.079506844900045,56.403126020028864,-8.604250342815693,-0.5045126942092143
-7.5000878325,-30.00035133,12.476475514506193,-0.5445478812499998,0.0001551,3.0035325628036213e-05,0.0,225,4,60.18065089784714,452.16788,mp-865804,TaZnRh2,https://materialsproject.org/materials/mp-865804,40.71485383867436,51.70601377395357,-8.604250342815693,-0.5045126942092143
-4.645999553928571,-130.08798751,8.6163039838738,-0.22560406017857154,0.00026715,6.521085137186552e-06,0.0,72,28,477.4333317986025,2477.33454,mp-1211840,LaIn6Ni7,https://materialsproject.org/materials/mp-1211840,32.8645344956403,73.59300984291268,-8.604250342815693,-0.5045126942092143
-6.898777265,-27.59510906,8.375452802742162,-0.3671488954166664,2.039845,0.42153918842014737,0.0,225,4,56.394485753689956,284.44339,mp-21467,TiCo2Sn,https://materialsproject.org/materials/mp-21467,45.31598948675308,45.52889431669565,-8.604250342815693,-0.5045126942092143
-5.02480919375,-120.59542065,8.186128584736764,-0.3338934399999995,0.35577845,0.010549973578082066,0.0,194,24,393.01189432311935,1937.4708,mp-1193027,CeZnNi2,https://materialsproject.org/materials/mp-1193027,28.53945618139072,78.3021091042655,-8.604250342815693,-0.5045126942092143
-8.3688440625,-33.47537625,9.10352017060331,-0.27517458250000004,8.400000000000001e-06,1.765061104005389e-06,0.0,225,4,55.46218420844115,304.058562,mp-867828,BeNbRu2,https://materialsproject.org/materials/mp-867828,40.53113388128936,52.48449046725743,-8.604250342815693,-0.5045126942092143
-6.549360394,-32.74680197,5.463385033670678,-0.15710774200000016,2.4e-06,3.322832588340587e-07,0.0,164,5,84.17443464436249,276.9446158,mp-1070275,Al3Tc2,https://materialsproject.org/materials/mp-1070275,41.770751865276615,51.59617656257472,-8.604250342815693,-0.5045126942092143
-1.50404476625,-12.03235813,4.0346797014563265,-0.06546387374999996,2.7775e-05,2.1916502839120502e-06,0.0,12,8,147.69311118380742,358.856,mp-1094505,MgZn,https://materialsproject.org/materials/mp-1094505,2.020846328315102,98.69686176718905,-8.604250342815693,-0.5045126942092143
-7.327232014791666,-351.70713671,7.393696909629593,-0.4698024572916661,0.32210710000000004,0.0048279533412293645,0.0,55,48,777.5255355192601,3462.0012,mp-1201972,ZrCrGe2,https://materialsproject.org/materials/mp-1201972,48.63509540324033,62.18202267268993,-8.604250342815693,-0.5045126942092143
-4.8251171025,-19.30046841,8.450233660929522,-0.4323576962499995,4e-06,8.027176649085446e-07,0.0,225,4,58.07304501707941,295.525,mp-977547,MgZnRh2,https://materialsproject.org/materials/mp-977547,37.96076378664075,54.44103392375889,-8.604250342815693,-0.5045126942092143
-5.660130456666668,-33.96078274,8.557224118836164,-0.10043456416666648,2.713333333333333e-05,3.0576978190683977e-06,0.0,191,6,103.41559005280054,532.929585,mp-20536,CoSn,https://materialsproject.org/materials/mp-20536,44.866858225211715,45.42738048700886,-5.951765964948464,-0.38352383794670253
-6.6622018775,-26.64880751,12.928440588585644,-0.2255897100000004,0.0,0.0,0.0,194,4,79.87141504845067,621.854,mp-20033,SnIr,https://materialsproject.org/materials/mp-20033,42.64662244838637,41.25242054196821,-8.604250342815693,-0.5045126942092143
-6.903110081666667,-41.41866049,7.681904580296741,-0.4418677083333336,3.5e-07,3.9235395872180645e-08,0.0,129,6,103.96027820603693,480.93595999999997,mp-1018812,NbGeAs,https://materialsproject.org/materials/mp-1018812,39.14594862420135,63.96548763769813,-8.604250342815693,-0.5045126942092143
-8.008130955833334,-96.09757147,6.088850090761304,-0.2573980241666677,2.886113675,0.196833037492678,0.0,194,12,170.8806414709293,626.583648,mp-1095443,ScFe2,https://materialsproject.org/materials/mp-1095443,53.6897227918303,63.458122602928235,-8.604250342815693,-0.5045126942092143
-7.233356975294117,-122.96706858,13.898536706181046,-0.8773034317647059,0.013341399999999998,0.0005310833953174751,0.0,229,17,292.7629467000808,2450.395,mp-1189162,Er4Ge6Ir7,https://materialsproject.org/materials/mp-1189162,41.64692433662074,54.73111312575281,-8.604250342815693,-0.5045126942092143
-7.032306650689655,-203.93689287,7.384486451185331,-0.7662909405172416,1e-07,3.0793212371406474e-09,0.0,225,29,378.46213093965,1683.0369,mp-570166,Zr6Si7Ni16,https://materialsproject.org/materials/mp-570166,37.3575158466724,70.74828177810681,-8.604250342815693,-0.5045126942092143
-9.186111855,-36.74444742,7.2154315506117666,-0.3581166483333327,1.3962453000000001,0.2843317817143576,0.0,225,4,57.228682163040716,248.67204500000003,mp-1187433,Ti2MnTc,https://materialsproject.org/materials/mp-1187433,62.873844495451834,55.61066574330553,-8.604250342815693,-0.5045126942092143
-5.63090376,-22.52361504,9.496083971945136,-0.7980808249999995,1e-07,2.1656499537277888e-08,0.0,123,4,53.813243236744,307.7404772,mp-1228426,Al2NiPt,https://materialsproject.org/materials/mp-1228426,35.4129109630638,77.67871280101964,-8.604250342815693,-0.5045126942092143
-7.9981978475,-31.99279139,14.899286016851294,-0.3440969599999999,3.0154567,0.7032286633473253,0.0,225,4,49.97283178614161,448.38422699999995,mp-1185986,MnBeIr2,https://materialsproject.org/materials/mp-1185986,39.74547976787128,52.28677307319985,-8.604250342815693,-0.5045126942092143
-8.968935173888887,-161.44083313,10.203681569517373,-0.7892233594444443,4.666666666666666e-07,2.0924797552795174e-08,0.0,46,18,259.90997269177217,1597.0949999999998,mp-1105654,TiSiOs,https://materialsproject.org/materials/mp-1105654,43.00593127764357,54.207057194722935,-8.604250342815693,-0.5045126942092143
-8.44234488138889,-303.92441573,16.053358211986122,-0.453459181944445,0.081066225,0.0014065895720057325,0.0,194,36,671.6607714286735,6493.31976,mp-1195853,La2Ir7,https://materialsproject.org/materials/mp-1195853,31.470518055881964,64.15909466878209,-8.604250342815693,-0.5045126942092143
-8.85263480625,-70.82107845,7.256852549663742,0.1536826287499995,6.47314725,0.6438096344274872,0.0,194,8,117.17512957211477,512.07627,mp-1188045,ZrMn3,https://materialsproject.org/materials/mp-1188045,50.68285994467312,59.35451281419294,-8.604250342815693,-0.5045126942092143
-7.367460080689655,-213.65634234,8.103966508409417,-0.292449894252873,20.108370899999997,0.817964520321308,0.0,225,29,286.4968481117014,1398.1970949999998,mp-1193707,Ti2(Co7B2)3,https://materialsproject.org/materials/mp-1193707,39.420704422511776,89.41316207427391,-8.604250342815693,-0.5045126942092143
-8.502226702222224,-153.04008064,10.406564480917924,0.04359083277777782,2.8005492999999997,0.11049332059561068,0.0,46,18,295.38240651121515,1851.1555500000006,mp-1106384,TaMnGe,https://materialsproject.org/materials/mp-1106384,50.30341399298366,59.470443138903114,-8.604250342815693,-0.5045126942092143
-6.940870395,-111.05392632,8.626072650761216,-0.2388889003125003,17.126976000000003,1.0656077302540021,0.0,166,16,187.3099096367274,973.02674,mp-1222222,Mn4Ga3Co8Ge,https://materialsproject.org/materials/mp-1222222,45.09365533828014,46.94400180023193,-8.604250342815693,-0.5045126942092143
-7.61996586,-60.95972688,5.879465372243183,-0.3831735949999997,0.2728812,0.03432684627631685,0.0,4,8,92.6439660204939,328.0242,mp-1226256,CrFeSi2,https://materialsproject.org/materials/mp-1226256,48.18293190325743,65.17498063165026,-8.604250342815693,-0.5045126942092143
-7.62327657875,-60.98621263,7.318293055203244,-0.43214329250000016,7.9999994999999995,1.0329552795834973,0.0,166,8,90.25803362081452,397.783325,mp-1221599,MnV(Co2Si)2,https://materialsproject.org/materials/mp-1221599,47.1504986116233,48.802464708298174,-8.604250342815693,-0.5045126942092143
-7.9413031975,-31.76521279,9.974309301557248,-0.2608141599999998,2.1898291000000003,0.4690703204179424,0.0,225,4,54.40636310030736,326.80104500000004,mp-865140,MnGaRu2,https://materialsproject.org/materials/mp-865140,43.618922386067155,53.543038764478275,-8.604250342815693,-0.5045126942092143
-6.212475300833333,-74.54970361,7.3474068081963635,-0.5518652591666667,0.0,0.0,0.0,62,12,131.5089471398906,581.8892,mp-1118,SiNi2,https://materialsproject.org/materials/mp-1118,36.71779516868811,72.20003692021791,-8.604250342815693,-0.5045126942092143
-7.04428660625,-56.35429285,8.620293759725756,-0.242800264375,9.008324499999999,1.1168623164781792,0.0,166,8,93.99869228848452,487.97187,mp-1222096,Mn2GaCo4Ge,https://materialsproject.org/materials/mp-1222096,47.1629510205711,48.322597148905274,-8.604250342815693,-0.5045126942092143
-7.31625344,-29.26501376,9.59284585653519,-0.6661532804166663,0.0006778,0.00012254107614012919,0.0,225,4,64.46103911971596,372.388,mp-865707,TiSnRh2,https://materialsproject.org/materials/mp-865707,34.766092431626944,55.918636289287775,-8.604250342815693,-0.5045126942092143
-7.628081233793104,-221.21435578,9.556763235778105,-0.28008278620689586,18.1302512,0.7306274994190675,0.0,225,29,289.1913074659505,1664.3588550000002,mp-1193985,Ta2(Co7B2)3,https://materialsproject.org/materials/mp-1193985,39.43936118211003,89.40335604775511,-8.604250342815693,-0.5045126942092143
-7.277419391666666,-43.66451635,10.050685993392493,-0.1448060550000001,3.1220491000000004,0.3923816050330677,0.0,227,6,92.72749274636719,561.24842,mp-571183,TmFe2,https://materialsproject.org/materials/mp-571183,51.795561756603966,74.44903021077572,-8.604250342815693,-0.5045126942092143
-6.95716632,-27.82866528,8.953685752672706,-0.08052027999999911,6.000000099999999,1.2799739545894806,0.0,225,4,54.629541132492115,294.564435,mp-5396,MnCo2Sb,https://materialsproject.org/materials/mp-5396,45.605490055815785,44.929441120613724,-8.604250342815693,-0.5045126942092143
-6.511095238333334,-39.06657143,9.16162494193401,-0.3518891029166665,4.01e-05,4.9508186657869516e-06,0.0,65,6,94.39408488320387,520.7966700000002,mp-1222896,LaNi3Rh2,https://materialsproject.org/materials/mp-1222896,28.577475060170073,79.93815494701892,-8.604250342815693,-0.5045126942092143
-7.374891301904763,-154.87271734,9.471625529070518,-0.93476257452381,9.68e-05,3.6217496739441407e-06,0.0,147,21,311.48300449910585,1776.682334,mp-1225373,Dy2P7Rh12,https://materialsproject.org/materials/mp-1225373,33.419475851149485,51.6683468584943,-8.604250342815693,-0.5045126942092143
-5.75695920375,-46.05567363,6.06160346690081,-0.5744758775000003,4.9000000000000005e-06,6.043786000881221e-07,0.0,4,8,94.48533978075373,344.9076772,mp-1228043,AlSiNi2,https://materialsproject.org/materials/mp-1228043,34.8709450462644,77.34192698586173,-8.604250342815693,-0.5045126942092143
-8.273339551904764,-173.74013059,9.383290787135124,-0.9305475245238108,14.092846599999998,0.525468516693182,0.0,147,21,312.5571597318852,1766.182334,mp-1225969,Gd2P7Rh12,https://materialsproject.org/materials/mp-1225969,33.4275509048733,51.690639246321886,-8.604250342815693,-0.5045126942092143
-5.355163133333334,-32.1309788,8.133916268587438,-0.40282576750000015,0.36322595,0.037157415193108334,0.0,12,6,113.92231473516607,558.0323900000002,mp-1219037,SmGaCo,https://materialsproject.org/materials/mp-1219037,24.235668091394,72.67965164633351,-8.604250342815693,-0.5045126942092143
-8.430744058333334,-151.75339305,16.027157577703232,-0.4418583588888889,0.34797715,0.01205587611149666,0.0,166,18,336.3793894334632,3246.65988,mp-1190236,La2Ir7,https://materialsproject.org/materials/mp-1190236,31.46971265197886,64.16949038142924,-8.604250342815693,-0.5045126942092143
-9.74639016125,-233.91336387,11.835452088901029,-0.1896516262499996,0.5877321666666667,0.01742843416711766,0.0,227,24,393.00539988687683,2801.1365400000004,mp-1191460,HfMn,https://materialsproject.org/materials/mp-1191460,53.72472657762296,60.300339873876,-8.604250342815693,-0.5045126942092143
-7.541938152708332,-362.01303133,9.439236664944557,-0.8731908437500001,2.55e-05,4.180567525218724e-07,0.0,221,48,710.857197994246,4040.8259999999996,mp-628614,Ce2Si7Rh15,https://materialsproject.org/materials/mp-628614,33.99096722008538,53.04493302025079,-8.604250342815693,-0.5045126942092143
-5.213398495,-93.84117291,9.171917413244868,-0.559735901666667,1.3666666666666666e-06,5.978563260841747e-08,0.0,189,18,266.4055084965199,1471.4796,mp-1222813,LuGa2Ni3,https://materialsproject.org/materials/mp-1222813,24.174854090594174,79.97616034705305,-8.604250342815693,-0.5045126942092143
-4.828474767777778,-43.45627291,8.941810648374354,-0.5685215816666663,9.000000000000001e-07,6.055157220677277e-08,0.0,189,9,173.21859553847474,932.7621,mp-1079794,LuSiAg,https://materialsproject.org/materials/mp-1079794,18.640161783733404,61.74181781107689,-8.604250342815693,-0.5045126942092143
-7.31173090375,-58.49384723,5.963884701166407,-0.4123977712499993,0.82419275,0.10322363614752647,0.0,4,8,93.05228968921827,334.20059,mp-1226249,CrCoSi2,https://materialsproject.org/materials/mp-1226249,49.745409737424495,47.12699353530743,-8.604250342815693,-0.5045126942092143
-8.72928047,-52.37568282,14.304883424879508,-0.22481883499999947,0.00017905,2.5254265212139084e-05,0.0,227,6,82.6260546485355,711.7906,mp-1383,UCo2,https://materialsproject.org/materials/mp-1383,44.161391385659186,73.84010701256969,-8.604250342815693,-0.5045126942092143
-8.73794766,-17.47589532,10.583404830847474,0.12497733500000052,0.0004518,0.0002138629294068696,0.0,187,2,24.620005341016054,156.915,mp-1224803,FeRu,https://materialsproject.org/materials/mp-1224803,50.03576748743802,77.44982145326456,-8.604250342815693,-0.5045126942092143
-6.275471025,-100.40753640000001,7.6200739451126065,-0.7281792443749993,0.9150056999999999,0.03603928747339856,0.0,63,16,295.8864184796197,1357.79788,mp-1208480,Tb3Co2Si3,https://materialsproject.org/materials/mp-1208480,20.021720607746683,70.44721121969285,-8.604250342815693,-0.5045126942092143
-7.99222056,-31.96888224,9.930395345777637,-0.1923678725000002,1.1064703000000002,0.2381104919274481,0.0,225,4,54.15501198931883,323.8591,mp-1183688,CrGaRu2,https://materialsproject.org/materials/mp-1183688,43.317676540129625,53.59344522126917,-8.604250342815693,-0.5045126942092143
-6.2198711925,-24.87948477,10.30421318548391,-0.3441709500000005,1.7280842,0.3739090882242049,0.0,225,4,53.8612348121398,334.2274,mp-866037,GaNiRh2,https://materialsproject.org/materials/mp-866037,36.25534591925109,53.684230246405455,-8.604250342815693,-0.5045126942092143
-6.905240993333333,-62.14716894,4.347239979901629,-0.46270082037037,5.8399999999999997e-05,5.6342192188779075e-06,0.0,21,9,120.79710715498777,316.2431,mp-1217112,Ti2CrSi6,https://materialsproject.org/materials/mp-1217112,50.0025820202355,53.34775338005265,-8.604250342815693,-0.5045126942092143
-7.7501586675,-31.00063467,8.092877138651104,0.0392786049999998,8.185926299999998,2.0551900589523595,0.0,139,4,46.41873140055478,226.2284,mp-1007862,Fe3Ni,https://materialsproject.org/materials/mp-1007862,49.77780022404362,75.74721894244978,-8.604250342815693,-0.5045126942092143
-8.16415549,-48.98493294,15.1276748702819,-0.6603770783333331,0.0,0.0,0.0,227,6,115.3317117988483,1050.6833,mp-946,PrIr2,https://materialsproject.org/materials/mp-946,30.14885396800737,64.94517427636379,-8.604250342815693,-0.5045126942092143
-8.01844316375,-192.44263593,6.148141961906632,-0.2677102320833337,2.8026552125,0.09650122908875218,0.0,194,24,338.4653821516357,1253.167296,mp-1190697,ScFe2,https://materialsproject.org/materials/mp-1190697,53.705321334282715,63.44982671097976,-8.604250342815693,-0.5045126942092143
-6.4204473925,-25.68178957,10.753911913026677,-0.3993117525000001,7.209999999999999e-05,1.3013750082247384e-05,0.0,225,4,64.56694379337944,418.14568,mp-861977,PaGaNi2,https://materialsproject.org/materials/mp-861977,28.56789385034605,70.94530071927343,-8.604250342815693,-0.5045126942092143
-6.7848695075,-27.13947803,8.508802178898236,-0.8226961287499996,1e-06,2.458406674450298e-07,0.0,225,4,47.404950912629424,242.90868199999997,mp-867767,BeSiRh2,https://materialsproject.org/materials/mp-867767,37.15107653310818,51.8241750731974,-8.604250342815693,-0.5045126942092143
-9.555845,-38.22338,7.19538813588178,-0.05851576999999964,0.0008702,0.0002123628786634631,0.0,225,4,47.75489590698537,206.9298,mp-1187696,VCr3,https://materialsproject.org/materials/mp-1187696,56.10949453967085,56.60848524550442,-8.604250342815693,-0.5045126942092143
-7.1950920225,-28.78036809,8.42765916041952,-0.29651732666666675,1.9999918999999997,0.4159355220425405,0.0,216,4,56.037616197663574,284.405195,mp-998973,TiFeCoSb,https://materialsproject.org/materials/mp-998973,45.78527060593722,44.9395702635184,-8.604250342815693,-0.5045126942092143
-6.197984195,-24.79193678,7.9058230426841245,-0.3322247554166671,2e-07,3.907891008232672e-08,0.0,123,4,59.64375540673126,283.9638,mp-1216749,TiNi2Sn,https://materialsproject.org/materials/mp-1216749,32.60110583635343,72.15873966813011,-8.604250342815693,-0.5045126942092143
-6.543817145454545,-71.9819886,9.032211718147561,-0.6642453913636359,2e-07,1.324496855163393e-08,0.0,187,11,175.97723584057914,957.1974,mp-16044,Ca(As2Rh3)2,https://materialsproject.org/materials/mp-16044,33.23255512887938,51.19704513855377,-8.604250342815693,-0.5045126942092143
-8.3455216975,-33.38208679,10.07432633108027,-0.26701327125000063,3.0254809,0.6487779051037535,0.0,225,4,54.34702707870962,329.718045,mp-864936,MnGeRu2,https://materialsproject.org/materials/mp-864936,44.01186657656951,53.8125878828945,-8.604250342815693,-0.5045126942092143
-9.33214411,-18.66428822,7.809811355806588,0.06583245000000026,0.9247699,0.4740085386746904,0.0,65,2,22.736569987634702,106.934145,mp-1221647,MnCr,https://materialsproject.org/materials/mp-1221647,54.772222702529355,66.0599533885388,-8.604250342815693,-0.5045126942092143
-6.843314238888889,-739.0779378,10.062357681998817,-0.7066039161111106,0.0019290083333333332,1.2735662564885612e-05,0.0,176,108,1765.1840215567145,10696.4742,mp-1211078,TbGe3Rh5,https://materialsproject.org/materials/mp-1211078,34.22166318265804,53.30911967998103,-8.604250342815693,-0.5045126942092143
-5.7647358916666676,-34.58841535,7.4759259169536705,-0.4667824529166668,3.1e-05,4.0595544749493536e-06,0.0,65,6,88.99400418905766,400.6606086,mp-1222929,LaAlNi4,https://materialsproject.org/materials/mp-1222929,25.556542749446802,79.58823485336535,-8.604250342815693,-0.5045126942092143
-8.687382978333334,-104.24859574,11.367916455392578,-0.2731087983333336,2.7025e-05,1.453046938095227e-06,0.0,194,12,216.75218619660652,1483.868,mp-1095487,LuTc2,https://materialsproject.org/materials/mp-1095487,66.64315400978944,59.94456498626078,-8.604250342815693,-0.5045126942092143
-9.1291534925,-36.51661397,9.436950388773184,-0.11138488000000102,4.2578048,0.912831444915734,0.0,225,4,54.35914067650923,308.9265,mp-980749,VFeRu2,https://materialsproject.org/materials/mp-980749,62.357021498887214,54.206990412065245,-8.604250342815693,-0.5045126942092143
-7.976389773333333,-47.85833864,6.858211185395863,0.05243165333333385,3.0617862999999996,0.3690032211790959,0.0,74,6,96.69903624667135,399.37779,mp-1215943,YMnFe,https://materialsproject.org/materials/mp-1215943,42.31831143139532,72.40737799866348,-8.604250342815693,-0.5045126942092143