energy_per_atom,energy,density,formation_energy_per_atom,total_magnetization_uB,total_magnetization_T,band_gap,sgr,num_sites,cell_volume,weight,mp_id,formula,URL,tsne_cry_lin1_0,tsne_cry_lin1_1,tsne_cry_lin2_0,tsne_cry_lin2_1
-6.92153530631579,-263.01834164,8.919187968952887,-0.06350362236842133,25.2135278,0.6058309115735617,0.0,194,38,485.0199626868257,2605.16863,mp-1200096,Sm2Co17,https://materialsproject.org/materials/mp-1200096,44.96672233463233,78.31118099150873,-8.604250342815693,-0.5045126942092143
-7.922327966052633,-301.04846271,8.993305065660659,-0.07829002500000115,25.2539845,0.6054405095514128,0.0,194,38,486.11146179544863,2632.72863,mp-1201816,Gd2Co17,https://materialsproject.org/materials/mp-1201816,44.996795904883115,78.32878943886772,-8.604250342815693,-0.5045126942092143
-7.430555478421053,-141.18055409,8.873143204475975,-0.07952066592105211,18.2809942,0.8693780167029227,0.0,160,19,245.05783033433795,1309.474315,mp-1219295,SmGdCo17,https://materialsproject.org/materials/mp-1219295,44.9511094469442,78.34230819345207,-8.604250342815693,-0.5045126942092143
-6.913337915263157,-131.35342039,8.741127800513901,-0.051762423552630527,25.1811505,1.1946165537422346,0.0,160,19,245.6543549938913,1293.131965,mp-1219785,PrSmCo17,https://materialsproject.org/materials/mp-1219785,44.87400077923027,78.39020575808534,-8.604250342815693,-0.5045126942092143
-7.031451573684211,-133.5975799,8.454724467774021,-0.08126015065789416,25.34071,1.211516250127214,0.0,160,19,243.76253780470643,1241.130165,mp-1219047,SmYCo17,https://materialsproject.org/materials/mp-1219047,44.90204262852668,78.17666628707777,-8.604250342815693,-0.5045126942092143
-6.921571765263157,-131.50986354,8.899644397896674,-0.06783511105263074,25.267236999999998,1.2046952106591704,0.0,160,19,244.43196421482787,1310.030965,mp-1220026,PrErCo17,https://materialsproject.org/materials/mp-1220026,44.89135881764864,78.32146015699792,-8.604250342815693,-0.5045126942092143
-6.811187623947369,-258.82512971,8.744194154746674,-0.031722103289473884,51.1687797,1.2079939907224762,0.0,8,38,493.64837700888586,2599.49158,mp-1215883,YbPr3Co34,https://materialsproject.org/materials/mp-1215883,44.83505774973728,78.41306768684402,-8.604250342815693,-0.5045126942092143
-6.645431983684211,-126.26320769,8.882004200033732,-0.012732971666666591,24.1146825,1.112240234125058,0.0,160,19,252.6738947236401,1351.51932,mp-1219201,Sm2Co16Ag,https://materialsproject.org/materials/mp-1219201,44.88810613701088,78.30652643471919,-8.604250342815693,-0.5045126942092143
-6.711070232894738,-255.02066885,8.892888223382387,-0.01725849105263116,26.1652365,0.6205431819870983,0.0,194,38,491.39426523694016,2631.62393,mp-1215870,YbPrCo17,https://materialsproject.org/materials/mp-1215870,44.905301032587346,78.33696838143831,-8.604250342815693,-0.5045126942092143
-7.108106320263157,-270.10804017,9.394604506767324,-0.10037813789473583,21.5297419,0.4990832252044438,0.0,164,38,502.7398116542795,2844.28224,mp-1219372,Sm2HfCo16,https://materialsproject.org/materials/mp-1219372,44.87874300121417,78.20522165783308,-8.604250342815693,-0.5045126942092143
-6.940065323157895,-263.72248228,9.059164497692887,-0.0913898936842103,25.30538565,0.6095639708129645,0.0,194,38,483.8058310211241,2639.43003,mp-1199370,Tb2Co17,https://materialsproject.org/materials/mp-1199370,44.96209986942687,78.28490639711292,-8.604250342815693,-0.5045126942092143
-6.944166909210527,-263.87834255,9.217538416523396,-0.10069178552631654,25.47748205,0.6188070657374155,0.0,194,38,479.82035515156883,2663.4499100000003,mp-1023,Ho2Co17,https://materialsproject.org/materials/mp-1023,44.9860129605993,78.15710882737557,-8.604250342815693,-0.5045126942092143
-6.9100930836842105,-131.29176859,8.660873739443463,-0.04693019289473754,25.3036463,1.1919723840733047,0.0,166,19,247.3969505521741,1290.348315,mp-356,Nd2Co17,https://materialsproject.org/materials/mp-356,44.892294993336364,78.20769544316781,-8.604250342815693,-0.5045126942092143
-6.94655129,-263.96894902,9.28113690774228,-0.10419728105263236,25.47695035,0.6208922534197503,0.0,194,38,478.1989595632194,2672.76463,mp-2531,Er2Co17,https://materialsproject.org/materials/mp-2531,44.997224402051785,78.13572482388723,-8.604250342815693,-0.5045126942092143
-6.9416722397368416,-263.78354511,9.11326358252204,-0.0953147881578936,25.2781977,0.6092448472805702,0.0,194,38,483.53917910725113,2653.72863,mp-569638,Dy2Co17,https://materialsproject.org/materials/mp-569638,44.88748043388054,78.1765995187604,-8.604250342815693,-0.5045126942092143
-7.104384627894738,-134.98330793,8.427933612175309,-0.0900893036842107,24.0333365,1.1549032936817505,0.0,160,19,242.51905921822117,1230.8861650000001,mp-1226612,CeYCo17,https://materialsproject.org/materials/mp-1226612,44.806120639566785,78.15140201581814,-8.604250342815693,-0.5045126942092143
-7.065492355000001,-268.48870949,8.763506832477272,-0.07925286868421129,23.13101785,0.5548177704288876,0.0,194,38,485.87192885107135,2564.19263,mp-2216,Ce2Co17,https://materialsproject.org/materials/mp-2216,44.7359409457339,78.38555604098846,-8.604250342815693,-0.5045126942092143
-6.722876392105262,-127.73465145,8.587010201567633,-0.016215096315789133,23.419261499999998,1.0955420718667763,0.0,160,19,249.12743878603246,1288.29242,mp-1219957,Pr2Co16Cu,https://materialsproject.org/materials/mp-1219957,44.738960868721115,78.51991758018231,-8.604250342815693,-0.5045126942092143
-7.216954912105262,-137.12214333,8.579170234651954,-0.07474711657894773,28.6188249,1.3355426685318463,0.0,160,19,249.7304256596959,1290.231535,mp-1219231,Sm2Fe4Co13,https://materialsproject.org/materials/mp-1219231,44.794055328438255,78.19545761292895,-8.604250342815693,-0.5045126942092143
-7.016000577105262,-266.60802193,8.881028031464211,-0.08230954473684224,21.3347497,0.4980907719697302,0.0,164,38,499.1792036758684,2669.75024,mp-1219324,Sm2ZrCo16,https://materialsproject.org/materials/mp-1219324,44.80580992691335,78.01934786290316,-8.604250342815693,-0.5045126942092143
-6.940093696052631,-263.72356045,9.326673479397307,-0.10713262657894744,25.16886275,0.6148519255682898,0.0,194,38,477.05723043651216,2679.46547,mp-1196360,Tm2Co17,https://materialsproject.org/materials/mp-1196360,45.031635186065856,78.19491172064788,-8.604250342815693,-0.5045126942092143
-6.90037890736842,-131.10719924,8.466548328272452,-0.03525960789473677,25.85517,1.1968107509508692,0.0,166,19,251.76731212194116,1283.679615,mp-1105621,Pr2Co17,https://materialsproject.org/materials/mp-1105621,44.79665154955189,78.55684334940143,-8.604250342815693,-0.5045126942092143
-7.209310750526316,-136.97690426,8.493565405758076,-0.06453735157894644,28.6487081,1.3299030784951151,0.0,160,19,251.05130234404663,1284.113535,mp-1220100,NdSmFe4Co13,https://materialsproject.org/materials/mp-1220100,44.75911287335479,78.10110371285528,-8.604250342815693,-0.5045126942092143
-7.185846405526315,-273.06216341,8.666237015001057,-0.09596423499999973,18.14304385,0.4330459323490221,0.0,164,38,488.26277400263467,2548.2092399999997,mp-1227655,Ce2VCo16,https://materialsproject.org/materials/mp-1227655,44.68283088318246,78.3860741614178,-8.604250342815693,-0.5045126942092143
-6.9481119163157885,-264.02825282,9.485568973316118,-0.11013078894736708,25.08769935,0.6177470261645542,0.0,194,38,473.29029657120805,2703.59663,mp-1204082,Lu2Co17,https://materialsproject.org/materials/mp-1204082,44.936467928654345,78.0235331965488,-8.604250342815693,-0.5045126942092143
-7.03278327,-133.62288213,8.476587296198206,-0.04897812026315837,20.3001014,0.9496608322522456,0.0,160,19,249.11914714230358,1271.68356,mp-1223090,La2VCo16,https://materialsproject.org/materials/mp-1223090,44.63348892315895,78.52421258640253,-8.604250342815693,-0.5045126942092143
-7.131582739736843,-271.00014411,8.020300263528085,-0.08923157763157974,25.387598999999998,0.6056864381259957,0.0,194,38,488.48497265547934,2359.35203,mp-570718,Y2Co17,https://materialsproject.org/materials/mp-570718,44.83489474092275,77.97260511877386,-8.604250342815693,-0.5045126942092143
-7.052888600526315,-268.00976682,8.822122374420006,-0.04784553499999932,47.3829524,1.094126570315499,0.0,8,38,504.6984611894408,2681.3651950000008,mp-1224958,La4TaCo33,https://materialsproject.org/materials/mp-1224958,44.60469877820599,78.45951460869131,-8.604250342815693,-0.5045126942092143
-6.772399533333334,-40.6343972,8.723131213313884,-0.0613460654166668,7.0347849,0.9677567397895036,0.0,191,6,84.71533755833842,445.025975,mp-1429,SmCo5,https://materialsproject.org/materials/mp-1429,44.14467686664463,77.2283067260627,-8.604250342815693,-0.5045126942092143
-8.342839423333333,-50.05703654,9.006840344422159,-0.07060938166666612,14.005134400000001,1.9589817437519224,0.0,191,6,83.3171334886483,451.915975,mp-1077071,GdCo5,https://materialsproject.org/materials/mp-1077071,44.177888931500966,77.17310382790707,-8.604250342815693,-0.5045126942092143
-6.889661468421052,-261.8071358,8.695256093113553,-0.06187998578947354,21.77817065,0.5164422161764872,0.0,164,38,491.44745226680743,2573.41824,mp-1227675,Ce2Co16Cu,https://materialsproject.org/materials/mp-1227675,44.652015920575174,78.41393709543316,-8.604250342815693,-0.5045126942092143
-7.2020306294736836,-136.83858196,8.446686512189222,-0.05469162710526414,28.596056400000002,1.3264519474470984,0.0,160,19,251.241889438035,1277.995535,mp-1220336,Nd2Fe4Co13,https://materialsproject.org/materials/mp-1220336,44.724132870077725,77.99765615049917,-8.604250342815693,-0.5045126942092143
-7.302347564210525,-138.74460372,8.497733666996693,-0.017188821578946845,29.1611875,1.3439573235847175,0.0,8,19,252.8699103802573,1294.050365,mp-1220103,PrErMn4Co13,https://materialsproject.org/materials/mp-1220103,44.726376862011406,78.70619118760493,-8.604250342815693,-0.5045126942092143
-7.143884534736843,-135.73380616,10.07623686577908,-0.0023207705263156467,5.0041207000000005,0.24140049558015805,0.0,166,19,241.5833763197139,1465.940435,mp-16932,Th2Co17,https://materialsproject.org/materials/mp-16932,45.297341569176645,77.37411280516481,-8.604250342815693,-0.5045126942092143
-7.2540990534210525,-275.65576403,9.403184113706908,-0.11816306868421048,18.80296825,0.4426486516515051,0.0,164,38,495.0450184007428,2803.30624,mp-1227797,Ce2HfCo16,https://materialsproject.org/materials/mp-1227797,44.538959516380245,77.95966911170693,-8.604250342815693,-0.5045126942092143
-7.00797943263158,-133.15160922,8.24642764091859,-0.08638891377193066,21.421426999999998,0.9772704771763224,0.0,160,19,255.45302309753188,1268.60906,mp-1223096,La2TiCo16,https://materialsproject.org/materials/mp-1223096,44.550323593236726,78.52081699854196,-8.604250342815693,-0.5045126942092143
-6.5451314813157895,-248.71499629,9.400865755028144,-0.02262729710526245,26.601226300000004,0.6510223504692629,0.0,194,38,476.1931969098429,2695.88863,mp-1199900,Yb2Co17,https://materialsproject.org/materials/mp-1199900,45.43923680600965,77.69367413665032,-8.604250342815693,-0.5045126942092143
-6.278270330833332,-75.33924397,8.610395968612442,-0.11398322708333335,8.4225467,0.5806106696981443,0.0,47,12,169.05804511436207,876.616975,mp-1220439,Nd2(CoNi)5,https://materialsproject.org/materials/mp-1220439,43.04125209256285,78.70630891292983,-8.604250342815693,-0.5045126942092143
-6.660334341666666,-239.7720363,8.945983222664507,-0.08226116444444405,8.72094555,0.19191847306037,0.0,194,36,529.5710344970076,2853.00946,mp-540547,Sm2Co7,https://materialsproject.org/materials/mp-540547,44.009744393539044,77.07611648732653,-8.604250342815693,-0.5045126942092143
-7.8692334352631566,-299.03087054,10.28871285552742,0.0009479376973675508,25.086517100000002,0.6079292506231747,0.0,194,38,480.9110515765358,2979.72863,mp-568820,Pu2Co17,https://materialsproject.org/materials/mp-568820,45.37573160853818,77.44455349930087,-8.604250342815693,-0.5045126942092143
-6.990363941304348,-321.5567413,8.686181894343031,0.11963039869565165,1.660346497826087,0.037336892450336584,0.0,186,46,518.2484229584948,2710.92697,mp-669382,Co,https://materialsproject.org/materials/mp-669382,47.07111330166146,79.00329945949088,-8.604250342815693,-0.5045126942092143
-6.980058990000002,-195.44165172,8.591918862642316,0.12993534999999973,1.6853019928571429,0.06158546439234115,0.0,136,28,318.91646478391436,1650.12946,mp-1193227,Co,https://materialsproject.org/materials/mp-1193227,46.75096259244856,78.59967867662375,-8.604250342815693,-0.5045126942092143
-6.9573354638235285,-473.09881154,8.930669212268533,-0.1647838912745101,18.230659925,0.2476007166664856,0.0,136,68,858.0802772822357,4614.905720000001,mp-1196092,Tb2Co14B,https://materialsproject.org/materials/mp-1196092,44.373688102217976,79.70616755772079,-8.604250342815693,-0.5045126942092143
-6.592563492631579,-250.51741272,9.281953885457064,-0.03222963421052626,49.8637233,1.190637389390968,0.0,156,38,488.0705631430274,2728.179435,mp-1216133,Yb4ZrCo33,https://materialsproject.org/materials/mp-1216133,45.37157231533432,77.66255847865284,-8.604250342815693,-0.5045126942092143
-7.165011658947368,-272.27044304,8.692793128559837,-0.10311282421052606,19.0244008,0.441514913753876,0.0,164,38,502.1610647243737,2628.77424,mp-1227870,Ce2ZrCo16,https://materialsproject.org/materials/mp-1227870,44.410937838970185,77.83734688668727,-8.604250342815693,-0.5045126942092143
-7.106729446315789,-135.02785948,8.533022987925728,0.0243592763157898,15.9376405,0.7516542213526076,0.0,12,19,247.10603550464091,1269.805425,mp-1219992,Pr2Cr2Co15,https://materialsproject.org/materials/mp-1219992,44.693974021725495,78.75185699489244,-8.604250342815693,-0.5045126942092143
-6.942366826029412,-472.08094417,8.750750987556813,-0.14171931921568662,18.947445925,0.2554019434998397,0.0,136,68,864.5774541048502,4556.172320000001,mp-1217550,TbNdCo14B,https://materialsproject.org/materials/mp-1217550,44.375752769520204,79.74812940785438,-8.604250342815693,-0.5045126942092143
-6.739619013333333,-80.87542816,8.328992060905982,-0.018892311041666925,13.8220297,0.9239360891335184,0.0,47,12,174.344125428751,874.4816,mp-1219752,PrNdCo10,https://materialsproject.org/materials/mp-1219752,43.980277141047814,77.29065166231655,-8.604250342815693,-0.5045126942092143
-6.922366877205883,-470.72094765,8.524599014112066,-0.11362343612745128,18.36287685,0.24427428137127835,0.0,136,68,876.0732199030394,4497.4389200000005,mp-4164,Nd2Co14B,https://materialsproject.org/materials/mp-4164,44.3558193921769,79.7526518729003,-8.604250342815693,-0.5045126942092143
-7.304341503421052,-277.56497713,8.910374625210476,-0.10564624026315828,29.75399445,0.7067893341180704,0.0,194,38,490.6058450858789,2632.5679600000003,mp-1197249,Ho2Fe5Co12,https://materialsproject.org/materials/mp-1197249,44.751924211541386,77.8538493480095,-8.604250342815693,-0.5045126942092143
-6.668892117,-200.06676351,8.193716747882423,0.01886413300000148,34.837841,0.9706508175494442,0.0,65,30,418.27859020935125,2063.9420136,mp-1220652,Pr4AlCo25,https://materialsproject.org/materials/mp-1220652,43.91736012126025,77.44246861782545,-8.604250342815693,-0.5045126942092143
-6.731470231666666,-40.38882139,8.342489057499904,-0.009194705833332742,6.993432799999999,0.9400540276195308,0.0,191,6,86.69918583310387,435.573625,mp-2837,PrCo5,https://materialsproject.org/materials/mp-2837,43.91015499784451,77.37408069902322,-8.604250342815693,-0.5045126942092143
-6.2975694975,-75.57083397,8.799218146791448,-0.1414068045833332,8.5262174,0.5923779621839893,0.0,47,12,167.73934242621814,888.852975,mp-1219225,Sm2(CoNi)5,https://materialsproject.org/materials/mp-1219225,43.003650762243396,78.76101070360512,-8.604250342815693,-0.5045126942092143
-7.257942815,-275.80182697,8.346694593468339,-0.0039042439473686687,58.531045400000004,1.337473226201394,0.0,8,38,510.00990594373155,2563.56329,mp-1220144,Pr3ErMn6(FeCo13)2,https://materialsproject.org/materials/mp-1220144,44.69522801965373,78.83717835053291,-8.604250342815693,-0.5045126942092143
-6.617755672105264,-125.73735777,8.01249560603271,-0.10651965263157892,19.3333829,0.8912997855828039,0.0,166,19,252.79092425896908,1219.7763022,mp-1188126,Pr2Al2Co15,https://materialsproject.org/materials/mp-1188126,42.32153788480794,77.35622395449911,-8.604250342815693,-0.5045126942092143
-6.940213138970589,-471.93449345,8.625388172445351,-0.13720457612745082,18.307419175,0.24376317615586995,0.0,136,68,875.2587336957935,4546.382919999999,mp-1195895,Sm2Co14B,https://materialsproject.org/materials/mp-1195895,44.3612572367734,79.75917617538583,-8.604250342815693,-0.5045126942092143
-7.050454234117646,-479.43088792,8.165059994313483,-0.1415761708333329,19.020912525,0.2549011468124571,0.0,136,68,869.6349521041417,4276.094319999998,mp-1220235,NdYCo14B,https://materialsproject.org/materials/mp-1220235,44.34954935298936,79.7628195458707,-8.604250342815693,-0.5045126942092143
-7.019722623333332,-42.11833574,8.688857016880856,-0.10567346833333248,5.7485,0.8062579172016539,0.0,191,6,83.0917624692343,434.781975,mp-764,CeCo5,https://materialsproject.org/materials/mp-764,43.932716812702886,77.37555690615186,-8.604250342815693,-0.5045126942092143
-6.523234974210527,-123.94146451,8.751116809822648,-0.09460599447368467,21.0014407,0.974090155638294,0.0,166,19,251.2623177825795,1324.163925,mp-1188906,Sm2Ga2Co15,https://materialsproject.org/materials/mp-1188906,42.267615178934854,77.26599509540334,-8.604250342815693,-0.5045126942092143
-6.509036287368421,-123.67168946,8.595541969739031,-0.07527610078947371,21.077105399999997,0.9691758709822116,0.0,166,19,253.44621023295787,1311.927925,mp-1190065,Nd2Ga2Co15,https://materialsproject.org/materials/mp-1190065,42.25866168706578,77.21510141386129,-8.604250342815693,-0.5045126942092143
-6.875251326,-206.25753978,8.276046992892272,-0.02751444999999914,33.6243571,0.9176900093433324,0.0,65,30,427.0074116416275,2128.184475,mp-1220153,Pr4ZrCo25,https://materialsproject.org/materials/mp-1220153,43.95773740154669,77.24434415690601,-8.604250342815693,-0.5045126942092143
-7.173592256911764,-487.80427347,7.821114034626997,-0.1645795714215686,18.263106399999998,0.2472336337173104,0.0,136,68,860.8837791750955,4054.7497200000003,mp-1200125,Y2Co14B,https://materialsproject.org/materials/mp-1200125,44.3406624139538,79.75890809309391,-8.604250342815693,-0.5045126942092143
-6.7961081483333325,-40.77664889,9.060571983026579,-0.09986875000000002,7.072328999999999,0.9914747708981922,0.0,191,6,83.13008326392969,453.591325,mp-1200,TbCo5,https://materialsproject.org/materials/mp-1200,43.99597580139429,77.01267321091095,-8.604250342815693,-0.5045126942092143
-6.7557777175,-81.06933261,8.331647248678593,-0.023141842083333586,13.5738407,0.9097179576410468,0.0,47,12,173.88951971488416,872.4794199999999,mp-1222865,LaNdCo10,https://materialsproject.org/materials/mp-1222865,43.96880524984472,77.28852380173566,-8.604250342815693,-0.5045126942092143
-6.915660530882352,-470.26491610000005,8.467512552017586,-0.10582380259803953,18.853348525,0.2498602934491453,0.0,136,68,879.3639912005971,4484.101519999998,mp-1219868,PrNdCo14B,https://materialsproject.org/materials/mp-1219868,44.34545023478531,79.76411378736485,-8.604250342815693,-0.5045126942092143
-6.899854018333333,-206.99562055,8.45770838737563,-0.058678864999999775,30.919406199999997,0.8905976085256287,0.0,65,30,404.6010893521441,2060.7754136,mp-1227640,Ce4AlCo25,https://materialsproject.org/materials/mp-1227640,43.932138754127024,77.36636424391341,-8.604250342815693,-0.5045126942092143
-6.8949135099999985,-82.73896212,8.551089394744416,-0.06484199645833283,12.387383400000001,0.8561164543901064,0.0,47,12,168.62585430503677,868.3534199999999,mp-1223000,LaCeCo10,https://materialsproject.org/materials/mp-1223000,43.92036424450277,77.40358975120797,-8.604250342815693,-0.5045126942092143
-6.417760306666668,-38.50656184,8.705869363965926,-0.1506194587500005,4.7041985,0.646560306874442,0.0,191,6,84.79183370689726,444.546385,mp-1219088,SmCo3Ni2,https://materialsproject.org/materials/mp-1219088,43.008736873963755,78.60862524443927,-8.604250342815693,-0.5045126942092143