energy_per_atom,energy,density,formation_energy_per_atom,total_magnetization_uB,total_magnetization_T,band_gap,sgr,num_sites,cell_volume,weight,mp_id,formula,URL,tsne_cry_lin1_0,tsne_cry_lin1_1,tsne_cry_lin2_0,tsne_cry_lin2_1
-9.35832909,-37.43331636,15.299810359232554,0.2262524663100009,0.0,0.0,0.0,31,4,44.33296959737995,408.4734,mp-999317,OsN,https://materialsproject.org/materials/mp-999317,5.7493923659012065,20.602481717281233,-8.604250342815693,-0.5045126942092143
-7.25120788,-29.00483152,13.025913118888075,-0.9094857850000002,1.21e-05,1.7699197801930699e-06,0.0,225,4,79.67264128354444,624.9831399999998,mp-864625,Ho2IrRh,https://materialsproject.org/materials/mp-864625,16.96878808423412,49.536988864791546,-8.604250342815693,-0.5045126942092143
-9.227774235,-36.91109694,14.502728947976971,-0.3630037149999996,3.69e-05,5.86280100711811e-06,0.0,225,4,73.34975033014784,640.61821,mp-865275,TmZrOs2,https://materialsproject.org/materials/mp-865275,40.345507034261594,59.74472698326472,-8.604250342815693,-0.5045126942092143
-5.7067987575,-22.82719503,10.783358302711878,-0.17092201416666694,2.42e-05,3.368287516649038e-06,0.0,225,4,83.7304909696433,543.73662,mp-1187589,Tm2TcAg,https://materialsproject.org/materials/mp-1187589,18.7261616919242,55.70080696493409,-8.604250342815693,-0.5045126942092143
-5.5439808677272735,-121.96757909,4.604786009072399,-1.5154291920454546,2.0026648000000002,0.11198031326870364,0.07869999999999999,12,22,208.42221829583104,577.968775,mp-773165,Li4Co5CuO12,https://materialsproject.org/materials/mp-773165,-73.15206233360641,-23.227751753129066,-8.604250342815693,-0.5045126942092143
-5.338623715,-53.38623715,11.11942924542588,-0.5102536880000003,2.8300000000000003e-05,1.4796363596138025e-06,0.0,194,10,222.89938397399376,1492.596,mp-30846,Sn3Pt2,https://materialsproject.org/materials/mp-30846,42.940903208221435,41.37828508428668,-8.604250342815693,-0.5045126942092143
-7.0703250775,-28.28130031,9.256281136419142,-0.7776607187499991,0.41326549999999995,0.06493746735848344,0.0,225,4,74.16708875750565,413.42685,mp-865518,YSnRh2,https://materialsproject.org/materials/mp-865518,31.694485740156445,56.39594867385448,-8.604250342815693,-0.5045126942092143
-9.3029876575,-37.21195063,15.123294498774747,-0.8153815424999991,2.5e-06,4.0472920957542684e-07,0.0,225,4,71.98680313180978,655.617,mp-981539,Hf2IrPd,https://materialsproject.org/materials/mp-981539,38.9221266827641,60.32996400038413,-8.604250342815693,-0.5045126942092143
-6.9182445160810815,-511.95009419,6.05475511501788,-0.5882941999355298,0.0098602,6.688207329989441e-05,0.0,11,74,1718.1197262701255,6264.709199999998,mp-1226012,K2InMo15Se19,https://materialsproject.org/materials/mp-1226012,63.43784088386714,32.6833135732807,-8.604250342815693,-0.5045126942092143
-8.37725769,-33.50903076,12.088384107249027,-0.3675585312500012,0.7589172,0.1166652997439982,0.0,225,4,75.81063285499026,551.8858799999999,mp-1186407,PaSnRu2,https://materialsproject.org/materials/mp-1186407,20.90878066396661,54.25813174600529,-8.604250342815693,-0.5045126942092143
-8.85841390631579,-168.30986422,6.7014842532027235,-0.3177157910021046,26.8890583,1.7586924300868592,0.0,12,19,178.1817114467577,719.09296,mp-1246446,Mn8Fe3N8,https://materialsproject.org/materials/mp-1246446,2.628505900145437,17.685171973896203,-8.604250342815693,-0.5045126942092143
-7.0366471125,-28.14658845,13.966219952791722,-0.6750044837499996,1.5e-06,2.273911300252591e-07,0.0,225,4,76.87677684216487,646.5840000000001,mp-865336,Lu2OsPd,https://materialsproject.org/materials/mp-865336,17.859468596109807,54.45324858438281,-8.604250342815693,-0.5045126942092143
-5.5010845725,-22.00433829,0.7852639997645794,3.816972667083333,4.0000003,0.06484114558400354,0.0,71,4,718.930274389824,339.98,mp-1097211,TiV2Os,https://materialsproject.org/materials/mp-1097211,-62.160309714926036,36.08483407909733,-8.604250342815693,-0.5045126942092143
-5.5895399225,-22.35815969,7.759514724056121,-0.31786389625000044,0.0,0.0,0.0,63,4,86.85650231535759,405.8708,mp-999339,NdNi,https://materialsproject.org/materials/mp-999339,2.150867751897789,58.65750806361274,-8.604250342815693,-0.5045126942092143
-5.151829084,-25.75914542,3.5817519664565425,-1.6508750795000005,1.0,0.23983058706843105,0.8842000000000003,71,5,48.59290432889792,104.81399499999999,mp-755133,Li2CoO2,https://materialsproject.org/materials/mp-755133,-45.62595788922443,-32.49785232691941,2.3654377172919903,1.6432224637134878
-1.5679018816666668,-9.40741129,5.9949706561631215,-0.013898321666666824,0.00281105,0.00015966163906471154,0.0,63,6,205.18490835250716,740.77,mp-1187899,Yb2Mg,https://materialsproject.org/materials/mp-1187899,-27.134832738564967,55.39750531359423,-8.604250342815693,-0.5045126942092143
-5.179200971428571,-36.2544068,10.097155169896787,-0.30360416125850315,1.4e-06,1.478667231957855e-07,0.0,123,7,110.34051698014905,670.941962,mp-1078079,AgPPd5,https://materialsproject.org/materials/mp-1078079,26.44903029897025,46.68052308139329,-8.604250342815693,-0.5045126942092143
-6.710111127777778,-60.39100015,10.664942235982004,-0.5336792427777787,1.3333333333333334e-07,8.120041208229694e-09,0.0,189,9,191.3629824234267,1229.0437650000001,mp-22339,ThCoSn,https://materialsproject.org/materials/mp-22339,10.810884292360619,56.191757140446825,-8.604250342815693,-0.5045126942092143
-6.2740328000000005,-87.83645920000001,7.7280014419196785,-0.22295907107142807,9.02e-05,2.6491449385572485e-06,0.0,15,14,396.80601358768115,1846.7,mp-1103979,Nd5Ru2,https://materialsproject.org/materials/mp-1103979,-31.016765042256125,68.17606424579725,-8.604250342815693,-0.5045126942092143
-5.5274416175,-22.10976647,0.6349026493106524,3.545267362500001,16.2167435,0.2729382030622796,0.0,71,4,692.4313893349039,264.749285,mp-1096406,Mn2CoMo,https://materialsproject.org/materials/mp-1096406,7.041244795701621,23.833217195345892,-8.604250342815693,-0.5045126942092143
-2.215883952058824,-150.68010874,7.3653259210843025,-0.1489528782352941,0.02620505,0.0001497781268926733,0.0,194,68,2038.984973333275,9043.924,mp-645504,Yb23Mg4Cu7,https://materialsproject.org/materials/mp-645504,-27.18733635135927,55.50574139527436,-8.604250342815693,-0.5045126942092143
-8.1444136625,-65.1553093,13.565859633105338,-0.6241596550000006,1.4103808999999998,0.12162686143016227,0.0,47,8,135.14013408969623,1104.03432,mp-1216758,U2(PdRh)3,https://materialsproject.org/materials/mp-1216758,29.858718182896137,57.45030256646906,-8.604250342815693,-0.5045126942092143
-8.946686736,-89.46686736,15.312069765276988,-0.35635014833333256,5e-07,5.381876878017226e-08,0.0,44,10,108.27138038183108,998.3860000000001,mp-1228672,B5Ir3W2,https://materialsproject.org/materials/mp-1228672,19.7646567008161,38.203376753172506,-8.604250342815693,-0.5045126942092143
-10.45990865392857,-292.87744231,15.835846367372351,-0.0855527937500012,0.0035709,0.00011473422236500791,0.0,227,28,362.7121798406459,3459.03,mp-974038,Ni2W4C,https://materialsproject.org/materials/mp-974038,57.40696426587689,48.098555854764406,-8.604250342815693,-0.5045126942092143
-5.626067815,-22.50427126,8.791723303826604,-0.41599949937500025,1.9699999999999998e-05,2.794303193247979e-06,0.0,38,4,82.16183432570394,435.0058,mp-1219097,SmErNi2,https://materialsproject.org/materials/mp-1219097,2.1724317427617774,58.78038992831375,-8.604250342815693,-0.5045126942092143
-3.967550935,-31.74040748,8.012813137464617,-0.19668467312500004,0.05339615,0.002432162085494837,0.0,194,8,255.85555930525348,1234.6128199999998,mp-1185127,La3Hg,https://materialsproject.org/materials/mp-1185127,-23.49950896723094,56.015874443332635,-8.604250342815693,-0.5045126942092143
-4.732683958333333,-113.58441499999999,6.497729934432965,-0.10356536000000044,9.9375e-05,1.7160405616820523e-06,0.0,216,24,674.8807182261091,2640.8247799999995,mp-1210019,Nd4MgCo,https://materialsproject.org/materials/mp-1210019,-30.436170342609053,68.64198473714879,-8.604250342815693,-0.5045126942092143
-7.631850209166667,-91.58220251,6.851238142812597,-0.6042390541666668,1.7575e-05,1.1852801269845092e-06,0.0,38,12,172.803191173738,712.97078,mp-1215304,ZrCoSi,https://materialsproject.org/materials/mp-1215304,45.13145077110266,58.31552256494268,-8.604250342815693,-0.5045126942092143
-4.912618815,-19.65047526,18.82277338429381,0.6535617081250003,0.13454059999999998,0.022870973649326626,0.0,139,4,68.55610482438769,777.106707,mp-974584,ReAu3,https://materialsproject.org/materials/mp-974584,33.688906704047625,41.132313180312316,-8.604250342815693,-0.5045126942092143
-8.71554277,-17.43108554,8.947330703965525,-0.7683128300000011,6.720000000000001e-05,2.1736997918865184e-05,0.0,123,2,36.028579274800656,194.1295,mp-1215257,ZrRh,https://materialsproject.org/materials/mp-1215257,27.562364526563748,57.96384540494432,-8.604250342815693,-0.5045126942092143
-6.3265690025,-75.91882803,6.722106343213719,-2.439750577369792,1.9e-06,8.384137750643329e-08,0.0,8,12,264.1025675677187,1069.12605,mp-1216618,Tm5S7,https://materialsproject.org/materials/mp-1216618,47.266775545977296,17.865760795153996,-6.0181221025340665,0.4460564496856931
-9.7533783025,-39.01351321,14.85819862039957,0.16303762000000074,2.8e-06,4.815049488101732e-07,0.0,139,4,67.76956590747653,606.3896400000001,mp-1187227,Ta3Cu,https://materialsproject.org/materials/mp-1187227,-10.241228749419694,56.21974365325766,-8.604250342815693,-0.5045126942092143
-8.1237207775,-64.98976622,6.3373525323063005,-0.5200825496875012,5e-08,6.0556955712268445e-09,0.0,194,8,96.22399801546378,367.2334,mp-1080835,V2GaC,https://materialsproject.org/materials/mp-1080835,6.064295234413606,22.336813595180374,-8.604250342815693,-0.5045126942092143
-7.246555925,-28.986223699999996,11.218614599644935,-0.30299188312500025,3.04e-05,4.537805271930618e-06,0.0,225,4,78.07377087714565,527.467,mp-978505,SmLuRu2,https://materialsproject.org/materials/mp-978505,19.7744302375846,53.21269879841964,-8.604250342815693,-0.5045126942092143
-8.519037746111113,-153.34267943,8.891125937506851,-0.3426894259259272,14.152824300000002,0.7591922019264133,0.0,191,18,217.25451168799518,1163.2591449999998,mp-605854,Gd3Co11B4,https://materialsproject.org/materials/mp-605854,42.24461633551075,83.55900650031009,-8.604250342815693,-0.5045126942092143
-7.837272973611111,-282.14182705,9.086616621743874,-0.38155259361111227,6.9125e-05,8.522466104220586e-07,0.0,55,36,945.2513128849376,5172.49886,mp-1199549,Ta4CoTe4,https://materialsproject.org/materials/mp-1199549,57.987090511005185,32.80678806897326,-8.604250342815693,-0.5045126942092143
-6.372549296875,-101.96078875,10.471872664436594,-0.7628155800000007,0.00047595,1.5274752310394197e-05,0.0,193,16,363.1320505750736,2290.0229999999997,mp-569915,Er5Rh3,https://materialsproject.org/materials/mp-569915,-31.934105937541474,71.02184390939972,-8.604250342815693,-0.5045126942092143
-8.3874039225,-33.54961569,12.193183962357216,-1.0852284925000006,1.39e-05,2.0772883457865522e-06,0.0,63,4,77.98219282708328,572.616,mp-1065995,ZrPt,https://materialsproject.org/materials/mp-1065995,26.61677893880869,57.23153957599184,-8.604250342815693,-0.5045126942092143
-9.749764395,-38.99905758,15.143852148893561,0.5476146659375001,13.4143576,1.5575126853653305,0.0,221,4,100.37272493611131,915.3833,mp-568042,Np3Tl,https://materialsproject.org/materials/mp-568042,7.2818951837332815,76.4222627399447,-8.604250342815693,-0.5045126942092143
-5.13082085,-20.523283399999997,1.1528952377400812,3.06835576,0.0753284,0.001284231021808565,0.0,71,4,683.5857707104568,474.606595,mp-1093932,Hf2CoNi,https://materialsproject.org/materials/mp-1093932,-62.936060765802154,35.03800531684572,-8.604250342815693,-0.5045126942092143
-5.8943780025,-23.57751201,6.700873914810275,-0.7369090875,0.0002124,3.4215698996654134e-05,0.0,225,4,72.34466722231029,291.936824,mp-865444,LiSc2Pt,https://materialsproject.org/materials/mp-865444,7.912493806003925,43.43835937663023,-8.604250342815693,-0.5045126942092143
-10.0446311725,-40.17852469,9.273497647820776,-0.2739234375000024,6.8440304,0.9936172317286006,0.0,225,4,80.27313842797132,448.29585,mp-1184716,GdYRu2,https://materialsproject.org/materials/mp-1184716,19.49158062498072,53.18355865118663,-8.604250342815693,-0.5045126942092143
-8.94361431,-53.66168586,9.669608280058902,-1.1861650221475,5.400000000000001e-06,8.071191772298275e-07,0.1493000000000002,129,6,77.97107483905371,454.03916,mp-1245990,TaSN,https://materialsproject.org/materials/mp-1245990,16.771092426996642,22.10245517705292,-4.730860145686579,-1.60973100078495
-9.767198605,-39.06879442,10.912761691853499,-0.6878616875000017,2.8e-06,4.536987628059349e-07,0.0,225,4,71.9230115624646,472.665,mp-1188001,Zr2TcIr,https://materialsproject.org/materials/mp-1188001,39.354825236071406,59.53431964714837,-8.604250342815693,-0.5045126942092143
-5.623722576176469,-382.41313518,8.57159681658224,-0.4677542286029405,0.24328920000000004,0.0014312982260046895,0.0,186,68,1980.9345416284614,10225.458,mp-1210787,Nd23Cd4Ir7,https://materialsproject.org/materials/mp-1210787,-30.91660258274957,67.87204539639136,-8.604250342815693,-0.5045126942092143
-3.525209915,-14.10083966,0.4728092261370271,1.795999798750001,1.5969440000000001,0.020521233109056743,0.0,71,4,906.9088935955278,258.22632400000003,mp-1097596,Sc2ZnRh,https://materialsproject.org/materials/mp-1097596,-68.36261606499069,44.63138584573265,-8.604250342815693,-0.5045126942092143
-9.619075235,-38.47630094,16.423889580384586,-0.3776573737500009,2e-07,3.18469304586046e-08,0.0,225,4,73.1879939745397,723.88032,mp-981392,HoHfOs2,https://materialsproject.org/materials/mp-981392,39.991072897246475,59.3744185330485,-8.604250342815693,-0.5045126942092143
-8.093001535,-48.55800921,11.233585218354028,-0.4295961297222218,1.5570448000000001,0.2812631519552881,0.0,191,6,64.51574202603643,436.45049500000005,mp-10056,UCo3B2,https://materialsproject.org/materials/mp-10056,7.808166952224617,39.656697730669535,-7.238159776127571,0.011453545729793155
-7.102533236666668,-85.23039884,7.727679818012293,-0.7863583550000008,2.5e-07,1.5230544676135738e-08,0.014599999999999724,62,12,191.29428757101644,890.2295999999999,mp-1102687,ZrNiGe,https://materialsproject.org/materials/mp-1102687,44.81984825398076,58.599597746921994,-8.604250342815693,-0.5045126942092143
-8.75516127,-70.04129016,8.7022581388586,-0.8079313300000006,1.45e-06,1.1404513766411824e-07,0.0,62,8,148.1728573994984,776.518,mp-669917,ZrRh,https://materialsproject.org/materials/mp-669917,26.879611840818896,58.01621792078991,-8.604250342815693,-0.5045126942092143
-6.1770660225,-24.70826409,12.901431312660804,-1.1292341750000006,2.12e-05,3.002259266216288e-06,0.0,225,4,82.29341681394494,639.37242,mp-865380,Tm2PdPt,https://materialsproject.org/materials/mp-865380,16.88992901912194,54.102988300885535,-8.604250342815693,-0.5045126942092143
-7.714093790625,-493.70200260000007,6.0565326320830755,-0.2922930148149998,9.4e-05,1.0527541595488942e-06,0.0,61,64,1040.5868062207662,3795.36270848,mp-1246646,NaReN2,https://materialsproject.org/materials/mp-1246646,-0.9761333680005114,20.442810081292556,-8.604250342815693,-0.5045126942092143
-5.332137079000001,-53.32137079,8.96878466560627,0.10307772700000016,4.455e-05,1.645778990687866e-06,0.0,227,10,315.46677199988767,1703.8765600000002,mp-1212267,Ho4Ir,https://materialsproject.org/materials/mp-1212267,-30.808253083987907,65.28309795256375,-8.604250342815693,-0.5045126942092143
-5.3707919225,-21.48316769,9.984476511393844,-0.17926040374999985,0.003711,0.0005222505602730041,0.0,225,4,82.81127424422714,497.927,mp-862914,Er2ZnTc,https://materialsproject.org/materials/mp-862914,11.916464862450145,46.46769573852822,-8.604250342815693,-0.5045126942092143
-7.5621022625,-30.24840905,9.82714349769924,-0.7494034512500001,2.59e-05,4.2966340321872395e-06,0.0,225,4,70.25040423460075,415.745,mp-864947,ZrSnRh2,https://materialsproject.org/materials/mp-864947,31.755660630789706,56.521553799227846,-8.604250342815693,-0.5045126942092143
-9.94152097,-39.76608388,16.839666498513893,0.2527790565625008,0.0120693,0.0016243002013759619,0.0,63,4,86.59507881628235,878.168,mp-1065793,PuPt,https://materialsproject.org/materials/mp-1065793,21.83875026053772,55.84917480196453,-8.604250342815693,-0.5045126942092143
-5.38553049125,-86.16848786,9.190854955245152,-0.17448556749999966,2.5625e-05,7.462677312850904e-07,0.0,62,16,400.1719453721856,2214.89662,mp-622565,Ho3Co,https://materialsproject.org/materials/mp-622565,-29.652604201183077,70.60299253914174,-8.604250342815693,-0.5045126942092143
-7.4933143620000005,-149.86628724,6.192959677273698,-2.813738118941999,7.0000007,0.3666631437864141,0.0,31,20,222.48885100184398,829.7694,mp-1227152,CaTmMn2O6,https://materialsproject.org/materials/mp-1227152,-32.20001292216509,6.0018245464304885,-8.604250342815693,-0.5045126942092143
-7.008318417222222,-504.59892604,6.1167079871827985,-0.5346634167578119,0.14069855,0.0010226090120674393,0.0,167,72,1603.4574267932348,5906.444,mp-1197196,Li2Mo15Se19,https://materialsproject.org/materials/mp-1197196,63.3054993999156,32.42275385845497,-8.604250342815693,-0.5045126942092143
-8.88976788,-35.55907152,12.50240998471894,-0.2166446450000024,0.0037758,0.000555912694224962,0.0,225,4,79.15526705066381,595.97009,mp-865788,TmPaTc2,https://materialsproject.org/materials/mp-865788,20.571968894772144,56.60115127917931,-8.604250342815693,-0.5045126942092143
-1.8832727825,-7.53309113,0.3600313069639269,1.27248154,0.0,0.0,0.11160000000000014,71,4,1314.8780505201776,285.0865,mp-1096755,Sr2LiRh,https://materialsproject.org/materials/mp-1096755,-70.88572856808302,50.53462790637806,-8.604250342815693,-0.5045126942092143
-5.481200403125,-87.69920645,9.549452470759869,-0.3551325856250003,0.60053075,0.017476269287529968,0.0,140,16,400.46443226917165,2302.99678,mp-570022,Ho5Co2Bi,https://materialsproject.org/materials/mp-570022,-4.769053091085888,33.244384151879764,-8.604250342815693,-0.5045126942092143
-9.02564262,-54.15385572,5.300061124379409,-0.10321347492000044,1.15e-06,1.7255145119486812e-07,0.0,12,6,77.67059851213955,247.9068,mvc-13455,MoN2,https://materialsproject.org/materials/mvc-13455,6.291030226846122,18.91091697534291,-11.315713019186528,-0.8646536012247084
-7.36023295,-44.1613977,9.250516780273154,-0.7118278250000003,9.429999999999999e-05,9.594184934817399e-06,0.0,109,6,114.54629189647731,638.11351,mp-1025025,ThCoSi,https://materialsproject.org/materials/mp-1025025,10.624293217521856,70.87053463983642,-8.604250342815693,-0.5045126942092143
-6.0578689125,-24.23147565,1.0692566230647975,3.946399453125,1.3809726,0.021820770350776616,0.0,71,4,737.5516020201998,474.92526,mp-1096554,Nb2ReRh,https://materialsproject.org/materials/mp-1096554,-59.458474704981434,42.69640780136832,-8.604250342815693,-0.5045126942092143
-6.808461799,-68.08461799,4.3307273289322366,-2.118882192282,10.999999699999998,1.2348452125000953,0.0,1,10,103.8143952814874,270.7505382,mp-752468,LiMn3O5F,https://materialsproject.org/materials/mp-752468,-71.03486694950897,-37.05532335496342,-8.604250342815693,-0.5045126942092143
-6.763133388181819,-74.39446727,4.269137678105547,-2.07134849958,11.005426400000001,1.2004069864511246,0.03189999999999982,12,11,106.84538957443044,274.692535,mp-1003313,Li2Mn3O6,https://materialsproject.org/materials/mp-1003313,-68.1764754115199,-41.9483645616676,3.951100734156381,0.8035533072608201
-7.081371459571428,-495.69600217,5.95642420953147,-0.6544341437061258,5e-08,3.286307697531531e-10,0.0,176,70,1773.1244066575837,6360.272711399999,mp-583278,Cs3Mo15Se17,https://materialsproject.org/materials/mp-583278,63.61076692789656,32.142488136469844,-8.604250342815693,-0.5045126942092143
-12.75504530875,-204.08072494,9.663286858630897,-0.6782816712500015,3.500000025,0.08899047603059816,0.0,62,16,458.3549702699165,2667.336,mp-1106170,Gd3Pt,https://materialsproject.org/materials/mp-1106170,-31.598755544508034,68.99424728274175,-8.604250342815693,-0.5045126942092143