energy_per_atom,energy,density,formation_energy_per_atom,total_magnetization_uB,total_magnetization_T,band_gap,sgr,num_sites,cell_volume,weight,mp_id,formula,URL,tsne_cry_lin1_0,tsne_cry_lin1_1,tsne_cry_lin2_0,tsne_cry_lin2_1
-6.292483305,-25.16993322,5.652019252184937,-0.2652932875000005,0.0001112,1.5432633387043915e-05,0.0,225,4,83.9734846417466,285.8227,mp-862673,LiY2Ru,https://materialsproject.org/materials/mp-862673,9.779325724192416,42.91782172246332,-8.604250342815693,-0.5045126942092143
-5.313247081666667,-31.87948249,9.1701936647362,-0.2864439700000005,7.54e-05,1.0501335279840202e-05,0.0,191,6,83.6766430587075,462.09755,mp-1217570,TbCu2Ni3,https://materialsproject.org/materials/mp-1217570,29.84322349490304,77.52510179498908,-8.604250342815693,-0.5045126942092143
-2.2037543668181816,-193.93038428,4.249638828579593,-0.12140551499608165,0.0960373,0.00033826880235906826,0.0,6,88,3308.6850072378334,8467.561399999999,mp-675046,Rb28(Mg3In17)3,https://materialsproject.org/materials/mp-675046,-39.22257645155258,47.88364590559021,-8.604250342815693,-0.5045126942092143
-8.6010927725,-34.40437109,10.488678739712157,-0.2149973524999993,13.778398000000001,1.8121724460418271,0.0,225,4,88.6087541529702,559.691,mp-1183898,Eu2CuIr,https://materialsproject.org/materials/mp-1183898,-4.33441844139848,54.68007938886729,-8.604250342815693,-0.5045126942092143
-6.0668985,-97.070376,4.113903343589222,-2.144118620625,2.0,0.1101914746266688,1.4913000000000003,2,16,211.52389169931567,524.03998,mvc-13795,CaCoO2,https://materialsproject.org/materials/mvc-13795,-26.245087958164984,-28.775436611727727,-8.604250342815693,-0.5045126942092143
-7.030847618333333,-379.66577139,2.470681253856213,-1.3448669158725917,6.333333333333333e-07,9.249496790545006e-09,2.4178,58,54,797.9793773032816,1187.2968,mp-531265,Ca3(BN2)2,https://materialsproject.org/materials/mp-531265,26.29289129280778,-12.512924955012648,8.436375616429963,-0.8510832029198441
-5.835537922307693,-75.86199299,6.7933510336497624,-2.401195555096155,0.0002405,1.53238367103087e-05,0.0,47,13,182.90475360619683,748.2728000000002,mp-1214708,Ba2ErZn2CuO7,https://materialsproject.org/materials/mp-1214708,-50.25096033555012,-2.1657744090562168,-8.604250342815693,-0.5045126942092143
-7.125547823611112,-256.51972165,7.708110568519719,-3.1175983618055554,0.999999375,0.024106538202394254,0.0,62,36,483.43969552674025,2244.09456,mp-17734,SrHo2CuO5,https://materialsproject.org/materials/mp-17734,-47.001689721614845,-7.609745799554579,-8.604250342815693,-0.5045126942092143
-7.964215555,-31.85686222,9.788613226594114,-0.5390015031250002,6.546445200000001,0.8850665607284065,0.0,225,4,86.19995351312772,508.135,mp-1187014,SmEuRh2,https://materialsproject.org/materials/mp-1187014,5.924229580607432,47.268171052065384,-8.604250342815693,-0.5045126942092143
-7.069494679999999,-42.41696808,6.653057088663227,-0.11311505111111113,1.1e-06,1.1448616098697279e-07,0.0,99,6,111.97398130307094,448.631,mp-1215384,Zr3TiCu2,https://materialsproject.org/materials/mp-1215384,-9.986010138075043,53.46520611069269,-8.604250342815693,-0.5045126942092143
-5.109413363333333,-15.32824009,7.802411531418378,-0.6299508358333329,1.9699999999999998e-05,3.7646886605229277e-06,0.0,187,3,60.98381479108444,286.546,mp-1219064,SmCuGe,https://materialsproject.org/materials/mp-1219064,-3.7951698713869972,58.729606130443926,-8.604250342815693,-0.5045126942092143
-10.3361366325,-41.34454653,9.96095615687342,-0.5691577199999998,0.20988310000000002,0.028489086573083112,0.0,225,4,85.85713114356675,515.025,mp-1184442,EuGdRh2,https://materialsproject.org/materials/mp-1184442,5.931153785597767,47.26991350826793,-8.604250342815693,-0.5045126942092143
-5.950434481923077,-154.71129653,5.120012936029,-0.5020517307138459,2.5e-05,6.170312247803626e-07,0.0,15,26,472.1829424721599,1455.9024000000004,mp-1247348,Sr5(RhN3)2,https://materialsproject.org/materials/mp-1247348,7.264123281187371,7.671634996225188,-8.604250342815693,-0.5045126942092143
-7.5266016225,-30.10640649,7.493089736704959,-0.2902134350000001,0.0,0.0,0.0,38,4,51.65156407300495,233.0748,mp-999144,SmNiC2,https://materialsproject.org/materials/mp-999144,-21.841169440500302,11.602199583102115,-8.604250342815693,-0.5045126942092143
-6.097081759999999,-73.16498112,9.292627105484954,-0.6510202783333318,0.0013259,7.351266825447199e-05,0.0,62,12,210.19675722349945,1176.29278,mp-1102863,DyCoGe,https://materialsproject.org/materials/mp-1102863,21.219954995655964,69.39292528593886,-8.604250342815693,-0.5045126942092143
-5.218568208421052,-99.15279596,6.492307654594789,-1.7609578609210532,4.504109,0.18663003016996324,0.0,1,19,281.25794107660784,1099.6508,mvc-3067,Ba2Ca2Tl2Ni3O10,https://materialsproject.org/materials/mvc-3067,-27.14666119354481,-12.901523928998053,-8.604250342815693,-0.5045126942092143
-6.992416537916666,-1006.90798146,4.350409231881377,-2.572947390213334,8.0000000625,0.048071480417384835,0.0,1,144,1939.4559539119055,5081.1374399999995,mp-1076496,SrCaMn2O5,https://materialsproject.org/materials/mp-1076496,-30.291602873569346,-10.021259617608337,-8.604250342815693,-0.5045126942092143
-5.826762522857143,-81.57467532,3.3180474736114487,-0.7349686045914287,0.21537929999999997,0.011349998550525913,0.0,176,14,221.1493069091415,441.895,mp-1246203,Ca3NiN3,https://materialsproject.org/materials/mp-1246203,5.765177452193155,7.442367792270616,-8.604250342815693,-0.5045126942092143
-5.81112665,-87.16689975,5.712237811210956,-1.7761225113333334,0.0,0.0,0.0,65,15,216.78523323156142,745.7390499999998,mp-6789,Ba2Y(CuO2)4,https://materialsproject.org/materials/mp-6789,-49.26940713734878,0.3447322505015528,-8.604250342815693,-0.5045126942092143
-3.9082508654166666,-93.79802077,7.383205818825982,-0.18077044541666668,0.0,0.0,0.0,194,24,350.6081523766687,1558.8987,mp-542933,TbMg2Cu9,https://materialsproject.org/materials/mp-542933,3.532191453110029,41.14181222517036,-8.604250342815693,-0.5045126942092143
-6.18799699,-49.50397592,3.857513290111757,0.13593226499999922,1.3500000000000001e-05,1.088361887723608e-06,0.0,59,8,144.55658196431636,335.81199999999995,mp-1094382,MgTi3,https://materialsproject.org/materials/mp-1094382,33.60452583057431,61.4976834775272,-8.604250342815693,-0.5045126942092143
-6.954805183513512,-257.32779179,3.9712831919928884,-2.50614923084946,29.999999600000006,0.7628234259319034,0.0,6,37,458.3261691105633,1096.11576,mp-1247659,Ca8Mn8O21,https://materialsproject.org/materials/mp-1247659,-30.64465078391569,-9.998635280268218,-8.604250342815693,-0.5045126942092143
-4.588737778333333,-27.53242667,6.81577274411579,-0.1563954883333333,4.84e-05,6.575371103407015e-06,0.0,187,6,85.78325483403124,352.102032,mp-1215968,YBeCu4,https://materialsproject.org/materials/mp-1215968,3.7634537988114,45.22359759217064,-8.604250342815693,-0.5045126942092143
-8.06614264225,-322.64570569,6.455354237436428,-3.280293798,0.0084761,0.00018162513729711767,0.0,11,40,543.873055727407,2114.30936,mp-1211456,La2ZrCuO6,https://materialsproject.org/materials/mp-1211456,-44.2102980414917,-4.470240740099074,2.314218570163667,-0.220228057872498
-5.571519379583332,-133.71646511,4.738749179718312,-2.0543205845312507,0.002137,4.599912593942729e-05,1.1885999999999992,62,24,541.4176011030122,1545.06588,mp-1218223,SrLaCuS3,https://materialsproject.org/materials/mp-1218223,47.86943021951816,-4.213086901923983,6.367994957111119,-5.5441892992207285
-4.9717852575,-59.66142309,4.256644754863708,-3.0608608966266666,0.99999995,0.06575588191131314,0.6707,140,12,177.23226958729907,454.3192256,mp-12265,SrCuF4,https://materialsproject.org/materials/mp-12265,-51.82447348054171,-15.147399698303618,2.5109343301246727,-0.39434155096734025
-6.6200408524390255,-271.42167495,3.8624633361705927,-1.9962905053560969,29.0005744,0.8005870916615454,0.0,5,41,422.15840852192736,981.95305,mp-675534,Li7Mn10O24,https://materialsproject.org/materials/mp-675534,-66.03936650944408,-38.347484069163315,-5.525226829357853,-2.715063166912316
-7.343440095454546,-161.5556821,8.169364248854462,-0.3987067327272743,21.054901899999997,0.6984153934142435,0.0,229,22,351.33130345675727,1728.4468,mp-1191000,Eu3(SiNi3)2,https://materialsproject.org/materials/mp-1191000,6.716676363074335,47.713000071780726,-8.604250342815693,-0.5045126942092143
-6.279903653,-62.79903653,4.378217349364217,-0.5801987177020003,1.95e-06,1.3917417724771686e-07,0.0,67,10,163.287664104831,430.5282,mp-1247462,Sr2CN2,https://materialsproject.org/materials/mp-1247462,25.606999233303924,-9.933348979106748,-4.6133011038583245,-1.6335593252847749
-4.956727594,-24.78363797,7.1417581657529565,-1.0356076176250006,1.3e-06,1.809197262145848e-07,0.0,164,5,83.74036663286894,360.15621,mp-1018640,Tm(CuS)2,https://materialsproject.org/materials/mp-1018640,-14.757764359851484,21.34732180958823,-8.604250342815693,-0.5045126942092143
-4.24519633,-16.98078532,7.759240887830523,-0.275937727708333,3e-07,4.289969890447339e-08,0.0,225,4,81.49752844543478,380.81547,mp-20491,LaInCu2,https://materialsproject.org/materials/mp-20491,-7.822035505880258,53.98849547744872,-8.604250342815693,-0.5045126942092143
-6.793229476455696,-536.66512864,3.9332421743286607,-1.9253248760901265,66.99966239999999,0.907022315585706,0.0,8,79,860.8590901592337,2039.0771899999997,mp-530336,Li9Mn22O48,https://materialsproject.org/materials/mp-530336,-67.04897874709056,-37.01466634458836,-8.604250342815693,-0.5045126942092143
-6.788731027692307,-176.50700672,4.580431226732335,-0.9880765934061531,1.99893295,0.051314104884438334,0.0,15,26,453.9822750054155,1252.2648000000004,mp-1246530,Sr5(CrN3)2,https://materialsproject.org/materials/mp-1246530,0.6864264002141739,10.059795762680679,-8.604250342815693,-0.5045126942092143
-7.127551520540542,-1054.87762504,3.962204817834408,-2.676179708165856,27.001599275,0.16515517239540484,0.0,1,148,1905.3498739970807,4546.3468600000015,mp-1247572,SrCa7TiMn7O21,https://materialsproject.org/materials/mp-1247572,-30.81800518492461,-10.86692130501122,-8.604250342815693,-0.5045126942092143
-4.480118625,-8.96023725,2.335908538551493,1.1337655631250003,1.958725,0.6164730832168003,0.0,225,2,37.028555898204864,52.0887,mp-1213965,CaC,https://materialsproject.org/materials/mp-1213965,-23.117219587219356,44.86001383901504,-8.604250342815693,-0.5045126942092143
-6.095242526,-30.47621263,2.096868799357209,-0.625025205902,0.0,0.0,3.1453,12,5,93.62058691812591,118.2207,mp-10408,K2CN2,https://materialsproject.org/materials/mp-10408,4.931080486924497,0.07652148695632979,6.0376278417265175,-3.9719058077146916
-5.336268316666667,-16.00880495,6.9211990196829065,-1.0318276323958326,0.8166808000000001,0.1331046703412252,0.0,191,3,71.5050111863585,298.036,mp-1011376,CeSe2,https://materialsproject.org/materials/mp-1011376,23.110207274250946,35.35536672894916,-8.604250342815693,-0.5045126942092143
-5.789496121111112,-833.68744144,5.415723168268767,-2.009954508750001,14.351762625,0.08215342562322618,0.0,1,144,2035.90258060846,6639.94312,mp-1076683,Ba3Sr5Co4(CuO5)4,https://materialsproject.org/materials/mp-1076683,-33.721295606839924,-15.969437690323561,-8.604250342815693,-0.5045126942092143
-6.726764514166668,-80.72117417,6.9077984711742495,-0.6600562824999999,9.88e-05,5.431222941451609e-06,0.0,62,12,212.00043009487584,881.9161799999998,mp-1101785,YCoGe,https://materialsproject.org/materials/mp-1101785,21.333585145536887,69.5019252244016,-8.604250342815693,-0.5045126942092143
-5.771431663333334,-34.62858998,9.38888381571937,-0.042569053333333315,1.09183905,0.12925049319828746,0.0,74,6,98.4473072020636,556.6327,mp-1217542,TbFeCu,https://materialsproject.org/materials/mp-1217542,39.496321377626906,74.35857131649159,-8.604250342815693,-0.5045126942092143
-4.210131123333333,-25.26078674,8.570513639610223,-0.22444395847222207,0.0,0.0,0.11990000000000035,216,6,99.44114610667835,513.244,mp-1206278,NdInCu4,https://materialsproject.org/materials/mp-1206278,2.5033454327288496,41.26253337258364,-8.604250342815693,-0.5045126942092143
-5.929894788333333,-35.57936873,8.925301053065873,-0.16658313833333338,7.2189374000000015,0.9520267768248549,0.0,191,6,88.36932541880711,474.98,mp-636253,GdCu5,https://materialsproject.org/materials/mp-636253,3.5965596853974815,43.804616531669986,-8.604250342815693,-0.5045126942092143
-6.170808461052633,-117.24536076,4.476870047140304,-0.7775612510021052,7.9999993,0.2563442911917032,0.0,12,19,363.70035622486205,980.5486,mp-573523,Sr8Fe3N8,https://materialsproject.org/materials/mp-573523,5.605358476749122,7.286250321168722,-8.604250342815693,-0.5045126942092143
-4.842224674,-24.21112337,8.782239901286562,-0.4577736299999998,1e-06,1.3966693242033102e-07,0.0,139,5,83.44183244095676,441.30621,mp-567808,Tm(CuGe)2,https://materialsproject.org/materials/mp-567808,-3.3689994805365044,57.59695872618718,-8.604250342815693,-0.5045126942092143
-4.20616369,-21.03081845,7.535481646807004,-0.4011602075000006,1.6e-06,2.0599185358123637e-07,0.0,139,5,90.52058764421936,410.78,mp-1206434,Nd(GaCu)2,https://materialsproject.org/materials/mp-1206434,-3.788584600964049,58.0527575070406,-8.604250342815693,-0.5045126942092143
-4.382778751,-43.82778751,3.7321986661627613,-1.3369936103,0.99999995,0.092540520774833,0.0,36,10,125.93471586585078,283.04867712,mp-754549,Na2CuO2,https://materialsproject.org/materials/mp-754549,-55.2758288377639,-3.1526077731820155,-5.554473312167821,-2.9557016028644427
-6.986369861388888,-251.50931501,3.596883668388089,-2.9460178796900003,4.000000225,0.10428195107377088,0.4972999999999996,6,36,447.0213803290483,968.2903344,mp-1247671,Ca2MnAlO5,https://materialsproject.org/materials/mp-1247671,-31.39664786234535,-11.502015632073412,0.6299453247599234,-2.309854836512808
-5.830780783809524,-122.44639646,9.988918107551823,-0.22468134095238126,0.06269653333333333,0.0017185260496593454,0.0,147,21,425.17217625327913,2557.609275,mp-1217007,Tm4Co3,https://materialsproject.org/materials/mp-1217007,-27.66574566372695,67.66533739792544,-8.604250342815693,-0.5045126942092143
-3.439982767,-34.39982767,3.4806016477802415,-0.3131376034759999,5.65e-06,1.593986846634951e-07,0.0,194,10,413.0866330796138,865.8574,mp-13288,Ba3LiN,https://materialsproject.org/materials/mp-13288,-38.791241764783045,47.95948198979855,-8.604250342815693,-0.5045126942092143
-5.153602065,-20.61440826,7.3918962288753916,-0.42729426250000013,5.7000000000000005e-06,1.6029482476310704e-06,0.0,225,4,41.44124384661927,184.475864,mp-865308,Be2CuRh,https://materialsproject.org/materials/mp-865308,-27.150020259224338,49.89200426475986,-8.604250342815693,-0.5045126942092143
-6.069728443888889,-874.04089592,4.217982829796751,-2.155840805,21.593544625,0.1451584659066053,0.0,1,144,1733.6403092797973,4403.66946,mp-1099952,Ca7MgCo7CuO20,https://materialsproject.org/materials/mp-1099952,-32.963743163058574,-16.125828486979053,-8.604250342815693,-0.5045126942092143
-6.0558699586666656,-181.67609876,7.392308742478787,-2.2038735213333336,0.0016218,4.162130156216093e-05,0.0,66,30,454.10790962194056,2021.576,mp-1209149,Sr2DyCu2(BiO4)2,https://materialsproject.org/materials/mp-1209149,-44.88045095426886,-5.784508089867744,-8.604250342815693,-0.5045126942092143
-7.074767457391305,-162.71965152,4.7539917454747895,-2.618126835493044,16.000000099999998,0.6081124838192248,0.5597999999999996,6,23,306.62918865811764,877.8550800000003,mp-1218639,Sr5Mn4CO13,https://materialsproject.org/materials/mp-1218639,-30.14342038281702,-9.181469452831921,-4.73733721291151,-1.678757945083054
-6.024201935,-24.09680774,5.538815751253517,-0.4767822174999994,5.9499999999999996e-05,8.040544554078753e-06,0.0,225,4,86.24003626912929,287.6582,mp-862672,LiY2Rh,https://materialsproject.org/materials/mp-862672,9.269942621663953,42.84752802771798,-8.604250342815693,-0.5045126942092143
-7.477795958571428,-52.34457171,5.893439673418524,-3.0499809919228573,4.0000003,0.4789145513811768,0.0,107,7,97.33732761307449,345.461115,mp-1218156,SrLaMnO4,https://materialsproject.org/materials/mp-1218156,-33.4652177920509,-10.296883450159395,-8.604250342815693,-0.5045126942092143
-3.775128333333333,-11.325385,2.9892898584746943,-0.11266161012666664,0.048446300000000005,0.005337243922531386,0.0,160,3,105.78424489976801,190.43200000000002,mp-1247556,KBaN,https://materialsproject.org/materials/mp-1247556,7.028898752927576,2.17303081557105,-8.604250342815693,-0.5045126942092143
-6.916196930961538,-1078.92672123,4.599893665790599,-2.5034180508058976,26.0024235,0.1651479067115542,0.0,1,156,1834.9244246964909,5082.96224,mp-1247676,Sr3Ca5Mn8O23,https://materialsproject.org/materials/mp-1247676,-33.632955415031255,6.243060248663403,-8.604250342815693,-0.5045126942092143
-6.135313374722222,-220.87128149,4.2811769138739,-0.8347187691133331,1.000000175,0.016278403071243702,0.0,62,36,715.9219956046115,1845.7793800000002,mp-1246888,Sr4MnN4,https://materialsproject.org/materials/mp-1246888,5.90295641421333,6.962891199511857,-8.604250342815693,-0.5045126942092143
-4.410311808571429,-123.48873064,9.19977026311842,-0.2554660114285713,7.5e-08,2.013096534527588e-09,0.0,62,28,434.18427430112826,2405.48128,mp-1211942,HoCu5Sn,https://materialsproject.org/materials/mp-1211942,3.1235734375394797,42.092188434700105,-8.604250342815693,-0.5045126942092143
-4.204903985,-117.73731158,8.348412305112916,-0.2003323933333329,0.00106125,2.710753970006803e-05,0.0,62,28,456.2522595825225,2293.8226,mp-1209796,PrInCu5,https://materialsproject.org/materials/mp-1209796,2.956395437031408,42.623418577116325,-8.604250342815693,-0.5045126942092143
-6.1718120975,-49.37449678,3.866360966868728,0.15211715749999932,0.76477385,0.061797022877248364,0.0,194,8,144.22578255855146,335.81199999999995,mp-978255,MgTi3,https://materialsproject.org/materials/mp-978255,33.602711657868035,61.50745952779057,-8.604250342815693,-0.5045126942092143
-5.806407693333332,-69.67689232,7.5884790409125,-0.05797424749999891,5.7777357,0.38940318900205617,0.0,47,12,172.91616501418784,790.207675,mp-1216214,Y2(CoCu)5,https://materialsproject.org/materials/mp-1216214,39.59097564466772,75.107659179034,-8.604250342815693,-0.5045126942092143
-6.860182778947369,-130.3434728,3.9649824891395355,-2.6137066320594733,9.999999699999998,0.526929541447719,0.0,123,19,221.1693121421632,528.1010736000002,mp-1247656,Ca4Mn3AlO11,https://materialsproject.org/materials/mp-1247656,-36.219149140546826,6.028566363296869,-8.604250342815693,-0.5045126942092143
-6.172189808333332,-222.19883309999997,5.374335877260507,-0.4964078627244438,1.646535575,0.035549065065070926,0.0,52,36,539.7844417637858,1747.01276,mp-1246557,Sr3(CoN2)2,https://materialsproject.org/materials/mp-1246557,3.6179919472667046,7.960247659463117,-4.972375676582172,-1.0036998804505988
-4.534720418333333,-27.20832251,9.405079502975113,-0.2793885066666662,6.95e-06,7.792559041467679e-07,0.0,74,6,103.93986075469613,588.702,mp-1024991,ErCu2,https://materialsproject.org/materials/mp-1024991,1.8906768983684483,41.4182941284957,-8.604250342815693,-0.5045126942092143
-5.284223375,-21.1368935,10.14143309322147,-0.2428125874999996,0.0028403,0.00043914301894507356,0.0,225,4,75.37644627260136,460.347615,mp-979043,Tm2CoCu,https://materialsproject.org/materials/mp-979043,-10.136361691647217,55.38966960522646,-8.604250342815693,-0.5045126942092143
-4.4654849675,-17.86193987,8.263484088518533,-0.2442934408333333,0.42414490000000005,0.06438917495519147,0.0,225,4,76.76775080579466,382.026,mp-19834,CeInCu2,https://materialsproject.org/materials/mp-19834,-7.876950239745643,53.96576525277761,-8.604250342815693,-0.5045126942092143
-5.6820060225,-272.73628908,3.2208410674498866,-0.5506540916266663,1.8192056375,0.049533500331037074,0.0,206,48,428.01619494567353,830.19556,mp-1246635,Li3MnN2,https://materialsproject.org/materials/mp-1246635,-0.14207084512748422,10.780749254773953,-5.217512606574532,-3.1536118730777414
-3.10466763,-12.41867052,7.619969633999458,-0.40583595875,6e-07,9.249117023448278e-08,0.0,216,4,75.601150313145,346.9225689999999,mp-7554,LiMgSnAu,https://materialsproject.org/materials/mp-7554,-9.467321311154917,60.1205281585166,-8.604250342815693,-0.5045126942092143