energy_per_atom,energy,density,formation_energy_per_atom,total_magnetization_uB,total_magnetization_T,band_gap,sgr,num_sites,cell_volume,weight,mp_id,formula,URL,tsne_cry_lin1_0,tsne_cry_lin1_1,tsne_cry_lin2_0,tsne_cry_lin2_1
-3.48922994,-13.95691976,0.5652563221133028,1.7966647850000004,0.6527706,0.007316218512932714,0.0,71,4,1039.8036691461812,353.9547,mp-1097659,Y2GaPd,https://materialsproject.org/materials/mp-1097659,-69.19169574156119,42.83217364175857,-8.604250342815693,-0.5045126942092143
-6.802866341666667,-40.81719805,10.495572698571337,-0.09045420666666716,0.03573345,0.004666304167511427,0.0,74,6,89.24406251663477,564.07439,mp-1225620,ErFeCo,https://materialsproject.org/materials/mp-1225620,42.929138061214,74.37233311943513,-8.604250342815693,-0.5045126942092143
-7.2064176426666675,-108.09626464,7.295524584117182,-0.6933844725833335,0.0848058,0.003169909875241504,0.0,148,15,311.78561069135924,1369.82,mp-1104138,Dy(Mo3Se4)2,https://materialsproject.org/materials/mp-1104138,63.04658115018921,33.04516756395877,-8.604250342815693,-0.5045126942092143
-5.3608826875,-21.44353075,8.012920472501785,0.06541495937499953,0.004518600000000001,0.0003822570781428822,0.0,139,4,137.76084235542828,664.76406,mp-974068,Nd3Th,https://materialsproject.org/materials/mp-974068,-52.85718635139671,68.03906450475053,-8.604250342815693,-0.5045126942092143
-6.3198186925,-25.27927477,12.452398281312806,-0.5696207749999997,2.01e-05,3.052275764840574e-06,0.0,225,4,76.74493393642791,575.511,mp-1183779,DyRh2Pb,https://materialsproject.org/materials/mp-1183779,31.04330159982829,56.367088565976886,-8.604250342815693,-0.5045126942092143
-8.602637838333333,-103.23165406,7.722692101908787,-0.17123111833333246,0.06747365,0.00452262360791105,0.0,38,12,173.8686116097609,808.6131799999999,mp-1215305,ZrCrCo,https://materialsproject.org/materials/mp-1215305,61.58810179944656,64.34415439269932,-8.604250342815693,-0.5045126942092143
-8.70982749,-104.51792988,8.875090682925395,-0.267643553689999,2.75e-06,2.032520646297749e-07,0.0,36,12,157.67947146276742,842.7502,mp-1245455,LiRe2N3,https://materialsproject.org/materials/mp-1245455,3.622107328768859,19.28099592912296,-8.604250342815693,-0.5045126942092143
-6.608686051923077,-171.82583735,6.473450288871869,-1.7205874220192312,0.00404715,0.0001558800801259421,0.1554000000000002,74,26,302.57713625857633,1179.5676,mp-560305,MgGaMo4O7,https://materialsproject.org/materials/mp-560305,-20.940829117347427,-14.796255746002025,0.661165563792938,-2.0584790873679237
-8.7796770475,-35.11870819,13.34678847619969,-0.8951333699999999,1.1e-06,1.908988155972561e-07,0.0,221,4,67.15322570078807,539.75238,mp-30825,PaRh3,https://materialsproject.org/materials/mp-30825,66.98157898989209,52.97302230414086,-8.604250342815693,-0.5045126942092143
-7.648197772,-76.48197772,12.036018866855626,-0.2577030129999997,4.6290198,0.2420860275831121,0.0,127,10,222.84184313008504,1615.2156400000001,mp-21337,U2SnPd2,https://materialsproject.org/materials/mp-21337,22.954242591530942,59.93495461160393,-8.604250342815693,-0.5045126942092143
-2.1153330879166665,-50.76799411,7.040757583006494,-0.1455033095833332,0.283994925,0.004497773581800065,0.0,216,24,735.851903355182,3120.0440000000003,mp-1207620,Yb4MgCu,https://materialsproject.org/materials/mp-1207620,-27.223022321299705,55.48917106912518,-8.604250342815693,-0.5045126942092143
-6.929903174166667,-166.31767618,6.191857412484126,-2.3094015150891662,0.9999983,0.030841138071424287,0.4224000000000001,2,24,377.87337593250425,1409.0232192,mp-753526,WO2F,https://materialsproject.org/materials/mp-753526,-19.545895556866697,0.9725674618514788,1.7829031987050294,-1.4225159602846364
-5.65051737875,-45.20413903,10.805995304236152,-0.7977547412500003,5e-07,3.2888824249270223e-08,0.0,26,8,177.1736302312219,1152.9614,mp-1217701,Tb2CuPt,https://materialsproject.org/materials/mp-1217701,14.205622113390467,55.31004196408943,-8.604250342815693,-0.5045126942092143
-6.326114746818181,-278.34904886,3.2204606423578968,-2.6656520502163628,2.9999999,0.07544035510676507,0.355,8,44,463.44152413907966,898.8016256000001,mp-759687,Li3V2(O2F)2,https://materialsproject.org/materials/mp-759687,-41.55793980827433,-57.68888146703886,3.730989502443452,3.4749377529210865
-7.995457179444445,-287.83645846,8.358333469561456,-0.3897549627777784,0.0,0.0,0.0,55,36,1025.1593872327921,5160.1460799999995,mp-28964,Ta4FeTe4,https://materialsproject.org/materials/mp-28964,58.094532339348575,32.926205315089014,-8.604250342815693,-0.5045126942092143
-8.997183983333334,-107.96620779999999,6.9786823041979575,-0.718789921666667,7.75e-07,4.408606381533948e-08,0.0,62,12,204.8697347208205,860.998,mp-1102520,ZrSiMo,https://materialsproject.org/materials/mp-1102520,51.95836805568593,58.56526665026002,-8.604250342815693,-0.5045126942092143
-6.42704487,-231.37361532,12.87077353902846,-1.1917532561111115,0.002392,3.365599919070288e-05,0.0,62,36,828.277977367654,6419.9504,mp-1198999,Ho5Pt4,https://materialsproject.org/materials/mp-1198999,15.02416526022751,56.54267548542003,-8.604250342815693,-0.5045126942092143
-6.78261968,-27.13047872,1.2285883274908869,4.051232885000001,0.12167439999999999,0.001870241034313159,0.0,71,4,758.1917585735649,560.9657599999999,mp-1096486,Ta2TcRu,https://materialsproject.org/materials/mp-1096486,-58.073287825379936,40.12171032678571,-8.604250342815693,-0.5045126942092143
-8.904150721428572,-249.3162202,7.259798664306857,-0.2973604255357145,0.057466075,0.0016150932241760824,0.0,227,28,414.6592594470318,1812.8708,mp-1193698,Zr3Fe3C,https://materialsproject.org/materials/mp-1193698,21.84375655724501,42.070452238091434,-8.604250342815693,-0.5045126942092143
-7.767368509000001,-77.67368509,12.179132125559342,-0.13682793800000184,3.80145675,0.2281342236613278,0.0,127,10,194.19455127588643,1424.30924,mp-22813,U2Ni2Sn,https://materialsproject.org/materials/mp-22813,28.087183804504466,71.02521478914993,-8.604250342815693,-0.5045126942092143
-6.893018465555556,-124.07433238,13.560464322357275,-0.21258290629629625,0.0,0.0,0.0,189,18,287.4357108228367,2347.2870000000007,mp-570692,In5B4Ir9,https://materialsproject.org/materials/mp-570692,37.535199318359545,48.72198602485437,-8.604250342815693,-0.5045126942092143
-6.945243212142858,-194.46680994,5.844587977464702,0.12542878499999993,1.885e-05,3.795686497942658e-07,0.0,227,28,578.7599188758631,2037.0573544,mp-645193,Zr4AlNi2,https://materialsproject.org/materials/mp-645193,25.29887619199827,58.103879648412,-8.604250342815693,-0.5045126942092143
-7.070637071666668,-42.42382243,7.390488287493308,-0.1748461283333332,1.8616539,0.2334953232353773,0.0,227,6,92.91764320614534,413.54447999999996,mp-1294,YCo2,https://materialsproject.org/materials/mp-1294,42.560246258035505,74.10171810211537,-8.604250342815693,-0.5045126942092143
-7.0139215015625,-224.44548805,12.439972922826572,-0.8286978021874996,0.003805275,5.927095172418302e-05,0.0,130,32,748.2066684835802,5605.2104,mp-1197997,Ho5Ir3,https://materialsproject.org/materials/mp-1197997,16.443129277563376,48.45003464959628,-8.604250342815693,-0.5045126942092143
-5.023070373,-50.23070373,8.123451028050589,-0.7799607250000001,7e-07,3.5954009576522016e-08,0.0,127,10,226.89667819743985,1109.9914,mp-16652,Tb2MgPd2,https://materialsproject.org/materials/mp-16652,3.1273671667912315,63.27551639017889,-8.604250342815693,-0.5045126942092143
-7.153092717500001,-85.83711261,8.608150338813074,-0.3109548536111113,2.44434485,0.1909596726710224,0.0,191,12,149.1757542831998,773.3195599999999,mp-21878,CeCo4B,https://materialsproject.org/materials/mp-21878,42.24162923830247,83.54271195438902,-8.604250342815693,-0.5045126942092143
-8.48588292,-101.83059504,9.058922493583227,-0.14986754833333413,2.5040037,0.19022108579418529,0.0,194,12,153.4100238608835,836.9146900000001,mp-1220766,Nb2FeCo3,https://materialsproject.org/materials/mp-1220766,60.32180033951112,65.1541950931704,-8.604250342815693,-0.5045126942092143
-6.22382663875,-49.79061311,11.736263089907744,-1.1123619762500008,2e-07,1.3147231958978498e-08,0.0,26,8,177.2854515524221,1253.008,mp-1225328,Dy2PdPt,https://materialsproject.org/materials/mp-1225328,14.950027880304525,56.019786140488826,-8.604250342815693,-0.5045126942092143
-8.498975235,-33.99590094,10.776477326259144,-0.5976179799999999,5.31e-05,8.57524963797411e-06,0.0,225,4,72.16476085810109,468.33099999999996,mp-865434,LuZrRu2,https://materialsproject.org/materials/mp-865434,39.74798590169577,59.55710861306936,-8.604250342815693,-0.5045126942092143
-4.9211658525,-19.68466341,9.057860275826807,-0.7355571474999998,1e-07,1.6353940739117614e-08,0.0,225,4,71.26150790484333,388.71521,mp-867364,LiTmPd2,https://materialsproject.org/materials/mp-867364,28.507456777256664,42.48532841003527,-8.604250342815693,-0.5045126942092143
-7.866262343333332,-94.39514812,6.784636376480187,-0.9764681972222226,3.81e-05,2.535779740777297e-06,0.0,62,12,175.10190679984615,715.432,mp-672645,TiSiRh,https://materialsproject.org/materials/mp-672645,43.06357481602858,55.34339881996496,-8.604250342815693,-0.5045126942092143
-3.9900233675,-15.96009347,9.756560018505645,-0.4109192000000004,6e-07,7.63045845706773e-08,0.0,225,4,91.63851560005615,538.425569,mp-1185330,LiEr2Au,https://materialsproject.org/materials/mp-1185330,-12.082975797419596,55.97403186920514,-8.604250342815693,-0.5045126942092143
-5.7134053017857145,-159.97534845,4.541032711370831,-1.5297450024999992,0.999499775,0.04217860466590735,0.0,59,28,276.1645438551936,755.21996,mp-755386,Li(CoO2)2,https://materialsproject.org/materials/mp-755386,-75.81550136831395,-22.82689679864643,-0.8467681541948129,-0.1947172942663262
-7.307288649019608,-372.6717211,6.648026815064679,-2.2385816346281264,0.1221611,0.0018758592688648212,0.0,71,51,758.9446584384128,3038.4618,mp-1219848,Rb(WO3)4,https://materialsproject.org/materials/mp-1219848,-17.24761987437222,0.6774396190455527,-8.604250342815693,-0.5045126942092143
-5.741781286428571,-80.38493801,7.906396290139552,-0.2195043739285712,0.07285655,0.002975889353489375,0.0,63,14,285.3180518320186,1358.4971699999999,mp-1103877,Nd3GaCo3,https://materialsproject.org/materials/mp-1103877,24.251330802213694,71.58678844215949,-8.604250342815693,-0.5045126942092143
-8.2980571225,-33.19222849,13.808402111539221,0.8334417712500013,1.18e-05,1.7909214756964298e-06,0.0,216,4,76.78614957851696,638.524,mp-631392,SrHfRe2,https://materialsproject.org/materials/mp-631392,57.23514139036659,45.94466518969854,-8.604250342815693,-0.5045126942092143
-5.256722227368421,-99.87772232,7.125612971360633,-0.2776409596491237,2.4299999999999998e-05,5.529073830801274e-07,0.0,204,19,512.1902557994239,2197.8824,mp-1211308,Nd12InNi6,https://materialsproject.org/materials/mp-1211308,-29.837765407420548,68.75292087440678,-8.604250342815693,-0.5045126942092143
-7.376675716666668,-88.52010859999999,9.27556879185576,-0.3193347444444458,5.53274145,0.4335921144444132,0.0,35,12,148.70871743307978,830.6687800000002,mp-1222555,LuFe2Co2B,https://materialsproject.org/materials/mp-1222555,42.449411281552656,83.41548347513839,-8.604250342815693,-0.5045126942092143
-5.216969104,-104.33938208,13.964024304005713,-0.4821284293333328,0.0,0.0,0.0,194,20,387.6112810371878,3259.552,mp-510439,In2Pt3,https://materialsproject.org/materials/mp-510439,34.026491119549235,40.853898457224496,-8.604250342815693,-0.5045126942092143
-7.8088029325,-31.23521173,10.635475477857916,-0.40036939500000013,8.1e-06,1.321591749220113e-06,0.0,225,4,71.42744702623851,457.48088,mp-977558,MgPaRu2,https://materialsproject.org/materials/mp-977558,38.020277500965406,56.67379855710378,-8.604250342815693,-0.5045126942092143
-5.040853551111111,-45.36768196,8.790775165963705,-0.8987670736111113,0.0,0.0,0.0,189,9,206.0649238279243,1090.893,mp-11091,NdMgPt,https://materialsproject.org/materials/mp-11091,3.2389829740604847,63.51021144647387,-8.604250342815693,-0.5045126942092143
-7.491769467894738,-142.34361989,6.939212375988974,0.11504044268210425,1.064948,0.0687723058360734,0.0,12,19,180.46469171748961,754.142355,mp-1246235,Fe2Co9N8,https://materialsproject.org/materials/mp-1246235,2.9226946172250488,16.035836546707493,-8.604250342815693,-0.5045126942092143
-6.443116983333333,-38.6587019,9.68253044150118,-0.4071379722222209,1e-07,1.8293773623299328e-08,0.0,191,6,63.705089023933446,371.461585,mp-10058,YbCo3B2,https://materialsproject.org/materials/mp-10058,39.112765757075174,87.78985262010883,-8.604250342815693,-0.5045126942092143
-7.656156431666666,-45.93693859,11.89879922006819,-0.4859095083333334,0.0,0.0,0.0,227,6,82.58227882383855,591.7536,mp-30708,HfNi2,https://materialsproject.org/materials/mp-30708,30.297330705722818,71.28566281077788,-8.604250342815693,-0.5045126942092143
-4.2550801525,-17.02032061,0.6592043800463799,1.7407143850000004,0.0570766,0.0005412032401066318,0.0,71,4,1229.0658002461753,487.9172,mp-1096146,Y2RhPb,https://materialsproject.org/materials/mp-1096146,-69.85305487187469,41.96329785026387,-4.774969490463897,-0.9452990854943082
-4.909058829,-49.09058829,9.678702914462262,-0.8126776179999999,5e-08,2.611586869783308e-09,0.0,127,10,223.12228835655517,1300.502,mp-12977,Dy2CdPd2,https://materialsproject.org/materials/mp-12977,10.94633775740842,46.42524405537651,-8.604250342815693,-0.5045126942092143
-6.658496398035713,-372.87579829,6.219519571027907,-0.4482934133435949,0.0033241,2.260929938759753e-05,0.0,148,56,1713.4222536641867,6417.5927114000015,mp-1198887,Cs3Te13Mo12,https://materialsproject.org/materials/mp-1198887,59.0332886824129,32.85194591489201,-8.604250342815693,-0.5045126942092143
-8.251460202777778,-297.0525673,5.761790862138015,-0.1326122032799996,3.838481375,0.11137391055261453,0.0,52,36,401.65520228708397,1393.67592,mp-1245973,Mn4GeN4,https://materialsproject.org/materials/mp-1245973,4.8113507397251585,16.24496557380353,-8.604250342815693,-0.5045126942092143
-6.1952470125,-24.78098805,6.504059290502084,-0.2106756812499997,8.340000000000001e-05,1.2676242542030075e-05,0.0,225,4,76.67485051732234,300.322824,mp-862710,Sc2CdTc,https://materialsproject.org/materials/mp-862710,10.805058433633649,35.94595608632311,-8.604250342815693,-0.5045126942092143
-4.6840636416666666,-562.087637,5.484523000553549,-1.6743706823333329,0.000855025,2.5446913653689374e-06,0.4748000000000001,88,120,3915.8056131153508,12933.346000000001,mp-1203586,Tb5RhBr9,https://materialsproject.org/materials/mp-1203586,-33.11015670041471,37.44588960806888,-2.3179186677053196,-1.010157463021239
-8.8725459925,-35.49018397,12.758659139074586,-0.6314349124999996,4.1e-06,6.68034338641197e-07,0.0,225,4,71.52576267963134,549.56421,mp-865215,TmHfRu2,https://materialsproject.org/materials/mp-865215,39.77792313217042,59.8713898761519,-8.604250342815693,-0.5045126942092143
-6.976679087857143,-195.34701446,6.196581623285363,-2.1993989411964288,1.0,0.029322958977628318,0.0,9,28,397.43822516175993,1483.1078,mp-771349,KLi(WO3)3,https://materialsproject.org/materials/mp-771349,-17.613393656955473,2.0000779743500257,-8.604250342815693,-0.5045126942092143
-9.067864946666667,-54.40718968,8.621083991257581,-0.29926813333333274,0.5311511999999999,0.058483061199232286,0.0,187,6,105.84381805417644,549.5133950000001,mp-1225255,Gd2CoNi3,https://materialsproject.org/materials/mp-1225255,29.13515614641794,82.69511953318384,-8.604250342815693,-0.5045126942092143
-5.8355590416666665,-35.01335425,10.17232468668319,-0.4482400883333331,5e-08,6.376849138869475e-09,0.0,227,6,91.37792441664844,559.7736,mp-421,DyNi2,https://materialsproject.org/materials/mp-421,28.043872939183217,82.56026714377188,-8.604250342815693,-0.5045126942092143
-6.72821873,-26.91287492,8.195304444637781,-0.4395707649999992,0.0006412999999999999,0.00010674381877590031,0.0,225,4,70.01578006435244,345.5508240000001,mp-867243,Sc2ZnOs,https://materialsproject.org/materials/mp-867243,17.831099708288882,57.38486990618738,-8.604250342815693,-0.5045126942092143
-9.605032662000001,-192.10065324,11.874548635965171,-0.3453466156666664,4.035e-05,2.0822641509836227e-06,0.0,58,20,225.831825107612,1614.928,mp-1188450,B2Mo2Os,https://materialsproject.org/materials/mp-1188450,20.27450961651145,36.978324624104935,-8.604250342815693,-0.5045126942092143
-8.299576404,-248.98729212,4.2691894860786626,-3.0015400564420003,3.999999483333333,0.13506328547774848,0.0,185,30,345.1437813324328,887.352942,mp-18954,ScMnO3,https://materialsproject.org/materials/mp-18954,-55.326239638737576,-45.712233839212075,-4.9744927814632005,-2.531472664075803
-10.6226815525,-42.49072621,15.307810097463019,-0.6978688668749982,0.0012482,0.0002075538919687164,0.0,225,4,70.08591123553371,646.0925,mp-977407,Hf2ReRh,https://materialsproject.org/materials/mp-977407,40.24849960486143,60.95891515038129,-8.604250342815693,-0.5045126942092143
-7.825988246666666,-70.43389422,11.595494412225726,-0.7224671883333329,2.6666666666666667e-07,1.8079672702196837e-08,0.0,189,9,171.8919726704068,1200.3165,mp-1080518,HfSnRh,https://materialsproject.org/materials/mp-1080518,32.11737931205888,53.896845568019096,-8.604250342815693,-0.5045126942092143
-4.60837661,-18.43350644,1.0604478117086076,2.90290072375,3.0,0.0363280508109399,0.1705000000000001,71,4,962.4021530808501,614.606,mp-1097343,Hf2ZnIr,https://materialsproject.org/materials/mp-1097343,-65.34795067809651,40.572039987233275,-0.9132856136821887,-0.17082081566375693
-9.5083247595,-190.16649519,5.634772628220914,-0.3706121230000008,0.01450645,0.000810981396558638,0.0,164,20,208.4623748920666,707.3836,mp-1216509,V3C2,https://materialsproject.org/materials/mp-1216509,5.4262399632730975,21.83668766911153,-8.604250342815693,-0.5045126942092143
-5.748034815,-22.99213926,14.66799329640224,-1.1928954537499994,1.1e-06,1.5551698842120821e-07,0.0,225,4,82.43132393417312,728.13832,mp-1187571,YbHoPt2,https://materialsproject.org/materials/mp-1187571,23.50084120230062,53.68223833726446,-8.604250342815693,-0.5045126942092143
-8.4542154175,-33.81686167,10.546947629491417,-0.5647808000000012,2.49e-05,3.986871716331309e-06,0.0,225,4,72.78544018561091,462.29821,mp-865277,TmZrRu2,https://materialsproject.org/materials/mp-865277,39.6924727089237,59.72722247159059,-8.604250342815693,-0.5045126942092143
-7.329384655,-29.31753862,9.549832077061394,-0.8972168587500002,0.0001026,1.4885113813966355e-05,0.0,225,4,80.32904958662259,461.97585,mp-980645,YErRh2,https://materialsproject.org/materials/mp-980645,17.31065311607805,51.296496297294034,-8.604250342815693,-0.5045126942092143
-4.434197503333333,-39.90777753,6.356509053801652,-0.714802988333333,2.333333333333333e-07,1.45479765157594e-08,0.0,189,9,186.91821349300432,715.5190500000001,mp-1078961,LiTbGe,https://materialsproject.org/materials/mp-1078961,-2.584553295616777,66.68229496534268,-8.604250342815693,-0.5045126942092143
-3.2623038875,-13.04921555,0.995646742712505,1.5055601900000006,2.18e-05,2.2470345342753077e-07,0.0,71,4,1130.6395525591595,677.922988,mp-1093710,YPtAu2,https://materialsproject.org/materials/mp-1093710,-68.34523125345832,39.528524816280644,-8.604250342815693,-0.5045126942092143
-5.508431517857144,-77.11804125,7.831936636209033,-0.10818377250000058,2.5e-07,7.900504576778463e-09,0.0,15,14,368.77596422176214,1739.3327800000004,mp-7317,Sm5Co2,https://materialsproject.org/materials/mp-7317,-31.29484255137999,69.64392678220975,-8.604250342815693,-0.5045126942092143
-6.55811953375,-52.46495627,6.05878914777067,-0.43529921875,2.5e-08,1.800570135217857e-09,0.0,62,8,161.81075850107925,590.3969999999998,mp-1364,YNi,https://materialsproject.org/materials/mp-1364,2.189031790582069,59.04838614185462,-8.604250342815693,-0.5045126942092143
-5.059197161428571,-35.41438013,10.07894733158828,-0.4570202395918364,1e-07,1.0471959559980342e-08,0.0,123,7,111.28829046568214,675.484762,mp-1078100,CdPPd5,https://materialsproject.org/materials/mp-1078100,34.52630026131793,40.647060468929205,-8.604250342815693,-0.5045126942092143