energy_per_atom,energy,density,formation_energy_per_atom,total_magnetization_uB,total_magnetization_T,band_gap,sgr,num_sites,cell_volume,weight,mp_id,formula,URL,tsne_cry_lin1_0,tsne_cry_lin1_1,tsne_cry_lin2_0,tsne_cry_lin2_1
-7.25089351,-87.01072212,6.177401817578205,-0.5011003049999989,2.830254225,0.14170137075332345,0.0,62,12,232.77097381351288,865.9355800000002,mp-19797,YMnGe,https://materialsproject.org/materials/mp-19797,24.32152448078328,69.30993383610691,-8.604250342815693,-0.5045126942092143
-7.073342594791666,-339.52044455,7.712725931850105,-0.5101312847916665,0.5722331083333333,0.0088293017434429,0.0,55,48,755.3079397781894,3508.188,mp-1201558,ZrFeGe2,https://materialsproject.org/materials/mp-1201558,48.73228827086575,62.2479761974817,-8.604250342815693,-0.5045126942092143
-7.0256701325,-84.30804159,8.186836063774198,-0.5046933524999998,1.5152058000000002,0.09900498061250332,0.0,139,12,178.3577596572759,879.3444199999999,mp-1217005,USi3Ni2,https://materialsproject.org/materials/mp-1217005,22.76072668394546,65.37467915038366,-8.604250342815693,-0.5045126942092143
-7.250693248333333,-43.50415949,9.955055444417576,-0.08563470666666599,0.4194152,0.0478858281317844,0.0,166,6,102.07387233534591,611.9404807999998,mp-1216810,U2MnAl3,https://materialsproject.org/materials/mp-1216810,25.60975751717898,64.80677466460095,-8.604250342815693,-0.5045126942092143
-2.56296912,-10.25187648,5.892493982148378,-0.3388563693749997,0.00019250000000000002,2.652521663792598e-05,0.0,225,4,84.57640513706862,300.1230000000001,mp-862937,PmMgZn2,https://materialsproject.org/materials/mp-862937,-0.6946158322542579,96.88663932200913,-8.604250342815693,-0.5045126942092143
-7.999000411999999,-39.99500206,5.1790006639944535,0.010667644666666832,0.1410671,0.0207325679044339,0.0,69,5,79.29577890472342,247.313,mp-1217161,Ti4Fe,https://materialsproject.org/materials/mp-1217161,59.71562890685618,55.15744918813242,-8.604250342815693,-0.5045126942092143
-4.80129731,-28.80778386,7.552744694708211,-0.5288475591666663,0.002293,0.00021367841933547064,0.0,25,6,125.0606898281346,568.822195,mp-1219202,Sm2Ga3Co,https://materialsproject.org/materials/mp-1219202,21.361173630900208,80.11068438974047,-8.604250342815693,-0.5045126942092143
-11.6976264375,-46.79050575,15.810347420521445,-0.2497576018750003,0.00044430000000000007,8.215296870698441e-05,0.0,225,4,63.02755773703479,600.0988600000002,mp-1186772,Ta2CrRe,https://materialsproject.org/materials/mp-1186772,59.00849745293523,58.823062883076076,-8.604250342815693,-0.5045126942092143
-4.247057375625,-67.95291801,12.554095006775894,-1.020222875625,3.75e-06,1.1389683576697106e-07,0.0,193,16,383.7046271110913,2900.9039999999995,mp-1190212,Yb5Pt3,https://materialsproject.org/materials/mp-1190212,24.777061012336226,54.49685605057018,-8.604250342815693,-0.5045126942092143
-6.830700393,-136.61400786,9.012128026041808,-0.3506450219999991,0.0,0.0,0.3531000000000004,116,20,309.59437199595953,1680.24,mp-706531,Ge3Ru2,https://materialsproject.org/materials/mp-706531,32.338524345687624,53.079652044416335,-8.604250342815693,-0.5045126942092143
-7.4871889675,-29.94875587,14.012892314781144,-0.7316727993749996,0.0001588,2.231925278391143e-05,0.0,225,4,82.91789621274911,699.72432,mp-972641,SmHoIr2,https://materialsproject.org/materials/mp-972641,16.0980904217847,49.176225275007894,-8.604250342815693,-0.5045126942092143
-7.11501148875,-284.60045955,7.008031372677608,-0.11959206424999992,16.3522743,0.2618180182051432,0.0,108,40,727.8737543630203,3071.8712316,mp-1228022,Ce6Al3Fe11,https://materialsproject.org/materials/mp-1228022,53.60094499141717,81.77584492840086,-8.604250342815693,-0.5045126942092143
-8.145002857,-81.45002857,9.127159402022071,-0.6128014057499996,5.65e-06,4.4010932613561975e-07,0.0,63,10,149.61161251255098,822.34082,mp-1205703,TmSiRu2C,https://materialsproject.org/materials/mp-1205703,13.852747041165467,37.79971393625086,-8.604250342815693,-0.5045126942092143
-4.650605117777777,-41.85544606,9.362442578403538,-0.6443281266666661,1e-07,6.29807213797241e-09,0.0,189,9,185.04177972644786,1043.3016,mp-570026,ErAgGe,https://materialsproject.org/materials/mp-570026,18.527626241152447,61.63924196125227,-8.604250342815693,-0.5045126942092143
-6.226175225555554,-56.03557703,9.958775146994242,-0.9055821372222224,5.453333333333333e-05,3.307601813569993e-06,0.0,189,9,192.14374484947552,1152.3465,mp-1079974,DySnRh,https://materialsproject.org/materials/mp-1079974,8.813928527801355,55.62264499975174,-8.604250342815693,-0.5045126942092143
-7.861366045909091,-172.95005301,5.793524148263813,-0.2259241181818174,9.5818175,0.3567815832115792,0.0,72,22,312.9845458352175,1091.98488,mp-17893,Mn4Nb2Si5,https://materialsproject.org/materials/mp-17893,50.954949244148644,46.51236818097392,-8.604250342815693,-0.5045126942092143
-5.7778171416666675,-34.66690285,7.959071206016951,-0.4115802563888889,3.76e-05,5.323279420588226e-06,0.0,216,6,82.31633187495234,394.547512,mp-1207011,ScInNi4,https://materialsproject.org/materials/mp-1207011,31.174407482324266,74.79178817262141,-8.604250342815693,-0.5045126942092143
-7.701265503333333,-23.10379651,12.354972507721612,-0.12222243888888802,0.0,0.0,0.0,139,3,62.476754463946115,464.8482,mp-13155,Hf2Ag,https://materialsproject.org/materials/mp-13155,31.99004722532619,60.99418971072698,-8.604250342815693,-0.5045126942092143
-6.98356571,-27.93426284,8.703472271609861,-0.15792427125000064,5.5543628,1.3772098291760897,0.0,225,4,47.00148261374305,246.35139,mp-22300,FeCo2Ge,https://materialsproject.org/materials/mp-22300,47.77246194686091,48.62412181490391,-8.604250342815693,-0.5045126942092143
-7.1220822075,-28.48832883,7.743304604398407,-0.007291829999999776,7.3589036,1.676565890035118,0.0,216,4,51.15285937710823,238.532285,mp-20160,Mn2GaCo,https://materialsproject.org/materials/mp-20160,45.388202348636135,46.08085558927014,-8.604250342815693,-0.5045126942092143
-7.25959461,-29.03837844,4.532630857987786,-0.10420380333333323,1.9397116,0.3553231147773179,0.0,216,4,63.61962868824999,173.6570386,mp-999068,Ti2AlV,https://materialsproject.org/materials/mp-999068,36.38048060016828,59.127018878771324,-8.604250342815693,-0.5045126942092143
-6.0585353925,-24.23414157,7.241821488880862,-0.94930435875,0.0,0.0,0.0,225,4,65.29905151059586,284.7774506,mp-16524,ScAlPd2,https://materialsproject.org/materials/mp-16524,42.309632514406275,56.232844824215256,-8.604250342815693,-0.5045126942092143
-6.51685098,-26.06740392,6.845279240866297,-0.4008846300000002,4.0953275,0.9871586032353,0.0,225,4,48.348068682605245,199.30638359999998,mp-4922,MnAlNi2,https://materialsproject.org/materials/mp-4922,34.30355051113319,77.72622499515606,-8.604250342815693,-0.5045126942092143
-5.840044783333332,-17.52013435,5.462443555280434,-0.15101760611111106,7.120000000000001e-05,1.6938847120286003e-05,0.0,139,3,48.986179868907136,161.143,mp-1014229,Ti2Zn,https://materialsproject.org/materials/mp-1014229,59.25801338559327,52.636508822272155,-8.604250342815693,-0.5045126942092143
-2.199102487535212,-312.27255323,7.960090013473092,-0.3160781699295775,0.00205995,9.742338884795081e-06,0.06990000000000007,194,142,2464.1711823124797,11812.444,mp-1197303,Dy13Zn58,https://materialsproject.org/materials/mp-1197303,-0.17603377460690606,93.36426624377192,-8.604250342815693,-0.5045126942092143
-2.2521533782758616,-65.31244797,8.239779678833598,-0.2976884077586204,2.3e-06,5.3033585959902735e-08,0.0,225,29,505.4221488464562,2507.961,mp-30615,Er6Zn23,https://materialsproject.org/materials/mp-30615,0.008741049968033219,93.35376005289,-8.604250342815693,-0.5045126942092143
-8.0449927125,-32.17997085,17.00923446811567,-0.7423128499999994,6e-07,9.732127368552592e-08,0.0,225,4,71.84902744008954,735.9639999999998,mp-865785,YbHfIr2,https://materialsproject.org/materials/mp-865785,40.08079779292265,61.50499579029585,-8.604250342815693,-0.5045126942092143
-4.95009075,-59.401089,12.710444351805151,-0.9982492349999994,7.025e-06,3.5977181705564125e-07,0.0,62,12,227.56036227976716,1741.84,mp-1210625,LuZnPt,https://materialsproject.org/materials/mp-1210625,17.927510106266645,59.524499965508355,-8.604250342815693,-0.5045126942092143
-5.65707954125,-45.25663633,7.932500639723262,-0.1484948450000001,0.01223505,0.0010367707713229619,0.0,51,8,137.5309462221415,656.9940799999998,mp-30554,PrGaCo2,https://materialsproject.org/materials/mp-30554,24.28604993465771,72.82592153073477,-8.604250342815693,-0.5045126942092143
-4.5561329555555545,-41.005196600000005,9.133028968855893,-0.23061566537037,0.12306700000000001,0.007311347031708016,0.0,174,9,196.16505455760742,1078.9153900000001,mp-1006283,Er3(In2Co)2,https://materialsproject.org/materials/mp-1006283,6.165991298665742,56.77351927718141,-8.604250342815693,-0.5045126942092143
-7.422441965555557,-66.80197769,7.568046099062254,-0.02066903999999978,5.0588972000000005,0.4947622477634854,0.0,189,9,119.16171032253929,543.0895,mp-1226345,Cr3GaFe3As2,https://materialsproject.org/materials/mp-1226345,45.85461859463354,63.4032649748771,-8.604250342815693,-0.5045126942092143
-3.7367052533333336,-44.84046304,5.1345509894914425,-0.1600510649999999,1.86306435,0.10734383684661022,0.0,63,12,202.26846038094138,625.4340900000001,mp-1210648,Mg2MnGa3,https://materialsproject.org/materials/mp-1210648,-11.39189554002344,98.1523767407187,-8.604250342815693,-0.5045126942092143
-7.5265481825,-30.10619273,8.028257792206563,0.1005559250000001,1.4833441,0.3563526061984643,0.0,166,4,48.510907232614926,234.53713500000003,mp-1221851,Mn3Ga,https://materialsproject.org/materials/mp-1221851,57.0780178709127,67.19054932707776,-8.604250342815693,-0.5045126942092143
-5.1022765350000014,-61.22731842,8.070297259416911,-0.593851789166667,4.2000000000000004e-06,2.133296212597816e-07,0.0,62,12,229.44339260390632,1115.1056,mp-1103079,SmGaNi,https://materialsproject.org/materials/mp-1103079,20.92340748615293,79.93793539055045,-8.604250342815693,-0.5045126942092143
-6.800654716666667,-40.8039283,4.066792415833096,-0.5514008222222225,1.2e-06,1.6460370166466586e-07,0.0,70,6,84.96089447345429,208.076,mp-2582,TiSi2,https://materialsproject.org/materials/mp-2582,42.42436100485645,63.143633192446956,-8.604250342815693,-0.5045126942092143
-4.19996489875,-33.59971919,10.433434262301967,-0.8464749937500002,7.25e-07,4.749129165914602e-08,0.14179999999999993,62,8,177.91044768264592,1117.84,mp-1079587,YbPd,https://materialsproject.org/materials/mp-1079587,27.86149715471817,55.78802473538603,-8.604250342815693,-0.5045126942092143
-2.1742841283333334,-13.04570477,4.351267880540858,-0.16183629722222234,2.705e-05,2.639536002619291e-06,0.0,63,6,119.43101052037748,312.9564000000001,mp-1185754,Mg2Ag,https://materialsproject.org/materials/mp-1185754,26.501681553457278,42.67477747863986,-8.604250342815693,-0.5045126942092143
-9.8477533,-39.3910132,14.00741347385422,-0.738121545000002,6.64686,0.9326675957748356,0.0,225,4,83.05524639759993,700.60935,mp-1187524,TbGdIr2,https://materialsproject.org/materials/mp-1187524,16.147489033379948,49.068883827309676,-8.604250342815693,-0.5045126942092143
-5.91704683,-35.50228098,9.495011692925726,0.1594152116666668,0.045799,0.006450278113427465,0.0,194,6,82.74751927476925,473.15278,mp-571365,Co2Sn,https://materialsproject.org/materials/mp-571365,45.25318523390636,45.22708942426047,-8.604250342815693,-0.5045126942092143
-6.826672194827586,-197.97349365,7.156298841044596,-0.4340922156896552,22.870905800000003,0.7839120605678359,0.0,225,29,340.01137500964137,1465.32117,mp-22290,Mn6Si7Ni16,https://materialsproject.org/materials/mp-22290,50.14772645509375,50.0765977660336,-8.604250342815693,-0.5045126942092143
-9.60345322,-230.48287728,7.559471005662599,0.1920624100000007,0.5966922625,0.020097293632430124,0.0,119,24,346.01127911267616,1575.18864,mp-1220609,NbCr2,https://materialsproject.org/materials/mp-1220609,55.75776165290071,63.321060624048634,-8.604250342815693,-0.5045126942092143
-8.28416547375,-132.54664758,9.227287133040887,-0.4584095868750016,1.12e-05,6.150750866751489e-07,0.0,55,16,212.2107174885551,1179.213,mp-1105935,Si3Ru5,https://materialsproject.org/materials/mp-1105935,43.24368471977845,54.4309815142517,-8.604250342815693,-0.5045126942092143
-6.58671986,-26.34687944,9.761310899343176,-0.30523187874999896,3.3203133,0.6974088466949014,0.0,225,4,55.484163194619704,326.158045,mp-864987,MnZnRh2,https://materialsproject.org/materials/mp-864987,37.448580693534936,51.68502584171562,-8.604250342815693,-0.5045126942092143
-6.364736588333333,-38.18841953,7.823329332647103,-0.6987193122222214,0.0,0.0,0.0,129,6,122.8705602317301,578.88242,mp-15293,TmTiGe,https://materialsproject.org/materials/mp-15293,4.755664892033233,77.23965406590402,-8.604250342815693,-0.5045126942092143
-9.91206145,-39.6482458,12.301921054913707,-0.2002298875000008,4.6645719,0.9175187537444144,0.0,225,4,59.248078403860944,438.93288,mp-867216,TaFeRu2,https://materialsproject.org/materials/mp-867216,58.106041395392076,58.57769574522014,-8.604250342815693,-0.5045126942092143
-6.59373332,-26.37493328,11.934910121915104,-0.03871475249999978,4.2820332,0.7711182451563191,0.0,123,4,64.7152269895194,465.13234500000004,mp-1221548,MnTlRh2,https://materialsproject.org/materials/mp-1221548,34.31748505703874,55.31647839529902,-8.604250342815693,-0.5045126942092143
-4.828445054444446,-43.45600549,8.634653563824601,-0.5843887183333334,1.8333333333333333e-06,1.2146558090829762e-07,0.0,189,9,175.89991548708667,914.6637300000001,mp-1079093,TmSiAg,https://materialsproject.org/materials/mp-1079093,18.671129999220373,61.818278122448895,-8.604250342815693,-0.5045126942092143
-1.4014931566666666,-16.81791788,5.000540060072987,-0.018163619999999863,8.315e-05,4.702960324169453e-06,0.0,12,12,206.04798234385933,620.4920000000002,mp-1094456,MgZn2,https://materialsproject.org/materials/mp-1094456,2.642604310340032,98.23282732995048,-8.604250342815693,-0.5045126942092143
-7.387377879166666,-88.64853455,9.94292706884099,0.3004644733333339,10.6439125,0.6843483624274533,0.0,123,12,181.259797668629,1085.3421119999998,mp-640079,Mn3Au,https://materialsproject.org/materials/mp-640079,45.57642565428139,35.99108469827923,-8.604250342815693,-0.5045126942092143
-8.9735731775,-35.89429271,9.353110103058468,-0.5392514433333346,1.5622348999999998,0.3025998872434878,0.0,225,4,60.166535025518684,338.8925000000001,mp-972238,Ti2VIr,https://materialsproject.org/materials/mp-972238,62.80487734617878,55.91330126937916,-8.604250342815693,-0.5045126942092143
-8.4976162875,-33.99046515,7.777875736088713,0.17447572750000084,0.5351252,0.1360660304013877,0.0,139,4,45.833509832189215,214.6817,mp-1008284,Cr3Ni,https://materialsproject.org/materials/mp-1008284,54.532162196939595,66.1578390408763,-8.604250342815693,-0.5045126942092143
-4.80439022,-19.21756088,10.502313641361166,-0.7775679712500008,2.8999999999999998e-06,4.779977251466694e-07,0.0,225,4,70.70491356429127,447.18321,mp-865298,TmZnPd2,https://materialsproject.org/materials/mp-865298,29.090166244389078,55.103116335457685,-8.604250342815693,-0.5045126942092143
-5.9673654925,-23.86946197,8.489201586551442,-0.20561237250000008,3.1997842999999997,0.7846760605166936,0.0,225,4,47.523424463675525,242.9548,mp-1018074,GaFeNi2,https://materialsproject.org/materials/mp-1018074,34.39885662091835,77.38619200244325,-8.604250342815693,-0.5045126942092143
-8.246408245,-32.98563298,5.764550784058349,-0.8516434677380946,2.11e-05,4.148841741642445e-06,0.0,164,4,59.2697388846802,205.754524,mp-1216678,TiMoP2,https://materialsproject.org/materials/mp-1216678,47.49471135735315,62.53581104240271,-8.604250342815693,-0.5045126942092143
-5.9059619,-70.8715428,7.773952962627091,-0.3141801516666677,1.542384225,0.08412290273488915,0.0,38,12,213.67600353701664,1000.3421544,mp-1225622,ErAlFe,https://materialsproject.org/materials/mp-1225622,4.3892004368907225,70.31015396571885,-8.604250342815693,-0.5045126942092143
-4.122019325754716,-436.93404853,4.390099401951616,-0.21676534575471698,3.60805725,0.022985512762633303,0.0,193,106,1829.3493527349253,4836.3966796,mp-1207829,Yb6Mn4Al43,https://materialsproject.org/materials/mp-1207829,7.414396562779485,86.79395633241127,-8.604250342815693,-0.5045126942092143
-8.40032693625,-67.20261549,4.3395865475215265,-0.7890655730208334,0.00017365,1.9468170590024288e-05,0.0,194,8,103.9506171572162,271.6604,mp-1079908,Ti2SiC,https://materialsproject.org/materials/mp-1079908,18.79297062271176,42.041889244157964,-8.604250342815693,-0.5045126942092143
-4.166485483636364,-45.83134032,7.908373278647928,-0.4836248372727277,1.5e-06,8.795295297703176e-08,0.0,123,11,198.7550908427668,946.577835,mp-4513,Ho2Ga8Co,https://materialsproject.org/materials/mp-4513,17.092710355145723,83.75219875834978,-8.604250342815693,-0.5045126942092143
-6.5178745450000015,-78.21449454,7.100773431315076,-0.6932855150000007,0.45092845,0.02501050762835388,0.0,38,12,210.1176610318894,898.5021544000001,mp-1215302,ZrAlPd,https://materialsproject.org/materials/mp-1215302,33.16946382905161,59.591049727037856,-8.604250342815693,-0.5045126942092143
-6.71978742,-26.87914968,8.552525795180195,-0.6544777325000002,0.00013285,1.6352989856843524e-05,0.0,63,4,94.67641810996628,487.6263,mp-999305,PrRh,https://materialsproject.org/materials/mp-999305,14.143079465795054,52.31914703870391,-8.604250342815693,-0.5045126942092143
-8.986148514166667,-107.83378217,10.755333182441614,-1.0448641715476203,3.7000000000000006e-06,2.63173614567668e-07,0.0,62,12,163.84636328116287,1061.235048,mp-22434,HfFeP,https://materialsproject.org/materials/mp-22434,48.00041094126667,61.660328564717524,-8.604250342815693,-0.5045126942092143
-9.6100038325,-115.32004599,10.393299727136812,-0.8285182232142851,0.00020009999999999998,1.3881589308244928e-05,0.0,62,12,167.99073284815614,1051.452568,mp-1208564,TaVP,https://materialsproject.org/materials/mp-1208564,52.72549766971281,52.486669110844275,-8.604250342815693,-0.5045126942092143
-5.825739075,-81.56034705,8.526912147349611,-0.3255790762500003,3.3869394999999995,0.14688848943712546,0.0,71,14,268.7182124684894,1379.8751699999998,mp-1209874,Nd3Co6Sn5,https://materialsproject.org/materials/mp-1209874,25.81478596415505,72.78191098974857,-8.604250342815693,-0.5045126942092143
-6.587778340714286,-184.45779354,14.872011521298564,-0.7796021253571429,4.5e-07,1.0915451411412132e-08,0.0,15,28,480.4500473676153,4302.9754,mp-1207911,Y2(GePt3)3,https://materialsproject.org/materials/mp-1207911,61.97895590240098,44.75496345283289,-8.604250342815693,-0.5045126942092143
-4.973434738333333,-29.84060843,8.926363831674463,-0.3776408866666667,1e-07,1.0108981673164566e-08,0.0,191,6,115.28426056500551,619.72,mp-1260,SrPd5,https://materialsproject.org/materials/mp-1260,29.17204891044305,55.34346137137718,-8.604250342815693,-0.5045126942092143
-6.037403226666666,-18.11220968,6.9279938273822905,0.07432206833333292,5.7999999999999995e-06,1.049816789399817e-06,0.0,216,3,64.3860684677082,268.6274,mp-30806,ZrNiSn,https://materialsproject.org/materials/mp-30806,30.986112332740284,52.57600720631386,-8.604250342815693,-0.5045126942092143
-5.8920851349999985,-70.70502162,9.876009356264028,-0.9104125466666666,2.75e-07,1.4019978232809931e-08,0.0,62,12,228.59292355774122,1359.55,mp-1103035,ErGaRh,https://materialsproject.org/materials/mp-1103035,3.9183397090527188,69.31827718100163,-8.604250342815693,-0.5045126942092143
-7.355397943,-147.10795886,10.178307322712142,-0.23267777899999945,3.1752669,0.1600040301408686,0.0,8,20,231.2739628507206,1417.59839,mp-1226641,Co(BRh2)3,https://materialsproject.org/materials/mp-1226641,33.847914945225995,53.766022637705056,-8.604250342815693,-0.5045126942092143
-5.736797548333333,-68.84157058,9.05272082049161,-0.4878453899999992,0.08624739999999999,0.004070239451507022,0.0,62,12,246.9468438012193,1346.2741800000001,mp-646450,TbCoSn,https://materialsproject.org/materials/mp-646450,25.721466606979643,72.81508697430951,-8.604250342815693,-0.5045126942092143