energy_per_atom,energy,density,formation_energy_per_atom,total_magnetization_uB,total_magnetization_T,band_gap,sgr,num_sites,cell_volume,weight,mp_id,formula,URL,tsne_cry_lin1_0,tsne_cry_lin1_1,tsne_cry_lin2_0,tsne_cry_lin2_1
-8.012778366923076,-104.16611877,5.581589005128027,-3.116391637788462,0.0,0.0,1.5766999999999998,12,13,176.92831991355052,594.7112,mp-755210,Y4Cu2O7,https://materialsproject.org/materials/mp-755210,13.83186655753006,-15.15364063997828,7.227285426947268,-1.5823076508606781
-4.5564691625,-72.9035066,3.0608832280075986,0.19426199416666634,0.6001062,0.022327725537843224,0.0,59,16,313.2283453306111,577.376,mp-1094412,MgTi,https://materialsproject.org/materials/mp-1094412,-17.62950470683344,38.8729780526073,-8.604250342815693,-0.5045126942092143
-5.08438838,-15.25316514,8.630370132995496,-0.6418942549999999,3.7000000000000006e-06,7.503167057155643e-07,0.0,187,3,57.469118480239636,298.686,mp-1225279,DyCuGe,https://materialsproject.org/materials/mp-1225279,-4.81687226259013,56.88738911697386,-8.604250342815693,-0.5045126942092143
-4.108544028333333,-49.30252834,9.678391398690152,-0.8626612083333338,8.75e-07,4.2552637923230943e-08,0.0,62,12,239.63982431328117,1396.7320000000002,mp-1102228,YbGaPd,https://materialsproject.org/materials/mp-1102228,6.633095890169216,47.161306643702794,-8.604250342815693,-0.5045126942092143
-3.5697812083333336,-42.8373745,2.259250842047652,-0.9582037112191668,0.9999998999999999,0.06447531944143332,0.0,221,12,180.75232054862914,245.92305424,mp-1020645,Na8NO3,https://materialsproject.org/materials/mp-1020645,4.958349935267207,1.6417875787796574,3.668290180545129,-3.3756399270967297
-2.6690172475,-10.67606899,6.024069293156687,-0.12813033250000005,2.6600000000000003e-05,3.200400685990372e-06,0.0,221,4,96.8622848717326,351.395,mp-867161,LiIn3,https://materialsproject.org/materials/mp-867161,-15.753801597487323,45.87875639088032,-8.604250342815693,-0.5045126942092143
-6.093310487999999,-30.46655244,1.3804407232948543,-0.8275702610280007,14.794174800000002,0.3813568961724537,0.0,123,5,452.1021465881757,375.84193999999997,mp-1206586,Eu2HCl2,https://materialsproject.org/materials/mp-1206586,-25.55187275549822,40.62026708535298,-11.27576579638489,-1.0696404076621866
-4.962181445,-19.84872578,10.266225975877731,-0.6819501649999999,0.0006033,8.172486589720834e-05,0.0,225,4,86.03131005596954,531.8856400000001,mp-867267,LiHo2Pt,https://materialsproject.org/materials/mp-867267,8.606774671453094,42.80814745174661,-4.729620923324441,-0.5438098141749746
-4.904536363888889,-88.28165455,4.109403948912027,-2.571605004367433,4.7980993,0.1893658821391377,0.0,74,18,295.2874055015237,730.7598321999999,mp-1228881,CsMnCuF6,https://materialsproject.org/materials/mp-1228881,-69.6839794989093,-36.46442864874414,-8.604250342815693,-0.5045126942092143
-2.7716974100000003,-19.40188187,2.341253193501488,-0.3305646738979594,4.5e-06,2.776446845165173e-07,0.7408000000000001,166,7,188.8863515173788,266.31760112,mp-8752,Na4CdP2,https://materialsproject.org/materials/mp-8752,3.6973197074504864,3.994203354980672,4.1572599529451875,-4.9784468134120905
-6.157245717916666,-147.77389723,3.9376588152732017,-1.9203052276178727,3.9999027166666665,0.10686011473497116,1.9044,2,24,436.2256718475663,1034.42787,mp-559700,RbMnO2,https://materialsproject.org/materials/mp-559700,-33.90949321380753,-27.095243503050245,-8.604250342815693,-0.5045126942092143
-7.460600416666666,-44.763602500000005,13.202691871857093,-0.6666729812499987,3.02e-05,3.250701635599251e-06,0.0,191,6,108.26978159944906,860.8364700000002,mp-1018746,LaGe2Ir3,https://materialsproject.org/materials/mp-1018746,11.672300166982202,66.15852885961625,-8.604250342815693,-0.5045126942092143
-6.216110956363636,-136.75444104,4.609928176585436,-2.324146799772727,2.5e-07,1.0568043385915837e-08,0.0,15,22,275.6911650289781,765.3638,mp-558434,Ca3CuRhO6,https://materialsproject.org/materials/mp-558434,-28.2040860371706,-0.8316154948396332,-4.628045761945399,-3.0113987538346585
-5.317765290714285,-74.44871407,5.208622701792995,-0.6517844060199991,0.0,0.0,0.2805,176,14,333.93254379492464,1047.4482,mp-1029573,Ba3GaN3,https://materialsproject.org/materials/mp-1029573,6.925743294398068,3.2305121745149843,-8.604250342815693,-0.5045126942092143
-3.50526914,-14.02107656,8.800732568107707,-0.30990818249999963,3.2e-06,3.805201291071009e-07,0.0,221,4,98.00534694366863,519.4209999999999,mp-977,LuIn3,https://materialsproject.org/materials/mp-977,-11.026912297848751,41.96234468916232,-8.604250342815693,-0.5045126942092143
-6.483863598888888,-116.70954478,5.780089691136186,-2.5340925215277794,0.58354845,0.02334069520363869,0.0,123,18,291.36713259366064,1014.2057,mp-1214594,Ba2YCuO5,https://materialsproject.org/materials/mp-1214594,-50.23430369887197,-1.876158806079124,-8.604250342815693,-0.5045126942092143
-8.3287691325,-33.31507653,11.315815587826455,-0.7522385699999994,7.1244345000000004,1.0554021607052306,0.0,225,4,78.67012615871312,536.101,mp-865764,YbGdRh2,https://materialsproject.org/materials/mp-865764,13.778440525998112,48.14132046607271,-8.604250342815693,-0.5045126942092143
-6.904143456666668,-269.26159481,4.331860044128195,-2.475044502921281,26.0002055,0.6723556564037542,0.0,38,39,450.66636401569053,1175.65656,mp-1247649,SrCa7Mn8O23,https://materialsproject.org/materials/mp-1247649,-36.20945066814762,6.093384381584142,-8.604250342815693,-0.5045126942092143
-9.322629955,-18.64525991,6.102431236181814,-0.5280419311899998,2.4982127,1.621056990955163,0.0,225,2,17.96009195474146,66.0028,mp-2132,CrN,https://materialsproject.org/materials/mp-2132,-0.5047487033418497,15.42360634025217,-8.604250342815693,-0.5045126942092143
-4.9184408725,-19.67376349,8.772445653588152,-0.7078612887499993,8.7e-06,1.3923015626738951e-06,0.0,225,4,72.82212865332895,384.71132,mp-973831,LiHoPd2,https://materialsproject.org/materials/mp-973831,28.481693174718586,42.47543711056787,-8.604250342815693,-0.5045126942092143
-5.715262113214287,-160.02733917,4.5153104649266,-1.5316018139285703,0.999664475,0.041946598908496224,0.0,60,28,277.73776290876253,755.21996,mp-758122,Li(CoO2)2,https://materialsproject.org/materials/mp-758122,-73.74917009231771,-22.85525919597721,-6.648833428659096,1.4102862949112045
-9.59163236625,-76.73305893,12.122829738387233,0.5316083718750004,5.9499999999999996e-05,3.7127416763231833e-06,0.0,194,8,186.7667924190214,1363.4982200000004,mp-1185163,LaTa3,https://materialsproject.org/materials/mp-1185163,9.549656559299914,74.31578889411114,-8.604250342815693,-0.5045126942092143
-5.8686638605555554,-845.08759592,5.234405058759486,-2.0709105406944452,17.903253725,0.10567432859779352,0.0,1,144,1974.421615157317,6223.8359,mp-1100068,BaSr7Co5Cu3O20,https://materialsproject.org/materials/mp-1100068,-33.62215577351636,-15.980057949491362,-8.604250342815693,-0.5045126942092143
-4.6314454025,-18.52578161,7.1986319457830525,-0.3107004195833332,2e-07,3.5223244511319706e-08,0.0,225,4,66.17257969415294,286.86591200000004,mp-21067,ScInCu2,https://materialsproject.org/materials/mp-21067,32.992276321737336,67.57992907479854,-8.604250342815693,-0.5045126942092143
-6.2870833025,-25.14833321,8.914168480629844,-1.0094805993750002,0.32929359999999996,0.05304854993981378,0.0,166,4,72.34144850223655,388.3461,mp-754253,EuTlO2,https://materialsproject.org/materials/mp-754253,-31.681330024852084,17.383527386114313,-8.604250342815693,-0.5045126942092143
-4.502332036136363,-198.10260959,2.5763565800983512,-0.515565884791786,0.053627275,0.0005672492092139487,0.0,130,44,1101.7657253183577,1709.4096,mp-1245406,Rb2Ca5N4,https://materialsproject.org/materials/mp-1245406,24.06300737768033,-9.118796824581231,-8.604250342815693,-0.5045126942092143
-6.572727282857144,-92.01818196,5.493041170044296,-2.5868091085714293,4.9999997,0.3225378149784595,0.5142000000000002,38,14,180.66198027189643,597.6274400000001,mp-1218489,Sr3Y(CoO4)2,https://materialsproject.org/materials/mp-1218489,-35.59945926454379,-17.446818480636633,-4.63663534831966,-1.6264661503085658
-6.043910663333333,-72.52692796,4.437066599659431,-0.3870976041266658,1.025e-06,9.989534161983619e-08,0.0,62,12,119.57931369145729,319.52358,mp-1246834,LiCoN,https://materialsproject.org/materials/mp-1246834,3.673738070067316,12.689678779328194,-8.604250342815693,-0.5045126942092143
-5.144098591666666,-123.4583662,6.752279394653146,-1.4069579941666668,0.0,0.0,0.11350000000000016,100,24,775.3559715917715,3152.84376,mp-571576,LaTe2,https://materialsproject.org/materials/mp-571576,-10.376086358478405,23.96188746329691,-8.604250342815693,-0.5045126942092143
-6.3344530975,-25.33781239,11.295489116896631,-0.9640939949999998,7.8e-05,1.1300215298519564e-05,0.0,225,4,80.44245425826053,547.19392,mp-1187639,Tm2PdRh,https://materialsproject.org/materials/mp-1187639,16.940668510490983,53.52572484614551,-8.604250342815693,-0.5045126942092143
-5.5633680475,-22.25347219,10.579680884464182,-0.1370323137499998,2.8800000000000002e-05,4.484588971625592e-06,0.0,225,4,74.84232503208786,476.83788,mp-864717,PaCu2Sn,https://materialsproject.org/materials/mp-864717,-9.429819801834107,54.42701730367436,-8.604250342815693,-0.5045126942092143
-3.594364693333333,-21.56618816,5.481230189460466,-0.4431265022222218,2.7000000000000004e-06,2.3543000256511107e-07,0.0,12,6,133.65320708098312,441.1724,mp-1227350,CaAgGe,https://materialsproject.org/materials/mp-1227350,-11.202592748611533,49.13297180807718,-8.604250342815693,-0.5045126942092143
-5.5861136433333325,-33.51668186,6.752594503960411,-0.38865613833333335,1.5e-06,2.0428215446208006e-07,0.0,216,6,85.57329544947831,347.98445,mp-3433,YMgNi4,https://materialsproject.org/materials/mp-3433,31.479182865412913,72.91060900509989,-8.604250342815693,-0.5045126942092143
-6.997742677222222,-251.91873638,3.8680142604908454,-2.758992072660001,24.000000399999998,0.6079054623585091,0.0,1,36,460.10042107190077,1071.7453472000002,mp-1247712,SrCa7Mn6Al2O20,https://materialsproject.org/materials/mp-1247712,-31.111594426025945,-11.415751650187097,-8.604250342815693,-0.5045126942092143
-6.268594808333334,-225.6694131,4.188341942454625,-0.9149496916133332,0.0001425,2.2839324450667395e-06,0.9452000000000004,62,36,727.1249347487718,1834.0116,mp-1246666,Sr4CrN4,https://materialsproject.org/materials/mp-1246666,4.1162354902963205,6.119953624666412,4.967399615064242,-3.2422798081424475
-3.94878602375,-31.59028819,9.235091497597622,-0.7567067462499999,2.3e-06,1.7793066389116596e-07,0.0,63,8,150.64491072366587,837.812,mp-972051,YbGa2Pd,https://materialsproject.org/materials/mp-972051,6.591624172233253,46.709176390123474,-8.604250342815693,-0.5045126942092143
-6.0830412480357134,-340.65030989,4.5781298104776535,-1.72883026875,0.50000005,0.010835168710577351,0.0,5,56,537.788854482229,1482.69154,mp-762609,Li2CrCo3O8,https://materialsproject.org/materials/mp-762609,-73.63553115505094,-22.898146439005604,-0.9889028774331122,-1.97534566967826
-7.54265575,-30.170623,8.712098118969902,-0.3435020406249993,4e-07,9.78400338094518e-08,0.0,38,4,47.64538326001214,249.9738,mp-11723,ErNiC2,https://materialsproject.org/materials/mp-11723,-21.537372844518103,11.200897919752247,-8.604250342815693,-0.5045126942092143
-7.206621559230768,-281.05824081,4.096937829939277,-2.7478893253934182,20.0000002,0.5162300157645302,0.0,25,39,451.50667466868686,1113.9724700000004,mp-1247662,Ca8Ti2Mn6O23,https://materialsproject.org/materials/mp-1247662,-36.20470835505481,5.981607033889701,-8.604250342815693,-0.5045126942092143
-3.1513415266666667,-9.45402458,5.233164619217082,0.08633336499999977,1.63e-05,2.8982244139974135e-06,0.0,216,3,65.5440120079302,206.561,mp-636240,MgCuSn,https://materialsproject.org/materials/mp-636240,2.658537278033746,39.696115031272576,-8.604250342815693,-0.5045126942092143
-7.0933232435,-141.86646487,4.057518237468556,-2.8700221027499992,0.99999975,0.04033056506098355,0.4716,139,20,288.96351542363664,706.0808,mp-555332,BaCu(SiO3)2,https://materialsproject.org/materials/mp-555332,-54.318869044711064,-19.76878435471224,1.2490489456821634,0.9424165345664592
-5.354261763333334,-32.12557058,6.4998981880795625,-0.5405195066666669,0.0,0.0,0.0,186,6,116.09235692983015,454.423824,mp-13203,ScCuSn,https://materialsproject.org/materials/mp-13203,-6.285183968852019,54.731503461670535,-8.604250342815693,-0.5045126942092143
-6.103100381583332,-732.37204579,6.0848269138663005,-1.6178477853333333,0.3939874,0.002902827715607363,0.0,14,120,1581.7523907758637,5796.1236,mp-699707,VCu2BiO6,https://materialsproject.org/materials/mp-699707,-55.901866207366545,-10.99082112577027,-8.604250342815693,-0.5045126942092143
-7.125934717142857,-99.76308604,4.115707883121457,-2.344964153845715,7.9999996,0.5830098550067773,1.0125000000000006,141,14,159.91584484925704,396.35738,mp-27510,MgMn2O4,https://materialsproject.org/materials/mp-27510,-33.66849646792989,-33.74234000742176,-8.604250342815693,-0.5045126942092143
-5.387302033999998,-26.93651017,5.4255542505460665,-1.0683408816250002,0.0,0.0,0.0,164,5,85.73561513451764,280.12785,mp-1018642,Y(CuS)2,https://materialsproject.org/materials/mp-1018642,-14.763004875989564,21.353031926363467,-13.196578418524807,-2.375585911700393
-7.09286073475,-567.42885878,4.080076334752172,-2.8695595940000005,0.9999966375,0.010138664959372287,0.4693000000000001,137,80,1149.4635272461385,2824.3232,mp-1182662,BaCu(SiO3)2,https://materialsproject.org/materials/mp-1182662,-54.3111844556783,-19.770898657289926,1.2415574369527298,0.9216053168258944
-5.0075940575,-20.03037623,8.252819094282383,-0.7984048162500006,9.73e-05,1.3359283738252515e-05,0.0,225,4,84.88033674463934,421.85220999999996,mp-1183593,CaTmPd2,https://materialsproject.org/materials/mp-1183593,14.663420547549636,45.81675403822218,-8.604250342815693,-0.5045126942092143
-7.373189902916668,-176.95655767,5.307956726076896,-2.8417569506808333,7.0,0.2682697060068244,0.0,11,24,304.0911872689889,972.0354800000001,mp-1218597,Sr2YMn2O7,https://materialsproject.org/materials/mp-1218597,-32.59525273935902,5.732964296458483,-8.604250342815693,-0.5045126942092143
-6.901371199166666,-248.44936317,7.461054957596434,-2.6250618584722227,1.999999575,0.048760138723762975,0.3307000000000002,33,36,478.0159614431689,2147.79856,mp-5029,Ho2Cu2O5,https://materialsproject.org/materials/mp-5029,-48.71667769050744,-8.404397021440422,-0.20806675364232596,0.7484645370959706
-7.287848503333334,-43.72709102,9.172722305957494,-0.3499664395833335,0.30820685,0.04135692733227468,0.0,131,6,86.85032532490686,479.75620999999995,mp-19754,TmCoC,https://materialsproject.org/materials/mp-19754,-13.552049122702966,35.21567303475888,-8.604250342815693,-0.5045126942092143
-4.950390640909091,-54.45429705,6.116265758388557,-1.5222130538636365,0.3024828,0.018593158740307637,0.0,123,11,189.59415089288342,698.3324,mvc-13032,Ba2Cu2HgO6,https://materialsproject.org/materials/mvc-13032,-52.233084925279634,-1.452155852239485,-8.604250342815693,-0.5045126942092143
-6.87509912,-96.25138768,2.5950170961369405,-1.3274159245914277,0.0,0.0,2.2125,229,14,181.5550396458682,283.7262,mp-6799,LiCa4(BN2)3,https://materialsproject.org/materials/mp-6799,26.52790030745177,-12.280569525635862,8.500520282359759,-0.7875896525743726
-5.37170327,-32.23021962,7.748221994567097,-0.6708128633333329,1e-07,1.0597620632873658e-08,0.0,194,6,109.96869180624338,513.12364,mp-4476,HoCuSi,https://materialsproject.org/materials/mp-4476,-4.6993585204062756,56.90598278931118,-8.604250342815693,-0.5045126942092143
-6.533900038333332,-39.20340023,9.964653787988704,-0.09829882666666734,4.7996489,0.5934599117201751,0.0,166,6,94.2530709513522,565.599,mp-1225556,Er2Fe3Cu,https://materialsproject.org/materials/mp-1225556,39.58355931561597,74.1933052248051,-8.604250342815693,-0.5045126942092143
-6.313597987857142,-88.39037183,1.9876603968201447,-0.5319604536092858,0.9999992,0.0442061809568998,0.0,229,14,263.62954675207885,315.5638,mp-1103814,K5(CN2)3,https://materialsproject.org/materials/mp-1103814,4.762759854533979,0.11231779578634624,-6.267286382892639,-2.721914279382522
-5.87429072909091,-64.61719802,2.317636466057916,-1.789142618113636,1e-05,8.299797375321917e-07,2.7313000000000005,8,11,140.4138468152384,195.97747712,mp-37947,Na4C2O5,https://materialsproject.org/materials/mp-37947,24.692811363816773,-17.397832187318475,4.864684559222749,0.4051141515244897
-6.9260771021875005,-1108.17233635,4.475331746140569,-2.5020452425044994,23.999931825,0.15814399236641424,0.30379999999999985,2,160,1768.6208362409295,4766.62384,mp-1247638,SrCa7Mn8O24,https://materialsproject.org/materials/mp-1247638,-32.914774291981985,-8.279328104097907,2.5858706318622966,-0.7843325431419322
-3.6411718127777775,-131.08218526,5.510973641340961,-0.4899336216666662,0.001354866666666667,1.979673837503487e-05,0.0,62,36,797.5911785260214,2647.0344000000005,mp-1200102,CaAgGe,https://materialsproject.org/materials/mp-1200102,-11.237014054523074,49.03790053279798,-8.604250342815693,-0.5045126942092143
-3.267801050416667,-78.42722521,6.2587102049188825,-0.2713648810833333,8.25e-07,1.5122553789775547e-08,0.0,194,24,635.7790867215986,2396.30443024,mp-570351,Na2Sn3Au,https://materialsproject.org/materials/mp-570351,33.52387440366796,13.961068332180426,-8.604250342815693,-0.5045126942092143
-2.58798418875,-20.70387351,2.615336527506245,1.005436170375,2.9748932999999997,0.16351615546867312,0.0,194,8,212.0255280604121,333.93861568,mp-1186008,Na3Tc,https://materialsproject.org/materials/mp-1186008,-18.11697143998161,21.159358196379667,-8.604250342815693,-0.5045126942092143
-5.7075691,-216.8876258,9.630259417437236,-0.19669005789473645,5e-07,7.064807250766499e-09,0.0,14,38,824.7970793042713,4783.39241,mp-30969,Ho12Co7,https://materialsproject.org/materials/mp-30969,-27.688910699200513,68.07424160852342,-8.604250342815693,-0.5045126942092143
-6.504665425833332,-156.11197022,3.687311314570144,-1.9465898660941672,9.00000015,0.3607707344306389,1.3867999999999998,2,24,290.7291936156541,645.5789471200002,mp-19080,Na2Mn3O7,https://materialsproject.org/materials/mp-19080,-66.04714432397101,-39.013050194981325,3.402783001679337,-0.6288901267495041
-5.51583442,-55.1583442,9.8289608001489,-0.6113810309999999,2.405e-05,1.4452249430221028e-06,0.0,127,10,193.93538641394326,1147.93044,mp-1095204,Tm2Ni2Sn,https://materialsproject.org/materials/mp-1095204,3.3006465355335064,57.48606167105657,-8.604250342815693,-0.5045126942092143
-3.9664385875,-15.86575435,9.965526878015096,-0.4319508824999998,1.4400000000000001e-05,1.858965544707875e-06,0.0,225,4,90.27522495110644,541.775989,mp-976260,LiTm2Au,https://materialsproject.org/materials/mp-976260,-12.066974940788686,55.869569665211465,-8.604250342815693,-0.5045126942092143
-7.317935151666667,-87.81522182,6.403056462092213,-0.3711759833333339,1.9920476000000003,0.1612664971639117,0.0,62,12,143.9570659045557,555.0999999999998,mp-1103085,CrSiNi,https://materialsproject.org/materials/mp-1103085,50.336569084329284,50.00196659267908,-8.604250342815693,-0.5045126942092143
-6.1754748557142864,-86.45664798,4.598148300819519,-1.8374423421428572,0.0,0.0,0.2413000000000003,166,14,133.48103453534895,369.618285,mp-754294,Li2VCo3O8,https://materialsproject.org/materials/mp-754294,-72.43712464042042,-22.25099502061284,-8.604250342815693,-0.5045126942092143
-2.9966070275,-11.98642811,5.302628666901276,-0.0036903466666666773,0.9518242,0.11943005735642767,0.0,225,4,92.8796412262027,296.5942,mp-31175,CeMg2Ag,https://materialsproject.org/materials/mp-31175,-6.225671684940128,51.84314657166967,-8.604250342815693,-0.5045126942092143
-7.23673632631579,-274.99598039999995,3.3866406005694047,-1.298529522443158,0.0,0.0,0.3069999999999995,11,38,548.6006890853691,1118.8616000000004,mp-1246392,Ca7(VN3)3,https://materialsproject.org/materials/mp-1246392,6.249032833456257,9.350934998775957,-8.604250342815693,-0.5045126942092143