energy_per_atom,energy,density,formation_energy_per_atom,total_magnetization_uB,total_magnetization_T,band_gap,sgr,num_sites,cell_volume,weight,mp_id,formula,URL,tsne_cry_lin1_0,tsne_cry_lin1_1,tsne_cry_lin2_0,tsne_cry_lin2_1
-7.014557203333332,-42.08734322,7.8662590564926145,-0.30029006333333425,4.9076887000000005,0.597395149595276,0.0,65,6,95.7398499671574,453.5361371999999,mp-1217300,ThAl2Fe3,https://materialsproject.org/materials/mp-1217300,24.541605762697397,77.40496440388884,-8.604250342815693,-0.5045126942092143
-6.101568655,-48.81254924,8.892271093622329,0.009622289999999369,3.8940053999999997,0.5170290780431787,0.0,194,8,87.77260909203122,470.02679000000006,mp-1183785,CoNi3,https://materialsproject.org/materials/mp-1183785,36.999817237969616,80.34957698276071,-8.604250342815693,-0.5045126942092143
-6.198188367446809,-291.31485327,9.091934646883336,-0.3701233502127668,0.3513461,0.005633061293337855,0.0,216,47,726.8889851826883,3979.9288,mp-1229288,Ce15Ni32,https://materialsproject.org/materials/mp-1229288,28.118508698130523,82.00190181418786,-8.604250342815693,-0.5045126942092143
-4.8309943192307685,-62.80292615,8.192265180847624,-0.10168652249999938,3.9766586999999998,0.2450352305524357,0.0,44,13,189.13295840634518,933.086975,mp-1219048,SmGa7Co5,https://materialsproject.org/materials/mp-1219048,39.9696776398421,77.45140723494667,-8.604250342815693,-0.5045126942092143
-7.643298022758621,-221.65564266,9.683851588657953,-0.21914999034482727,16.0063998,0.651353033279824,0.0,225,29,286.38788876960416,1670.143095,mp-672221,Co21(B3W)2,https://materialsproject.org/materials/mp-672221,39.4513965154604,89.39088691683462,-8.604250342815693,-0.5045126942092143
-7.36181390625,-117.78902250000002,5.822531752409639,-0.6925794835416665,8.825e-05,3.943360282429442e-06,0.0,193,16,260.81086751342133,914.51,mp-568151,Ti5Ge3,https://materialsproject.org/materials/mp-568151,42.343272706682775,64.06253338318828,-8.604250342815693,-0.5045126942092143
-6.97904158923077,-90.72754066,8.082889599648489,-0.16299531076923082,11.8882668,0.7807142242911805,0.02629999999999999,191,13,177.46138985293757,863.8163800000002,mp-19887,Nb(FeGe)6,https://materialsproject.org/materials/mp-19887,49.06693023436181,66.55485503747249,-8.604250342815693,-0.5045126942092143
-6.07726855625,-97.2362969,9.497341795531387,-0.98735284375,6.5e-07,2.6687751930736022e-08,0.0,62,16,283.84339459628984,1623.42328,mp-1105686,HoSiPd2,https://materialsproject.org/materials/mp-1105686,27.7845595609591,53.725667066016904,-8.604250342815693,-0.5045126942092143
-7.4108937866666675,-88.93072544,5.529163204357592,-0.58908164625,8.0223838,0.4849581277732559,0.0,6,12,192.78650069196647,641.928916,mp-1222360,LuSc3(MnSi)4,https://materialsproject.org/materials/mp-1222360,24.998792735718926,68.60766306623529,-8.604250342815693,-0.5045126942092143
-6.781782695,-27.12713078,7.312636592572354,-0.4273438675000003,1e-07,2.162971820202357e-08,0.0,225,4,53.8798733469833,237.2747186,mp-4813,NbAlNi2,https://materialsproject.org/materials/mp-4813,32.51916951290013,76.01149546500967,-8.604250342815693,-0.5045126942092143
-6.1160308625,-146.7847407,7.940364972379844,-0.4675696806249998,0.004712,0.00018151619269043677,0.0,141,24,302.52922559891505,1446.6341400000001,mp-1190732,LaSi2Ni9,https://materialsproject.org/materials/mp-1190732,26.633861850413442,77.95783899505234,-8.604250342815693,-0.5045126942092143
-5.23808927,-94.28560686,7.868836307217292,-0.5176395579166666,0.00014099999999999998,5.711735863910939e-06,0.0,189,18,287.69242347382794,1363.2950099999996,mp-1223449,LaGa2Ni3,https://materialsproject.org/materials/mp-1223449,24.26629023719954,80.12029833084055,-8.604250342815693,-0.5045126942092143
-7.788719436666666,-70.09847493,11.676298428613345,-0.1940875216666661,0.8354359333333333,0.06276322280576667,0.0,189,9,155.12626734483058,1090.7907300000002,mp-1079968,UGaFe,https://materialsproject.org/materials/mp-1079968,26.209287125166146,65.02052204321306,-8.604250342815693,-0.5045126942092143
-6.104403931538463,-79.35725111,7.324288939055799,-0.313978225769231,10.848722300000002,0.6985081868473096,0.0,71,13,181.00247751476974,798.363912,mp-11438,Sc(GaFe)6,https://materialsproject.org/materials/mp-11438,46.85476427753454,71.33219953119709,-8.604250342815693,-0.5045126942092143
-5.857252951785715,-164.00308265,8.627447890571997,-0.3979946396428581,0.054624400000000004,0.0017245926427675107,0.0,140,28,369.1285002472482,1917.8332,mp-1193206,CeNi9Ge4,https://materialsproject.org/materials/mp-1193206,26.88865465772441,77.96453572113158,-8.604250342815693,-0.5045126942092143
-6.081418531875,-97.30269651,9.647680399799539,-0.9941654668749996,5e-08,2.07350338610112e-09,0.0,62,16,281.02352884200576,1632.7379999999996,mp-3352,ErSiPd2,https://materialsproject.org/materials/mp-3352,27.780285723275092,53.73522012185835,-8.604250342815693,-0.5045126942092143
-7.42074505,-133.57341090000003,8.581947498578941,-0.3777672549999996,3.860995683333333,0.1681598576259605,0.0,46,18,267.5804702465062,1382.9012699999998,mp-18649,MnGeRh,https://materialsproject.org/materials/mp-18649,47.801509763649214,44.77899391489071,-8.604250342815693,-0.5045126942092143
-7.1979500225,-28.79180009,11.426270909213647,0.08975200250000004,0.0310166,0.006765389935021404,0.0,221,4,53.42921382157277,367.649695,mp-1183704,CoRh3,https://materialsproject.org/materials/mp-1183704,49.81635574431199,77.52179167222788,-8.604250342815693,-0.5045126942092143
-7.13475709,-28.53902836,7.162479991732117,-0.3529218099999998,4.0199655,1.011460879999679,0.0,225,4,46.31809222366581,199.7859736,mp-3623,MnAlCo2,https://materialsproject.org/materials/mp-3623,44.72578372920029,46.90812010288779,-8.604250342815693,-0.5045126942092143
-8.890142535555556,-80.01128282,6.768172673324129,-0.4984224705555549,1e-07,9.152981510072602e-09,0.0,189,9,127.32533939607241,518.9639400000001,mp-9916,NbCrSi,https://materialsproject.org/materials/mp-9916,47.51067984051841,58.65513720765544,-8.604250342815693,-0.5045126942092143
-8.8553816975,-35.42152679,8.522606012219315,-0.8917610079166671,0.0,0.0,0.0,225,4,54.183362731905724,278.0925,mp-865681,TiSiRu2,https://materialsproject.org/materials/mp-865681,43.12446172467766,53.937792997135105,-8.604250342815693,-0.5045126942092143
-6.217726223333332,-55.95953601,10.300929746308821,-0.9098107033333334,3.5000000000000004e-06,2.168912772031179e-07,0.0,189,9,188.06301124669,1166.6235,mp-31298,ErSnRh,https://materialsproject.org/materials/mp-31298,8.690330888983695,55.619678244881065,-8.604250342815693,-0.5045126942092143
-6.4289264125,-25.71570565,8.630343704055429,0.01972366499999989,4.4792177,1.1697974215462943,0.0,225,4,44.62404536436228,231.9252,mp-1007854,FeNi3,https://materialsproject.org/materials/mp-1007854,36.31981112696119,80.38921969409063,-8.604250342815693,-0.5045126942092143
-5.84095616875,-46.72764935,7.389211768952767,-0.5392266112500002,0.0,0.0,0.0,62,8,120.90687928754515,538.0219999999999,mp-389,SiPd,https://materialsproject.org/materials/mp-389,48.87150422914868,58.93648208624271,-8.604250342815693,-0.5045126942092143
-6.614768622962963,-357.19750564,13.473173004266405,-0.9173858337962956,0.0,0.0,0.0,176,54,894.8060775759468,7260.219000000001,mp-15442,SmSi3Pt5,https://materialsproject.org/materials/mp-15442,26.33864242008755,54.10614052010252,-8.604250342815693,-0.5045126942092143
-9.521302058461538,-123.77692676,8.477955180186187,0.016728685384616318,7.2032449000000005,0.5249137704271083,0.0,139,13,159.92547227119758,816.5065400000002,mp-639892,GdMn12,https://materialsproject.org/materials/mp-639892,56.819589091597955,67.81845877342936,-8.604250342815693,-0.5045126942092143
-5.647009124545455,-124.23420074,8.192669260815054,-0.5517237327272734,1.015e-05,3.305053713892571e-07,0.0,229,22,357.90267778179225,1765.7990544000004,mp-1191827,Tb3(AlNi3)2,https://materialsproject.org/materials/mp-1191827,25.26095184815488,79.55685902783694,-8.604250342815693,-0.5045126942092143
-6.274562573214285,-175.68775205,7.287735990250247,-0.5986032480357143,6e-06,2.004734206557007e-07,0.0,69,28,348.79630629662614,1530.7893,mp-1227027,Ce2Si9Ni17,https://materialsproject.org/materials/mp-1227027,26.20942590880503,78.21869961613024,-8.604250342815693,-0.5045126942092143
-6.823154832916668,-327.51143198,7.248802039987218,-0.4225421745833333,0.000276625,4.709983263490816e-06,0.0,55,48,684.4622342288309,2987.9040000000005,mp-1199430,TiFeGe2,https://materialsproject.org/materials/mp-1199430,48.75019943405161,65.82811768332685,-8.604250342815693,-0.5045126942092143
-6.09950139,-24.39800556,8.988924169383218,0.011689554999999352,3.5923808,0.9643302803397392,0.0,221,4,43.41441867422251,235.01339500000003,mp-1183751,CoNi3,https://materialsproject.org/materials/mp-1183751,37.00616377448803,80.33691849527052,-8.604250342815693,-0.5045126942092143
-7.654507353333332,-68.89056618,5.384988789663479,-0.6204203396296291,6.77e-05,5.771795507440312e-06,0.0,189,9,136.69579666937818,443.293,mp-1080829,Ti6Ge2B,https://materialsproject.org/materials/mp-1080829,42.32594489285564,64.10382256789549,-8.604250342815693,-0.5045126942092143
-7.107896698333334,-42.64738019,7.082599455406985,-0.20607286500000066,1.96793845,0.2404125386494597,0.0,74,6,95.39636448892124,406.8885,mp-1215987,YFeNi,https://materialsproject.org/materials/mp-1215987,42.552313054791895,69.95976579035475,-8.604250342815693,-0.5045126942092143
-4.223524175,-16.894096700000002,7.945157750699747,0.011427762500000329,0.0032177,0.0005490631188174123,0.0,123,4,68.29685501264835,326.779,mp-1226493,CeZn2Fe,https://materialsproject.org/materials/mp-1226493,5.0432247622705875,70.93206139508784,-8.604250342815693,-0.5045126942092143
-8.351877755,-133.63004408,5.765436579011505,-0.433818535625,0.00034695,2.0516773672872832e-05,0.0,72,16,197.0766864863221,684.2556,mp-1216681,V2(CrSi)3,https://materialsproject.org/materials/mp-1216681,53.477755512673255,52.21967983219063,-8.604250342815693,-0.5045126942092143
-6.561901676666667,-19.68570503,7.796152911062379,0.0882084533333322,4.7538312000000005,1.4337850148688107,0.0,164,3,38.64000261411877,181.41299999999998,mp-1224826,GaFe2,https://materialsproject.org/materials/mp-1224826,49.97973231021498,76.01430809229085,-8.604250342815693,-0.5045126942092143
-6.0027805375000005,-72.03336645,6.73255073402892,-0.6293835441666668,0.0,0.0,0.0,62,12,219.3738053051881,889.4372480000001,mp-5186,ScNiSn,https://materialsproject.org/materials/mp-5186,3.4164600527623836,55.99301828855739,-8.604250342815693,-0.5045126942092143
-7.28688000525,-291.47520021,7.347585567280286,-0.12049341600000217,26.429132899999995,0.4139072953116452,0.0,140,40,744.1444743496954,3292.7049999999995,mp-1199591,Pr6Fe13As,https://materialsproject.org/materials/mp-1199591,53.75031941730937,81.31047982354957,-8.604250342815693,-0.5045126942092143
-5.415873783333333,-64.9904854,9.017521666212476,-0.20565482041666647,9.1e-05,7.793882605024718e-06,0.0,139,12,136.07080681703042,738.9295999999998,mp-1215729,ZnNi9Ge2,https://materialsproject.org/materials/mp-1215729,36.29391600166847,79.73059301398752,-8.604250342815693,-0.5045126942092143
-7.250984065500001,-290.03936262,7.349843323666655,-0.1106222525000021,26.43929835,0.4027359724513016,0.0,140,40,765.0801432921138,3386.3818,mp-1197545,Pr6Fe13Sb,https://materialsproject.org/materials/mp-1197545,53.79330261798773,81.21297848420215,-8.604250342815693,-0.5045126942092143
-8.883377268333334,-53.30026361,8.891444730752015,-0.7304604966666671,1.635e-05,1.980991113386981e-06,0.0,129,6,96.18617556823372,515.034,mp-1018720,HfVSi,https://materialsproject.org/materials/mp-1018720,50.03148458786693,60.400243785110966,-8.604250342815693,-0.5045126942092143
-6.686718886153847,-86.92734552,5.482201611681843,-0.3947860969230779,10.132657,0.6628176162397035,0.0,71,13,178.15857349425843,588.1832316000001,mp-1215723,Zr(AlFe)6,https://materialsproject.org/materials/mp-1215723,23.991685740422177,89.61092284740832,-8.604250342815693,-0.5045126942092143
-9.044370736666666,-54.26622442,18.37696858000364,-0.42286435,0.0,0.0,0.0,191,6,107.81035033221292,1193.12306,mp-312,ThIr5,https://materialsproject.org/materials/mp-312,31.673578078932792,63.965908864402074,-8.604250342815693,-0.5045126942092143
-7.9339396425,-31.73575857,5.8935681369679775,-0.4587309558333344,4e-05,7.4960716360948e-06,0.0,225,4,62.18758484880791,220.7155386,mp-861637,Ti2AlTc,https://materialsproject.org/materials/mp-861637,36.518999584256136,58.78751354800868,-8.604250342815693,-0.5045126942092143
-7.018672264444443,-126.33610076,7.018832429040562,-0.7393014305555552,1.5e-07,6.6923162173329886e-09,0.0,11,18,261.2114638809772,1104.0990000000004,mp-568792,Si5Rh4,https://materialsproject.org/materials/mp-568792,35.041804492381985,51.36317892852853,-8.604250342815693,-0.5045126942092143
-6.8662233000000015,-75.5284563,9.81719160916582,-0.7429238640909094,6.8e-06,4.4667347434974707e-07,0.0,187,11,177.41738653447484,1048.90065,mp-1102817,Pr(Ge2Rh3)2,https://materialsproject.org/materials/mp-1102817,34.23507624747311,53.305915292063,-8.604250342815693,-0.5045126942092143
-8.232014260833333,-98.78417113,8.102586538844113,-0.1078178491666672,0.00088345,5.7733770797320676e-05,0.0,38,12,178.33208157253551,870.1699199999999,mp-1220558,NbCrGe,https://materialsproject.org/materials/mp-1220558,47.43106798835862,58.106050164929044,-8.604250342815693,-0.5045126942092143
-8.742973692777777,-157.37352647,16.64191173129076,-0.5301476161111098,0.00098735,3.5466526448428154e-05,0.0,166,18,324.4366450692206,3251.502,mp-1190097,Ce2Ir7,https://materialsproject.org/materials/mp-1190097,31.46965562364462,64.12928757996892,-8.604250342815693,-0.5045126942092143
-7.1484745125,-57.1877961,9.270619837251527,-0.19284687374999976,1.8000000000000001e-06,2.1647458042029446e-07,0.0,25,8,96.90429495176342,541.0067799999998,mp-1220426,NbNi6Mo,https://materialsproject.org/materials/mp-1220426,36.781260023710686,82.05712748329036,-8.604250342815693,-0.5045126942092143
-7.722293641,-77.22293641,5.7200113857048525,0.5188537030000007,0.03224345,0.002360364355122588,0.0,194,10,159.1988346948554,548.3876772000001,mp-1237224,ZrAlCr3,https://materialsproject.org/materials/mp-1237224,25.657553635381852,68.06188503309674,-8.604250342815693,-0.5045126942092143
-5.223817950555556,-94.02872311,8.795751670005071,-0.3328424416666667,6.1480084,0.20769059012244695,0.0,189,18,344.9809068075699,1827.33818,mp-1222834,Lu3(MnGa2)2,https://materialsproject.org/materials/mp-1222834,16.230385235360796,82.22755998942417,-8.604250342815693,-0.5045126942092143
-8.23928412,-32.95713648,9.42121923979842,-0.4220889802083345,2.25e-05,4.230483970102626e-06,0.0,225,4,61.982614574528704,351.664,mp-1187443,Ti2GaRe,https://materialsproject.org/materials/mp-1187443,36.4605319073082,58.75371900939938,-8.604250342815693,-0.5045126942092143
-4.6609011725,-55.93081407,3.0578956006157734,0.08982998416666693,0.05085373333333334,0.0025203092981831644,0.0,38,12,235.15078193790538,433.032,mp-1094385,MgTi,https://materialsproject.org/materials/mp-1094385,33.26266955672913,60.91444173512948,-8.604250342815693,-0.5045126942092143
-5.3907076016666675,-32.34424561,8.296697362840439,-0.5023026066666674,1.63e-05,2.0830382750385856e-06,0.0,65,6,91.19431844775112,455.6422,mp-1226750,CeGa2Ni3,https://materialsproject.org/materials/mp-1226750,24.32012767629632,80.0899999131628,-8.604250342815693,-0.5045126942092143
-5.643573455,-22.57429382,10.131331532087431,-0.4962112374999999,1.12e-05,2.315960927039886e-06,0.0,225,4,56.35912243972871,343.86,mp-1187920,ZnGeRh2,https://materialsproject.org/materials/mp-1187920,37.177086196988746,51.87772926251142,-8.604250342815693,-0.5045126942092143
-7.4563972175,-29.82558887,13.792284448809356,-0.6933527281250003,0.2737103,0.03815647851679177,0.0,225,4,83.59884583460637,694.36432,mp-1186598,PmHoIr2,https://materialsproject.org/materials/mp-1186598,15.743975112643056,49.59701962012959,-8.604250342815693,-0.5045126942092143
-6.95140116,-27.80560464,9.00500962536463,-0.1042423137499986,5.033591599999999,1.0912655114388934,0.0,225,4,53.75575598248641,291.514435,mp-20840,MnCo2Sn,https://materialsproject.org/materials/mp-20840,45.34255353994958,45.46048634777869,-8.604250342815693,-0.5045126942092143
-8.225549368888887,-74.02994432,11.121272311730067,-0.5466144072222221,0.27732209999999996,0.02350406769874509,0.0,189,9,137.5051228445378,920.925,mp-22191,HfFeGe,https://materialsproject.org/materials/mp-22191,48.57615571942831,62.41487671269963,-8.604250342815693,-0.5045126942092143
-6.72210297,-26.88841188,13.182815498823704,-0.5327764937499992,4.2000000000000004e-06,8.89567305656921e-07,0.0,225,4,55.02346110686322,436.82450000000006,mp-866086,MgSiIr2,https://materialsproject.org/materials/mp-866086,40.54507333131136,53.621110470883075,-8.604250342815693,-0.5045126942092143
-6.84533845575,-273.81353823,7.440435647022568,-0.6990949582500001,1.425e-05,2.880465919804686e-07,0.0,128,40,576.540141881756,2583.32368,mp-1196684,Tm2Fe3Si5,https://materialsproject.org/materials/mp-1196684,18.86426660589533,73.48338643243927,-8.604250342815693,-0.5045126942092143
-5.425638217878787,-358.09212238,8.599735682852437,-0.3371919715151517,1e-07,1.428835970042067e-09,0.00509999999999966,152,66,815.6334958600308,4224.0696,mp-30029,Ga3Ni13Ge6,https://materialsproject.org/materials/mp-30029,36.482339195735506,72.30494681874347,-8.604250342815693,-0.5045126942092143
-8.765458289230768,-113.95095776,8.067644113278838,0.05577914865384715,3.0235115,0.21305984260890545,0.0,139,13,165.38169947989215,803.49854,mp-20642,NdMn12,https://materialsproject.org/materials/mp-20642,56.78371330394484,67.82532732188602,-8.604250342815693,-0.5045126942092143
-1.36799587,-8.20797522,4.851072017754942,0.0153336666666668,8.55e-06,9.382660085397443e-07,0.0,63,6,106.19829866847893,310.2460000000001,mp-567626,MgZn2,https://materialsproject.org/materials/mp-567626,1.496037980404681,97.87248711996506,-8.604250342815693,-0.5045126942092143
-6.976234183333332,-20.92870255,7.542535563910499,-0.5584132772222231,0.9600032,0.1885766066987236,0.0,216,3,59.328352919929294,269.4825,mp-1216641,TiSnRh,https://materialsproject.org/materials/mp-1216641,31.37828895465372,52.657804014685844,-8.604250342815693,-0.5045126942092143
-8.153934846666667,-24.46180454,6.586864707113987,0.7274173833333334,0.508584,0.1181067304357272,0.0,216,3,50.18402301393794,199.0651,mp-631429,ZrCrFe,https://materialsproject.org/materials/mp-631429,45.09528356631131,68.32804531896234,-8.604250342815693,-0.5045126942092143
-4.438569502222221,-39.94712552,9.144199249503616,-0.7457583472222227,2.6766666666666666e-05,1.7311770611993485e-06,0.0,189,9,180.1898107769158,992.26305,mp-1079386,TbZnPd,https://materialsproject.org/materials/mp-1079386,17.786073135544676,59.695285564529904,-8.604250342815693,-0.5045126942092143
-8.597782451034483,-249.33569108,9.664622018374953,-0.5612348325862072,4.6515606,0.1459974836036026,0.0,225,29,371.3049512077273,2161.0585,mp-640158,Hf6Fe16Si7,https://materialsproject.org/materials/mp-640158,49.349101816424294,63.59815635171253,-8.604250342815693,-0.5045126942092143
-6.291969138125,-100.67150621,8.764501580134807,-0.7827758087500003,0.22773020000000002,0.009633797439456438,0.0,63,16,275.486641498009,1454.04778,mp-1210815,Lu3Co2Si3,https://materialsproject.org/materials/mp-1210815,20.242424984329467,70.88004387792394,-8.604250342815693,-0.5045126942092143
-4.792139671666667,-57.50567606,8.267062948051972,-0.21269748625000004,2.74e-05,1.5101052048870404e-06,0.0,25,12,211.4563765059148,1052.7444,mp-1223749,InNi2Sn,https://materialsproject.org/materials/mp-1223749,33.142964056006996,73.5704799023126,-8.604250342815693,-0.5045126942092143
-7.608742036666666,-182.60980888,6.775348543804102,-0.1988123858333329,11.054819075,0.42353454310837424,0.0,227,24,304.18670600856376,1241.14574,mp-669554,Mn3SiNi2,https://materialsproject.org/materials/mp-669554,50.80467242715546,49.713352961867685,-8.604250342815693,-0.5045126942092143