energy_per_atom,energy,density,formation_energy_per_atom,total_magnetization_uB,total_magnetization_T,band_gap,sgr,num_sites,cell_volume,weight,mp_id,formula,URL,tsne_cry_lin1_0,tsne_cry_lin1_1,tsne_cry_lin2_0,tsne_cry_lin2_1
-5.8812951700000005,-35.28777102,6.936132048008679,-0.34157322722222244,7.400000000000001e-06,9.785984260716177e-07,0.0,63,6,88.12611692329693,368.106,mp-753490,TiCuGe,https://materialsproject.org/materials/mp-753490,22.895721265977613,38.74466123827227,-8.604250342815693,-0.5045126942092143
-5.327924326388889,-191.80527575,5.0653409018771764,-0.4244788157799996,0.441003575,0.005781034793788082,0.0,62,36,889.0249602896242,2711.8992,mp-1245493,Ba4GeN4,https://materialsproject.org/materials/mp-1245493,6.947323694274403,2.920341069452886,-8.604250342815693,-0.5045126942092143
-5.780755899500001,-115.61511799,3.021319581848074,-0.682694700951999,3.12136285,0.10628785333227984,0.0,59,20,342.2457382673838,622.70969,mp-1247492,Ca5MnN4,https://materialsproject.org/materials/mp-1247492,6.177139602155421,8.009197932567263,-8.604250342815693,-0.5045126942092143
-7.25224887857143,-50.76574215,7.521607105645367,-2.8900854242857146,8e-07,1.0150953181338499e-07,0.0,139,7,91.84607249679378,416.0276,mp-21376,Nd2CuO4,https://materialsproject.org/materials/mp-21376,-42.907009710551705,-4.05018028481633,-8.604250342815693,-0.5045126942092143
-6.511669464166666,-156.28006714,5.928220868161891,-0.9323240508333336,7.325e-06,1.638598947350841e-07,0.0,191,24,520.9696039229909,1859.89176,mp-1211323,La2Si3Rh,https://materialsproject.org/materials/mp-1211323,10.329960318408926,63.65305476532968,-8.604250342815693,-0.5045126942092143
-7.335753058333334,-44.01451835,8.228015796630084,-1.0327464545833347,2e-07,2.2924577824203665e-08,0.0,191,6,101.67310265801608,503.79297,mp-29726,LaSi2Rh3,https://materialsproject.org/materials/mp-29726,12.739765995591359,66.11074578537256,-8.604250342815693,-0.5045126942092143
-6.3021842025,-151.25242086,6.575342932972399,-2.687394018437501,5e-08,1.5152200434975804e-09,1.6705,63,24,384.56674403734223,1522.7936,mp-770846,Ba3Sn2O7,https://materialsproject.org/materials/mp-770846,2.0998739924121166,-27.272945620029088,6.56303401651658,-0.10053152646166386
-6.683068653636362,-147.02751038,5.57653542139188,-0.6511985654545446,0.0,0.0,0.0,167,22,327.7111191465674,1100.5418240000001,mp-13619,ScSi7Rh3,https://materialsproject.org/materials/mp-13619,34.35143271143631,49.386595195962705,-8.604250342815693,-0.5045126942092143
-5.744741523846152,-298.72655924,4.4051731955274045,-1.7927993169390446,13.000000225,0.12679802844207272,1.2363000000000004,3,52,1194.8359649350082,3169.729370400001,mp-1226457,Cs4Mn3O6,https://materialsproject.org/materials/mp-1226457,-28.436954708130788,-27.26224913105625,2.094173142553297,-0.6194755288944207
-7.7248353675,-123.59736588,3.5380129087083274,-1.077714198689999,0.99999995,0.06011682517069439,0.0,33,16,193.8569469822493,413.0396,mp-1246304,MgVN2,https://materialsproject.org/materials/mp-1246304,-0.37012421755248426,9.776473868910935,-8.604250342815693,-0.5045126942092143
-7.787325375,-155.7465075,6.8440632137079325,-0.4806654730000005,0.794687525,0.03152918006843392,0.0,83,20,293.73868493229014,1210.6708,mp-540701,V3As2,https://materialsproject.org/materials/mp-540701,53.5598832461267,50.74277567150188,-8.604250342815693,-0.5045126942092143
-6.532486876875,-522.59895015,5.270930874526793,-0.8101495394459988,3.999902625,0.026622542176801187,0.007699999999999819,14,80,1750.9644257903306,5557.961740000002,mp-1246254,Ba8(MnN3)3,https://materialsproject.org/materials/mp-1246254,4.345588987107552,6.52988254116259,-8.604250342815693,-0.5045126942092143
-4.512775463333333,-40.61497917,2.330040282785903,-1.6731749701736105,0.0,0.0,2.4003,123,9,115.67613837453892,162.3148,mp-755243,Li5CuSO2,https://materialsproject.org/materials/mp-755243,24.66496304719409,-15.33718666861983,6.833469078337249,-1.1969041937487108
-6.8758598565,-137.51719713,5.1274186289158665,-2.5075202479420002,3.00000015,0.14163324738517788,1.0065,20,20,246.8502043923879,762.22498,mp-559975,SrMnO3,https://materialsproject.org/materials/mp-559975,-32.24589460310147,-22.868424708093446,-8.604250342815693,-0.5045126942092143
-4.884797879750001,-195.39191519,2.87731397007435,-1.83056026915,4.017849,0.1069068599604148,1.4564,58,40,437.99128053805117,758.93333424,mp-504854,Na2Li3CoO4,https://materialsproject.org/materials/mp-504854,-40.77870206117723,-31.273580316596213,4.457633855992124,3.518170363096348
-3.247712005,-12.99084802,4.703307971995337,-0.5370468529166668,1.62e-05,1.7433499254288899e-06,0.0,225,4,108.29486757744316,306.7342,mp-867751,Ca2AgSn,https://materialsproject.org/materials/mp-867751,-11.689449711873865,49.24468888379501,-8.604250342815693,-0.5045126942092143
-4.789733547857144,-134.11253934,3.084044882631897,-1.6443878330357151,1.000000025,0.042435481414916564,1.4169999999999998,136,28,274.6302074427457,510.0584,mp-773516,Li3NiO3,https://materialsproject.org/materials/mp-773516,-44.871553834568516,-32.15909241570169,1.4287876606060763,1.4572603233279775
-5.395921060833333,-129.50210546,4.5725637543026085,-3.2284448572158326,6.99999995,0.2013353401821688,2.7733,11,24,405.1869520343632,1115.7480348,mp-1228629,Ba2FeCoClF7,https://materialsproject.org/materials/mp-1228629,-8.339200840480716,-26.114801337082014,7.930693406204346,-2.2376837603089084
-5.462182975,-32.77309785,7.418166331112295,-0.5767290733333326,0.99489525,0.09373207624378964,0.0,194,6,123.69910227162158,552.604,mp-20766,CeCuGe,https://materialsproject.org/materials/mp-20766,-3.7322647620256992,59.061894399296904,-8.604250342815693,-0.5045126942092143
-6.690752999583334,-160.57807199,3.518492659525842,-2.478370587764168,6.00000005,0.21654376985852092,0.09099999999999996,4,24,322.9111105978553,684.2117800000002,mvc-14253,Ca3Mn2O7,https://materialsproject.org/materials/mvc-14253,-37.72181264116396,-28.482040360515388,3.2173650601776846,1.2233359086073579
-5.0602445275,-20.24097811,4.565509679940236,-1.7492465572968752,0.0,0.0,2.2711,166,4,116.32122756080395,319.81523928,mp-999472,NaLaSe2,https://materialsproject.org/materials/mp-999472,36.84282407454428,-8.378728533008383,-5.552382939415934,-3.731096802042559
-5.102545055,-61.23054066,9.54165427487042,-1.0636203357142855,2.25e-07,1.2134044755939552e-08,0.0,62,12,216.099794138504,1241.735048,mp-1207514,YbPPd,https://materialsproject.org/materials/mp-1207514,26.853318429634616,50.7266282607095,-8.604250342815693,-0.5045126942092143
-3.86989819625,-30.95918557,5.08521427018031,-0.5415473456250002,9.000000000000001e-07,5.463841734707329e-08,0.0,63,8,191.9648995079384,587.87094,mp-12996,LaMg2Pd,https://materialsproject.org/materials/mp-12996,2.939549405874315,62.681242236139795,-8.604250342815693,-0.5045126942092143
-5.021464734285714,-35.15025314,4.917335494854492,-2.119327448214285,2.3614615000000003,0.19131536130455756,0.0,139,7,143.84953247478916,425.979995,mp-23114,Sr2Co(BrO)2,https://materialsproject.org/materials/mp-23114,17.923460448066173,-6.444566069875889,7.960099527693771,-1.4299239679815163
-4.299042325,-51.588507899999996,4.048084891939584,-1.18496234803161,0.0,0.0,1.1422,139,12,270.756041960414,660.0527999999998,mp-7470,RbCuO,https://materialsproject.org/materials/mp-7470,13.297602603871734,-16.25175056025363,6.436739386573924,-5.753246065023125
-7.320186968166666,-439.21121809,5.534620891227771,-2.716481273275333,9.99998845,0.1753186969996633,0.0,2,60,664.7352228574492,2215.58022,mp-1227762,Ca2HoMn3O9,https://materialsproject.org/materials/mp-1227762,-33.04895820284703,6.027421288350909,-8.604250342815693,-0.5045126942092143
-4.050567568888889,-291.64086496,2.9882244440831824,-0.8933397502430557,2.5970833333333336e-05,2.2129523363955593e-07,1.3302,60,72,1367.7012779995018,2461.248,mp-766480,LiCuS,https://materialsproject.org/materials/mp-766480,45.45889841603468,-7.37465456890362,7.162818175119866,-5.355136560693434
-5.056878661111111,-45.51190795,2.476727773877084,-0.6051085742956354,1.9999997999999999,0.11207770723127608,0.0,5,9,207.96399025373833,310.182524,mp-753614,Fe(PS3)2,https://materialsproject.org/materials/mp-753614,23.783613707729398,-1.3643640588113095,-5.893137201266493,-2.805068848836092
-5.968614880384616,-310.36797378,8.332894660074484,-0.4687438942307693,2.503997975,0.02359230094840689,0.0,14,52,1236.9185462166145,6207.088000000002,mp-683992,Ce7(GePd2)2,https://materialsproject.org/materials/mp-683992,11.491207868965946,53.61711119486646,-8.604250342815693,-0.5045126942092143
-7.20667886888889,-129.72021964,6.527047616121856,-0.3689869522222232,0.003412288888888889,0.00016298684705675002,0.0,147,18,243.9892325786906,959.0436,mp-2716,TiNi,https://materialsproject.org/materials/mp-2716,32.604473319473925,71.59897848882893,-8.604250342815693,-0.5045126942092143
-5.445142146666666,-16.33542644,10.518820683046012,-0.20402177166666627,1.5399999999999998e-05,2.3644682464594868e-06,0.0,216,3,75.90399988080127,480.82011000000006,mp-1207929,TmBiRh,https://materialsproject.org/materials/mp-1207929,16.626007317939624,46.449886500759106,-8.604250342815693,-0.5045126942092143
-6.3657429456250005,-305.55566139,4.384218998496407,-1.6430269297916666,1.25e-08,2.1512701150404527e-10,0.0,14,48,677.1618712058242,1787.8688,mp-558040,CuMoO4,https://materialsproject.org/materials/mp-558040,-54.71667176199068,-10.64396165269388,-1.1325584594171747,0.03337341191924659
-7.324955586428572,-102.54937821,6.244910446761086,-2.9631427576785714,5.0,0.31187588632107704,0.4387000000000008,6,14,186.8381828109949,702.6560000000001,mp-1227143,CaLa3(CoO4)2,https://materialsproject.org/materials/mp-1227143,-34.43058970352829,-18.673639645329548,1.806518899758021,0.5084210492727209
-4.300377312916667,-103.20905551,4.0261062098851665,-0.2559364473611113,3.05e-05,9.046249134308395e-07,0.0,227,24,392.9241504249656,952.6752,mp-1191806,Mg3TiNi2,https://materialsproject.org/materials/mp-1191806,-8.821894053040998,92.45218251886686,-8.604250342815693,-0.5045126942092143
-3.8587255844444446,-34.72853026,8.58141754835574,-0.6606236852777777,2.833333333333333e-06,1.530562922553641e-07,0.0,189,9,215.7366397836669,1114.894707,mp-1205979,SmMgAu,https://materialsproject.org/materials/mp-1205979,-13.989619334836126,45.624169351495105,-8.604250342815693,-0.5045126942092143
-5.0251414175,-20.10056567,7.271728434036087,-0.7488811456250009,5.8299999999999994e-05,7.477233762190064e-06,0.0,225,4,90.86675605568148,397.918,mp-862884,CaPmPd2,https://materialsproject.org/materials/mp-862884,14.463625888622415,45.81968095934735,-8.604250342815693,-0.5045126942092143
-7.219402683611111,-1039.59398644,6.5190545700416305,-2.6621370875,20.514627125,0.12084824235450195,0.05590000000000028,1,144,1978.339019597281,7766.694860000001,mp-1076874,La5Sm3Co7CuO20,https://materialsproject.org/materials/mp-1076874,-32.85521514372059,-18.898546002065032,-8.604250342815693,-0.5045126942092143
-4.260673288,-21.30336644,3.3784120280760153,0.16632880484799986,0.2582931,0.027228623164960487,0.0,164,5,110.55147737249187,224.92,mp-1245945,K2SnN2,https://materialsproject.org/materials/mp-1245945,31.374346622439262,-5.428704789007798,-5.604378671938021,-2.511041819804336
-5.506922715,-22.02769086,5.31821826464529,0.2588198645000004,0.0,0.0,0.0,123,4,76.17862583755083,243.97773828,mp-10422,NaAuC2,https://materialsproject.org/materials/mp-10422,15.532919006086056,-14.643738548093454,8.862282493120329,-1.4589195733973297
-5.659572902777778,-101.87231225,4.501976925303506,-1.9556562265277773,1.6e-06,8.799725217393748e-08,0.0,55,18,211.8987033735824,574.49,mvc-3786,Ca2Cu2O5,https://materialsproject.org/materials/mvc-3786,-47.48959328662647,1.6184473837912874,-8.604250342815693,-0.5045126942092143
-5.534354254736843,-105.15273084,6.577624444858269,-1.8625705435526327,8.416503599999999,0.3635154314724708,0.0,1,19,269.82754959141255,1068.824185,mvc-3036,Ba2Mg2Tl2Co3O10,https://materialsproject.org/materials/mvc-3036,-26.969273477127622,-12.552478306455773,-4.469451794991338,-1.3558454398053674
-6.939790323,-138.79580646,7.141620626559473,-2.534863666297999,7.0,0.3508587032251951,0.23999999999999974,2,20,232.51084455943385,999.979045,mp-1220251,Nd4Mn(NiO4)3,https://materialsproject.org/materials/mp-1220251,-39.617685650846624,-18.851591271733195,-1.1478279580847772,0.3710695662484563
-6.0099085675,-24.03963427,4.527760109792849,-0.8437002670312506,3.0,0.530581809917302,0.4142000000000001,160,4,65.89406885835078,179.6721,mp-5862,CrCuS2,https://materialsproject.org/materials/mp-5862,15.08921866469984,7.240842360023028,-8.604250342815693,-0.5045126942092143
-8.618127901666666,-465.37890669,1.7593210936909849,-0.10424515658666712,0.00022790555555555556,1.9539538285288447e-06,0.0,69,54,1359.30853006409,1440.171,mp-1096924,CrN2,https://materialsproject.org/materials/mp-1096924,-4.863223642916564,9.694825598673237,-8.604250342815693,-0.5045126942092143
-7.765639088611111,-279.56300719,8.934247812949504,-0.7723382775000007,1.8825e-05,4.5671689276184216e-07,0.0,60,36,480.3583419408078,2584.48634,mp-607990,Hf2Co3Si4,https://materialsproject.org/materials/mp-607990,46.909684716548355,52.0604617765796,-8.604250342815693,-0.5045126942092143
-6.5777604175,-131.55520835,4.275710773712573,-0.9073091304519992,0.005280475,0.00015584139379234705,0.0,64,20,394.8822336758652,1016.7796,mp-1246350,Sr2VN2,https://materialsproject.org/materials/mp-1246350,11.579744858899598,29.32211446751755,-8.604250342815693,-0.5045126942092143
-4.06153148,-16.24612592,7.241547331553285,-0.20006749249999967,6.6e-06,1.1791908526870415e-06,0.0,225,4,65.22848046490721,284.458912,mp-973141,ScCdCu2,https://materialsproject.org/materials/mp-973141,-18.81295871624547,55.42516886546216,-8.604250342815693,-0.5045126942092143
-7.74802890875,-123.96846254,3.0865542803270176,-1.0249983174400006,0.0,0.0,1.3146,33,16,184.84495313761215,343.5836,mp-1029932,LiVN2,https://materialsproject.org/materials/mp-1029932,33.561783017201684,-8.349478940057653,4.820243180070661,-5.259418531741972
-5.438262000441177,-369.80181603,7.059387119198495,-0.4853470561029408,0.02939585,0.00016683462391571608,0.0,186,68,2053.4175215183086,8729.61662,mp-1212070,La23Cd4Rh7,https://materialsproject.org/materials/mp-1212070,-28.72156762963749,64.4867171649131,-8.604250342815693,-0.5045126942092143
-2.707541753333333,-48.73575156,3.5606405266894576,-0.13367114624999962,8.5e-06,2.3627008656236297e-07,0.0,189,18,419.264038067768,899.01441,mp-567932,LaMg4Cu,https://materialsproject.org/materials/mp-567932,-23.762504242751852,20.138109460437,-8.604250342815693,-0.5045126942092143
-0.9751889657142856,-27.30529104,7.38287284426592,-0.061836346514778325,1e-07,1.6250537344121977e-09,0.0,226,28,717.1495025532257,3188.4969038000004,mp-1713,CsCd13,https://materialsproject.org/materials/mp-1713,-12.410155974710314,44.671714190698566,-8.604250342815693,-0.5045126942092143
-4.0911682525,-16.36467301,0.7800033261309515,1.5453821999999997,5.372088400000001,0.08713503708245443,0.0,71,4,718.5016300420336,337.50104500000003,mp-1093770,MnGaPd2,https://materialsproject.org/materials/mp-1093770,7.998731924278643,24.324013029335383,-8.604250342815693,-0.5045126942092143
-4.57339236375,-36.58713891,3.0443804909314416,0.17733879291666632,0.42171590000000003,0.03121177812978373,0.0,25,8,157.4631343905545,288.688,mp-1094390,MgTi,https://materialsproject.org/materials/mp-1094390,-17.457594878089086,38.82143329073384,-8.604250342815693,-0.5045126942092143
-4.64649351,-18.58597404,11.439459059518509,-0.7048720733333336,0.0,0.0,0.0,225,4,86.75521770210199,597.656988,mp-22493,YInAu2,https://materialsproject.org/materials/mp-22493,-8.230196684645984,48.85122522368654,-8.604250342815693,-0.5045126942092143
-8.4222772775,-33.68910911,12.513726763912539,0.8039159588750007,0.00011159999999999999,1.732170400562405e-05,0.0,225,4,75.0846237873238,565.8334092800002,mp-977140,NaTa3,https://materialsproject.org/materials/mp-977140,8.705715179742194,42.58892013826765,-8.604250342815693,-0.5045126942092143
-1.6767234216666669,-120.72408636,4.15638461749519,-0.19023300861111125,1.945e-05,1.5833206172654992e-07,0.0,9,72,1431.6213491728727,3583.3959999999997,mp-1094154,Ca3(MgZn2)5,https://materialsproject.org/materials/mp-1094154,-0.5202424312350645,96.8737133150213,-8.604250342815693,-0.5045126942092143
-3.9476996575,-15.79079863,3.8874504596802937,-1.1929254239895832,0.0,0.0,1.8517,166,4,86.25847532151703,201.93776928,mp-20289,NaInS2,https://materialsproject.org/materials/mp-20289,38.974509654939865,-2.920584736914709,7.966731294142892,-3.883525907648064
-3.62729743,-21.76378458,3.797604892339885,-0.10606391729333292,0.0003748,4.8773570514894864e-05,0.0015000000000000568,186,6,89.55554064719242,204.81093856,mp-1029357,NaZnN,https://materialsproject.org/materials/mp-1029357,5.288891430442244,3.8307410746307253,-8.604250342815693,-0.5045126942092143
-2.384668375,-4.76933675,1.5704530201734763,-0.09559928155999976,0.0033241,0.0015267136153451154,1.1207,221,2,25.374291760480965,23.99770928,mp-1009220,NaH,https://materialsproject.org/materials/mp-1009220,37.86094128635219,-23.056218185521725,7.288189362292896,-1.7268697849118124
-6.187390263571428,-86.62346369,5.934065733669254,-1.8157391385714283,1.0000001,0.07704072438958108,0.4743000000000004,88,14,151.27149998010998,540.5804999999998,mvc-4613,Y(NiO2)2,https://materialsproject.org/materials/mvc-4613,-31.202234845644828,-14.572469086866574,2.284075855506375,-4.691173079637597
-8.75309052,-175.0618104,5.14590854977942,-1.0689481289279996,0.0,0.0,1.4196999999999995,15,20,300.64702670518767,931.68668,mp-989612,LaCrN3,https://materialsproject.org/materials/mp-989612,-4.122216107124428,9.504896166062396,2.5368078146188604,-0.7245152624170121
-7.238790612000001,-36.19395306,7.056369505670983,-0.612265128,6.9753337,1.014474053079876,0.03699999999999992,139,5,80.13116797144728,340.5130000000001,mp-20677,Gd(CuSi)2,https://materialsproject.org/materials/mp-20677,-3.289175566352948,57.97475743953438,-8.604250342815693,-0.5045126942092143
-6.006259783846152,-156.16275438,5.43838913877572,-2.234948476250001,0.0,0.0,0.10329999999999996,5,26,343.8513115237517,1126.1386772,mp-1267699,Sr2AlCu2SbO7,https://materialsproject.org/materials/mp-1267699,-49.0296665104286,-5.128808556145553,-8.604250342815693,-0.5045126942092143
-7.928937773333334,-95.14725328,8.166084010082827,-0.6663905695833338,5e-08,2.8754319516762096e-09,0.0,193,12,202.64894054901995,996.57294,mp-29240,LaSi2Ru3,https://materialsproject.org/materials/mp-29240,15.142192376526856,65.65794193998207,-8.604250342815693,-0.5045126942092143
-7.832357253333334,-93.98828704,10.94459585092807,-1.0074217933333334,6.832097725,0.27985117227210665,0.032999999999999474,62,12,284.5144752232427,1875.2320000000002,mp-20923,EuSbPt,https://materialsproject.org/materials/mp-20923,52.31731375317555,28.69001691598933,-8.604250342815693,-0.5045126942092143
-6.3163347535000005,-126.32669507,5.9183469416773615,-0.07781230245199992,1.5e-07,7.1268152928318635e-09,0.0,59,20,245.28623853100268,874.2275999999998,mp-1246747,SrNi5N4,https://materialsproject.org/materials/mp-1246747,2.7505406057130832,12.65717166576102,-8.604250342815693,-0.5045126942092143
-6.0105193350000015,-36.06311601,5.355216712794693,-0.6798548066666671,0.0,0.0,0.0,194,6,111.96160078335829,361.0747,mp-8126,YCuSi,https://materialsproject.org/materials/mp-8126,-4.725041049531166,56.906325713417644,-8.604250342815693,-0.5045126942092143
-7.038220237000001,-70.38220237,6.224419142901298,-2.569867288096,6.992950200000001,0.7000188214369999,0.0,216,10,116.4201476965841,436.39311,mp-40761,SrLaMnCoO6,https://materialsproject.org/materials/mp-40761,-34.57891264382752,6.964047056352691,-8.604250342815693,-0.5045126942092143
-4.1172845816666666,-24.70370749,9.848162788604084,-0.16657401166666652,6e-07,8.534387450999332e-08,0.0,216,6,81.93252185564923,485.9174,mp-1077341,YbCu4Ni,https://materialsproject.org/materials/mp-1077341,-13.106488430563841,24.728846059444734,-8.604250342815693,-0.5045126942092143