energy_per_atom,energy,density,formation_energy_per_atom,total_magnetization_uB,total_magnetization_T,band_gap,sgr,num_sites,cell_volume,weight,mp_id,formula,URL,tsne_cry_lin1_0,tsne_cry_lin1_1,tsne_cry_lin2_0,tsne_cry_lin2_1
-5.998946317894737,-227.95996008,4.022753395400509,-1.9698850307894744,3.77841005,0.11205330175867108,0.0,12,38,392.97222633230456,951.9983088,mvc-12893,Al4(NiO4)3,https://materialsproject.org/materials/mvc-12893,-41.178133512182974,-20.100572245761,-8.604250342815693,-0.5045126942092143
-6.7174186525,-188.08772227,5.386233182508156,0.09461296273809493,0.34076385,0.008788596914137487,0.0,55,28,451.8678031141171,1465.708,mp-1208489,Ti5Cu2,https://materialsproject.org/materials/mp-1208489,34.228803613152884,65.78231608935819,-8.604250342815693,-0.5045126942092143
-3.442857145,-13.77142858,4.641242367267082,-0.28676856125000016,0.0007777,0.00010195296256263248,0.0,225,4,88.89752632790638,248.4705,mp-867854,Ca2ZnRh,https://materialsproject.org/materials/mp-867854,-12.325188419083489,49.950084150490206,-8.604250342815693,-0.5045126942092143
-4.979227315714286,-139.41836484,3.79112721591908,-1.381470288134237,5.951192025,0.11753530524667155,1.354,62,28,590.08293029685,1347.20076,mp-542299,Rb2Co2O3,https://materialsproject.org/materials/mp-542299,-32.13931575965953,-19.191455642946952,-8.604250342815693,-0.5045126942092143
-5.7399105525,-22.95964221,10.137544528210588,-0.5893221124999997,4.4e-06,6.307523685092406e-07,0.0,225,4,81.2963812097226,496.31214000000006,mp-867284,Ho2CuRh,https://materialsproject.org/materials/mp-867284,-9.855154504316546,55.14410000728656,-8.604250342815693,-0.5045126942092143
-6.940731358680555,-999.46531565,4.240937438055688,-2.561076844422777,33.000000575,0.200672188739312,0.0,1,144,1916.4795411443906,4894.597260000001,mp-1076750,Sr3Ca5Mn7FeO20,https://materialsproject.org/materials/mp-1076750,-29.90782607245333,-11.217640460655057,-8.604250342815693,-0.5045126942092143
-6.917321113589745,-269.77552343,4.319284983514973,-2.484496396999232,25.0,0.6462311191462508,0.0,8,39,450.84739914553006,1172.714615,mp-1247595,SrCa7Mn7CrO23,https://materialsproject.org/materials/mp-1247595,-36.20943240547039,6.075760587029152,-8.604250342815693,-0.5045126942092143
-6.148137371071429,-344.29569278,3.122782752656662,-2.215982841806123,0.8641506999999999,0.011979763559691166,0.0,61,56,840.6566774772325,1580.925296,mp-649472,KCuPO4,https://materialsproject.org/materials/mp-649472,-57.110794940179204,-15.097117991666975,-8.604250342815693,-0.5045126942092143
-6.775430567272728,-298.11894496,3.50339431649616,-1.8643034344663647,9.00001755,0.17458021285514536,0.0,62,44,600.7942467620992,1267.55174,mvc-9180,CaMn3O7,https://materialsproject.org/materials/mvc-9180,-40.39104501592975,-23.30150788757477,-8.604250342815693,-0.5045126942092143
-4.094408873928572,-229.28689694,8.450672357681746,-0.1887376892857142,7.9075e-05,9.73117106962093e-07,0.0,58,56,947.003361976716,4819.4079999999985,mp-1221949,Nd2(InCu3)3,https://materialsproject.org/materials/mp-1221949,3.0575876796180648,42.30233616579067,-8.604250342815693,-0.5045126942092143
-7.299394995,-43.79636997,8.749995090934469,-0.3282184262500003,0.27528555,0.0358351394120051,0.0,131,6,89.52652852174883,471.74843,mp-20906,HoCoC,https://materialsproject.org/materials/mp-20906,-13.395270800086982,35.04738879423791,-8.604250342815693,-0.5045126942092143
-3.9012666104166662,-93.63039865,7.110909429081553,-0.16231695020833334,0.0,0.0,0.0,194,24,357.17619866483466,1529.5320000000002,mp-13221,NdMg2Cu9,https://materialsproject.org/materials/mp-13221,3.527791640784617,41.20460420087499,-8.604250342815693,-0.5045126942092143
-6.064415228979591,-297.15634622,4.981725464525402,-2.254582700739796,27.9508788,0.4714715226195717,0.19479999999999986,1,49,690.9035569641495,2072.7557500000007,mp-698692,Sr12Co10O27,https://materialsproject.org/materials/mp-698692,-34.645566648251794,-16.99062709544935,-0.15423646964356455,1.2671886514908388
-6.1582004999999995,-24.632801999999998,12.316428230292836,-0.6337151125,0.0012472999999999998,0.0001826523379366052,0.0,225,4,79.58351453381826,590.281,mp-1184124,Er2CuIr,https://materialsproject.org/materials/mp-1184124,-8.748808527278088,55.222503851619855,-8.604250342815693,-0.5045126942092143
-6.952655220277778,-1001.18235172,4.131805312774628,-2.5641606661588887,33.000000725,0.20341135541931624,0.0,1,144,1890.6719595416755,4704.429260000001,mp-1099810,Sr2Ca6Mn7FeO20,https://materialsproject.org/materials/mp-1099810,-29.718576555109248,-11.221579116458216,-8.604250342815693,-0.5045126942092143
-6.877799275128205,-268.23417173,4.235388652783631,-2.6399975485130764,18.2760663,0.4851608656328833,0.0,38,39,439.009976969089,1119.7435472000002,mp-1247693,SrCa7Mn6Al2O23,https://materialsproject.org/materials/mp-1247693,-36.4896049380964,5.864517282633686,-8.604250342815693,-0.5045126942092143
-6.62591136,-119.26640448,4.355011913510559,-2.5448792802777778,0.0,0.0,1.0404,121,18,230.67603801411738,604.9824,mp-753353,Sr4LiCu(CO5)2,https://materialsproject.org/materials/mp-753353,-45.140394796474546,-8.020480640243253,1.6889115347497397,1.151090150081366
-5.416399340147059,-368.31515513,5.376145569312552,-0.6875728575000002,0.0009155,1.1014246342719964e-05,0.0,23,68,968.6814664655141,3136.1939999999995,mp-1225604,FeNi35S32,https://materialsproject.org/materials/mp-1225604,15.924654380581133,23.07488906195863,-8.604250342815693,-0.5045126942092143
-5.11020842,-20.44083368,8.66486360465873,-0.5074498850000007,4.1e-06,5.670357055578794e-07,0.0,225,4,84.26570866553216,439.70714000000004,mp-865954,LiHo2Rh,https://materialsproject.org/materials/mp-865954,8.941889260530898,42.74963610845608,-8.604250342815693,-0.5045126942092143
-8.1529317875,-32.61172715,8.010537372058403,-0.26472852500000066,0.00018659999999999998,3.049655339101473e-05,0.0,225,4,71.30800843876212,343.994,mp-1232423,Zr2CuTc,https://materialsproject.org/materials/mp-1232423,-10.069892695765109,54.11859979254813,-8.604250342815693,-0.5045126942092143
-1.154707145,-4.61882858,0.2141528938152806,1.149276565,0.0,0.0,0.8941000000000003,71,4,923.4767484275231,119.097,mp-1096231,LiMg2Cu,https://materialsproject.org/materials/mp-1096231,-0.054397898129779326,-5.566935312790479,5.989325313016501,-5.113048983425031
-2.8577041716666667,-34.29245006,9.30683564701287,-0.7221060216666665,3.6000000000000003e-06,1.490848016096266e-07,0.0,62,12,281.4145555297559,1577.246276,mp-11080,YbMgAu,https://materialsproject.org/materials/mp-11080,-14.537529549384791,44.81944503196324,-8.604250342815693,-0.5045126942092143
-7.33003281265625,-469.12210001,5.391036757462648,-0.3063172413462487,2.500022825,0.03872204373846794,0.03489999999999949,61,64,752.424849582085,2442.79112,mp-1245398,MnGaN2,https://materialsproject.org/materials/mp-1245398,-0.3155920344425172,10.21669695402932,-8.604250342815693,-0.5045126942092143
-4.044211083,-40.44211083,7.312176172473721,-0.24144962299999906,0.156816,0.008446296863694741,0.0,127,10,216.3721984754253,952.794,mp-1205987,Dy2MgCu2,https://materialsproject.org/materials/mp-1205987,-8.642535415395567,53.97478870951507,-8.604250342815693,-0.5045126942092143
-6.923691002857143,-48.46583702,6.338263529413098,-2.2524738631628574,4.8e-06,5.241479188015939e-07,0.0,139,7,106.72466474003369,407.36714639999997,mp-1147760,La2Cu(NF)2,https://materialsproject.org/materials/mp-1147760,-21.525144085597287,11.168439378305647,-8.604250342815693,-0.5045126942092143
-4.7303236025,-18.92129441,2.6007942005240783,-2.096456895781251,0.0014215999999999999,0.00020191318434627527,2.8258,166,4,82.05218759889506,128.513,mp-1227049,CaMgS2,https://materialsproject.org/materials/mp-1227049,54.37634781398017,4.568472197827445,6.706458053781756,-3.641752709176183
-5.269038120833334,-126.4569149,4.675446683751619,-3.1424649613825,5.99999995,0.17548463220107702,2.6528,11,24,398.46445341454665,1121.9244248,mp-556007,Ba2Co2ClF7,https://materialsproject.org/materials/mp-556007,-32.462111552012985,22.387662196427712,-8.604250342815693,-0.5045126942092143
-4.51479893,-9.02959786,2.750191254744692,-1.7689018267968757,2.6e-06,4.215789911324708e-07,3.158,216,2,71.874,119.038,mp-1008223,CaSe,https://materialsproject.org/materials/mp-1008223,26.25371673765327,-10.310126169744898,3.1951029244822275,-5.0042752230126455
-5.0850776458333335,-61.02093175,3.1820599078575813,-0.7656111649600005,0.0,0.0,1.0307999999999995,136,12,186.4615598300255,357.3128,mp-1222411,LiCa2CuN2,https://materialsproject.org/materials/mp-1222411,5.480847782825316,3.9997095061096295,7.377881736559654,-3.2732006611281634
-4.388684728928571,-122.88317241,9.274483803161166,-0.2481080053571425,2e-07,5.376060818411491e-09,0.0,62,28,433.5540525377916,2421.49684,mp-1208066,TmCu5Sn,https://materialsproject.org/materials/mp-1208066,3.187387392797884,42.20364359693979,-8.604250342815693,-0.5045126942092143
-7.326996304285713,-51.28897413,7.276464732832322,-2.9417619985714287,3.9e-06,4.849512835090525e-07,0.0,107,7,93.72251225753145,410.69107,mp-1222801,LaNdCuO4,https://materialsproject.org/materials/mp-1222801,-42.702818104785656,-4.0805684669601385,-8.604250342815693,-0.5045126942092143
-6.925670325897436,-270.10114271,4.503648780748649,-2.5047314089469217,26.0000003,0.6718452381862176,0.0,25,39,451.00518744584195,1223.19856,mp-1247627,Sr2Ca6Mn8O23,https://materialsproject.org/materials/mp-1247627,-34.08129341793128,6.583442999479607,-8.604250342815693,-0.5045126942092143
-8.9294344775,-35.71773791,12.429774739848698,-0.33787828999999897,1.11e-05,1.86742873087249e-06,0.0,225,4,69.2717836224859,518.5260000000002,mp-1184609,Hf2CuTc,https://materialsproject.org/materials/mp-1184609,-9.97692989841966,53.376180264241064,-8.604250342815693,-0.5045126942092143
-6.5573368425,-26.22934737,8.909988766380922,-0.2988739858333336,7.0739694,1.1082089580885126,0.0,225,4,74.39075183880684,399.16,mp-614489,GdInCu2,https://materialsproject.org/materials/mp-614489,-8.033588580217463,53.901498728443926,-8.604250342815693,-0.5045126942092143
-5.06923220875,-40.55385767,1.7479950985686916,0.34074647624999965,8.3e-06,8.973102346573881e-07,0.0,123,8,107.79854489142042,113.476,mp-1222002,MgB3,https://materialsproject.org/materials/mp-1222002,-0.8839267074367043,3.6880879281558836,-6.29193540161396,-2.109277827179093
-5.706416758157895,-216.84383681,9.079163456405453,-0.16433588131578938,0.0,0.0,0.0,14,38,848.5026386602779,4639.273130000001,mp-30967,Tb12Co7,https://materialsproject.org/materials/mp-30967,-27.720749764582013,68.20261641299547,-8.604250342815693,-0.5045126942092143
-5.003396848,-25.01698424,6.950661927620487,-1.062300168625,1.87e-05,2.5612993028146057e-06,0.0,164,5,85.08611664688401,356.15232000000003,mp-1018632,Ho(CuS)2,https://materialsproject.org/materials/mp-1018632,-14.756768315263205,21.354476525492238,-8.604250342815693,-0.5045126942092143
-6.1968418540000005,-61.96841854,3.6530616298260896,-0.7929361929519999,0.99999995,0.07671355775114493,0.0,12,10,151.9166172381377,334.20519,mvc-15272,Ca2CoN2,https://materialsproject.org/materials/mvc-15272,6.614840580198728,8.181524648215706,-8.604250342815693,-0.5045126942092143
-4.406001339642857,-123.36803751,9.322911366575225,-0.2526770553571421,1.425e-06,3.86112897649453e-08,0.0,62,28,430.10845796648016,2414.7960000000007,mp-1213224,ErCu5Sn,https://materialsproject.org/materials/mp-1213224,3.1357624952199505,42.087900048563576,-8.604250342815693,-0.5045126942092143
-5.3884466344444455,-48.49601971,7.181362359915887,-1.89427944375,0.6263173000000001,0.05070306480627002,0.0,123,9,143.95860309951274,622.5803,mp-20942,Ba2TlCuO5,https://materialsproject.org/materials/mp-20942,-50.72908617259004,-2.2305591284378408,-8.604250342815693,-0.5045126942092143
-4.4290009,-44.290009000000005,8.737682762331573,-0.3879264486666664,8.900000000000001e-06,4.875085275319961e-07,0.0,127,10,212.75766600610663,1119.5214,mp-1079779,Tb2InCu2,https://materialsproject.org/materials/mp-1079779,-7.963060515302083,54.42352816019243,-8.604250342815693,-0.5045126942092143
-4.764670631666667,-28.58802379,9.037932447919204,-0.5393036616666661,2.3e-06,2.0870336404636463e-07,0.0,194,6,128.4327595741703,699.03,mp-1018685,ErCuSn,https://materialsproject.org/materials/mp-1018685,-5.352847082995682,55.708885565496814,-8.604250342815693,-0.5045126942092143
-5.621196664166668,-67.45435997,3.58666666354909,0.17833322472222216,0.029266200000000003,0.0015342754264897186,0.0,63,12,222.30049739310746,480.156,mp-1094326,MgTi2,https://materialsproject.org/materials/mp-1094326,33.5221833483572,61.4679616703871,-8.604250342815693,-0.5045126942092143
-7.201190936153847,-280.84644651,4.239243610635035,-2.750618739111368,19.9999995,0.5122973053940763,0.0,1,39,454.97270270603417,1161.5144699999998,mp-1247592,SrCa7Ti2Mn6O23,https://materialsproject.org/materials/mp-1247592,-36.16176935260715,5.986598224332246,-8.604250342815693,-0.5045126942092143
-5.0734468533333335,-15.22034056,8.872929316507227,-0.6400800999999999,1.86e-05,3.846573266271928e-06,0.0,187,3,56.35291199839747,301.11632000000003,mp-1223742,HoCuGe,https://materialsproject.org/materials/mp-1223742,-4.800726252695286,56.799393469770756,-8.604250342815693,-0.5045126942092143
-6.994133961554054,-1035.13182631,3.936551907227944,-2.545478008889998,29.9999995,0.1890380172506544,0.0,1,148,1849.4794985401172,4384.4630400000015,mp-1247596,Ca8Mn8O21,https://materialsproject.org/materials/mp-1247596,-31.14594843716271,-10.170734756264403,-8.604250342815693,-0.5045126942092143
-3.969506398333333,-23.81703839,7.2218824185243475,-0.17507312958333307,0.0,0.0,0.0,216,6,97.19921874076596,422.731,mp-1071051,NdMgCu4,https://materialsproject.org/materials/mp-1071051,2.564041756415884,40.91670162630033,-8.604250342815693,-0.5045126942092143
-5.078479625,-30.47087775,8.807356678163215,-0.6451128716666664,1.6e-06,1.6422134868334205e-07,0.0,194,6,113.54494275924148,602.2326400000001,mp-1072037,HoCuGe,https://materialsproject.org/materials/mp-1072037,-4.791878650942014,56.70381529650675,-8.604250342815693,-0.5045126942092143
-7.085818435641026,-276.34691899,4.331758032056592,-2.645982860247093,22.999999399999997,0.5983562783373914,0.0,8,39,447.9663579719207,1168.5855150000002,mp-1247726,SrCa7TiMn7O23,https://materialsproject.org/materials/mp-1247726,-32.69592755704679,-8.62271725408384,-8.604250342815693,-0.5045126942092143
-6.1426108225,-24.57044329,12.049689865609881,-0.6128001399999992,0.0004013,5.7950176935444546e-05,0.0,225,4,80.7033979971804,585.62364,mp-1184699,Ho2CuIr,https://materialsproject.org/materials/mp-1184699,-8.669747578868598,55.22326399404079,-8.604250342815693,-0.5045126942092143
-5.065045511666667,-30.39027307,9.124634522936995,-0.6649732633333331,3.5e-05,3.6729150977364435e-06,0.0,194,6,111.05409632010456,610.24042,mp-1077392,TmCuGe,https://materialsproject.org/materials/mp-1077392,-4.839000961234468,56.59833936691391,-8.604250342815693,-0.5045126942092143
-7.168610342499999,-258.06997233,8.71754966179269,-3.1455326173611105,1.01496785,0.024610510535330598,0.0,62,36,480.6280247207703,2523.216,mp-505268,BaLu2CuO5,https://materialsproject.org/materials/mp-505268,-47.00081052265802,-7.5583914532980305,-8.604250342815693,-0.5045126942092143
-5.03968389,-55.43652279,9.064906689097883,-0.6223759368181816,7e-07,4.255413504789058e-08,0.0,71,11,191.7051147112006,1046.521,mp-567621,Er3(CuGe)4,https://materialsproject.org/materials/mp-567621,-4.820581371545006,56.09163869414861,-8.604250342815693,-0.5045126942092143
-3.5150101166666667,-31.63509105,3.6106868412170963,-1.112026219277778,0.0,0.0,0.0,139,9,203.0127968232956,441.43234,mp-1232348,K2Li2Cu(IO)2,https://materialsproject.org/materials/mp-1232348,-51.05455555274453,-3.721818439997879,-8.604250342815693,-0.5045126942092143
-6.896994522222222,-124.1459014,7.092556690098461,-2.5432341265277785,1.5e-06,7.699105766690582e-08,0.0,55,18,227.05360451690083,969.79988,mp-5696,La2Cu2O5,https://materialsproject.org/materials/mp-5696,-44.814840415850924,0.5800646914922023,-8.604250342815693,-0.5045126942092143
-3.23294561,-38.79534732,7.710811000212172,-0.35913874316666633,4.75e-07,1.8975358138891047e-08,0.0,62,12,291.72997560558133,1354.66535312,mp-11253,NaSnAu,https://materialsproject.org/materials/mp-11253,-15.685769358630624,49.19498882381149,-8.604250342815693,-0.5045126942092143
-8.00804341,-32.03217364,8.70157757477902,-0.3188249066666682,13.774716699999999,1.6343813815049455,0.0,225,4,98.22153045921364,514.7017,mp-1183909,Eu2AgRh,https://materialsproject.org/materials/mp-1183909,5.722785370799693,47.27747267494818,-8.604250342815693,-0.5045126942092143
-6.442294144444443,-173.9419419,5.545116889390839,-2.3342185730092595,8.3841396,0.2876898107994705,0.0,69,27,339.63422510187326,1134.1567,mp-1218585,Sr4Y2Fe2Cu4O15,https://materialsproject.org/materials/mp-1218585,-47.949250701183225,0.8588107592681364,-8.604250342815693,-0.5045126942092143
-6.2359613009375,-598.65228489,4.761830781128867,-1.9884589055654776,0.99999995,0.008265346129247855,0.3380000000000001,61,96,1409.9910648166613,4043.348992,mp-566937,TlCu2P2O7,https://materialsproject.org/materials/mp-566937,-57.56771102481508,-12.385243729680314,-4.499659548042262,-0.6669791244458427
-4.507442947272729,-49.58187242,8.764877562539588,-0.3375071590909089,0.0,0.0,0.0,12,11,234.1320059686077,1235.82663,mp-573877,Tm3(CuSn)4,https://materialsproject.org/materials/mp-573877,-5.3114347488208375,54.829765897318154,-8.604250342815693,-0.5045126942092143
-5.630383858666666,-84.45575788,6.671911466248409,-1.924616139333333,0.0,0.0,0.0,65,15,206.54303550352603,829.8732,mp-15039,Ba2Yb(CuO2)4,https://materialsproject.org/materials/mp-15039,-49.675461540024024,-0.573982386331634,-8.604250342815693,-0.5045126942092143
-6.9767138125,-27.90685525,6.225314313815187,-0.4691174374999996,4.9e-05,8.41105428814283e-06,0.0,225,4,67.89269861929678,254.527824,mp-862338,Sc2CuRu,https://materialsproject.org/materials/mp-862338,-10.515387948316796,55.680396682473365,-8.604250342815693,-0.5045126942092143
-4.837775745454546,-53.2155332,6.610964549070388,-1.105295,0.1899295,0.0059940260311978025,0.0,99,11,369.27612320988817,1470.168,mp-1220206,Nd4Te7,https://materialsproject.org/materials/mp-1220206,-10.222730447965953,24.33691728759993,-8.604250342815693,-0.5045126942092143
-5.072842363636363,-55.801266000000005,7.7583536032387785,-0.6016204893181812,1e-07,5.570503731667441e-09,0.0,71,11,209.2102498075383,977.47,mp-505292,Nd3(CuGe)4,https://materialsproject.org/materials/mp-505292,-4.303306952140524,55.51549795806479,-8.604250342815693,-0.5045126942092143
-6.9742917549305545,-1004.29801271,3.8477935031053687,-2.7355411503683325,23.999999675,0.15118187656373572,0.0913999999999997,1,144,1850.073283327356,4286.981388800001,mp-1247585,SrCa7Mn6Al2O20,https://materialsproject.org/materials/mp-1247585,-31.06729391875424,-11.302698075522844,-8.604250342815693,-0.5045126942092143
-5.685035,-136.44083999999998,2.4321261447310314,-0.4741073024599996,2.5e-08,1.058020093315602e-09,0.04349999999999987,141,24,275.374372523456,403.33,mp-1247473,Li3CrN2,https://materialsproject.org/materials/mp-1247473,1.9332399586299176,6.713162729536451,-8.604250342815693,-0.5045126942092143
-3.9482568275,-15.79302731,10.149571453520542,-0.7144419087499996,6.5000000000000004e-06,8.280648335371601e-07,0.0,225,4,91.4800604417149,559.145788,mp-975893,PrMgAu2,https://materialsproject.org/materials/mp-975893,-14.428191314924204,44.843844645775995,-8.604250342815693,-0.5045126942092143
-6.358673677894736,-120.81479988,4.4695358313369,-0.8549919852126306,3.0000013,0.09623872303575967,0.0,12,19,363.2862985408928,977.827735,mp-1247040,Sr8Mn3N8,https://materialsproject.org/materials/mp-1247040,5.561724548458416,7.487231971566827,-8.604250342815693,-0.5045126942092143
-4.273863467777779,-38.46477121,4.563729441989582,-0.21685967444444448,3.3333333333333334e-08,2.0133972164357967e-09,0.0,189,9,192.9419702087769,530.27055,mp-13171,YMgCu,https://materialsproject.org/materials/mp-13171,-23.9361471086792,20.397022170316305,-8.604250342815693,-0.5045126942092143