energy_per_atom,energy,density,formation_energy_per_atom,total_magnetization_uB,total_magnetization_T,band_gap,sgr,num_sites,cell_volume,weight,mp_id,formula,URL,tsne_cry_lin1_0,tsne_cry_lin1_1,tsne_cry_lin2_0,tsne_cry_lin2_1
-6.0966123288333325,-365.79673973,6.042641765014004,-1.6113597325833335,1.3333333,0.01951130278192921,0.013300000000000091,12,60,796.3974940721179,2898.0618,mp-554393,VCu2BiO6,https://materialsproject.org/materials/mp-554393,-55.90280526199832,-11.055588449644503,-8.604250342815693,-0.5045126942092143
-5.956458535,-23.82583414,10.174306784458274,-0.669132226875,1.12e-05,1.5446342262632532e-06,0.0,225,4,84.50254644973988,517.75647,mp-1185052,LaYbRh2,https://materialsproject.org/materials/mp-1185052,13.609979790895231,48.32137762375883,-8.604250342815693,-0.5045126942092143
-4.7923220550000005,-28.75393233,6.788949902520075,-0.7653617808333338,5.5100000000000004e-05,5.561462558420793e-06,0.0,166,6,115.462247964927,472.056,mp-1071127,Ca2GePd3,https://materialsproject.org/materials/mp-1071127,15.17347124582438,45.66162241426164,-8.604250342815693,-0.5045126942092143
-6.8585751285,-137.17150257,4.094634342501373,-2.426587232942,2.99999785,0.15070411677935874,0.9291999999999998,194,20,231.99213139364238,572.0569800000002,mp-1188497,CaMnO3,https://materialsproject.org/materials/mp-1188497,-37.346276971830676,5.08033749067532,-8.604250342815693,-0.5045126942092143
-6.910873052222222,-248.79142988,7.614195011004594,-2.6369305093055555,2.0017913,0.04937724671645565,0.3167999999999997,33,36,472.4646881449499,2166.428,mp-21160,Er2Cu2O5,https://materialsproject.org/materials/mp-21160,-48.71202344397282,-8.411948809275241,-0.20441577833214453,0.7031264767098858
-5.349651483035714,-299.58048305,4.5320016505568095,-1.3533346702471425,4.999998625,0.10662062195394856,0.20740000000000025,1,56,546.5200518491389,1491.58178,mp-774906,Li2MnNi3O8,https://materialsproject.org/materials/mp-774906,-62.70985936626337,-24.671528114137462,-4.964870623549657,-2.8912613448477607
-6.348096512142857,-88.87335117,6.3645452116122225,-2.0579769639285717,0.99616415,0.0674200660761258,0.0,88,14,172.19445491336998,659.99014,mp-9416,La(CuO2)2,https://materialsproject.org/materials/mp-9416,-60.14937764931867,-1.6964116356291483,-8.604250342815693,-0.5045126942092143
-7.56253416375,-60.50027331,5.7538693622945205,-0.5215909823214275,1.9436113999999998,0.2318145240832632,0.0,6,8,97.71162198685032,338.5767479999999,mp-1226323,Cr3NiP4,https://materialsproject.org/materials/mp-1226323,14.504055965195755,26.01021744011332,-8.604250342815693,-0.5045126942092143
-3.49747895,-13.9899158,4.0321990512227135,-0.3815838275000001,2.5e-06,4.4647819096219206e-07,0.0,225,4,65.25550972290696,158.4565,mp-864601,LiMg2Rh,https://materialsproject.org/materials/mp-864601,29.413336198196163,38.22689749116452,-8.604250342815693,-0.5045126942092143
-3.985543826666667,-23.91326296,8.47958401708791,-0.3912513133333337,2e-07,1.623786422421798e-08,0.0,156,6,143.5418428388904,733.0,mp-1225405,Dy2In3Cu,https://materialsproject.org/materials/mp-1225405,-6.620238211269783,53.90285484374348,-8.604250342815693,-0.5045126942092143
-8.439577514545455,-185.67070532,7.732734441279144,-0.2785235230518181,37.006178600000005,1.5793533790609309,0.0,166,22,273.0689712050022,1271.6171,mp-5662,Ce2Fe17N3,https://materialsproject.org/materials/mp-5662,61.47020712767127,75.30450348084267,-8.604250342815693,-0.5045126942092143
-3.74915221,-14.99660884,6.312017127932267,-0.3168856458333336,2.62e-05,3.528349007987435e-06,0.0,225,4,86.53806535290211,328.94725,mp-866162,YMgAg2,https://materialsproject.org/materials/mp-866162,20.681889779912694,61.276857320178,-8.604250342815693,-0.5045126942092143
-4.2722930325,-17.08917213,0.7733688399951221,2.5184830062499994,5.9971957,0.08557788289866237,0.07019999999999982,71,4,816.7029233976166,380.366,mp-1097141,FeSnRh2,https://materialsproject.org/materials/mp-1097141,7.286814211131904,24.553147569093216,-8.604250342815693,-0.5045126942092143
-6.650093734038463,-345.80487417,3.677187474821971,-2.126508230576924,2.00000005,0.0324990669755469,0.21660000000000013,14,52,717.1938242214842,1588.1928,mvc-10482,CaV2(CuO4)2,https://materialsproject.org/materials/mvc-10482,-54.44923204009491,-11.01008529655519,2.185274076313032,1.3298783510183312
-5.8867018475,-23.54680739,7.1577462148754325,-0.6618093850000006,4.1e-06,5.422400175713674e-07,0.0,225,4,88.1190321981463,379.8367,mp-867121,LiY2Pt,https://materialsproject.org/materials/mp-867121,8.52224581624097,42.869841343204925,-8.604250342815693,-0.5045126942092143
-4.444706512727274,-48.89177164,4.0198963262009,-1.2074553513636366,0.18214249999999998,0.007516206848526405,0.0,139,11,282.4164549505608,683.6845400000001,mp-549580,Sr2Cu3(IO2)2,https://materialsproject.org/materials/mp-549580,-60.5931349448849,-0.9095438902805107,-8.604250342815693,-0.5045126942092143
-6.0878785575,-24.35151423,13.819519755268688,-0.21350445843749988,4.0086121,0.5186337215813732,0.0,225,4,90.07633541263422,749.6431379999998,mp-977411,NpSnAu2,https://materialsproject.org/materials/mp-977411,-8.240519379366557,49.63476994293993,-8.604250342815693,-0.5045126942092143
-7.418441661,-74.18441661,8.197003595576216,-1.1288841078571423,0.2780829,0.019611064625602758,0.0,129,10,165.25345210021368,815.749048,mp-505502,Ce(PRh)2,https://materialsproject.org/materials/mp-505502,15.933852836278607,36.70534984575768,-8.604250342815693,-0.5045126942092143
-6.227226715694445,-896.72064706,4.253763596006288,-2.265915271250001,27.999999275,0.18069340453650665,0.0,1,144,1805.8977084387561,4626.12546,mp-1099847,SrCa7FeCo7O20,https://materialsproject.org/materials/mp-1099847,-32.8798153857171,-16.138123549139333,-8.604250342815693,-0.5045126942092143
-3.3075106675,-13.23004267,2.1267033189350326,-0.030805914219999675,0.0,0.0,2.1347,225,4,39.72612624556758,50.87846928,mp-10525,NaLi2N,https://materialsproject.org/materials/mp-10525,4.490439031761106,1.5658875197033246,6.0454512389145645,-2.243697168315564
-3.4616033925,-13.84641357,10.754565463908177,-0.4866830424999997,4.429999999999999e-05,7.5101840610434725e-06,0.0,225,4,68.74333108590453,445.2196766,mp-1185826,MgAlAu2,https://materialsproject.org/materials/mp-1185826,29.633221067945126,32.745725359703805,-8.604250342815693,-0.5045126942092143
-7.341685356499998,-146.83370713,5.143293987838226,-0.724540838838999,0.0,0.0,0.6961000000000004,176,20,440.53600467974684,1364.5004,mp-1106080,Ba3Ir(CN)3,https://materialsproject.org/materials/mp-1106080,4.856094929528366,4.687337387202733,3.6624032693308433,-5.317352897102606
-8.667861865277779,-312.04302715,6.288461052232307,-0.3341367528422615,18.336592899999996,0.505592723570201,0.0,25,36,422.663996933466,1600.6284819999996,mp-1226632,Cr24P11C,https://materialsproject.org/materials/mp-1226632,14.447335682190394,26.094457922085482,-8.604250342815693,-0.5045126942092143
-8.513160354901961,-434.1711781,6.197527105537846,-0.4939005053081228,16.402955900000002,0.30609612254819457,0.0,174,51,624.5133356432569,2330.8324780000003,mp-15746,Zr2Cr30P19,https://materialsproject.org/materials/mp-15746,14.479457563415346,26.13432666414193,-8.604250342815693,-0.5045126942092143
-4.553685641666667,-109.2884554,3.0950118363842285,0.1970455149999998,0.6064035833333333,0.01520906176977304,0.0,57,24,464.66157777886565,866.064,mp-1094364,MgTi,https://materialsproject.org/materials/mp-1094364,-17.67294797472891,38.88850992258421,-8.604250342815693,-0.5045126942092143
-4.953303911111111,-44.5797352,2.385128744400736,-1.5563626184166668,0.0,0.0,2.1430000000000002,160,9,161.79913332163562,232.4015,mp-545630,K4CO4,https://materialsproject.org/materials/mp-545630,19.57685215048389,-17.563518413448325,7.211666583189257,0.052222840673101255
-4.617303580689656,-133.90180384,4.453567139643799,-1.0576931487068977,4.999999900000001,0.18594119688348776,0.0,2,29,313.3803787113656,840.4864464,mp-765844,Na5(NiO2)8,https://materialsproject.org/materials/mp-765844,-63.3653114660699,-24.349347510845213,0.7124183380658287,-2.3977628232478616
-4.675972365,-130.92722622,3.0930544917647222,-1.5430517235357146,2.0,0.06170471316775805,1.1159,58,28,377.7366160304648,703.60281136,mp-774092,Na3CoO3,https://materialsproject.org/materials/mp-774092,-36.694773344930255,-29.983601054317717,5.56708723451831,0.8269059121976698
-5.14118441,-20.56473764,9.54021577836475,-0.5645223575000005,4.6500000000000005e-05,6.77156324881262e-06,0.0,225,4,80.02790375162621,459.7805,mp-977405,LiLu2Rh,https://materialsproject.org/materials/mp-977405,8.09191347683919,43.48184393560342,-8.604250342815693,-0.5045126942092143
-6.45413326125,-51.63306609,2.9941875516873786,-0.10309448107142848,4.93945475,0.35799339314762313,0.0,122,8,160.79829041395217,289.942138,mp-1207203,MnSiP2,https://materialsproject.org/materials/mp-1207203,22.051996063035592,22.67523052630612,-8.604250342815693,-0.5045126942092143
-1.1159159375,-4.46366375,5.622878264015432,-0.14210897350000018,2.44e-05,2.6822912920401437e-06,0.0,225,4,106.01353450846634,358.98053856,mp-973056,Na2CdHg,https://materialsproject.org/materials/mp-973056,-13.843652333504725,47.37219163089804,-8.604250342815693,-0.5045126942092143
-4.85444405325,-194.17776213,4.1002379872421,-0.6630231622019999,0.0,0.0,0.3481000000000001,206,40,942.3972713787095,2326.9872,mp-986716,Sr3N2,https://materialsproject.org/materials/mp-986716,24.668068773806123,-9.688547783278784,3.3326990734704953,-5.281996698967371
-6.76454135125,-108.23266162,3.2345886562956268,-2.0031452300837493,6.0,0.29616462147161376,0.0,63,16,236.09973496466444,459.90218,mp-1239289,CaMn2O5,https://materialsproject.org/materials/mp-1239289,-40.36848887068596,-23.348801591258287,-8.604250342815693,-0.5045126942092143
-7.197052895,-172.72926948,9.132671910619566,-0.3428456233333333,8.37239915,0.3277707809554028,0.0,141,24,297.6851130885265,1637.2156300000001,mp-17474,ThCo9Si2,https://materialsproject.org/materials/mp-17474,48.889044940329285,50.49610123736036,-8.604250342815693,-0.5045126942092143
-5.792484623055557,-208.52944643,3.4584670893065446,-0.5518173063355553,2.755e-05,5.236612575938196e-07,0.0,62,36,613.1243811300983,1276.9772,mp-1246095,Ca4RhN4,https://materialsproject.org/materials/mp-1246095,8.853666042090667,5.5590023837165,-4.636896558348387,-1.6326948688443683
-2.630120406666667,-23.67108366,2.174263568973521,1.5629280946666668,3.473694333333333,0.10027977430133614,0.0,189,9,403.69714673560867,528.5898,mp-1084834,K2Tc,https://materialsproject.org/materials/mp-1084834,-4.459127189511818,6.8146697233145845,-8.604250342815693,-0.5045126942092143
-3.467083408571429,-194.15667088,3.085026744182609,-0.3945744857421428,1.405e-05,6.889827950001593e-08,0.0,167,56,2376.541348241153,4415.24916992,mp-570449,Ba14Na7CaN6,https://materialsproject.org/materials/mp-570449,-38.36733061329001,48.64249731405141,-8.604250342815693,-0.5045126942092143
-7.345659695384616,-286.48072812,4.010847659798928,-2.8761908398987166,17.0000001,0.4323191578269869,0.0,25,39,458.270466880878,1106.901425,mp-1247641,Ca8Ti3Mn5O23,https://materialsproject.org/materials/mp-1247641,-36.18564791950494,5.910798008069924,-8.604250342815693,-0.5045126942092143
-5.444349343269232,-283.10616585,5.381114931396557,-1.315692517884616,0.947609125,0.014683476912387044,0.0,14,52,752.1037549697969,2437.2548,mp-1198006,TlCu2(AsO4)2,https://materialsproject.org/materials/mp-1198006,-56.17305478707564,-6.678947259926827,-6.113800141823225,0.6256172646724554
-3.2822997975,-13.12919919,9.45023440700628,0.5799143625000003,2.0109426999999997,0.21684685614706195,0.0,225,4,108.07468872784766,615.06,mp-1187964,Yb3Mo,https://materialsproject.org/materials/mp-1187964,-10.806486746746364,51.5877781950064,-8.604250342815693,-0.5045126942092143
-8.357973787999999,-167.15947576,7.054296323520668,-3.166070348425,0.0001022,4.718313641225472e-06,0.0,6,20,252.43031945757943,1072.37362784,mp-1221219,Na3SrTa4O12,https://materialsproject.org/materials/mp-1221219,0.7548326012878079,-37.671169846552175,-5.954608028087715,-3.3311869949142148
-6.0708978585714295,-169.98514004,3.5870434254814816,-2.1521435939268123,0.995420375,0.02567722523114421,0.0,33,28,451.7892187238768,975.940648,mp-669427,RbCuPO4,https://materialsproject.org/materials/mp-669427,-57.26984868598456,-15.387464493156932,-8.13928536920979,2.2241420223781083
-7.8987703725,-94.78524447,11.146471393824509,-0.6697809208333337,0.318022975,0.02005921944899034,0.0,62,12,184.765930660312,1240.25278,mp-1102310,HfCoGe,https://materialsproject.org/materials/mp-1102310,46.73329827899405,51.84316110074207,-8.604250342815693,-0.5045126942092143
-5.3484666191666665,-64.18159943,5.3322949130936195,-1.6014391068750011,1.5e-07,1.4076317755205485e-08,0.0,59,12,124.18799762015142,398.7904,mp-27226,MgCu2O3,https://materialsproject.org/materials/mp-27226,-59.41854237485148,-0.5654327835811651,-8.604250342815693,-0.5045126942092143
-6.026387325,-84.36942255,4.3563196673967735,-0.8892794054166667,5.000150700000001,0.2247338515098807,0.0,12,14,259.29373674173735,680.2408,mp-1232268,Cr2AgS4,https://materialsproject.org/materials/mp-1232268,14.228821634351632,6.364281356035988,-8.604250342815693,-0.5045126942092143
-6.191836535,-891.62446104,4.126305560095027,-2.232739490555556,28.50000045,0.18874196551663394,0.0,1,144,1759.7615366202624,4372.86546,mp-1099907,Ca7MgFeCo7O20,https://materialsproject.org/materials/mp-1099907,-32.861649364939595,-16.163571341133572,-8.604250342815693,-0.5045126942092143
-3.188611555,-12.75444622,0.7325105108195765,1.926219825,0.8395845,0.01393570158809608,0.0,71,4,702.122679879652,309.72607719999996,mp-1093789,Al2CuIr,https://materialsproject.org/materials/mp-1093789,8.022196310822471,26.99320100388921,-8.604250342815693,-0.5045126942092143
-6.198016054642856,-520.63334859,3.3541517830680907,-2.1519131928061226,1.0000014333333334,0.01185609592465702,0.0,14,84,982.9611324653932,1985.500344,mp-758897,LiCuPO4,https://materialsproject.org/materials/mp-758897,-57.243698203598655,-15.229881868204513,-8.139285413675767,2.2241420317919967
-7.642380125833332,-91.70856151,9.420238885395463,-0.9012243641666671,0.5070295,0.02325179124096202,0.0,198,12,254.1290076692637,1441.674,mp-21441,CeSiIr,https://materialsproject.org/materials/mp-21441,7.94736767752101,45.977237887283714,-8.604250342815693,-0.5045126942092143
-7.2987146725,-29.19485869,8.847080191933355,-0.2360267987499993,2.1899999999999997e-05,3.150673184427936e-06,0.0,225,4,81.00618616379852,431.5877,mp-1187718,Y2CuOs,https://materialsproject.org/materials/mp-1187718,-8.625287887656073,55.27518701643492,-8.604250342815693,-0.5045126942092143
-3.903558942142858,-54.64982519,3.343987432669004,-2.3704814060609527,0.9999998,0.04477800956824511,0.6746,14,14,260.2630745340535,524.1168256,mp-1104293,K2AgF4,https://materialsproject.org/materials/mp-1104293,-4.180805146764972,-17.005611855767764,3.480381533564315,-1.0748418499138006
-6.733603782666666,-202.00811348,2.8911644371365566,-2.292832780916666,0.0,0.0,0.5818,148,30,481.1775456600289,837.7782,mp-556982,CuSiO3,https://materialsproject.org/materials/mp-556982,-59.142483330520975,-10.845146093881466,-8.604250342815693,-0.5045126942092143
-5.1830189425,-103.66037885,2.638327685068984,-0.8404491739519997,0.0,0.0,1.0407000000000002,59,20,353.3674083906554,561.4436000000002,mp-1246397,Ca5MgN4,https://materialsproject.org/materials/mp-1246397,24.911502807072512,-9.784679901005283,7.0394851965905785,-4.045921249935035
-4.086627779583334,-98.07906671,7.241368426841918,-0.6214449912500003,2.5e-08,5.391232532349604e-10,0.0,186,24,540.4174603224089,2356.68168,mp-18189,LiTmSn,https://materialsproject.org/materials/mp-18189,0.10854666447745943,44.968913990865815,-8.604250342815693,-0.5045126942092143
-2.28727896,-9.14911584,8.111787272056697,-0.08123940945833352,4.4e-06,4.582983610988539e-07,0.0,225,4,111.88755917938387,546.57436928,mp-1186185,NaTl2In,https://materialsproject.org/materials/mp-1186185,-36.96144332403931,47.60157932322486,-8.604250342815693,-0.5045126942092143
-6.126724019090909,-134.78792842,2.58385648907206,-1.2963133218309082,2.0000003,0.0800622195509036,2.0571,202,22,291.1252419940655,453.001,mp-22650,K2CaNi(NO2)6,https://materialsproject.org/materials/mp-22650,-2.9171624450559643,-24.262195079545478,8.514875176117974,-0.8241702394210735
-3.0933854625,-12.37354185,8.157352418372621,-0.12761441000000007,2.1000000000000002e-06,2.805835770127879e-07,0.0,216,4,87.22369385596626,428.48400000000004,mp-1206708,CeCd2Cu,https://materialsproject.org/materials/mp-1206708,-17.67007309900811,55.805598029279814,-8.604250342815693,-0.5045126942092143
-0.5178307228260869,-23.82021325,9.153238205039859,-0.12116087895802098,0.0483815,0.00036408880672389953,0.0,223,46,1548.6362787889166,8536.4068,mp-11026,Rb3Hg20,https://materialsproject.org/materials/mp-11026,-22.838325968445364,44.0462251913084,-8.604250342815693,-0.5045126942092143
-4.94379592,-29.66277552,7.102563925051293,-1.2604873091666668,0.0,0.0,0.0,129,6,186.7745344399388,798.8839999999999,mp-2550,NdTe2,https://materialsproject.org/materials/mp-2550,-10.240211268693175,24.309359367523452,-8.604250342815693,-0.5045126942092143
-3.9484105688,-98.71026422,2.7606475942272635,-1.3494528640699996,1.9999997999999999,0.06535157263793571,0.0,147,25,356.6574800493229,592.94336992,mp-778419,Na14Cu2O9,https://materialsproject.org/materials/mp-778419,-55.67464324106961,-3.0483080372784968,2.2069449680352147,-2.7373947035046995
-8.074204243333334,-72.66783819,6.959899001671486,-1.4672899483725923,4.2000000000000004e-06,4.0196787143113363e-07,0.0,71,9,121.76861765216093,510.3748,mp-29588,Nd3(BN2)2,https://materialsproject.org/materials/mp-29588,32.33258159256351,47.709107803390715,-1.3002686125505658,-2.4997794248529672
-5.591870485294117,-95.06179825,2.6585115989858856,-2.3316790698823526,1.0000009,0.03868550090343152,0.5100000000000002,2,17,301.251760712868,482.30199999999996,mp-560675,K6Cu(SiO4)2,https://materialsproject.org/materials/mp-560675,-52.32319815908265,-16.266489246059745,2.898344803845101,0.9771376914106455
-4.7787742975,-38.23019438,6.467528225118038,-1.1439179865234377,1e-07,4.743989154482075e-09,0.0,63,8,245.6595998232636,956.804,mp-4437,NdTe2Se,https://materialsproject.org/materials/mp-4437,-9.731131412566556,23.692624741535848,-8.604250342815693,-0.5045126942092143
-5.971927366,-59.71927366,6.094907816868014,-2.4611055462500007,0.9999998999999999,0.0690252155955502,0.0,225,10,168.83777191569558,619.7088,mp-1214698,Ba2CaBiO6,https://materialsproject.org/materials/mp-1214698,-9.418811393423333,-11.743588491352488,-6.133034622634505,-3.7254559981809616
-7.249408894,-36.24704447,8.643314578854921,-0.6773284028571425,0.0,0.0,0.0,115,5,71.21134802628455,370.66402400000004,mp-28056,P2Rh3,https://materialsproject.org/materials/mp-28056,33.83186760648215,52.44023969102639,-8.604250342815693,-0.5045126942092143
-5.613710425,-22.4548417,3.8013258965228673,-2.06331996815625,1.0,0.11740504150579616,0.01609999999999978,166,4,99.26375071367228,227.23576928,mp-1221073,NaCeS2,https://materialsproject.org/materials/mp-1221073,36.58646614284071,-8.687038590826875,8.246574492464022,-4.088691564576825
-5.665021142142857,-79.31029599,3.3187346981155486,-1.3122881711309529,1.0,0.04490132749700943,0.0,74,14,259.54833458623,518.7303899999998,mp-1247031,MgTiCoS4,https://materialsproject.org/materials/mp-1247031,18.234903379999935,10.159553945200887,-8.604250342815693,-0.5045126942092143
-7.2356582975,-28.94263319,6.431513766636419,-0.39796638083333397,1.2e-06,2.5415399983019323e-07,0.0,63,4,55.02521202269208,213.1208,mp-1067248,TiNi,https://materialsproject.org/materials/mp-1067248,32.6093159561374,71.68535121836415,-8.604250342815693,-0.5045126942092143
-1.5938707275,-57.37934619,4.399175421995159,-0.12579743305555546,0.0001155,1.9029781414821918e-06,0.0,194,36,707.3357554082241,1873.906,mp-1094707,Ca3Mg4Zn11,https://materialsproject.org/materials/mp-1094707,-0.5538997969474515,96.92624860178577,-8.604250342815693,-0.5045126942092143