energy_per_atom,energy,density,formation_energy_per_atom,total_magnetization_uB,total_magnetization_T,band_gap,sgr,num_sites,cell_volume,weight,mp_id,formula,URL,tsne_cry_lin1_0,tsne_cry_lin1_1,tsne_cry_lin2_0,tsne_cry_lin2_1
-8.2613488725,-33.04539549,11.799453388876287,-0.3099019899999993,0.0006077999999999999,0.0001389023572845087,0.05590000000000028,225,4,50.99510697470189,362.36088,mp-867507,TaGaFe2,https://materialsproject.org/materials/mp-867507,48.00625202641272,70.21988824884065,-8.604250342815693,-0.5045126942092143
-8.833038952499997,-105.99646743,15.396377412062392,-0.5683227474999993,6.163333333333333e-05,3.3354630165126038e-06,0.0,166,12,215.3460719724682,1996.6705500000005,mp-1095497,YIr3,https://materialsproject.org/materials/mp-1095497,31.56577590407623,64.23262239000749,-8.604250342815693,-0.5045126942092143
-6.003351404642857,-168.09383933,8.479268589334188,-0.2263714594642861,7.229075,0.2255816909919309,0.0,140,28,373.4705060735871,1907.0655100000001,mp-1193230,NdGa4Co9,https://materialsproject.org/materials/mp-1193230,40.1729106182656,77.55906227771565,-8.604250342815693,-0.5045126942092143
-7.379015963333334,-44.27409578,9.443771177144086,0.02915871333333205,3.09590715,0.3754214096323115,0.0,74,6,96.10507427178275,546.56609,mp-1225552,DyMnFe,https://materialsproject.org/materials/mp-1225552,42.368545416400146,72.18011310493654,-8.604250342815693,-0.5045126942092143
-7.81807553625,-62.54460429,8.256718211719475,-0.0552339362500005,10.8013998,1.31046380670551,0.0,187,8,96.057756238209,477.62913499999996,mp-1222054,Mn3Fe3Ge2,https://materialsproject.org/materials/mp-1222054,49.9754012451756,65.91934049647817,-8.604250342815693,-0.5045126942092143
-7.118090068333332,-42.70854041,8.009320968078672,0.11635766333333325,3.83682535,0.4269104290879849,0.0,227,6,104.74002999979058,505.1953,mp-2373,PrFe2,https://materialsproject.org/materials/mp-2373,43.08726310755118,70.05189316546281,-8.604250342815693,-0.5045126942092143
-6.5071957595,-260.28783038,7.622845001412905,-0.20135466775000027,15.710915599999998,0.2441485854901745,0.0,140,40,749.936878278523,3442.64871,mp-1203722,La6Co13Sb,https://materialsproject.org/materials/mp-1203722,42.76242741648645,80.90761056894888,-8.604250342815693,-0.5045126942092143
-7.05126084,-28.20504336,9.086506777125528,-0.3304590350000005,4.1116956,0.9687440344547624,0.0,225,4,49.46401231200183,270.668182,mp-867840,BeFeRh2,https://materialsproject.org/materials/mp-867840,39.6277402660745,69.60221661157391,-8.604250342815693,-0.5045126942092143
-5.311141498333334,-31.86684899,10.759963824375868,-0.061532651666666986,2.52418825,0.3276254514362164,0.0,227,6,89.7886694537257,581.81278,mp-281,YbCo2,https://materialsproject.org/materials/mp-281,43.56259659556506,75.76709659581087,-8.604250342815693,-0.5045126942092143
-8.318154513571429,-116.45416319,7.9577553504225875,-0.21202587814619075,23.307891899999998,1.5476572572563354,0.0,44,14,175.51152274888318,841.0990199999999,mp-1223838,HoTiFe11N,https://materialsproject.org/materials/mp-1223838,61.01713162396085,75.26765949434456,-8.604250342815693,-0.5045126942092143
-7.150989168333332,-42.90593501,8.241090395785562,0.07726326916666555,3.80122365,0.429518477373528,0.0,227,6,103.13806964248671,511.86400000000003,mp-1207,NdFe2,https://materialsproject.org/materials/mp-1207,43.346978008007504,70.03248942445262,-8.604250342815693,-0.5045126942092143
-8.717243236551724,-252.80005386,8.537532012037973,0.07396862517241379,46.894195200000006,1.5786571683197257,0.0,217,29,346.1853525167497,1779.885,mp-1193426,Fe25Mo4,https://materialsproject.org/materials/mp-1193426,52.99215250973153,72.41625094286373,-8.604250342815693,-0.5045126942092143
-3.9444169466666663,-11.83325084,4.842913766539163,-0.4258809999999998,0.0,0.0,0.0,139,3,51.95165865918693,151.5155,mp-12693,Mg2Rh,https://materialsproject.org/materials/mp-12693,36.562679064823975,53.93238260052357,-8.604250342815693,-0.5045126942092143
-6.966972853333334,-41.80183712,9.701045840428897,-0.24886888333333346,3.4e-06,4.4864801784395694e-07,0.0,227,6,88.31827769377199,515.96478,mp-1112,CeCo2,https://materialsproject.org/materials/mp-1112,42.693864072709175,74.18181353886376,-8.604250342815693,-0.5045126942092143
-5.666351766,-28.33175883,8.354129370997851,-0.3296806569999994,0.007747800000000001,0.000930278232756307,0.0,71,5,97.06059957708477,488.30939000000006,mp-1207243,Sm2GaCo2,https://materialsproject.org/materials/mp-1207243,24.286139090305085,71.8539125797021,-8.604250342815693,-0.5045126942092143
-6.351393670833333,-76.21672405,7.600998231715574,-0.40085527333333343,0.2597871,0.017433006188257653,0.0,166,12,173.66916857487985,794.9581499999998,mp-569196,YNi3,https://materialsproject.org/materials/mp-569196,29.199245044495683,81.51415533454201,-8.604250342815693,-0.5045126942092143
-6.086136248571428,-170.41181496,8.533216866333614,-0.2256400421428566,7.65302515,0.24137481149807705,0.0,140,28,369.50355445368797,1898.8135100000002,mp-1006277,CeGa4Co9,https://materialsproject.org/materials/mp-1006277,40.15150042683876,77.55334146691591,-8.998295342466708,-3.656321708369342
-6.074994807692307,-157.949865,8.755750596562171,-0.4510427,7.5e-07,2.8377621195198368e-08,0.0,129,26,308.0085014630724,1624.0784199999998,mp-542391,Tm(SiNi5)2,https://materialsproject.org/materials/mp-542391,27.14854870809237,77.79945258292078,-8.604250342815693,-0.5045126942092143
-7.489758565000002,-104.85661991,7.656016917412568,-0.4444124935714292,5.0840913,0.3115074178798824,0.0,136,14,190.20519550726783,876.9526999999998,mp-1208545,Tb(Fe2Si)2,https://materialsproject.org/materials/mp-1208545,48.22083271002501,67.77612964131846,-8.604250342815693,-0.5045126942092143
-5.818299048333333,-69.81958858,8.60267585842804,-0.28868632458333465,0.0009538999999999999,6.056209278407909e-05,0.0,166,12,183.56057189402713,950.96355,mp-1102445,PrNi3,https://materialsproject.org/materials/mp-1102445,28.27424641125757,81.45016614228237,-8.604250342815693,-0.5045126942092143
-6.534418473333332,-156.82604336,7.451443791199358,-0.210611070833334,3.6712752999999996,0.10752416595997684,0.0,164,24,397.9131552624577,1785.5813316,mp-1217643,TbAlFe2,https://materialsproject.org/materials/mp-1217643,42.35941557225605,70.5971796946885,-8.604250342815693,-0.5045126942092143
-7.8360812825,-31.34432513,11.38286840813443,0.02299909499999941,8.361424900000001,1.8420855243010117,0.0,166,4,52.89905712302326,362.619,mp-1224766,Fe3Pt,https://materialsproject.org/materials/mp-1224766,50.749974022713005,76.78327428204713,-8.604250342815693,-0.5045126942092143
-8.67412319,-43.37061595,7.987035483687353,0.021082278000000086,8.5834912,1.7472364137743817,0.0,69,5,57.25187595158097,275.3761,mp-1226230,CrFe4,https://materialsproject.org/materials/mp-1226230,52.28386310633972,69.98984871638098,-8.604250342815693,-0.5045126942092143
-6.558011825,-26.2320473,8.342296165436808,-0.2233847187500002,3.9172105000000004,0.9362397754970568,0.0,225,4,48.760398873797314,244.964845,mp-22029,MnNi2Ge,https://materialsproject.org/materials/mp-22029,34.976217642904864,72.93931120620447,-8.604250342815693,-0.5045126942092143
-8.49693491375,-679.7547931,8.550434394095182,-0.039284297625000866,66.45584325,0.7707547634433974,0.0,2,80,1004.8341424327118,5174.08396,mp-1217798,Th3Fe33C4,https://materialsproject.org/materials/mp-1217798,57.64029924025088,74.89453662652714,-8.604250342815693,-0.5045126942092143
-7.429131731666666,-44.57479039,8.516302485743855,0.2455587991666673,6.8688492,0.7901447195917316,0.0,216,6,101.31057198117672,519.58518,mp-1217499,TbPrMn4,https://materialsproject.org/materials/mp-1217499,42.39176327841568,72.45212289135823,-8.604250342815693,-0.5045126942092143
-5.90672364111111,-212.64205108,8.508849982099472,-0.3177260383333333,0.87583175,0.018986811986085497,0.0,194,36,537.5836634314659,2754.65896,mp-1679,La2Ni7,https://materialsproject.org/materials/mp-1679,28.30221514252615,81.14446604234135,-8.604250342815693,-0.5045126942092143
-7.12068186125,-56.96545489,7.639573809115862,0.00904317125000098,0.94490555,0.10162066339843404,0.0,198,8,108.36369410889748,498.5444,mp-20861,CrGe,https://materialsproject.org/materials/mp-20861,46.322711259592936,64.17546601132484,-8.604250342815693,-0.5045126942092143
-6.903090793333334,-41.41854476,8.156282708659989,-0.17482128208333356,7.636919099999999,1.0019299754642599,0.0,191,6,88.82971069206528,436.31629000000004,mp-1219013,SmMn2Ni3,https://materialsproject.org/materials/mp-1219013,29.45800097686966,80.47443841725199,-8.604250342815693,-0.5045126942092143
-7.518584029999999,-22.55575209,8.22453707475878,0.04738870999999989,5.638554599999999,1.9102064605552604,0.0,164,3,34.400512137789114,170.3834,mp-1224697,Fe2Ni,https://materialsproject.org/materials/mp-1224697,49.663294597598345,75.57101150938732,-8.604250342815693,-0.5045126942092143
-7.389462136666666,-44.33677282,8.27782539056454,0.03675922416666685,6.8593614,0.7900417875225849,0.0,216,6,101.18381497853427,504.40365,mp-1226526,CePrFe4,https://materialsproject.org/materials/mp-1226526,43.06492934746889,70.00757536914176,-8.604250342815693,-0.5045126942092143
-8.582382165,-17.16476433,16.309013335172462,0.07944671499999956,0.0791804,0.036535367095983685,0.0,166,2,25.256992981428823,248.062,mp-1224967,FeIr,https://materialsproject.org/materials/mp-1224967,49.82246309857602,77.54192370573544,-8.604250342815693,-0.5045126942092143
-6.3319724575,-25.32788983,7.175315989048983,-0.4361738612500004,7.2000000000000005e-06,1.5591729614267084e-06,0.0,225,4,53.816522245004364,232.545302,mp-867915,ScGaCo2,https://materialsproject.org/materials/mp-867915,44.10034937506419,47.65405315723563,-8.604250342815693,-0.5045126942092143
-7.7655670775,-31.06226831,8.713543671655856,-0.2496996875000006,2.07e-05,4.614631264613265e-06,0.09250000000000023,225,4,52.27701347275535,274.31937999999997,mp-977410,NbGaFe2,https://materialsproject.org/materials/mp-977410,46.61617969613869,70.65004207030061,-8.604250342815693,-0.5045126942092143
-7.1052300807142865,-99.47322113,8.881033646843932,-0.29776906857142954,6.49671255,0.3777951288880177,0.0,58,14,200.40784826752912,1071.838,mp-20480,Er(Fe2Ge)2,https://materialsproject.org/materials/mp-20480,48.26783734743329,67.65807511050608,-8.604250342815693,-0.5045126942092143
-6.1215941,-24.4863764,9.164800980249296,-0.03143118250000043,0.0024545,0.0006404094013706144,0.0,139,4,44.666586597615684,246.52258500000002,mp-1184006,GaCo3,https://materialsproject.org/materials/mp-1184006,38.130644929379756,77.8487950153133,-8.604250342815693,-0.5045126942092143
-7.497224945,-29.98889978,7.179655188320385,-0.08499739500000114,1.6337992000000001,0.3619451426839112,0.0,35,4,52.605766611390344,227.451,mp-1216782,V2GaFe,https://materialsproject.org/materials/mp-1216782,56.204287980731436,55.77435393368068,-8.604250342815693,-0.5045126942092143
-6.079653780666666,-182.38961342,9.3774042701586,-0.2973953673333322,5.11349485,0.11735687686661984,0.0,186,30,507.7929967732518,2867.61112,mp-1213577,Dy3(Co2Sn)4,https://materialsproject.org/materials/mp-1213577,25.950287448444467,72.82738023716126,-8.604250342815693,-0.5045126942092143
-6.401811481666666,-230.46521334,6.538437714259317,-0.6096058647222217,1.5e-07,3.854706762159623e-09,0.0,194,36,453.50005168864374,1785.6742719999993,mp-27918,Sc3Si4Ni11,https://materialsproject.org/materials/mp-27918,36.78070573485833,71.93298185832464,-8.604250342815693,-0.5045126942092143
-7.3205636625,-29.28225465,7.351603443793915,-0.2897548162500003,4.5737135,1.1890138230065876,0.0,216,4,44.82904432965148,198.4689,mp-1207121,Fe2SiNi,https://materialsproject.org/materials/mp-1207121,47.424937643111036,69.37644679331704,-8.604250342815693,-0.5045126942092143
-7.5919832825,-30.36793313,6.536482272405778,-0.13522973750000045,6.9114121,1.6376170932058272,0.0,216,4,49.184906909816455,193.60958359999998,mp-1221620,MnAlFe2,https://materialsproject.org/materials/mp-1221620,46.87001826404801,69.70538416039167,-8.604250342815693,-0.5045126942092143
-7.61996792,-30.47987168,11.562144231736895,-0.3434393024999993,1.9923903000000003,0.4386920094095935,0.0,225,4,52.928809074204814,368.53727000000003,mp-30555,TaGaCo2,https://materialsproject.org/materials/mp-30555,44.461136315635656,46.60783462373704,-8.604250342815693,-0.5045126942092143
-6.588635689166666,-79.06362827,8.864801433725232,-0.5019111108333322,2.6234006,0.13761295594944362,0.0,62,12,222.16861999537315,1186.04902,mp-20114,TmMnGe,https://materialsproject.org/materials/mp-20114,24.852613321638994,69.07635118043068,-8.604250342815693,-0.5045126942092143
-5.7072224316666675,-102.73000377,8.834156959446826,-0.3707582633333328,0.6973444000000001,0.030329806748161638,0.0,191,18,267.9508271800765,1425.5128049999996,mp-644529,TbGa2Co3,https://materialsproject.org/materials/mp-644529,39.92245906088832,77.43188731836248,-8.604250342815693,-0.5045126942092143
-9.258750135,-37.03500054,13.766621038243766,-0.562742536666665,4.9017441,0.9719954814518584,0.0,225,4,58.77109958843121,487.239045,mp-1187499,TiMnIr2,https://materialsproject.org/materials/mp-1187499,62.99069379020553,55.51915883144428,-8.604250342815693,-0.5045126942092143
-6.029590095789473,-229.12442364,8.222018942131216,-0.2720570436842108,0.14270045,0.003383619571207945,0.0,194,38,491.4974193684882,2433.6079999999997,mp-1202894,Ce2Si2Ni15,https://materialsproject.org/materials/mp-1202894,29.847244511489524,80.26927192643019,-8.604250342815693,-0.5045126942092143
-5.879116453611112,-423.29638466,8.273816625284573,-0.22450552868055634,4.18631345,0.05408773209113802,0.0,129,72,902.0080195326108,4494.3532,mp-1199358,Nd3Si4Ni29,https://materialsproject.org/materials/mp-1199358,30.107702430078284,80.48915151483766,-8.604250342815693,-0.5045126942092143
-7.807999768333333,-46.84799861,7.777481374270426,0.036041885416666496,10.6149866,1.3682554755545164,0.0,191,6,90.41275083961773,423.467,mp-11382,NdFe5,https://materialsproject.org/materials/mp-11382,51.64589461018584,70.49716155515179,-8.604250342815693,-0.5045126942092143
-7.4659267570833325,-179.18224217,6.537662686861061,-0.2953003754166659,0.0053693333333333345,0.0001924446084246357,0.0,44,24,325.1562045014925,1280.16357,mp-1217222,Ti2CoNi,https://materialsproject.org/materials/mp-1217222,62.06255075030614,55.32966826246477,-8.604250342815693,-0.5045126942092143
-7.172085849999998,-43.032515100000005,11.031628151987702,-0.2884023841666661,8e-07,9.08467804769021e-08,0.0,191,6,102.62611144946628,681.7865,mp-1805,ErRh5,https://materialsproject.org/materials/mp-1805,32.245793272940375,65.38617105076219,-8.604250342815693,-0.5045126942092143
-8.227793421904764,-172.78366186,7.845806344658558,-0.11218538505381134,37.4240393,1.6148457932519813,0.0,2,21,270.08286480080244,1276.1024,mp-1219260,Sm2Fe17CN,https://materialsproject.org/materials/mp-1219260,60.65688268355292,75.26857638039826,-8.604250342815693,-0.5045126942092143
-6.527190278714286,-456.90331951,6.159785242736862,-0.764838056285715,0.00634235,8.384064553495089e-05,0.0,71,70,881.6029175184627,3270.3143440000003,mp-570147,Sc6Si11Ni18,https://materialsproject.org/materials/mp-570147,36.913066763447134,71.87808452274028,-8.604250342815693,-0.5045126942092143
-6.4268602816666665,-38.56116169,8.760788588397412,-0.04466687750000039,1.1802294,0.14130598068436395,0.0,227,6,97.33820046019642,513.54372,mp-568769,LaCo2,https://materialsproject.org/materials/mp-568769,41.97522406726181,74.73356033308897,-8.604250342815693,-0.5045126942092143
-5.90747346,-212.66904456,9.564253338930387,-0.3849484888888889,1.3509768,0.03111113508321874,0.0,194,36,506.0686822036876,2914.8179999999998,mp-1197090,Tb2Ni7,https://materialsproject.org/materials/mp-1197090,28.72797491024213,81.58824760879297,-8.604250342815693,-0.5045126942092143
-5.7961667100000005,-139.10800104,9.91574928467026,-0.5001865866666672,6.235e-05,2.1239869224213757e-06,0.0,194,24,342.10706803256926,2042.8594772,mp-1191769,Lu3AlNi8,https://materialsproject.org/materials/mp-1191769,26.825205890707952,80.67748384715473,-8.604250342815693,-0.5045126942092143
-6.6582229225,-26.63289169,8.568649585712233,0.1068582599999992,0.5114618,0.1279725050927356,0.0,216,4,46.57726237030837,240.346195,mp-1224895,GaFe2Co,https://materialsproject.org/materials/mp-1224895,44.57431446036994,47.418502500424346,-8.604250342815693,-0.5045126942092143
-8.01272791,-32.05091164,13.370009947725912,0.12394057624999988,2.0152726000000003,0.5152200968947729,0.0,139,4,45.584629862684714,367.029585,mp-1183718,Co3Os,https://materialsproject.org/materials/mp-1183718,47.579278184807244,79.03518656610488,-8.604250342815693,-0.5045126942092143
-6.059451665,-36.35670999,10.43693989439364,0.09004820166666623,3.49433695,0.4494724489935395,0.0,227,6,90.60228106002113,569.46,mp-1665,YbFe2,https://materialsproject.org/materials/mp-1665,50.94895593122797,74.65839117690352,-8.604250342815693,-0.5045126942092143
-7.2558568625,-29.02342745,9.8111619083857,-0.5349084249999994,4.1019795,0.8546878642393743,0.0,225,4,55.93238981023281,330.47204500000004,mp-864949,MnGaRh2,https://materialsproject.org/materials/mp-864949,36.300368424519505,53.83733079778634,-8.604250342815693,-0.5045126942092143
-7.990887533544305,-631.28011515,7.234520177192639,0.07760662717299521,140.889434,1.8434574131676773,0.0,229,79,890.6821377467462,3880.46155,mp-28618,Y3(Fe31B7)2,https://materialsproject.org/materials/mp-28618,56.226972901856186,78.03627378362518,-8.604250342815693,-0.5045126942092143
-6.80011845125,-54.40094761,12.547963237878148,0.053371529999999716,2.7683259999999996,0.3322393297524186,0.0,47,8,97.10545268557637,733.7832,mp-1224927,Fe3Ni3Pt2,https://materialsproject.org/materials/mp-1224927,36.95230479663407,81.16154850592137,-8.604250342815693,-0.5045126942092143
-7.399708187857143,-103.59591463,7.316149242866506,-0.3208224678571422,8.06664225,0.4526057743216971,0.0,58,14,207.7065221261364,915.1317,mp-1207830,Y(Fe2Ge)2,https://materialsproject.org/materials/mp-1207830,48.14270074553188,67.68209019095914,-8.604250342815693,-0.5045126942092143
-6.0861135903333325,-182.58340771,9.216263774756015,-0.29945101899999904,5.8239029,0.13235414792229466,0.0,186,30,512.8070611398299,2846.16322,mp-1208609,Tb3(Co2Sn)4,https://materialsproject.org/materials/mp-1208609,25.957978619165893,72.83096764355994,-8.604250342815693,-0.5045126942092143
-7.7984957516666675,-46.79097451,9.470103317963616,-0.05780164999999945,7.008911599999999,0.9058757425639758,0.0,191,6,90.16944149575384,514.238995,mp-1217318,ThMn3Ni2,https://materialsproject.org/materials/mp-1217318,30.365764176012522,81.6180647256777,-8.604250342815693,-0.5045126942092143
-9.10483794137931,-264.0403003,7.784479818862043,0.11116216189655123,5.6962294,0.14420632455755975,0.0,160,29,460.34198978881585,2158.047985,mp-1221132,Pr3Gd3Mn23,https://materialsproject.org/materials/mp-1221132,56.111988296376325,68.22780486939678,-8.604250342815693,-0.5045126942092143
-8.114757580000001,-97.37709096,7.396003105907707,-0.16466327499999994,5.4490717,0.4119881570263177,0.0,164,12,154.139951498813,686.5358372000002,mp-1220454,NbAlFe4,https://materialsproject.org/materials/mp-1220454,54.76972973831798,62.41354892693202,-8.604250342815693,-0.5045126942092143
-7.6992149275,-30.79685971,11.011875741113787,-0.6044664474999992,4.333402700000001,0.7686261146698727,0.0,225,4,65.70392911132835,435.716045,mp-1185505,LuMnRh2,https://materialsproject.org/materials/mp-1185505,34.47769109682601,57.73166733247756,-8.604250342815693,-0.5045126942092143
-5.907800218888888,-106.34040394,9.586499987485213,-0.3852752477777778,1.30371145,0.06018502506653608,0.0,166,18,252.4471438905421,1457.4089999999999,mp-1189379,Tb2Ni7,https://materialsproject.org/materials/mp-1189379,28.725166598943805,81.6006080214426,-8.604250342815693,-0.5045126942092143
-7.6366747475,-30.54669899,6.587639935998151,-0.2426122045833337,0.0569275,0.011786046603698985,0.0,216,4,56.29001773433308,223.312045,mp-1018015,Ti2MnGe,https://materialsproject.org/materials/mp-1018015,50.48546522304654,60.75622876234292,-8.604250342815693,-0.5045126942092143