energy_per_atom,energy,density,formation_energy_per_atom,total_magnetization_uB,total_magnetization_T,band_gap,sgr,num_sites,cell_volume,weight,mp_id,formula,URL,tsne_cry_lin1_0,tsne_cry_lin1_1,tsne_cry_lin2_0,tsne_cry_lin2_1
-7.943707313666668,-238.31121941,7.272788959955762,-0.18488151766666666,0.0077069,0.0002426354700265306,0.0,10,30,370.1714006852312,1621.2678,mp-1216708,V3Ni2,https://materialsproject.org/materials/mp-1216708,55.83377902326951,55.49729162457414,-8.604250342815693,-0.5045126942092143
-6.5595005375,-26.23800215,8.627407041806284,-0.2899018987499993,0.00020390000000000002,3.654937545930968e-05,0.0,225,4,65.01516858394501,337.789302,mp-1185510,LuScCo2,https://materialsproject.org/materials/mp-1185510,31.148070184650468,59.30068929522685,-8.604250342815693,-0.5045126942092143
-7.495841507142857,-104.9417811,7.989042751726577,-0.4718220671428576,4.01120895,0.2507380515004478,0.0,136,14,186.4371547909539,896.9704199999999,mp-1104799,Tm(Fe2Si)2,https://materialsproject.org/materials/mp-1104799,48.23244162119813,67.72674271054485,-8.604250342815693,-0.5045126942092143
-5.7147428200000014,-34.28845692,8.426674181486652,-0.4748776725000005,5.6e-06,7.761840674507981e-07,0.0,187,6,84.08155418685044,426.6854586,mp-1224123,HoAlNi4,https://materialsproject.org/materials/mp-1224123,24.725556070905963,79.86387740820045,-8.604250342815693,-0.5045126942092143
-5.860940625,-23.4437625,7.496089699348672,-0.8493621299999994,2.3e-06,4.7064454458108176e-07,0.0,225,4,56.952426805978824,257.0975386,mp-865155,MgAlRh2,https://materialsproject.org/materials/mp-865155,37.0735406910112,53.81839714539961,-8.604250342815693,-0.5045126942092143
-6.849663345714285,-47.94764342,7.858763993200963,-0.4006586861904761,1.0000046,0.10815682558636608,0.0,160,7,107.75203800662143,509.953585,mp-1217124,Ti2Co3Sn2,https://materialsproject.org/materials/mp-1217124,45.39662382361478,45.60681724145393,-8.604250342815693,-0.5045126942092143
-7.96037669625,-63.68301357,12.068534559135893,-0.3298855862500005,5e-08,5.926917980023377e-09,0.0,38,8,98.31471273805046,714.53575,mp-1218015,TaCoNi2,https://materialsproject.org/materials/mp-1218015,37.046830744317425,81.93364716059584,-8.604250342815693,-0.5045126942092143
-5.169838638888889,-93.0570955,8.570105804360244,-0.3581072488888889,0.00096025,4.098994765870765e-05,0.01049999999999951,166,18,273.0136615696102,1409.0339999999999,mp-17587,Ce2Zn2Ni5,https://materialsproject.org/materials/mp-17587,28.213089916608855,80.47806859557711,-8.604250342815693,-0.5045126942092143
-6.390866263333333,-38.34519758,4.646046264742207,-0.10158340999999993,0.000396,4.892002609408809e-05,0.0,63,6,94.33784113396773,263.94921400000004,mp-1024998,ScCoSi,https://materialsproject.org/materials/mp-1024998,34.94069186642673,68.74280918796654,-8.604250342815693,-0.5045126942092143
-7.7758614475,-31.10344579,5.928447089530134,-0.3053034283333336,0.00015659999999999998,3.2137223890403396e-05,0.0,225,4,56.78855614930152,202.746182,mp-1187423,Ti2BeTc,https://materialsproject.org/materials/mp-1187423,39.757306256995065,69.5131796347707,-8.604250342815693,-0.5045126942092143
-6.097789825,-36.58673895,7.836469145021715,-0.5472167154166669,4.54e-05,6.133414873128479e-06,0.0,65,6,86.26426739731274,407.1011,mp-1070857,NdSiNi4,https://materialsproject.org/materials/mp-1070857,26.036016008888307,78.56473961317981,-8.604250342815693,-0.5045126942092143
-5.7133149366666665,-34.27988962,8.476670498126953,-0.4752248875000002,7.699999999999999e-06,1.0677578154427462e-06,0.0,187,6,84.04180934185008,429.0141386,mp-1225616,ErAlNi4,https://materialsproject.org/materials/mp-1225616,24.726530098603238,79.86794306060038,-8.604250342815693,-0.5045126942092143
-7.504843838333334,-45.02906303,9.535006740623752,0.13190661583333352,4.703605400000001,0.5752386023387474,0.0,216,6,95.29284330588324,547.1825,mp-1225530,DyHoMn4,https://materialsproject.org/materials/mp-1225530,42.328256114614994,72.31511678955002,-8.604250342815693,-0.5045126942092143
-7.5029394925,-90.03527391,7.744418698515962,0.1915918716666667,2.559341525,0.1368515848497501,0.0,63,12,217.9494811126856,1016.47236,mp-1102507,NdMn2,https://materialsproject.org/materials/mp-1102507,55.51988526895277,68.75379338836528,-8.604250342815693,-0.5045126942092143
-6.16149923975,-246.45996959,6.755176675770763,-0.5244184857499995,1.25e-08,3.1895330638198575e-10,0.0,63,40,456.7308340818123,1858.0096,mp-29667,Si2Ni3,https://materialsproject.org/materials/mp-29667,36.82445254132662,72.1761143925025,-8.604250342815693,-0.5045126942092143
-8.71607489,-17.43214978,8.733744707744183,0.0934651750000004,0.1266418,0.07007007893558417,0.0,123,2,21.06308088321616,110.783045,mp-1009134,MnFe,https://materialsproject.org/materials/mp-1009134,52.771478776129996,69.54458938956803,-8.604250342815693,-0.5045126942092143
-6.00381310875,-48.03050487,6.309812523312745,-0.4020262862500008,3.7000000000000006e-06,4.7203302537215175e-07,0.0,198,8,91.3496245828879,347.1156,mp-1095177,SiNi,https://materialsproject.org/materials/mp-1095177,36.85131865944227,72.39351833329376,-8.604250342815693,-0.5045126942092143
-7.08648075,-14.1729615,5.682769935824262,-0.3652150525,5e-07,1.919501263617745e-07,0.0,221,2,30.357012504891266,103.889107,mp-2212,ScCo,https://materialsproject.org/materials/mp-2212,31.155183114251518,59.27604318132036,-8.604250342815693,-0.5045126942092143
-7.21726277375,-173.21430657,10.587364348121124,-0.5279720568749996,4.8916666666666665e-05,1.3195830817338301e-06,0.0,194,24,432.01372439695626,2754.4590000000003,mp-1191108,SmRh3,https://materialsproject.org/materials/mp-1191108,32.0781389278814,65.26856777843635,-8.604250342815693,-0.5045126942092143
-8.873500045,-17.74700009,7.331956169660039,-0.1039819400000006,1.3126162000000001,0.6325132164591578,0.0,65,2,24.184971662641825,106.7865,mp-1216347,VFe,https://materialsproject.org/materials/mp-1216347,56.34514870343575,55.851040497882025,-8.604250342815693,-0.5045126942092143
-6.07876834,-109.41783012,8.47094352069417,-0.3693419986574082,1.1328114,0.055322006273271836,0.0,191,18,238.63663522037427,1217.3622,mp-3071,Nd3Ni13B2,https://materialsproject.org/materials/mp-3071,30.351469558321835,84.90489338834959,-8.604250342815693,-0.5045126942092143
-6.0921012480000005,-182.76303744,8.824895747004922,-0.28766179316666673,6.34643985,0.14064420485242182,0.0,186,30,525.8789095836711,2794.77112,mp-1209183,Sm3(Co2Sn)4,https://materialsproject.org/materials/mp-1209183,25.901945452314692,72.81956053799651,-8.604250342815693,-0.5045126942092143
-7.7848997475,-31.13959899,5.514771435643906,-0.36504906208333393,1.9999982,0.4308471119798573,0.0,216,4,54.09832843185562,179.6645,mp-1094030,Ti2FeSi,https://materialsproject.org/materials/mp-1094030,42.46137149431582,64.07270427380654,-8.604250342815693,-0.5045126942092143
-7.177359885,-287.0943954,7.543472366225925,-0.05829178650000131,26.03950335,0.38753997669240653,0.0,140,40,783.057431329332,3557.2618,mp-582984,Pr6Fe13Pb,https://materialsproject.org/materials/mp-582984,53.7417687405118,81.31802518561541,-8.604250342815693,-0.5045126942092143
-5.820558908333332,-34.92335345,8.62235107612544,-0.4742226083333338,3.5799999999999996e-05,4.872538727073326e-06,0.0,65,6,85.62590103993614,444.6126,mp-1226588,CeGaNi4,https://materialsproject.org/materials/mp-1226588,25.448832760177414,79.62401430005522,-8.604250342815693,-0.5045126942092143
-8.173244541666667,-49.03946725,7.1071531135756905,-0.04548812500000091,9.839768199999998,1.3332348670926517,0.0,191,6,86.01132387111807,368.13085,mp-11385,YFe5,https://materialsproject.org/materials/mp-11385,51.43401290298944,70.23563369540514,-8.604250342815693,-0.5045126942092143
-7.6451511483333325,-45.87090689,11.163250810464266,-0.26131990000000016,0.9904755999999999,0.11977421754203965,0.0,74,6,96.37355212935049,647.8872872000002,mp-1216294,UAlCo,https://materialsproject.org/materials/mp-1216294,25.896674429014826,65.05021672800311,-8.604250342815693,-0.5045126942092143
-7.580514530833334,-90.96617437,9.50347150575254,0.018377732500000597,1.74124185,0.10413600329512604,0.0,194,12,194.8657972505599,1115.2412,mp-30786,TmMn2,https://materialsproject.org/materials/mp-30786,42.322621034705016,72.29170239608725,-8.604250342815693,-0.5045126942092143
-7.000254320000002,-35.0012716,7.599806473475366,-0.07525731600000114,5.706921400000001,0.9730724827213604,0.0,187,5,68.34930884234228,312.815,mp-1225197,Fe3Ge2,https://materialsproject.org/materials/mp-1225197,49.06754651857172,67.85151898367971,-8.604250342815693,-0.5045126942092143
-8.025880220416667,-192.62112529,6.9905297935318895,-0.06416103041666688,5.729015866666668,0.18267536971076065,0.0,194,24,365.4916483753125,1538.6451000000004,mp-1192321,YFe3,https://materialsproject.org/materials/mp-1192321,43.02210342912582,69.44573440003504,-8.604250342815693,-0.5045126942092143
-6.81681121,-20.45043363,9.925807188767898,-0.8290266438888891,1.3e-06,2.504008767712864e-07,0.7977999999999996,216,3,60.50411803536022,361.661,mp-30847,TiSnPt,https://materialsproject.org/materials/mp-30847,30.624194699208086,53.251620528696854,-8.604250342815693,-0.5045126942092143
-6.70878442,-26.83513768,6.9448808509348785,-0.09727906999999993,4.5021805,1.1118495766126006,0.0,225,4,47.19046916814786,197.3649386,mp-31186,AlFe2Ni,https://materialsproject.org/materials/mp-31186,35.228849042753616,77.54326702589726,-8.604250342815693,-0.5045126942092143
-6.57156908,-19.71470724,4.672358276258882,0.23409789055555544,3.8688086999999998,0.7534712756771252,0.0,216,3,59.83950369166182,168.37400000000002,mp-1008727,Ti2Ge,https://materialsproject.org/materials/mp-1008727,45.64901403379203,68.36113657275891,-8.604250342815693,-0.5045126942092143
-7.3460255725,-29.38410229,8.508788671010013,-0.06863066000000018,2.0538547,0.5189293849460657,0.0,225,4,46.125265597965495,236.35104500000003,mp-1018046,MnGaFe2,https://materialsproject.org/materials/mp-1018046,47.274374153533316,69.73220177286188,-8.604250342815693,-0.5045126942092143
-7.072408064090909,-155.59297741,6.094944700635406,-0.6636357781818186,0.00013959999999999998,4.5906233484715374e-06,0.0,72,22,354.3979365658516,1300.8039999999999,mp-1365,Ti6Ge5,https://materialsproject.org/materials/mp-1365,42.3644348477656,64.07621677876935,-8.604250342815693,-0.5045126942092143
-8.582420225,-34.3296809,10.030919920813322,-0.6404012408333344,1.4169433,0.2875656843196349,0.0,225,4,57.423920508156996,346.88419500000003,mp-861639,Ti2CoIr,https://materialsproject.org/materials/mp-861639,62.93232553901349,55.22397893150365,-8.604250342815693,-0.5045126942092143
-8.017341943125,-128.27747109,4.7531995778934215,-0.7516239137500005,4.31e-05,2.180165030119025e-06,0.0,193,16,230.3909037885542,659.4810000000001,mp-1217138,Ti3V2Si3,https://materialsproject.org/materials/mp-1217138,50.13239834014762,60.52700687146051,-8.604250342815693,-0.5045126942092143
-7.5454466825,-30.18178673,6.770563113592293,-0.6598383829166661,1.9999997999999999,0.49032832051200503,0.0,225,4,47.53575561364249,193.81888999999998,mp-3657,TiCo2Si,https://materialsproject.org/materials/mp-3657,47.00944444759041,48.59536820768454,-8.604250342815693,-0.5045126942092143
-5.968428513076924,-77.58957067,8.265382480622911,-0.31296244346153823,10.9156611,0.6895069201222521,0.0,71,13,184.49680167409352,918.3383199999997,mp-1104739,Ho(GaFe)6,https://materialsproject.org/materials/mp-1104739,46.84914752464685,71.3505168481167,-8.604250342815693,-0.5045126942092143
-7.540429495,-30.16171798,11.17988450279977,-0.17850666000000004,0.0001079,2.052659767078309e-05,0.0,225,4,61.26069254765192,412.44888,mp-861976,PaGaFe2,https://materialsproject.org/materials/mp-861976,43.54820477099005,64.35726361128347,-8.604250342815693,-0.5045126942092143
-6.0555939325,-24.22237573,6.181229560334487,-0.4538071100000005,8e-07,1.9996273143067007e-07,0.0,59,4,46.62494731564646,173.5578,mp-999192,SiNi,https://materialsproject.org/materials/mp-999192,36.86714738860415,72.3560334784004,-8.604250342815693,-0.5045126942092143
-7.71006221,-23.13018663,7.177316514690276,-0.2617359083333343,2.3242571,0.8376132670965474,0.0,139,3,32.33836408223888,139.7755,mp-1225177,Fe2Si,https://materialsproject.org/materials/mp-1225177,49.15190526865647,67.6899228364735,-8.604250342815693,-0.5045126942092143
-7.7742796253125,-248.77694801,4.355363054153469,-0.4951048190625009,0.0003406875,7.581982277894863e-06,0.0,86,32,523.6617610907698,1373.4920000000002,mp-980420,Ti3Si,https://materialsproject.org/materials/mp-980420,42.35900990500243,64.17269106819771,-8.604250342815693,-0.5045126942092143
-5.764750335833334,-138.35400806,9.030185369494273,-0.4433712450000004,0.0021809999999999998,7.100710594632004e-05,0.0,194,24,357.9573470881609,1946.6095771999999,mp-1191846,Tb3AlNi8,https://materialsproject.org/materials/mp-1191846,26.93811970554005,80.70821676798234,-8.604250342815693,-0.5045126942092143
-8.297315656363638,-182.54094444,8.029425461326763,-0.08147588755681894,34.7231745,1.5014304875070617,0.0,166,22,269.5203861244291,1303.2478,mp-1191539,Tb2Fe17C3,https://materialsproject.org/materials/mp-1191539,57.85168345089018,74.79649852419743,-8.604250342815693,-0.5045126942092143
-5.263794360833333,-63.16553233,7.473171141714254,-0.2696837485416672,0.23578360000000004,0.017005392440726817,0.0,166,12,161.58623544178914,727.2106,mp-569494,SmMg2Ni9,https://materialsproject.org/materials/mp-569494,31.74272874514291,73.04065325136864,-8.604250342815693,-0.5045126942092143
-6.10213628125,-146.45127075,8.133726747474816,-0.4671330960416664,1.005e-05,3.9367049507936466e-07,0.0,141,24,297.5162030891155,1457.3072,mp-1190833,NdSi2Ni9,https://materialsproject.org/materials/mp-1190833,26.64873821294462,77.94680128180602,-8.604250342815693,-0.5045126942092143
-6.558175139375,-104.93080223,8.250204337601144,-0.26350895281249986,15.039812,0.9044352993404834,0.0,166,16,193.79489427594376,962.848472,mp-1219338,ScGa4Fe3Co8,https://materialsproject.org/materials/mp-1219338,44.43616494823009,47.2814144337364,-8.604250342815693,-0.5045126942092143
-8.710090285517241,-252.59261828,10.667956819970502,-0.39647333982758703,1.4e-06,4.162282402959638e-08,0.015599999999999168,216,29,391.9890363513565,2518.29196,mp-1125186,U6Fe16Si7,https://materialsproject.org/materials/mp-1125186,49.948734562979745,64.07329155460799,-8.604250342815693,-0.5045126942092143
-6.496815623636365,-71.46497186,8.908235736282675,-0.4938572704545459,7.988993700000001,0.4917443691024387,0.0,71,11,189.33465413607232,1015.717,mp-1103481,Er3(FeGe)4,https://materialsproject.org/materials/mp-1103481,18.17297896908438,74.27453066346769,-8.604250342815693,-0.5045126942092143
-9.1202774025,-36.48110961,11.465982878314664,-0.6684391749999978,4.7271532,0.8660408242915326,0.0,225,4,63.61195458387291,439.239045,mp-865091,HfMnRh2,https://materialsproject.org/materials/mp-865091,33.77060621605422,57.55805054100295,-8.604250342815693,-0.5045126942092143
-5.81263492625,-139.50323823,10.044828054643542,-0.5166548029166668,7.75e-06,2.6744473509286365e-07,0.0,194,24,337.7108992479383,2042.8594772,mp-1192322,Lu3AlNi8,https://materialsproject.org/materials/mp-1192322,26.785787486482977,80.74231310134171,-8.604250342815693,-0.5045126942092143
-6.498491265454546,-71.48340392,8.792456665989253,-0.4926282059090904,8.0724337,0.4938189025399777,0.0,71,11,190.50843280422544,1008.73096,mp-1206899,Ho3(FeGe)4,https://materialsproject.org/materials/mp-1206899,18.178029730619173,74.27011743737854,-8.604250342815693,-0.5045126942092143
-6.17652612125,-49.41220897,8.892174293080533,-0.0863632037500004,3.76061235,0.4760013263838938,0.0,194,8,92.07205417751722,493.04517000000004,mp-1184009,GaCo3,https://materialsproject.org/materials/mp-1184009,38.101892076531506,77.8661480773785,-8.604250342815693,-0.5045126942092143
-7.216349446875,-115.46159115,7.956471539005653,-0.06946231531249936,29.9770269,1.7206928278510956,0.0,166,16,203.03113230131768,972.823515,mp-1221903,Mn7Ni8Sn,https://materialsproject.org/materials/mp-1221903,34.75264979966217,73.19581709370254,-8.604250342815693,-0.5045126942092143
-8.455141255,-50.73084753,17.712087009114246,-0.07956497500000026,0.0002745,3.098659284607997e-05,0.0,216,6,103.23951381031999,1101.201,mp-1077075,CeIr5,https://materialsproject.org/materials/mp-1077075,31.266998548338453,63.97937396858722,-8.604250342815693,-0.5045126942092143
-8.29606593875,-66.36852751,7.243746992921205,-0.4300143875000009,3.9988980000000005,0.5274554786311677,0.0,166,8,88.35516588395822,385.430545,mp-1221563,MnV(Fe2Si)2,https://materialsproject.org/materials/mp-1221563,49.91596903728846,65.90225434478782,-8.604250342815693,-0.5045126942092143
-6.84309357375,-109.48949718,8.352255980776555,-0.26580599156249995,20.828556699999996,1.309871744924811,0.0,166,16,185.3138292670522,932.10006,mp-1225352,Ga3Fe4Co8Si,https://materialsproject.org/materials/mp-1225352,44.68638170734237,47.270214867503356,-8.604250342815693,-0.5045126942092143
-8.23659251,-32.94637004,13.084512712784418,-0.8933714316666661,0.4952394,0.09901959482761297,0.0,225,4,58.286968913289506,459.2825386,mp-1187464,TiAlIr2,https://materialsproject.org/materials/mp-1187464,42.13984637448277,52.54519172170551,-8.604250342815693,-0.5045126942092143
-9.151051262272727,-201.32312777,7.984511001286196,-0.07558023346591111,20.8050371,0.8968838015033127,0.0,166,22,270.3396466214491,1299.8971,mp-1191346,Gd2Fe17C3,https://materialsproject.org/materials/mp-1191346,57.84856705935485,74.79476418339412,-8.604250342815693,-0.5045126942092143
-6.3055233438461515,-81.97180347,7.385856139303987,-0.14400046615384535,9.839853100000001,0.6414063167639625,0.0,191,13,178.78571255492076,795.215,mp-20673,Mg(FeGe)6,https://materialsproject.org/materials/mp-20673,49.031763979892425,66.63565297013044,-8.604250342815693,-0.5045126942092143
-5.789568872916668,-138.94965295,9.59271455687638,-0.5055113870833333,1e-07,3.3550227748235122e-09,0.0,194,24,347.3617186748529,2006.6627372,mp-1192029,Tm3AlNi8,https://materialsproject.org/materials/mp-1192029,26.871517189090323,80.98581777419807,-8.604250342815693,-0.5045126942092143
-4.993828405,-9.98765681,3.1784941674878486,3.869998485,0.7090475,0.04114369534609857,0.0,51,2,200.83965288754945,384.434,mp-1060567,Ir,https://materialsproject.org/materials/mp-1060567,43.65677979356565,80.85850264992717,-8.604250342815693,-0.5045126942092143
-5.815070095,-46.52056076,13.124686518040953,-0.4752825424999996,1.725e-06,1.483744353287122e-07,0.0,62,8,135.49006395965878,1070.896,mp-542640,GePt,https://materialsproject.org/materials/mp-542640,49.01902897118258,58.743899301093656,-8.604250342815693,-0.5045126942092143
-8.19658823,-32.78635292,14.173838780103171,-0.5378366749999994,4.156244999999999,0.886546760995609,0.0,123,4,54.63575140270268,466.3535836,mp-1221720,MnAlIr2,https://materialsproject.org/materials/mp-1221720,42.31066312215415,52.28006663118056,-8.604250342815693,-0.5045126942092143
-8.298635291818181,-182.56997642,8.086818805394564,-0.08479741301136362,34.639540000000004,1.5002900955636835,0.0,166,22,269.0755901444506,1310.3971,mp-1190738,Dy2Fe17C3,https://materialsproject.org/materials/mp-1190738,57.854301094175995,74.79554986339254,-8.604250342815693,-0.5045126942092143
-5.859283985,-23.43713594,8.914753931111155,-0.10205553250000056,2.5853142000000005,0.6567755304834891,0.0,225,4,45.87475894852294,246.28279,mp-1007821,GaCo2Ni,https://materialsproject.org/materials/mp-1007821,44.32045963141733,47.55420679741004,-8.604250342815693,-0.5045126942092143
-5.830923665,-23.32369466,11.065528898366587,-0.7197034312500001,1.62e-05,2.8583188152583226e-06,0.0,225,4,66.05136148831056,440.15421,mp-865299,TmZnRh2,https://materialsproject.org/materials/mp-865299,40.7235163403269,51.77926469485421,-8.604250342815693,-0.5045126942092143
-7.99026261375,-63.92210091,7.984418739667183,-0.21452694250000004,6.000442400000001,0.774789286572139,0.0,166,8,90.25620979221242,433.98159000000004,mp-1222068,Mn2Fe4SiGe,https://materialsproject.org/materials/mp-1222068,49.9075464857885,65.91452512211669,-8.604250342815693,-0.5045126942092143