energy_per_atom,energy,density,formation_energy_per_atom,total_magnetization_uB,total_magnetization_T,band_gap,sgr,num_sites,cell_volume,weight,mp_id,formula,URL,tsne_cry_lin1_0,tsne_cry_lin1_1,tsne_cry_lin2_0,tsne_cry_lin2_1
-7.342694527142856,-102.79772338,3.952426109509571,-1.0440346543124994,6.5000000000000004e-06,2.1306827044444294e-07,1.2144000000000004,176,14,355.52652144604514,846.2266,mp-1103996,K(MoS)3,https://materialsproject.org/materials/mp-1103996,64.84896552289635,31.832227906241478,-8.604250342815693,-0.5045126942092143
-8.868439469473682,-168.50034992,5.888786362823554,-0.3251623936336823,18.8243462,1.079990860176773,0.0,71,19,203.131487501644,720.3672449999998,mp-1245992,Mn10CoN8,https://materialsproject.org/materials/mp-1245992,2.597277767707128,17.237075104821326,-8.604250342815693,-0.5045126942092143
-9.83541543,-78.68332344,16.592207521960276,-0.08045887843749888,0.0061835,0.0005137099722539153,0.0,74,8,140.27936659462742,1401.68,mp-22140,PuPd,https://materialsproject.org/materials/mp-22140,21.33213994182794,55.995217047547314,-8.604250342815693,-0.5045126942092143
-7.374288085,-29.49715234,10.96332378290912,-0.5854414187499994,0.0007758999999999999,0.00012512937428757844,0.0,225,4,72.26431769927504,477.108393,mp-972966,Sc2OsAu,https://materialsproject.org/materials/mp-972966,19.301761902513626,56.85713794072198,-8.604250342815693,-0.5045126942092143
-8.872906585,-35.49162634,12.271482432792347,-0.17481247125000188,0.0007006,0.00010192919395517968,0.0,225,4,80.10303488954855,591.9662,mp-1184843,HoPaTc2,https://materialsproject.org/materials/mp-1184843,20.652603982711128,56.51597505139866,-8.604250342815693,-0.5045126942092143
-5.08639630125,-40.69117041,3.4895391969685856,-2.655399065915,2.9961164,0.4803652617927974,0.12119999999999995,123,8,72.68830069312874,152.75080459999995,mp-759806,Li3CoOF3,https://materialsproject.org/materials/mp-759806,-6.558906568877065,11.834618608945975,-5.871061922732077,-2.4928122370448373
-7.7224288075,-30.88971523,9.767678497987474,-0.3307204112500006,3.35e-05,5.010834366118613e-06,0.0,225,4,77.91340550399428,458.30485,mp-971926,YErRu2,https://materialsproject.org/materials/mp-971926,19.597290540067075,53.20997591336678,-8.604250342815693,-0.5045126942092143
-6.452037785,-25.80815114,1.293908037412146,3.3306520575,0.8863503,0.012436570844976184,0.0,71,4,830.5813504492198,647.197,mp-1096744,Hf2TcIr,https://materialsproject.org/materials/mp-1096744,-61.45116736462256,35.43639170440885,-8.604250342815693,-0.5045126942092143
-5.962808265,-23.85123306,0.9455378964797416,3.4959248537500014,1.9999991999999998,0.038142598179947626,0.0,71,4,611.0784617216019,347.958,mp-1097133,V2FeOs,https://materialsproject.org/materials/mp-1097133,-57.15865913740048,35.43218503979127,-8.604250342815693,-0.5045126942092143
-8.597858175,-34.3914327,12.5179296180154,-0.4486555787500013,4.72e-05,6.906164648578932e-06,0.0,225,4,79.6493980748062,600.43488,mp-867918,ErPaRu2,https://materialsproject.org/materials/mp-867918,20.809958653641104,54.95181182282572,-8.604250342815693,-0.5045126942092143
-6.884406745192307,-357.98915075,5.578170999739005,-0.16986482980769324,0.0,0.0,0.0,14,52,1197.7814475751202,4023.6511,mp-573425,Y8Co5,https://materialsproject.org/materials/mp-573425,-27.79111717995379,66.63197150287232,-8.604250342815693,-0.5045126942092143
-4.207144275,-16.8285771,0.4184047618343258,1.5819070012499994,1.4295497,0.012107881601333071,0.0,71,4,1375.9685920251334,346.7017620000001,mp-1095818,YScPd2,https://materialsproject.org/materials/mp-1095818,-68.46766586158593,42.25791504687805,-8.604250342815693,-0.5045126942092143
-7.108060983333334,-85.2967318,9.223635831712057,-0.02027906833333285,0.00012185,8.676556875896609e-06,0.0,38,12,163.66489759103382,909.0936,mp-1220233,NiGeMo,https://materialsproject.org/materials/mp-1220233,53.681025115792416,56.957751882498634,-8.604250342815693,-0.5045126942092143
-6.9963772925,-167.91305502,9.366075981360687,-0.4180137466666665,3.50417035,0.14775234326683612,0.0,191,24,276.39377711412214,1558.96673,mp-1190704,Er2Co7B3,https://materialsproject.org/materials/mp-1190704,42.360869506669324,83.56445097217093,-8.604250342815693,-0.5045126942092143
-12.381484835625,-198.10375737,15.235960356256495,0.050629305078125235,20.04858475,0.7037073933175841,0.0,140,16,332.02366138735033,3046.42,mp-1992,Pu5Ru3,https://materialsproject.org/materials/mp-1992,19.852979147328274,55.57655509645284,-8.604250342815693,-0.5045126942092143
-9.6225833925,-38.49033357,11.073247385791,-0.3268688962499997,6.868753999999999,1.013584681527173,0.0,225,4,78.97603967550931,526.649,mp-1184790,GdErRu2,https://materialsproject.org/materials/mp-1184790,19.750976784058977,53.24493894312927,-8.604250342815693,-0.5045126942092143
-6.91249843,-13.82499686,11.41558054598286,-0.9553238725000002,5e-07,1.4827504432585106e-07,0.0,221,2,39.298807245501735,270.1645,mp-2381,ErRh,https://materialsproject.org/materials/mp-2381,17.572425786520974,51.30555608013175,-8.604250342815693,-0.5045126942092143
-6.933751790405406,-513.09763249,6.1131493804081725,-0.5834936102238183,0.00029105,2.109188172694921e-06,0.0,11,74,1608.1616595259165,5920.325999999999,mp-1223482,Li3Mo15Se19,https://materialsproject.org/materials/mp-1223482,63.55925637649964,32.230258090115555,-8.604250342815693,-0.5045126942092143
-4.3886221725,-17.55448869,0.791309803409418,2.5721972837500005,1.6018355,0.02610066227739821,0.0,71,4,715.2268579847855,340.832712,mp-1093706,HfScNi2,https://materialsproject.org/materials/mp-1093706,-63.10980181100131,35.05511763654362,-1.3399762458317015,-0.44010540600087455
-7.2030149250000015,-216.09044775,7.004313748895402,-0.2298873807777776,4.64601895,0.12619249747001526,0.0,160,30,429.06675803532005,1809.844948,mp-1216380,Y2Sc2TiCo10,https://materialsproject.org/materials/mp-1216380,60.975887333765094,64.18599805102752,-8.604250342815693,-0.5045126942092143
-7.7768772375,-31.10750895,12.601609478495385,-0.18022977052083267,0.0298747,0.004738190908452243,0.0,225,4,73.47987778198622,557.629,mp-977402,NpInRh2,https://materialsproject.org/materials/mp-977402,31.611632560298037,56.374307729784356,-8.604250342815693,-0.5045126942092143
-6.9420453984375,-222.14545275,4.092220415189402,-1.8442878917062495,16.00000015,0.5202636386728976,0.5309999999999999,2,32,358.40490137789527,883.25045,mp-759136,LiMn5O10,https://materialsproject.org/materials/mp-759136,-66.32834819563871,-40.50473308351838,3.3936191644877454,0.06094388024539112
-11.494870714722223,-413.81534573,14.672707719691445,-0.2674698874305553,20.16191485,0.3181198990305035,0.003200000000001424,62,36,738.6154161271213,6526.488,mp-703,Pu5Rh4,https://materialsproject.org/materials/mp-703,19.721628849881718,55.30196929964161,-8.604250342815693,-0.5045126942092143
-5.237989825,-20.9519593,0.6532010795784299,2.59500003625,0.7344494,0.010020642224184684,0.0,71,4,854.1688933978502,336.001762,mp-1093754,YScRu2,https://materialsproject.org/materials/mp-1093754,-66.96034025431813,42.22067159853804,-8.604250342815693,-0.5045126942092143
-8.5719900725,-34.28796029,12.422942181145954,-0.4201248287500015,0.2392011,0.03486885359964926,0.0,225,4,79.94713979055419,598.1062,mp-1184890,HoPaRu2,https://materialsproject.org/materials/mp-1184890,20.807438695641146,54.93946914015404,-8.604250342815693,-0.5045126942092143
-9.282822217272725,-204.22208878,8.750717870484928,0.006248957102272357,12.8331712,0.6305216300345585,0.0,12,22,237.19822013711155,1249.9885,mp-571055,Fe11Mo6C5,https://materialsproject.org/materials/mp-571055,42.54947713885189,87.2776095005515,-8.604250342815693,-0.5045126942092143
-5.537216961052632,-105.20712226,7.2848428869551025,-0.1375868954385969,0.0083244,0.00019351418831888207,0.0,204,19,501.3229140223714,2199.3211699999997,mp-1211071,Nd12InCo6,https://materialsproject.org/materials/mp-1211071,-30.106918760619664,68.17308674928971,-8.604250342815693,-0.5045126942092143
-9.117344300000001,-36.469377200000004,12.899985528031829,-0.3691094799999988,7e-07,1.1615847080945449e-07,0.0,225,4,70.23030936911914,545.5878799999999,mp-865364,DyTaRu2,https://materialsproject.org/materials/mp-865364,40.944595808035544,59.52234845613409,-8.604250342815693,-0.5045126942092143
-8.8883122425,-35.55324897,12.383645688789347,-0.19288077625,3.5000000000000004e-06,5.118502390928631e-07,0.0,225,4,79.68976780444305,594.2948799999998,mp-863734,ErPaTc2,https://materialsproject.org/materials/mp-863734,20.65044112475364,56.52457334628846,-8.604250342815693,-0.5045126942092143
-5.6292619975,-22.51704799,0.9061899872180652,2.9602088904166672,1.0,0.016354742645536033,0.0,71,4,712.5801380763779,388.8695,mp-1093687,Ti2OsRh,https://materialsproject.org/materials/mp-1093687,-59.83476055275629,35.523140023951285,-8.604250342815693,-0.5045126942092143
-4.8527689575,-19.41107583,1.1018576243306493,3.2467243850000003,2.0,0.025246044986789184,0.015400000000000082,71,4,923.2388501769733,612.619,mp-1093678,Hf2ZnOs,https://materialsproject.org/materials/mp-1093678,-65.35949234417754,40.588499768395636,-4.2360439367586675,-1.0291116539919674
-8.147364245384615,-211.83147038,8.842812342521889,-0.2016664203846163,0.010494792307692308,0.00033048417673796837,0.0,166,26,370.08425194704904,1970.79714,mp-1220799,NbNi,https://materialsproject.org/materials/mp-1220799,54.01133591475882,59.15685212395019,-8.604250342815693,-0.5045126942092143
-7.0022339439999985,-35.01116972,8.637261599102048,-0.5712132136666668,1.4599999999999999e-05,2.9072737360541577e-06,0.0,139,5,58.52539565479773,304.41871000000003,mp-573995,Ho(CoB)2,https://materialsproject.org/materials/mp-573995,7.385856595349612,39.57426796575418,-8.604250342815693,-0.5045126942092143
-7.965187495,-31.86074998,9.262997676945231,-0.70021074875,1.3e-06,2.1862724526412182e-07,0.0,225,4,69.29732927853829,386.561824,mp-862365,Sc2OsPd,https://materialsproject.org/materials/mp-862365,21.14980049556519,52.95966673416665,-8.604250342815693,-0.5045126942092143
-5.7999416725,-23.19976669,0.8274069402668287,3.45098797375,3.0000001,0.04153295194807411,0.1504000000000003,71,4,841.7941379846167,419.445912,mp-1096415,HfScTc2,https://materialsproject.org/materials/mp-1096415,-61.677271741915426,36.140937213330304,-8.604250342815693,-0.5045126942092143
-8.918909088,-44.59454544,8.759426180201167,-0.4805623586666655,0.00047939999999999994,0.00010817796608738688,0.0,71,5,51.645994596089324,272.435195,mp-1069105,Co(BMo)2,https://materialsproject.org/materials/mp-1069105,21.70599555201825,36.633908805563294,-8.604250342815693,-0.5045126942092143
-4.7091231775,-18.83649271,1.1230659177148414,2.3082738925,0.9711795,0.013966042488655123,0.0,71,4,810.4077306062982,548.099912,mp-1095994,ScSnIr2,https://materialsproject.org/materials/mp-1095994,-66.15165498410272,42.74078060717022,-8.604250342815693,-0.5045126942092143
-5.3481400275,-21.39256011,0.8217226858263751,3.1820949654166664,1.0,0.016721065638203948,0.0,71,4,696.9690224726303,344.897195,mp-1095771,Ti2CoOs,https://materialsproject.org/materials/mp-1095771,-59.86017883926189,35.806430193629105,-8.604250342815693,-0.5045126942092143
-4.2913549375,-17.16541975,0.5862033887936005,1.8888439133333332,2.9976001,0.03527467081719469,0.0,71,4,990.348738012962,349.61285,mp-1093880,YTiPd2,https://materialsproject.org/materials/mp-1093880,-68.35617858440142,42.171526222704074,-8.604250342815693,-0.5045126942092143
-8.63631707,-34.54526828,12.895362752110607,-0.4975000675000008,0.0002302,3.425796752817256e-05,0.0,225,4,78.3107085508511,608.14288,mp-865639,LuPaRu2,https://materialsproject.org/materials/mp-865639,20.746929072642104,54.69410330564699,-8.604250342815693,-0.5045126942092143
-6.07601959,-24.30407836,1.2733472998912332,3.3325568125,3e-07,5.21701483038794e-09,0.1743999999999999,71,4,670.1570812877919,513.895,mp-1093816,Hf2FeRu,https://materialsproject.org/materials/mp-1093816,-60.78448864349463,35.30395265753341,-8.604250342815693,-0.5045126942092143
-8.7965573175,-35.18622927,15.224095414239473,-0.1912204412499996,0.0001222,1.679463808968575e-05,0.0,225,4,84.79651110084987,777.4283800000002,mp-1184842,HoThOs2,https://materialsproject.org/materials/mp-1184842,20.161991917374454,55.0368833163343,-8.604250342815693,-0.5045126942092143
-6.47147207125,-103.54355314,8.396151283094119,-0.0795382487499996,3.5e-07,8.411810989497609e-09,0.038000000000000256,62,16,484.9042228229504,2451.8118,mp-1189967,Pr3Os,https://materialsproject.org/materials/mp-1189967,-29.502818162145505,65.0218808751535,-8.604250342815693,-0.5045126942092143
-7.6013141825,-91.21577019,8.102628083966705,-0.2723277020833332,5.5387785,0.40734598693044577,0.0,160,12,158.46303994859977,773.2230599999999,mp-1216086,Zr3Co8Si,https://materialsproject.org/materials/mp-1216086,61.06750285421484,64.62684020535731,-8.604250342815693,-0.5045126942092143
-9.119387044166666,-109.43264453,11.40687366194734,-0.21508072416666715,3.825e-06,2.6344899268495244e-07,0.0,38,12,169.20466197549038,1162.3311199999996,mp-1217864,TaVNi,https://materialsproject.org/materials/mp-1217864,57.75882225396552,55.87851564090274,-8.604250342815693,-0.5045126942092143
-6.030984675,-24.1239387,0.8707295107558227,4.406350545625,2.1809442000000003,0.031510519545080815,0.0,71,4,806.6152300591399,422.96126,mp-1096222,Nb2VRe,https://materialsproject.org/materials/mp-1096222,-59.48837943416786,42.60503885846044,-8.604250342815693,-0.5045126942092143
-5.0476833775,-20.19073351,0.7984101660134642,3.585350949166667,4.0000001,0.06626043031385706,0.0,71,4,703.5309012458432,338.2673999999999,mp-1095775,Ti2NiW,https://materialsproject.org/materials/mp-1095775,-59.594723984667816,36.58068823897342,-8.604250342815693,-0.5045126942092143
-6.94926672,-27.79706688,6.011866467574732,-0.43571181499999945,3.9e-06,6.387011591826605e-07,0.0,225,4,71.16137486136051,257.63482400000004,mp-862324,Sc2GaTc,https://materialsproject.org/materials/mp-862324,19.405676284136387,56.85638943220243,-8.604250342815693,-0.5045126942092143
-10.297314155,-61.78388493,14.936234425689392,-0.2456342583333324,5.04e-05,6.2789660810218175e-06,0.0,97,6,93.54483794908839,841.4181150000001,mp-1217989,Ta4CoNi,https://materialsproject.org/materials/mp-1217989,39.952782846470974,66.75423260427817,-8.604250342815693,-0.5045126942092143
-6.869046615,-27.47618646,1.2207362369491668,4.586547606249999,3.96e-05,5.614231753380386e-07,0.2107000000000001,71,4,822.0197976606318,604.30338,mp-1097613,TaVRe2,https://materialsproject.org/materials/mp-1097613,-58.40447196730632,41.048338768214116,-8.604250342815693,-0.5045126942092143
-8.100817871666667,-48.60490723,7.659630262231326,-0.2724753050000004,2.07121245,0.2717585920217821,0.0,74,6,88.82164081898588,409.71089,mp-1215234,ZrMnNi,https://materialsproject.org/materials/mp-1215234,36.701600750557645,67.47655676708614,-8.604250342815693,-0.5045126942092143
-8.504741632678572,-476.26553143,6.5928007758663085,-0.2305291047699985,3.096812475,0.06099314009670843,0.0,60,56,591.7133158728544,2349.26606,mp-1245689,Mn7SnN6,https://materialsproject.org/materials/mp-1245689,4.181690789574914,16.755183663291575,-8.604250342815693,-0.5045126942092143
-5.27805902375,-126.67341657,7.373461278781142,-0.3566350004166665,1.83e-05,2.9836603395844557e-07,0.0,216,24,714.7910990684185,3173.96,mp-567342,Nd4MgIr,https://materialsproject.org/materials/mp-567342,-30.946145593070547,67.97615580452798,-8.604250342815693,-0.5045126942092143
-9.298381800000001,-55.790290799999994,5.437311122959121,-0.17042037958333367,0.98275765,0.16463768725014025,0.0,194,6,69.56561100999548,227.7874,mp-1094023,V2C,https://materialsproject.org/materials/mp-1094023,6.128132001870494,22.44248259832096,-8.604250342815693,-0.5045126942092143
-5.8920884725,-23.56835389,1.1182590514104742,2.9691801349999998,0.5350762,0.007480213350838389,0.0,71,4,833.6410207278633,561.4,mp-1097384,Hf2TcPd,https://materialsproject.org/materials/mp-1097384,-62.05481760675892,35.7876817476826,-8.604250342815693,-0.5045126942092143
-9.3413379125,-74.73070329999999,9.07497542056092,0.05355160031250072,0.4886963,0.06441221205246264,0.0,164,8,88.41954270521776,483.2197,mp-1226231,Cr3Ru3C2,https://materialsproject.org/materials/mp-1226231,44.604518618825644,67.19026581366546,-8.604250342815693,-0.5045126942092143
-9.55600102125,-76.44800817,12.595897912225325,-0.8503265962499995,1e-07,7.797130557642914e-09,0.0,63,8,149.46607199152422,1133.764,mp-568992,ZrIr,https://materialsproject.org/materials/mp-568992,26.731292370121107,58.03935568901333,-8.604250342815693,-0.5045126942092143
-5.5536753175,-22.21470127,0.7010874644687842,3.3158948900000014,0.2783359,0.0029030218958389785,0.0,71,4,1117.3682884645448,471.75819500000006,mp-1097438,Hf2FeCo,https://materialsproject.org/materials/mp-1097438,-62.76858495955022,35.047428319285544,-8.604250342815693,-0.5045126942092143
-6.6877123025,-26.75084921,1.4715332559868708,4.4659382856250005,0.9986881999999999,0.017077683561687595,0.0,71,4,681.5196527298177,603.94776,mp-1096354,Ta2FeRe,https://materialsproject.org/materials/mp-1096354,-57.81530593750387,40.50137130634021,-8.604250342815693,-0.5045126942092143
-10.273923403,-102.73923403,11.641143166426364,-0.31858964242800025,0.00029795,2.970785472739672e-05,0.0,194,10,116.88250904842224,819.4002,mp-1079251,W2N3,https://materialsproject.org/materials/mp-1079251,5.691543253371153,20.465531062532282,-8.604250342815693,-0.5045126942092143
-6.999849106428571,-97.99788749,5.7636775832152845,-0.7038405515894388,1.6e-06,5.3035750334398674e-08,0.0,176,14,351.5836679697448,1220.3356,mp-1103685,Rb(MoSe)3,https://materialsproject.org/materials/mp-1103685,63.90178553797025,31.79116617788573,-8.604250342815693,-0.5045126942092143
-9.93705548375,-79.49644387,9.997257812464252,-0.4057446501041664,7e-07,9.547656499593572e-08,0.0,38,8,85.44343149692334,514.41128,mp-1217964,TaB2Mo3C2,https://materialsproject.org/materials/mp-1217964,4.363997289116189,22.692417387454352,-8.604250342815693,-0.5045126942092143
-10.714885715,-42.85954286,13.75785206871197,-0.2588365611899999,1.55e-06,3.782264217958251e-07,0.0,186,4,47.75922398995901,395.6934,mp-972036,WN,https://materialsproject.org/materials/mp-972036,5.756466765562281,20.78331946739515,-8.604250342815693,-0.5045126942092143
-5.56888374,-22.27553496,0.693900453708516,3.4094541724999985,1.0025699000000001,0.0145185198508739,0.061400000000000336,71,4,804.7662346871679,336.293,mp-1093933,Zr2FeTc,https://materialsproject.org/materials/mp-1093933,-62.64160722247304,38.01801292512611,-8.604250342815693,-0.5045126942092143
-6.60182136,-26.40728544,11.23326185621274,-0.7070754949999998,3.68e-05,5.352742377718865e-06,0.0,225,4,80.12146921462052,542.008,mp-866281,Er2PdRu,https://materialsproject.org/materials/mp-866281,17.253487232136305,53.57773494676621,-8.604250342815693,-0.5045126942092143
-4.37150671,-39.34356039,6.938426531483273,-0.7018743350000002,1.5e-06,9.797298974965099e-08,0.0,189,9,178.4277197573407,745.5456300000002,mp-1205941,LiTmGe,https://materialsproject.org/materials/mp-1205941,-2.5449666082093056,66.63113542387227,-8.604250342815693,-0.5045126942092143
-6.687833363125,-107.00533381,12.084724690300222,-0.951750933125,2.5e-08,9.61520728220296e-10,0.0,194,16,303.0112724176656,2205.19224,mp-570184,ThPd3,https://materialsproject.org/materials/mp-570184,60.548326264583274,49.904010249423024,-8.604250342815693,-0.5045126942092143
-7.6795704325,-30.71828173,10.497076435178645,0.07741501453125021,0.1419987,0.02135420350066371,0.0,225,4,77.49584513268488,489.889,mp-864998,CaPuRh2,https://materialsproject.org/materials/mp-864998,13.471125479935932,46.23409362317783,-8.604250342815693,-0.5045126942092143
-6.81874571,-34.09372855,1.3593169404326677,-1.916842788542001,14.360710800000001,0.3478672605446181,0.0,123,5,481.1049294526282,393.8324032,mp-1207289,Eu2Cl2F,https://materialsproject.org/materials/mp-1207289,-25.71801227745509,40.66045172550115,-8.604250342815693,-0.5045126942092143