energy_per_atom,energy,density,formation_energy_per_atom,total_magnetization_uB,total_magnetization_T,band_gap,sgr,num_sites,cell_volume,weight,mp_id,formula,URL,tsne_cry_lin1_0,tsne_cry_lin1_1,tsne_cry_lin2_0,tsne_cry_lin2_1
-6.002132828333332,-180.06398485,7.149560035298888,-2.35210464825,0.0,0.0,2.0712,165,30,511.68021169140036,2203.0728,mp-556407,Ba3Bi2TeO9,https://materialsproject.org/materials/mp-556407,0.7346100301373891,-29.726590564700608,9.393986793688672,0.18015886403186265
-6.7477964848214285,-377.87660315,4.4502114464643405,-2.6762022855357137,0.79394305,0.017077163698743188,0.008000000000000007,8,56,541.8150164540824,1452.0534175999999,mp-530977,Al2CuO4,https://materialsproject.org/materials/mp-530977,-50.54145392435308,-6.928012922184343,-8.604250342815693,-0.5045126942092143
-11.1165152625,-44.46606105,9.888144016179053,-0.31374208750000143,14.443026399999999,2.1134000568268947,0.0,225,4,79.64415664401416,474.2634,mp-1184370,Gd2NiRu,https://materialsproject.org/materials/mp-1184370,15.451092468872824,51.8824045079474,-8.604250342815693,-0.5045126942092143
-6.79344591875,-163.04270205,2.3586660123130776,-0.1991928971266669,0.0,0.0,2.6024,14,24,435.5863575109182,618.7164,mp-6802,KCu(CN)2,https://materialsproject.org/materials/mp-6802,13.039097220370607,-19.146274286622077,10.136187324042416,0.08903726100961505
-6.155792385714285,-344.7243736,3.030184475273779,-1.0979279549485708,0.25897585,0.0033135742113818197,0.0,60,56,910.8355925941652,1662.1108000000006,mp-1245382,Ca7VN6,https://materialsproject.org/materials/mp-1245382,6.343646495299753,7.054643971341145,-8.604250342815693,-0.5045126942092143
-7.89601249,-31.58404996,4.5265440901533145,-2.165957922031251,7.0000005000000005,0.9739738686597006,1.5727999999999995,166,4,83.75836545513434,228.321,mp-1222370,LiGdS2,https://materialsproject.org/materials/mp-1222370,53.118360104672966,9.044602902878658,6.1133893005002165,-3.6727245819733
-6.745967276428572,-283.33062561,4.445101280621713,-2.674373077142858,0.2913265333333333,0.008345381254420773,0.0,156,42,406.8284223244373,1089.0400632,mp-34728,Al2CuO4,https://materialsproject.org/materials/mp-34728,-50.539566653611956,-6.920990959565217,-8.604250342815693,-0.5045126942092143
-5.740717347272727,-126.29578164,6.5036577756977545,-2.3110464711363643,1.9998536,0.07305468966776284,0.8665999999999996,167,22,319.02706720169965,1249.4996,mp-20659,Sr3NiPbO6,https://materialsproject.org/materials/mp-20659,-5.944590405878698,-14.297637363329724,8.436472509165846,-0.6590739756219838
-6.743971497884616,-350.68651789,3.8847506750323695,-2.6435154462912087,3.0000009999999997,0.049072481626653,0.5402,14,52,712.4605239600239,1666.766896,mp-561012,Sr3Cu3(PO4)4,https://materialsproject.org/materials/mp-561012,-56.853373338256226,-15.12604858737794,3.791587881551398,0.5546974569120925
-5.9558412254999995,-238.23364902,4.793985592734685,-1.9882463555,12.33406395,0.3264610146218108,0.0,123,40,440.30366182838577,1271.15916,mp-1076096,SrCa3(CoO3)4,https://materialsproject.org/materials/mp-1076096,-52.636565033500176,3.256120192875447,-8.604250342815693,-0.5045126942092143
-5.68224631,-22.72898524,8.526399390118383,-0.44745756624999977,2.3e-06,3.0152769394730023e-07,0.0,225,4,88.8951479911893,456.4515,mp-863670,Pm2CuRh,https://materialsproject.org/materials/mp-863670,11.035565405083338,50.26472681700986,-8.604250342815693,-0.5045126942092143
-5.011823095,-70.16552333,6.398423519888973,-1.1236800610267859,0.0,0.0,1.2595999999999998,148,14,239.69558322869702,923.6,mp-1222528,Lu(CuS)3,https://materialsproject.org/materials/mp-1222528,46.69996452262521,-7.047059637339862,7.124125599262942,-5.677557170044607
-6.148606035833333,-147.56654486,10.009376111783796,-0.5453240894444443,2.15e-06,8.039878038655656e-08,0.0,194,24,311.6494944392587,1878.5568600000001,mp-1005955,Tm3Ni7B2,https://materialsproject.org/materials/mp-1005955,29.738153561162928,84.6610788886317,-8.604250342815693,-0.5045126942092143
-6.75614684,-256.73357992,6.580933822786405,-0.6482375489473684,5.5e-06,1.0427303420470114e-07,0.0,64,38,614.7069253134719,2436.1641,mp-1197099,Tb3(Si3Ru)4,https://materialsproject.org/materials/mp-1197099,9.992002509804317,60.08173364302862,-8.604250342815693,-0.5045126942092143
-6.58089551625,-157.94149239,5.519079360582439,-2.579756849118334,4.999999900000001,0.12822839740486194,1.6203,15,24,454.42603882361703,1510.3609800000002,mp-27443,Ba2MnO3,https://materialsproject.org/materials/mp-27443,-31.834822055449894,-19.88572576261047,-0.20076983369277854,1.3279333429115479
-7.8260845250000015,-78.26084525,7.566779426863499,-3.185419683916668,1.0597818,0.10097945112227276,0.0,187,10,122.30969375169964,557.3434,mp-1222460,Lu2TiCuO6,https://materialsproject.org/materials/mp-1222460,-45.98659446329791,-7.0591949080772425,-6.084398199440527,0.5606255548147381
-4.4986232500000005,-26.9917395,8.294882312736208,-0.09349248666666672,0.1086509,0.013815050268359592,0.0,191,6,91.65544834077959,457.846,mp-761,CeCu5,https://materialsproject.org/materials/mp-761,2.5094724360014005,43.68603452196143,-8.604250342815693,-0.5045126942092143
-3.1477861759090917,-69.25129587,4.349891784561393,-0.2921238516363642,4.9000000000000005e-06,8.858854900922185e-08,0.0,194,22,644.6083384839953,1688.59415424,mp-568234,Na4CaSn6,https://materialsproject.org/materials/mp-568234,34.505027871579316,19.373735606052406,-8.604250342815693,-0.5045126942092143
-6.402931626923077,-83.23811115,8.43358258642906,-0.33031891692307624,1e-07,6.720949078718468e-09,0.0,191,13,173.3990934325284,880.6631699999999,mp-10359,Zr(CoGe)6,https://materialsproject.org/materials/mp-10359,48.12987655944235,47.15523172683911,-8.604250342815693,-0.5045126942092143
-6.7677392350000005,-81.21287082,5.374962468059253,-1.8555728741666675,3.00000005,0.2585277842182386,1.6900999999999995,13,12,135.23573493697938,437.74159000000003,mp-19435,CoMoO4,https://materialsproject.org/materials/mp-19435,-10.303450088245906,-37.33719332058677,4.512703369142329,0.6950230210473942
-7.248836498333333,-43.49301899,9.959711957498657,-0.7086807074999998,8.5e-07,8.617911140686858e-08,0.0,227,6,114.94612667689009,689.43294,mp-1702,LaRh2,https://materialsproject.org/materials/mp-1702,29.7333107346664,65.42506603190532,-8.604250342815693,-0.5045126942092143
-6.4168219425,-51.33457554,7.199330543605153,-0.7821493287500011,3e-07,2.7064508671499444e-08,0.0,63,8,129.18096811599008,560.06903,mp-8743,HoCoSi2,https://materialsproject.org/materials/mp-8743,20.42593700228513,67.79214347306852,-8.604250342815693,-0.5045126942092143
-5.5405961925,-66.48715431,4.859400266259716,-1.3340150832480238,5.0000007,0.14825869558322968,0.5045999999999999,63,12,393.03146295342873,1150.1669938,mp-574651,CsSmMnSe3,https://materialsproject.org/materials/mp-574651,25.83754399651334,1.117049984153346,3.7168203595604914,-5.670994447109032
-4.92417909,-24.62089545,8.400997505172992,-0.5098707619999991,1e-07,1.3670437165002855e-08,0.0,139,5,85.25012500986291,431.29735000000005,mp-4521,Tb(CuGe)2,https://materialsproject.org/materials/mp-4521,-3.03164057973413,57.98824518436701,-8.604250342815693,-0.5045126942092143
-6.009994805,-24.03997922,3.235126009953874,-2.18394633703125,0.0,0.0,1.9353,166,4,82.11358818910783,159.97685,mp-15788,LiYS2,https://materialsproject.org/materials/mp-15788,53.20001836658121,9.132508845332076,7.821424644229943,-3.895918214893107
-5.55003847375,-133.20092337,5.75601381556816,-1.439804480781251,0.0,0.0,1.5894000000000004,62,24,526.0247907249384,1823.3874,mp-542802,YCuPbS3,https://materialsproject.org/materials/mp-542802,48.13072227968152,-7.335773636783077,9.739791946286942,-4.6960121239865344
-5.1943118083333335,-31.16587085,7.4642340678123,-0.288057823333333,0.4230894,0.053851193408027104,0.0,38,6,91.56178275983092,411.57633860000004,mp-1226667,CeAl(CuNi)2,https://materialsproject.org/materials/mp-1226667,29.38905476773089,76.7835627647135,-8.604250342815693,-0.5045126942092143
-4.7786752366666665,-57.34410284,8.910977184163151,-0.8619153349999996,0.0,0.0,0.0,62,12,299.21011104694395,1605.656,mp-20001,SrSnPt,https://materialsproject.org/materials/mp-20001,8.759435888251407,35.80183087441328,-8.604250342815693,-0.5045126942092143
-5.445423653181819,-119.79932037,5.57707475729338,-1.8155357137784092,1.9999997999999999,0.031037468945263408,0.055600000000000094,167,22,750.9673954217026,2522.19382,mp-1190418,Ba4USe6,https://materialsproject.org/materials/mp-1190418,-12.59902107483892,15.168246692595805,-8.604250342815693,-0.5045126942092143
-8.267842602142858,-115.74979643,7.855283045745763,-0.11164319249142908,28.4412373,1.8789223545001348,0.0,139,14,176.40751407959095,834.5067,mp-1208661,SmFe12N,https://materialsproject.org/materials/mp-1208661,60.94640912070239,75.30281821105987,-8.604250342815693,-0.5045126942092143
-8.387588842857143,-117.42624380000001,7.668305130534445,-0.13942547570571406,18.3882996,1.2089470011118504,0.0,71,14,177.26040463192055,818.5817000000002,mp-1220115,NdV2Fe10N,https://materialsproject.org/materials/mp-1220115,61.13996343398822,75.26571704374959,-8.604250342815693,-0.5045126942092143
-6.0080357033333325,-72.09642844,5.9827629054458455,-0.41401028940476203,1.6666666666666665e-07,1.3007511069002453e-08,0.0,36,12,149.3248107540459,538.002972,mp-1102036,NiP,https://materialsproject.org/materials/mp-1102036,16.055111357721135,23.871490510462014,-8.604250342815693,-0.5045126942092143
-5.304735227777779,-47.74261705,7.07117784520645,-0.6651339183333328,0.0,0.0,0.027699999999999392,189,9,189.8011439152753,808.24215,mp-1205828,YAgGe,https://materialsproject.org/materials/mp-1205828,18.549238455247934,61.539226145920466,-8.604250342815693,-0.5045126942092143
-0.4734394025,-17.04381849,10.005762121693987,-0.10252862983333334,2.333333333333333e-07,2.4322258754345237e-09,0.0,221,36,1118.0218941541034,6736.7649,mp-11952,KHg11,https://materialsproject.org/materials/mp-11952,-17.366507224013397,60.04768663841049,-8.604250342815693,-0.5045126942092143
-2.9518514075,-11.80740563,5.702226786709262,-0.14267565249999992,1e-07,1.0506565649295197e-08,1.5721999999999996,129,4,110.92173371934791,380.90094,mp-22863,CuI,https://materialsproject.org/materials/mp-22863,16.5674629873336,-11.544301090339284,7.5407277070103955,-1.7471631763725233
-8.611098733333334,-439.16603539999994,6.893609682839857,-0.4841575400140049,15.5411656,0.2864979946560988,0.0,174,51,632.1780742684896,2624.442298,mp-21819,U2Cr30P19,https://materialsproject.org/materials/mp-21819,14.553045589831605,26.2152651853738,-8.604250342815693,-0.5045126942092143
-4.059229126666667,-48.71074952,2.5570043047402202,-1.2672212446875004,0.0,0.0,2.0875,72,12,192.8728758444638,296.998,mp-1177695,Li3CuS2,https://materialsproject.org/materials/mp-1177695,45.973006948658686,-8.893782890772325,8.216015684469832,-0.4318459575941253
-6.429044372222222,-57.86139935,8.315710265968033,-0.7432587741666671,0.0,0.0,0.0032000000000005357,12,9,188.46057462883044,943.78,mp-22145,Sm3(Ge2Ru)2,https://materialsproject.org/materials/mp-22145,14.08740659538363,64.13978077398309,-8.604250342815693,-0.5045126942092143
-7.968984805555554,-143.4417265,6.381027100113497,-0.6273581310577769,0.01426925,0.0007780918232289367,0.0,15,18,213.72125858585045,821.2761699999999,mp-1246971,Y2Co3N4,https://materialsproject.org/materials/mp-1246971,4.450390291116505,14.348587471815407,-8.604250342815693,-0.5045126942092143
-3.4092724728571433,-95.45962924,7.789408428530309,-0.755042814047619,0.000146775,2.4286797729306347e-06,0.0,62,28,704.3025499110554,3303.806828,mp-606503,Ca3InAu3,https://materialsproject.org/materials/mp-606503,-11.8672401301975,49.157139477591116,-8.604250342815693,-0.5045126942092143
-4.506281005,-216.30148824,4.413112597221187,-1.2023225528854171,9.0000005,0.20982675202269596,0.0,2,48,499.87233643460564,1328.48000064,mp-768107,Na13Ni11O24,https://materialsproject.org/materials/mp-768107,-64.39047422370422,-23.46726073141707,1.153898972854355,-1.8407008472193127
-5.3303078875,-21.32123155,10.686132949493935,-0.2650518250000005,0.0374796,0.005950066751486049,0.0,225,4,73.40920771023931,472.413195,mp-1185457,Lu2CoCu,https://materialsproject.org/materials/mp-1185457,-9.947341762828259,55.771708673866435,-8.604250342815693,-0.5045126942092143
-3.81111104,-38.1111104,4.203342119708653,-2.171538380280667,0.0,0.0,0.1359,225,10,186.55206828383086,472.22145776,mp-1111749,Na2TlAgF6,https://materialsproject.org/materials/mp-1111749,-27.60777076742774,20.804694695639373,-8.604250342815693,-0.5045126942092143
-7.233679805,-28.93471922,6.433791324415108,-0.3959878883333348,0.0,0.0,0.0,11,4,55.00573313484088,213.1208,mp-1048,TiNi,https://materialsproject.org/materials/mp-1048,32.618843502407245,71.68409948552555,-8.604250342815693,-0.5045126942092143
-6.410911122083332,-153.86186693,7.416909253655289,-0.938614919583332,5.0925e-05,1.2939425548729452e-06,0.0,194,24,458.66274844085154,2048.6479999999997,mp-1191528,Dy2Si3Rh,https://materialsproject.org/materials/mp-1191528,11.659234322883119,73.201187332799,-8.604250342815693,-0.5045126942092143
-7.216882364,-36.08441182,4.041136729109213,-0.05132679295199978,4.6513273,0.8133410384887407,0.0,115,5,66.64715914654488,162.19449,mvc-13445,Mg(MnN)2,https://materialsproject.org/materials/mvc-13445,3.9699691144419935,13.667934775874349,-8.604250342815693,-0.5045126942092143
-6.88127616173913,-158.26935172,7.115635805406978,-2.5302841400543485,0.00014969999999999998,6.126538866441453e-06,0.0,10,23,284.76331163235227,1220.24955,mp-753437,La5Cu5O13,https://materialsproject.org/materials/mp-753437,-44.801822154701746,0.7088905825887969,-8.604250342815693,-0.5045126942092143
-6.3920989375,-920.462247,4.371309960837728,-2.3939301805555555,33.000000199999995,0.20423518015398773,0.0,1,144,1883.0455141730083,4957.05034,mp-1076614,Sr3Ca5Fe5Co3O20,https://materialsproject.org/materials/mp-1076614,-32.09513794472115,-16.455953265972518,-8.604250342815693,-0.5045126942092143
-5.718374473958334,-274.48197475,2.445092915716361,-1.0581412439183329,1.25e-08,2.8587520494449653e-10,2.2440999999999995,206,48,509.57833046513963,750.338496,mp-542435,Li3ScN2,https://materialsproject.org/materials/mp-542435,28.635111093767172,-15.506526186333115,8.761375729763786,-1.457786573511888
-3.681035193333333,-11.04310558,6.027565779218124,-0.04360354333333364,0.0005388999999999999,5.5048648776792115e-05,0.0,123,3,114.08773231469677,414.12535,mp-1217469,TbTe2,https://materialsproject.org/materials/mp-1217469,61.09566960513442,19.118702604025877,7.565313293816848,-6.485665199097978
-7.943403420999999,-317.73613684,6.475415458197343,-3.599354778416666,0.0004029,1.0803048117347827e-05,3.5096,221,40,434.63869140083364,1694.9111302000001,mp-997588,La8Al7BO24,https://materialsproject.org/materials/mp-997588,33.81837968163967,-24.954090096882073,8.848829748890028,-2.2480949790693696
-6.003341274935066,-462.25727817,5.150438412938847,-2.1876845886201304,29.9999998,0.3473228720764092,0.1110000000000002,5,77,1006.6193992806293,3122.19773,mp-1219118,Sr18Co14O45,https://materialsproject.org/materials/mp-1219118,-35.6823433303959,-17.263001807572234,-4.730874550217654,-1.6097273714618534
-4.086352355,-16.34540942,7.135478312535324,-0.4056125650000002,4e-07,4.622349146805994e-08,0.0,221,4,100.84971431128314,433.35985,mp-20131,YIn3,https://materialsproject.org/materials/mp-20131,-11.13162710340312,41.98279714282579,-8.604250342815693,-0.5045126942092143
-6.4962023575,-25.98480943,10.791713397430945,-0.4514278599999999,6e-07,9.193814190531061e-08,0.0,225,4,76.05590801190547,494.2814,mp-862615,Er2NiRu,https://materialsproject.org/materials/mp-862615,16.643838612448473,52.10905743774184,-8.604250342815693,-0.5045126942092143
-5.25002672296875,-336.00171027,4.38620364989859,-2.06474446261125,0.046743375,0.00043185943758101145,1.2984,63,64,1261.406542344832,3331.9216512000007,mp-531195,Sr2NF,https://materialsproject.org/materials/mp-531195,25.40517109889237,-10.53564687584718,6.962732438227353,-1.090163480219707
-4.122851348571428,-57.71991888,2.8672597800646287,0.1783946371428569,1.74207835,0.07278446803569813,0.0,176,14,278.9371754399082,481.642,mp-1094379,Mg4Ti3,https://materialsproject.org/materials/mp-1094379,-18.32792649247046,39.06912387012563,-8.604250342815693,-0.5045126942092143
-9.55222277,-95.5222277,6.657037710670094,-0.08001102149999895,3e-07,3.893181985218042e-08,0.0,63,10,89.80364763431675,360.0194,mp-570112,Cr3C2,https://materialsproject.org/materials/mp-570112,-0.4516882724193154,17.126393294905988,-8.604250342815693,-0.5045126942092143
-7.208790394444446,-389.2746813,6.138281805150994,-2.631993961527777,1.00000015,0.014219948502967728,0.8541000000000003,1,54,819.557575629559,3029.54356,mp-1229271,Ba4Sr2Gd2Co4O15,https://materialsproject.org/materials/mp-1229271,-38.22396601413738,-24.061664440611235,1.5284473289380942,1.1554513847660506
-5.471117757999999,-109.42235516,4.618100546402805,-2.1042341123312505,5.5e-07,1.3979760877463949e-08,1.4413000000000005,63,20,458.50109176335314,1275.1306,mp-1211692,KCaEr2CuS5,https://materialsproject.org/materials/mp-1211692,48.96784053515482,-6.9625762091196775,7.911943394872146,-4.8733296963748165
-6.743102755263157,-128.11895235,2.8422436030448788,-2.581669947118421,0.0,0.0,0.2441000000000002,2,19,269.570220506417,461.40693856,mp-559415,Na2Cu2Si4O11,https://materialsproject.org/materials/mp-559415,-54.589721616607676,-19.332977561610086,1.3307013382175368,0.20775734750134506
-6.48417397625,-103.74678362,5.721410789055523,-0.2501900624399997,0.0,0.0,0.029399999999999867,14,16,253.70831676888665,874.1556,mp-1245966,SrRhN2,https://materialsproject.org/materials/mp-1245966,8.246598243410126,8.972230209253171,-8.604250342815693,-0.5045126942092143
-5.740334931538461,-74.62435411,5.694466901256758,-2.4490274198397444,2.99e-05,1.3412330241935723e-06,0.0,107,13,259.80312922062683,890.9398,mp-1228222,Ba4In2O7,https://materialsproject.org/materials/mp-1228222,5.0071494722993455,-27.931149252018148,5.722093637285398,-2.1272137088873664
-9.415555650555557,-169.48000171,7.805431034768808,-3.1414877875000005,2.9999995,0.1614881211908043,0.8709999999999996,136,18,216.50006348973216,1017.6673199999999,mp-21860,Ta2VO6,https://materialsproject.org/materials/mp-21860,-14.485332633376807,-24.98146088086572,-4.9747259326337385,-2.8860101974145587
-10.065194068333334,-60.39116441,14.786235291369117,-0.23547048166666684,1.5e-06,1.8505002067353521e-07,0.0,140,6,94.46687493042569,841.1783199999999,mp-1867,Ta2Ni,https://materialsproject.org/materials/mp-1867,39.90744626571225,66.76970530847574,-8.604250342815693,-0.5045126942092143
-6.241948227000001,-249.67792908,4.676725734817502,-2.17139116475,0.999999825,0.023791206867230796,0.3338000000000001,14,40,489.84748012721747,1379.6016,mp-6537,CaCu(GeO3)2,https://materialsproject.org/materials/mp-6537,-55.60624396399953,-7.3147267000550364,1.9335400524131667,-0.0801546049011373
-6.2077346475,-24.83093859,12.699814141944449,-1.1152863374999995,6.2e-06,8.688508965820066e-07,0.0,225,4,83.1617966605278,636.0219999999998,mp-1184099,Er2PdPt,https://materialsproject.org/materials/mp-1184099,16.846778544727858,54.087725548233564,-8.604250342815693,-0.5045126942092143
-7.476193155,-717.71454288,6.8103138587325525,-3.152755213541667,0.000185325,1.6645596382896353e-06,0.03699999999999992,12,96,1297.5140717660602,5321.45156,mp-775959,LiLa7(CuO7)2,https://materialsproject.org/materials/mp-775959,-42.298883034353736,-4.394876235790515,-8.604250342815693,-0.5045126942092143
-6.47180287357143,-453.02620115,9.799887429584873,-0.7565488915714289,0.003916485714285714,2.8187716215740083e-05,0.0,140,70,1619.250663861987,9556.2187,mp-1202922,Tb3Rh2,https://materialsproject.org/materials/mp-1202922,15.833903147065651,50.45773099067323,-8.604250342815693,-0.5045126942092143
-9.462054327999999,-47.31027164,6.452268774908331,-0.4990431369519996,1.6349205,0.402360733287392,0.0,139,5,47.35419693992968,184.0017,mp-1014303,Cr3N2,https://materialsproject.org/materials/mp-1014303,-0.5764362219246114,15.589444231261695,-8.604250342815693,-0.5045126942092143