energy_per_atom,energy,density,formation_energy_per_atom,total_magnetization_uB,total_magnetization_T,band_gap,sgr,num_sites,cell_volume,weight,mp_id,formula,URL,tsne_cry_lin1_0,tsne_cry_lin1_1,tsne_cry_lin2_0,tsne_cry_lin2_1
-10.0546619865,-201.09323973,13.147605220961873,-0.5293099658333332,1.95e-05,8.409509494015921e-07,0.0,127,20,270.23486117308585,2139.63128,mp-1188194,Ta3B2Ru5,https://materialsproject.org/materials/mp-1188194,41.33586329229375,58.83392573319264,-8.604250342815693,-0.5045126942092143
-7.228871115,-187.95064899,12.35990793697924,-1.184364588076923,0.00085495,2.315287563841776e-05,0.0,55,26,430.3414760612783,3203.165296,mp-1193821,Sc4Si2Pt7,https://materialsproject.org/materials/mp-1193821,23.648956365350895,56.319985033422306,-8.604250342815693,-0.5045126942092143
-8.55041359125,-68.40330873,2.6981871994321316,0.35680964159250017,9e-06,1.7029662547455464e-06,0.0,63,8,61.59052339455145,100.0776,mp-1014296,C3N,https://materialsproject.org/materials/mp-1014296,43.0184393375383,-6.685345748332888,-8.604250342815693,-0.5045126942092143
-7.4985599759615384,-389.92511875,5.597286647464447,-2.3383827479052206,0.00021775,3.3280122957409213e-06,0.0,4,52,762.5189989449564,2570.272248,mp-28031,P2W5O19,https://materialsproject.org/materials/mp-28031,-18.94186359571623,0.04821896118815863,1.5040248757305723,-1.6653339561156164
-6.883347088,-206.50041264,8.415219478771796,-0.2504627585833333,14.5114654,0.44970343463436696,0.0,191,30,376.06463436033243,1905.806705,mp-569415,Nd5Co19B6,https://materialsproject.org/materials/mp-569415,42.348991213732354,83.41127898482452,-8.604250342815693,-0.5045126942092143
-9.445625855,-18.89125171,6.388803148276874,-0.014537134374998928,1e-07,7.005219187927559e-08,0.0,187,2,16.63625999403947,64.0068,mp-1018050,CrC,https://materialsproject.org/materials/mp-1018050,-0.24609768258520845,17.048991594857135,-8.604250342815693,-0.5045126942092143
-5.76582174,-23.06328696,11.247890102722476,-0.206099721666666,2.4299999999999998e-05,3.4513214736654945e-06,0.0,225,4,82.05372235940487,555.8022000000002,mp-865214,Lu2TcAg,https://materialsproject.org/materials/mp-865214,18.061867412396943,55.5221547272538,-8.604250342815693,-0.5045126942092143
-7.506552734166667,-90.07863281,7.927471515342335,-0.317334085833334,4.9601742,0.3574173753604963,0.0,160,12,161.73301969909915,772.1190986,mp-1215811,Zr3AlCo8,https://materialsproject.org/materials/mp-1215811,61.12141929939683,64.63624451915345,-8.604250342815693,-0.5045126942092143
-7.063273103367348,-692.20076413,5.838672408970117,-0.6786885933406283,0.96727605,0.004408589266370389,0.0,176,98,2556.9852527737407,8990.694519,mp-581739,Cs5Mo21Se23,https://materialsproject.org/materials/mp-581739,63.737803477029935,32.04621839661156,-8.604250342815693,-0.5045126942092143
-5.03721482,-20.14885928,1.0352396816753864,2.3577855875000004,2e-07,3.1832863009658257e-09,0.1431,71,4,732.2033691423725,456.4818800000001,mp-1097419,TaGaRh2,https://materialsproject.org/materials/mp-1097419,-61.174628286635894,40.58378340449795,-0.9471724978082441,0.3119378009186081
-9.713194117,-97.13194117,12.598061551118086,-0.4913388204166666,9.88417945,0.5403726704903071,0.0,127,10,213.169306710839,1617.2579999999998,mp-640039,Pu2InRh2,https://materialsproject.org/materials/mp-640039,17.924322440083113,52.225469505981714,-8.604250342815693,-0.5045126942092143
-5.915950892000001,-118.31901784,3.2457505098261423,-2.625173448418,3.99999955,0.196586066422352,0.6405,62,20,237.12898220241985,463.5010056,mp-753878,LiMnOF2,https://materialsproject.org/materials/mp-753878,-51.623226668486716,-54.711993811950904,3.4391842304888867,1.0407014753838435
-8.74460500375,-139.91368006,13.384703523356519,-0.07610244812499901,1.55e-06,6.260343204633581e-08,0.0,140,16,288.54329238846896,2325.7908,mp-1188317,Ta5Ga2Sn,https://materialsproject.org/materials/mp-1188317,32.359411045959405,43.810712656044856,-8.604250342815693,-0.5045126942092143
-7.492734235,-374.63671175,7.118582235093593,-2.3066612821000003,0.00014225,2.3249817048807134e-06,0.0,12,50,713.0338748113599,3056.7124,mp-867545,Ba(WO3)6,https://materialsproject.org/materials/mp-867545,-17.34455761435371,0.6312603179316876,-8.604250342815693,-0.5045126942092143
-7.4909107225,-389.52735757,5.63661492428939,-2.3307334944436815,2.00000005,0.03078205307901071,0.0,14,52,757.1986854806538,2570.272248,mp-556914,P2W5O19,https://materialsproject.org/materials/mp-556914,-18.840563894134426,-0.0042924239221858096,-8.604250342815693,-0.5045126942092143
-8.221059259,-246.63177777,9.7955858742328,-0.6317908540000009,0.0009587999999999999,2.8507085413342835e-05,0.0,139,30,391.9698258139096,2312.2456,mp-1192706,Ta4Co4Si7,https://materialsproject.org/materials/mp-1192706,46.59048818213898,51.753297956989755,-8.604250342815693,-0.5045126942092143
-6.2162961875,-24.86518475,3.7043304174496425,-2.125912365781251,2.08e-05,1.4821325295170646e-06,0.0,139,4,163.5511956196159,364.85,mp-1879,SmS,https://materialsproject.org/materials/mp-1879,-43.42159446293681,40.17517799405736,-8.604250342815693,-0.5045126942092143
-1.5657602216666666,-9.39456133,5.9433804558912815,-0.011756661666666742,9.5e-06,5.349363232117742e-07,0.0,12,6,206.96597059363842,740.77,mp-980663,Yb2Mg,https://materialsproject.org/materials/mp-980663,-27.21752622083463,55.39040999654878,-8.604250342815693,-0.5045126942092143
-6.5609432110000006,-65.60943211,5.691749136245656,-0.756831039,0.00686155,0.0004659446782388496,0.0,12,10,171.61897511610988,588.2500379999999,mp-1205523,Sc2CoGe2,https://materialsproject.org/materials/mp-1205523,23.563209794307504,66.55601643013546,-8.604250342815693,-0.5045126942092143
-6.25367607,-37.52205642,11.648582827249188,-0.1125570216666662,2.6888332000000004,0.29601436750129223,0.0,186,6,105.85917345809963,742.59582,mp-1094035,UGaCu,https://materialsproject.org/materials/mp-1094035,39.998927926788575,48.06379521737809,-8.604250342815693,-0.5045126942092143
-8.322273938333334,-49.93364363,7.200090689291214,-0.253927851666667,7.5e-07,7.850442525658933e-08,0.0,140,6,111.33829145110676,482.76239000000004,mp-628,Zr2Co,https://materialsproject.org/materials/mp-628,25.758028333388577,58.114043658568704,-8.604250342815693,-0.5045126942092143
-5.1487165075,-20.59486603,0.7896233593020907,1.9156875724999995,1.5e-06,1.7538508996372232e-08,0.3537999999999997,71,4,996.7265268932173,473.9657,mp-1097270,Y2RuPt,https://materialsproject.org/materials/mp-1097270,-67.85671933577511,41.75474290357782,-8.139285412140984,2.2241420314670663
-9.500824958611112,-342.02969851,9.639150903597569,-0.14994853340555558,0.33116609999999996,0.007315924696049375,0.0,7,36,527.5383960636018,3062.272,mp-1246394,SrRe7N10,https://materialsproject.org/materials/mp-1246394,3.3440841984719194,18.613496976100688,-8.604250342815693,-0.5045126942092143
-6.254135631666667,-37.52481379,11.680732546877715,-0.11301658333333366,2.7328424,0.3016897144042062,0.0,194,6,105.56780964738596,742.59582,mp-1077802,UGaCu,https://materialsproject.org/materials/mp-1077802,40.00853142074447,48.0543861117584,-8.604250342815693,-0.5045126942092143
-2.03687355,-8.147494199999999,0.5640495683632625,1.8683571883333332,3.4125278,0.047382391031674416,0.0,71,4,839.3375503734101,285.105,mp-1096372,TiZn2Pd,https://materialsproject.org/materials/mp-1096372,-65.06733176149892,40.95302039081215,-8.604250342815693,-0.5045126942092143
-5.661261735,-90.58018776,4.4766426277582285,-1.8998174272916677,4.0000001,0.33097321436967403,0.0,166,16,140.84602086130798,379.7064,mp-756601,Li4TiNi3O8,https://materialsproject.org/materials/mp-756601,-68.1049605849025,-24.962221706354107,-8.604250342815693,-0.5045126942092143
-3.68727648625,-29.49821189,5.898634772657188,0.98360953125,0.6966926,0.07046147169870977,0.0,194,8,115.23035910576496,409.32599999999996,mp-1185288,Li3W,https://materialsproject.org/materials/mp-1185288,29.86800057939011,44.19183426072104,-8.604250342815693,-0.5045126942092143
-5.2667191725,-21.06687669,0.7017426856248256,2.8595001687499995,2.3805076,0.03647229142960847,0.0,71,4,760.6483901762473,321.4495,mp-1096081,ZrSiRu2,https://materialsproject.org/materials/mp-1096081,-62.59388811834796,39.29128561158309,-8.604250342815693,-0.5045126942092143
-9.6378908325,-77.10312666,8.48129307565986,-0.2307192588541671,0.0,0.0,0.0,63,8,84.07221673014288,429.4034,mp-4472,BMo2C,https://materialsproject.org/materials/mp-4472,4.307313403951151,22.32320135839886,-8.604250342815693,-0.5045126942092143
-8.277812048571429,-115.88936868,5.095210306454231,-0.4087738310199995,9.183793199999998,0.7022774854384948,0.0,11,14,152.40203912242148,467.6315472,mp-1246896,Mn3AlN3,https://materialsproject.org/materials/mp-1246896,3.031986398676017,17.664374450151673,-8.604250342815693,-0.5045126942092143
-6.802061483999998,-34.01030742,14.693558269891922,-0.8792397108333325,0.0,0.0,0.0,99,5,83.66287671286052,740.305,mp-11597,NdBPt3,https://materialsproject.org/materials/mp-11597,22.95244784753945,50.90344618420181,-8.604250342815693,-0.5045126942092143
-6.617596515,-26.47038606,1.2599092777963237,3.786986470625002,2.140776,0.029381887557842032,0.0,71,4,849.1197891362981,644.2570000000002,mp-1097565,Hf2ReRu,https://materialsproject.org/materials/mp-1097565,-61.01970223412222,35.23566455982851,-8.604250342815693,-0.5045126942092143
-7.12626711,-28.50506844,1.623477577913529,4.7165984918750015,0.0369154,0.0005696788183775261,0.0,71,4,755.1877458428636,738.33276,mp-1096294,Ta2ReOs,https://materialsproject.org/materials/mp-1096294,-57.92718532192738,40.5549126141205,-8.604250342815693,-0.5045126942092143
-7.785688746,-38.92844373,5.967435965259362,-0.4368689306666667,1.1127056,0.2097091774593954,0.0,139,5,61.83583995841438,222.21785,mp-12077,Y(FeB)2,https://materialsproject.org/materials/mp-12077,6.871710418398732,39.41700159004309,-8.604250342815693,-0.5045126942092143
-6.289296875,-25.1571875,1.1029110135236444,4.0432017275,0.11751760000000001,0.0019244454057917343,0.0,71,4,711.6635879583772,472.67880499999995,mp-1096013,Ta2MnFe,https://materialsproject.org/materials/mp-1096013,-57.744524332709716,40.54280134131507,-8.604250342815693,-0.5045126942092143
-4.46038191625,-71.36611066,10.075627480006062,-0.3000638950000001,0.596216,0.014647056046125812,0.0,140,16,474.3847405618623,2878.417076,mp-568686,Er5BiAu2,https://materialsproject.org/materials/mp-568686,-7.199279187485282,31.96937927644639,-8.604250342815693,-0.5045126942092143
-8.8990407175,-35.59616287,11.701651214608846,-0.7126427362500003,1.32e-05,2.294971965370525e-06,0.0,225,4,67.03073384730928,472.358824,mp-1186954,Sc2IrOs,https://materialsproject.org/materials/mp-1186954,21.16632002047252,52.69741077967873,-8.604250342815693,-0.5045126942092143
-6.3236047425,-25.29441897,12.538523282021927,-0.5802523537499997,9.059999999999999e-05,1.3794919798077093e-05,0.0,225,4,76.53964530776663,577.9413199999998,mp-1184821,HoRh2Pb,https://materialsproject.org/materials/mp-1184821,31.131464728011533,56.42096742480196,-8.604250342815693,-0.5045126942092143
-3.9906536825,-15.96261473,0.7398299757277531,2.3891885616666664,0.7308475999999999,0.01171560952429043,0.0,71,4,727.0082919382429,323.90839,mp-1096737,ZrInCo2,https://materialsproject.org/materials/mp-1096737,-63.67281736494761,37.93033802860383,-8.604250342815693,-0.5045126942092143
-4.97333678,-19.89334712,1.0054058061179312,3.2500339625,10.296424499999999,0.20023536030276276,0.0,71,4,599.2707674974773,362.840195,mp-1097158,Fe2CoIr,https://materialsproject.org/materials/mp-1097158,7.147208059940237,24.399903714544624,-8.604250342815693,-0.5045126942092143
-5.2814970025,-21.12598801,1.1152652433553654,3.3543169575,1.5902418,0.024838423853013956,0.0,71,4,746.1335329046292,501.1245,mp-1096084,VGaOs2,https://materialsproject.org/materials/mp-1096084,-57.093187375588634,35.39577096883056,-8.604250342815693,-0.5045126942092143
-3.9016893325,-15.60675733,0.503429236590184,2.87549528,8.9999999,0.17489431888228224,0.032899999999999714,71,4,599.7140585122594,181.81661699999998,mp-1096085,MnBeCo2,https://materialsproject.org/materials/mp-1096085,8.30541104382037,24.3528573805834,-8.604250342815693,-0.5045126942092143
-6.9203630325,-27.68145213,12.858563323798359,-0.800620135,0.0022904,0.00033017761812734637,0.0,225,4,80.84276004673245,626.01464,mp-1184663,Ho2RuPt,https://materialsproject.org/materials/mp-1184663,17.904206555377034,54.080938183477926,-8.604250342815693,-0.5045126942092143
-9.64922749,-38.59690996,16.758911885395957,-0.4327805075000004,4.02e-05,6.4958787414819946e-06,0.0,225,4,72.12163627149478,727.8842099999998,mp-865209,TmHfOs2,https://materialsproject.org/materials/mp-865209,40.28550796189284,59.838105621520405,-8.604250342815693,-0.5045126942092143
-6.635885965499999,-398.15315793,3.7290095376126704,-2.005963571089334,15.000000075,0.2662763962817383,0.19469999999999965,2,60,656.5019464867946,1474.28152,mp-1080219,Li3Mn4O8,https://materialsproject.org/materials/mp-1080219,-70.64587960541441,-37.7245955480685,-5.494717751480201,-2.9893363023357864
-7.518033894318182,-330.79349135,7.666322107068101,-2.0964702679545453,2.000000075,0.039590067694729114,0.4599000000000002,55,44,588.7368164888845,2718.0608,mp-555619,W3O8,https://materialsproject.org/materials/mp-555619,-19.23291408157831,1.0521857169973594,-8.604250342815693,-0.5045126942092143
-5.413313026875,-86.61300843,7.734301184390698,-0.0985526112499997,3.41e-05,9.073239870563755e-07,0.0,62,16,437.99526344892433,2040.05278,mp-980752,Sm3Co,https://materialsproject.org/materials/mp-980752,-31.227656411066373,69.58085901555236,-8.604250342815693,-0.5045126942092143
-9.095209273,-90.95209273,12.500996701146006,-0.14904467200000085,5.684125,0.3237207489463753,0.0,127,10,204.63056860250595,1540.51546,mp-21346,U3Si2,https://materialsproject.org/materials/mp-21346,25.78322963639299,63.87919899497819,-8.604250342815693,-0.5045126942092143
-8.036088329444445,-144.64958993,10.238512956233102,-0.5958776599999993,6.973333333333333e-05,4.43144032730323e-06,0.0,166,18,183.3888585763085,1130.7347550000002,mp-1106407,HfCo3B2,https://materialsproject.org/materials/mp-1106407,38.901355169660675,88.61304583626318,-8.604250342815693,-0.5045126942092143
-6.2779198425,-25.11167937,1.0672652720165792,3.925116080625,0.44196440000000004,0.0055263448367793636,0.0,71,4,932.0232263622532,599.0319999999999,mp-1097527,Hf2FeRe,https://materialsproject.org/materials/mp-1097527,-61.00036550880577,35.27216088945345,-8.604250342815693,-0.5045126942092143
-7.050958333333332,-126.91725,6.796011450817478,-2.220832395411877,1.0,0.03997444155957626,0.0,227,18,291.53790066562794,1193.1637038,mp-21857,Cs(WO3)2,https://materialsproject.org/materials/mp-21857,-16.722233997838558,0.7667014092443432,0.7586635070668911,-2.379588126378603
-7.090759296,-35.45379648,7.430501452069743,0.08987861104800032,2e-07,5.098327605955708e-08,0.0,139,5,45.71720639899945,204.57319,mp-1245878,Co2NiN2,https://materialsproject.org/materials/mp-1245878,2.6180966029608763,16.60981609566014,-8.604250342815693,-0.5045126942092143
-7.200754171333332,-108.01131257,7.3145946641945505,-0.689546475583333,0.1156624,0.004326906003834207,0.0,148,15,311.52447040801405,1372.2503199999999,mp-1104260,Ho(Mo3Se4)2,https://materialsproject.org/materials/mp-1104260,63.02770386524133,32.99145677578368,-8.604250342815693,-0.5045126942092143
-8.7063062515,-174.12612503,5.2588539595100094,0.09084949707200138,0.0,0.0,0.10509999999999976,2,20,301.9051799811429,956.1204,mp-1247498,MoRuN3,https://materialsproject.org/materials/mp-1247498,6.479361174357798,19.11222002025507,-5.199834242844767,-2.398099868535493
-8.001098842500001,-96.01318611,9.029332047994377,-0.3045975816666673,7.035e-05,5.121261447416069e-06,0.0,194,12,160.09013895653308,870.50469,mp-1220720,Nb2Co3Ge,https://materialsproject.org/materials/mp-1220720,46.7399244239857,50.628312820182956,-8.604250342815693,-0.5045126942092143
-7.8015240494444456,-140.42743289,6.7707716463869545,-0.2296358867985191,0.0003962,2.771719693662564e-05,0.0,2,18,166.5875692064219,679.25316,mp-1245662,Ti(CoN)4,https://materialsproject.org/materials/mp-1245662,2.9796047249981426,17.231021689384132,-8.604250342815693,-0.5045126942092143
-5.583336431666668,-134.00007436,8.994086787907115,-0.7956726858333342,0.095502125,0.0021354397459721988,0.0,62,24,521.1984804377533,2823.0016,mp-1213162,Er3NiGe2,https://materialsproject.org/materials/mp-1213162,1.6896763186160495,75.72298806266366,-8.604250342815693,-0.5045126942092143
-9.484061315,-37.93624526,10.511564730554968,-0.3473483837500009,0.0009064,0.00014167106434485657,0.0,225,4,74.5617629026559,471.991792,mp-862612,ScPaTc2,https://materialsproject.org/materials/mp-862612,20.762507722009886,56.404628886283405,-8.604250342815693,-0.5045126942092143
-4.91078854,-19.64315416,0.6722500621986303,3.0478963891666657,1e-07,1.5827267897000934e-09,0.24519999999999964,71,4,736.3282689343996,298.094,mp-1093708,Ti2MoPd,https://materialsproject.org/materials/mp-1093708,-58.721485868295595,37.376133163482216,-8.604250342815693,-0.5045126942092143
-7.221587376666666,-86.65904852,7.483548956914822,-0.29060602611111125,3.64073455,0.2850149517637546,0.0,191,12,148.86712434849784,670.8992599999999,mp-10463,YCo4B,https://materialsproject.org/materials/mp-10463,42.477143216105546,83.21438499321191,-8.604250342815693,-0.5045126942092143
-7.332989405,-14.66597881,7.848255699874594,0.3167156488100007,5.3e-06,2.4969941093715918e-06,0.0,216,2,24.7363592339875,116.9122,mp-1009734,RhN,https://materialsproject.org/materials/mp-1009734,-0.11548234872356775,14.289781556587995,-8.604250342815693,-0.5045126942092143
-5.19581463,-20.78325852,6.299877771850095,-0.005146913125000374,0.012683799999999999,0.0010750922843807058,0.0,187,4,137.4931518993659,521.63185,mp-1220208,Nd3Y,https://materialsproject.org/materials/mp-1220208,-52.901643774226066,68.06270893714442,-8.604250342815693,-0.5045126942092143
-7.224727467142856,-101.14618454,6.768742702520357,-0.7989958851116066,0.0041546000000000005,0.0001490595692561398,0.0,176,14,324.82300697432174,1324.0539999999999,mp-1104001,Ba(MoSe)3,https://materialsproject.org/materials/mp-1104001,63.95845977041421,31.565355748816298,-8.604250342815693,-0.5045126942092143
-7.21338435,-28.8535374,6.6293768440768455,-0.3756924333333345,1.145e-05,2.49965857480882e-06,0.0,51,4,53.382907166037356,213.1208,mp-603347,TiNi,https://materialsproject.org/materials/mp-603347,32.656466225887144,71.58522344018407,-8.604250342815693,-0.5045126942092143
-3.81033735,-15.2413494,8.690619815805345,-0.16059305812500035,0.0087039,0.0008382479907668272,0.0,139,4,121.00931405882535,633.316,mp-976417,Nd3Hg,https://materialsproject.org/materials/mp-976417,-24.052015527082453,54.62256932861671,-8.604250342815693,-0.5045126942092143
-7.0954412725,-198.67235563,5.897015456700893,-0.6227922218215056,0.05173490000000001,0.0008819767599383844,0.0,148,28,683.6029054144453,2427.6556,mp-17030,RbMo6Se7,https://materialsproject.org/materials/mp-17030,63.50988330543176,32.23055391400522,-8.604250342815693,-0.5045126942092143
-5.956965145,-23.82786058,0.9029367433680591,4.221886618125,1.9999487,0.03326470449882249,0.0,71,4,700.6685326912072,380.99638,mp-1097351,NbV2Re,https://materialsproject.org/materials/mp-1097351,-60.4188415660085,42.35354362538804,-8.604250342815693,-0.5045126942092143
-8.47676770909091,-186.4888896,7.313295414587781,-0.7814837378999987,5e-08,1.7298241332638904e-09,0.0,2,22,336.85692517685044,1483.575,mp-1029782,Ca3W3N5,https://materialsproject.org/materials/mp-1029782,-8.122606908912028,33.952639287385715,-8.604250342815693,-0.5045126942092143
-4.51227542125,-36.09820337,7.734449213865959,-0.4276589949999998,0.0,0.0,0.0,139,8,174.5226243828275,812.8904786,mp-27393,AlPd5I2,https://materialsproject.org/materials/mp-27393,42.91216156165826,41.29982952771589,-8.604250342815693,-0.5045126942092143