energy_per_atom,energy,density,formation_energy_per_atom,total_magnetization_uB,total_magnetization_T,band_gap,sgr,num_sites,cell_volume,weight,mp_id,formula,URL,tsne_cry_lin1_0,tsne_cry_lin1_1,tsne_cry_lin2_0,tsne_cry_lin2_1
-10.4370234275,-125.24428113,14.137705728581581,0.2865582891666669,2.01300455,0.11953227559015644,0.0,193,12,196.2623508783036,1670.96304,mp-1102936,Ta2Fe,https://materialsproject.org/materials/mp-1102936,59.817691483389005,56.71136333257793,-8.604250342815693,-0.5045126942092143
-7.113967146999999,-497.97770029,12.910006648235575,-0.8215993199999998,0.002271557142857143,1.6720544844662187e-05,0.0,140,70,1583.254273312684,12309.14944,mp-1198319,Ho3Ir2,https://materialsproject.org/materials/mp-1198319,16.358860308381665,48.58874856120513,-8.604250342815693,-0.5045126942092143
-8.30364086857143,-116.25097216,7.253342273699143,-0.7027217063265313,5.28519455,0.3572506945691108,0.0,136,14,172.41114029342782,753.1030480000001,mp-1105063,Zr(Fe2P)2,https://materialsproject.org/materials/mp-1105063,47.768924174722954,61.56330342472985,-8.604250342815693,-0.5045126942092143
-7.227593797076922,-469.79359681,6.408296447056365,-2.2295976891346156,0.06553986,0.0008025052561909172,0.0,1,65,951.7766615634273,3673.0645,mp-997523,K(WO3)3,https://materialsproject.org/materials/mp-997523,-17.10780633903067,0.8774415768316323,-8.604250342815693,-0.5045126942092143
-5.372813974444443,-48.35532577,5.772179754218423,-0.5367949986666668,1.4e-06,9.827201684067848e-08,0.0,79,9,166.02580476225555,577.1203,mp-1223845,K(SiPd)4,https://materialsproject.org/materials/mp-1223845,11.731928851707142,56.771079246211464,-8.604250342815693,-0.5045126942092143
-8.26560557,-33.06242228,9.438427999406203,-1.04664584,0.0003738,6.430842225340784e-05,0.0,225,4,67.74057361906378,385.034324,mp-862334,Sc2IrRh,https://materialsproject.org/materials/mp-862334,20.87361433672051,52.36259159694826,-8.604250342815693,-0.5045126942092143
-7.053585925,-28.214343699999997,9.286794316497867,-0.2421636975000005,1.0294954,0.17750006313597644,0.0,225,4,67.59324961738837,378.0246,mp-1187628,TmZrCo2,https://materialsproject.org/materials/mp-1187628,31.151668251888943,59.250359943591384,-8.604250342815693,-0.5045126942092143
-3.970663708,-39.70663708,8.818855726877588,-0.3058223689999998,0.0012794,7.013756290711961e-05,0.0,127,10,212.5852375246895,1129.006,mp-1206555,Dy2CdCu2,https://materialsproject.org/materials/mp-1206555,-16.631001738992982,55.58105139391815,-8.604250342815693,-0.5045126942092143
-7.089109584,-106.33664376,8.605467387732366,-0.5897404779999997,2.0098347,0.06461855740602393,0.0,148,15,362.4770455453489,1878.477,mp-1103692,Ce3Rh2,https://materialsproject.org/materials/mp-1103692,12.651336303244555,53.232303982501286,-8.604250342815693,-0.5045126942092143
-3.979986295,-15.91994518,11.500564137978994,-0.7148213424999996,4.8700000000000005e-05,6.977173715181662e-06,0.0,225,4,81.34424877349925,563.374138,mp-861885,LiDyAu2,https://materialsproject.org/materials/mp-861885,-10.370737059148512,60.109811053625,-8.604250342815693,-0.5045126942092143
-6.456407886666668,-38.73844732,10.36204829788254,-0.18435817499999985,0.010051000000000001,0.00130773582351547,0.0,74,6,89.57084674343004,558.9374399999998,mp-1223954,HoFeNi,https://materialsproject.org/materials/mp-1223954,42.57631275557243,70.01403526065994,-8.604250342815693,-0.5045126942092143
-7.7033445789999995,-77.03344579,5.7420315087978375,-3.4325565217500005,0.0,0.0,3.4615000000000014,1,10,123.70699757208462,427.7704172,mp-696871,LaAlO3,https://materialsproject.org/materials/mp-696871,-36.74370729807236,28.45439379085941,-8.604250342815693,-0.5045126942092143
-11.157037684242425,-368.18224358,16.140753859164295,-0.05307394155302994,0.0057227,0.00015755739860063845,0.0,187,33,423.2915563868488,4114.47407,mp-1226155,Co6W20C7,https://materialsproject.org/materials/mp-1226155,57.550483264347626,48.24585698770665,-8.604250342815693,-0.5045126942092143
-4.9447842525,-19.77913701,10.736452227972485,-0.7144947300000002,2.84e-05,3.963687787970533e-06,0.0,225,4,83.50189450974888,539.89342,mp-867888,LiTm2Pt,https://materialsproject.org/materials/mp-867888,8.751866162482456,42.56369852504209,-8.604250342815693,-0.5045126942092143
-6.472331047777778,-116.50195886,9.999030119275194,-1.0060765811111103,4e-07,1.304076747804336e-08,0.0,190,18,357.46561058408724,2152.499472,mp-18198,ScSnPt,https://materialsproject.org/materials/mp-18198,8.965911110321867,54.14174299274158,-8.604250342815693,-0.5045126942092143
-5.4077311175,-21.63092447,0.8101215959339055,3.30214146625,2.9999999,0.04184544196139104,0.25780000000000003,71,4,835.5077999780881,407.61638,mp-1097534,NbTc2Sn,https://materialsproject.org/materials/mp-1097534,-61.456259235314256,41.62903856003221,-2.222403169059521,-0.8393666065673354
-6.568485803055554,-236.46548891,8.552597017559698,-0.6559047427777777,3.9899999999999994e-05,5.285349883949009e-07,0.0,62,36,879.7850561176166,4531.328,mp-1201296,Nd5Rh4,https://materialsproject.org/materials/mp-1201296,14.38290069315712,51.72344816858387,-8.604250342815693,-0.5045126942092143
-7.23884628,-492.24154704,6.1235470144196125,-0.4966217295082721,0.0,0.0,0.0,176,68,1594.1377800611883,5878.6799999999985,mp-570170,Mo15Se19,https://materialsproject.org/materials/mp-570170,63.0918150899815,32.560328779673014,-8.604250342815693,-0.5045126942092143
-4.7581795525,-19.03271821,6.733913723899909,0.011562490624999809,0.0001193,9.828827405727334e-06,0.0,139,4,141.45430273363183,573.63365,mp-975887,PrNd3,https://materialsproject.org/materials/mp-975887,-53.16458064729868,67.75643700559354,-8.604250342815693,-0.5045126942092143
-5.687927715,-22.75171086,9.113355494712431,-0.6437695437499995,1.01e-05,1.7484181875510875e-06,0.0,225,4,67.32145378086992,369.473,mp-1100780,ZrZnPd2,https://materialsproject.org/materials/mp-1100780,31.22554363762793,43.190534206579215,-8.604250342815693,-0.5045126942092143
-6.321818113181819,-278.15999698,3.2333186139025285,-2.66135541658,3.000000025,0.07574156049644366,0.7118,8,44,461.59855144088687,898.8016256000001,mp-758185,Li3V2(O2F)2,https://materialsproject.org/materials/mp-758185,-41.55619659117424,-57.68840068333734,3.950688383530625,4.3187327383498735
-7.092523291249999,-283.70093165,7.50230695655948,-0.022670875333332674,26.25120555,0.40669706370361264,0.0,140,40,752.2386492085237,3398.6104,mp-1197167,Nd6Fe13Ag,https://materialsproject.org/materials/mp-1197167,53.77467295008174,81.11813611056479,-8.604250342815693,-0.5045126942092143
-7.445485305555555,-134.0187355,9.167595574113331,0.23381391672000024,0.18099615,0.012030918321175893,0.0,2,18,175.3266707805032,967.9531599999999,mp-1247086,Co4IrN4,https://materialsproject.org/materials/mp-1247086,3.839402854314167,15.120477848850902,-8.604250342815693,-0.5045126942092143
-5.880463965322582,-364.58876585,10.046001628086053,-0.8512874483870974,2.715e-05,2.5601966682486693e-07,0.0,12,62,1235.8732534068874,7476.84,mp-662804,Sm10Pd21,https://materialsproject.org/materials/mp-662804,28.183235270349932,55.95970228970336,-8.604250342815693,-0.5045126942092143
-6.419748977333333,-96.29623466,8.27957340233404,-0.6219164658333332,0.27901609999999993,0.008463660601189917,0.0,148,15,384.1921191322151,1915.611,mp-1104743,Nd3Rh2,https://materialsproject.org/materials/mp-1104743,14.363370821464612,51.83794474506678,-8.604250342815693,-0.5045126942092143
-5.165950416666666,-46.49355375,7.149063813184415,-0.3515854199999993,1e-07,7.294631240695219e-09,0.0,189,9,159.76221947374262,687.8190000000002,mp-1207223,ZrZnGe,https://materialsproject.org/materials/mp-1207223,34.55455809762977,47.684894564947435,-8.604250342815693,-0.5045126942092143
-6.2425288675,-24.97011547,1.0061082481266392,3.614016567500001,2.0000012,0.027695098978085975,0.057700000000000085,71,4,841.5981307176373,509.918045,mp-1097392,Hf2MnTc,https://materialsproject.org/materials/mp-1097392,-61.600525425253906,35.46824996159405,-8.604250342815693,-0.5045126942092143
-6.9626202966666675,-41.77572178,10.322805366550572,-0.6412265166666664,3.6437527999999997,0.4764963722651313,0.0,194,6,89.11826745822044,554.0071672,mp-10892,MnAlPt,https://materialsproject.org/materials/mp-10892,61.086279724048474,45.59483188395882,-8.604250342815693,-0.5045126942092143
-6.92779441125,-55.42235529,9.340255876643814,-0.7108266337499991,1.4e-06,8.124361084571431e-08,0.0,26,8,200.82429266429187,1129.60324,mp-1217344,Th2SiGe,https://materialsproject.org/materials/mp-1217344,2.0293404007048963,71.36517547811252,-8.604250342815693,-0.5045126942092143
-8.649381615,-17.29876323,11.659865521613831,-1.0511996424999983,0.0,0.0,0.0,221,2,33.7769658557755,237.17291200000003,mp-1129,ScIr,https://materialsproject.org/materials/mp-1129,21.03006454910856,52.41769393886067,-8.604250342815693,-0.5045126942092143
-8.567790765,-85.67790765,6.655519060849019,-0.8675715564279998,0.00023995,1.7876852241430103e-05,1.2837999999999998,12,10,156.42534851269738,626.9602000000001,mp-989513,SrWN3,https://materialsproject.org/materials/mp-989513,35.430815590790466,-9.776072006478149,2.9352591856894867,-4.1241917017260645
-6.618330254,-264.73321016,10.217710622010909,-0.8002532841666664,6.85860175,0.07777739723180993,0.0,140,40,1027.6840301747811,6323.596000000001,mp-637609,Ce12InPt7,https://materialsproject.org/materials/mp-637609,12.619446911287337,54.93413056351416,-8.604250342815693,-0.5045126942092143
-8.916802480689658,-258.58727194,9.31684065676777,0.01176793301724227,33.4647658,1.357025411927445,0.0,225,29,287.3936956551203,1612.4892,mp-641595,Fe21(WC3)2,https://materialsproject.org/materials/mp-641595,42.112185475545246,87.7882124855242,-8.604250342815693,-0.5045126942092143
-5.419981846111112,-97.55967323,9.314318830078598,-0.3495537022222221,7.499999999999999e-06,1.9767117978624008e-07,0.0,71,18,442.17617301984666,2480.26078,mp-1213336,Er6Co2Sn,https://materialsproject.org/materials/mp-1213336,-29.641908514757727,71.1938698464858,-8.604250342815693,-0.5045126942092143
-7.5640678575,-121.02508572,5.008236376849494,-0.4392867599999999,0.0195738,0.0008369740792601842,0.0,38,16,272.546472701715,822.008472,mp-1219406,Sc3Si3Mo2,https://materialsproject.org/materials/mp-1219406,51.665462738229074,59.125200485808364,-8.604250342815693,-0.5045126942092143
-6.222647945,-12.44529589,12.46483241254844,-0.006212500000000176,4.2016471,1.4591442612679069,0.0,221,2,33.55820857102156,251.904614,mp-12674,MnAu,https://materialsproject.org/materials/mp-12674,45.51167350959647,35.807918648821634,-8.604250342815693,-0.5045126942092143
-10.388185140833334,-124.65822169,10.962425184784351,-0.7582035182933341,0.033878899999999997,0.003034914671549481,0.0,99,12,130.09489153824975,858.85094,mp-1218060,Ta3Cr5N4,https://materialsproject.org/materials/mp-1218060,28.538786971942102,49.093949823285634,-8.604250342815693,-0.5045126942092143
-7.123394561666667,-85.48073474,11.303356021118288,-0.4250976283333329,1.4125e-05,9.120508856749269e-07,0.0,38,12,180.48736917851886,1228.58478,mp-1224583,HfGaCo,https://materialsproject.org/materials/mp-1224583,39.525422824733035,46.01730339738262,-8.604250342815693,-0.5045126942092143
-6.646600435,-26.58640174,11.315266883048894,0.042294672499999734,0.0007667,6.98972309797766e-05,0.0,221,4,127.8329818774471,871.0811800000001,mp-973556,LuTh3,https://materialsproject.org/materials/mp-973556,-47.267768218547076,69.60886568916264,-8.604250342815693,-0.5045126942092143
-7.1413826525,-28.56553061,9.070292843337329,-0.8824300674999996,0.0003451,5.945758973631681e-05,0.0,225,4,67.64178922903457,369.476912,mp-862623,ScSnRh2,https://materialsproject.org/materials/mp-862623,31.92748545036689,56.406605997565215,-8.604250342815693,-0.5045126942092143
-6.5265011075,-26.10600443,10.129437389238316,-0.6345799943749997,2.1e-05,3.1591182988121975e-06,0.0,225,4,77.46951429953478,472.57099999999997,mp-862955,PmSbRh2,https://materialsproject.org/materials/mp-862955,31.580381361675297,56.11416352374789,-8.604250342815693,-0.5045126942092143
-6.61412743,-52.91301944,13.564601607424779,-1.2966820874999998,1.9e-06,1.2560566119763214e-07,0.0,62,8,176.2876199745751,1440.05728,mp-1079180,HoPt,https://materialsproject.org/materials/mp-1079180,15.560903442144944,56.55112325743739,-8.604250342815693,-0.5045126942092143
-7.8882690775,-31.55307631,8.803425371964213,-0.3561809031250007,1.6e-06,3.950836923505698e-07,0.0,38,4,47.19633838885432,250.21359500000003,mp-13501,ErCoC2,https://materialsproject.org/materials/mp-13501,8.16029134589169,38.377061060405296,-8.604250342815693,-0.5045126942092143
-10.3369222475,-41.34768899,8.616211546894192,-0.4060897325000017,7.295192699999999,1.0214368643718998,0.0,63,4,83.23436447184052,431.8868,mp-542632,GdNi,https://materialsproject.org/materials/mp-542632,2.1960255257994983,58.53568486576474,-8.604250342815693,-0.5045126942092143
-6.2074323599999985,-37.24459416,9.264251695569447,-0.3771536299999999,9.699999999999999e-06,1.2246118723752235e-06,0.0,227,6,92.31041348192319,515.0056,mp-1654,CeNi2,https://materialsproject.org/materials/mp-1654,28.05419712899014,82.28729427842859,-8.604250342815693,-0.5045126942092143
-7.489847192207793,-576.7182338,6.1298859397756855,-2.32126226128015,5.9998695,0.06297729238827181,0.0,2,77,1110.286980088191,4098.6284479999995,mp-578781,BaP4(W2O7)8,https://materialsproject.org/materials/mp-578781,-18.81211625656325,0.05042688360426188,-8.139285405501052,2.224142030061329
-5.756223920344827,-166.93049369,8.647898057047366,-0.44871662103448257,0.0907223,0.002026383287121705,0.0,2,29,521.7589225271238,2717.2610000000004,mp-673662,Ce3(Si3Pd10)2,https://materialsproject.org/materials/mp-673662,28.725235676878487,54.85937839747779,-8.604250342815693,-0.5045126942092143
-8.614236504166668,-103.37083805,12.798047753788252,-0.3369625866666676,3.15e-05,2.314052009859327e-06,0.0,194,12,158.64079060087627,1222.6706900000001,mp-1217780,Ta2Co3Ge,https://materialsproject.org/materials/mp-1217780,59.921326586376466,63.76571660522409,-8.604250342815693,-0.5045126942092143
-3.537763035,-14.15105214,0.8316478263472972,2.2410058975000005,0.0,0.0,0.28039999999999976,71,4,639.3023127742102,320.1818,mp-1096240,HfMgNi2,https://materialsproject.org/materials/mp-1096240,-64.48239214496338,40.0653162572394,-0.35624678218324635,0.8927673947274624
-8.651810257692308,-112.47353335,8.952956904855933,-0.15574907307692326,1.7694735000000001,0.1146252518589655,0.0,166,13,179.9041524262088,969.970645,mp-7250,Nb6Co7,https://materialsproject.org/materials/mp-7250,55.198571974491244,60.218477363766745,-8.604250342815693,-0.5045126942092143
-8.703986951538461,-226.30366074,4.605596189447719,-0.4925264318676914,6.0000003,0.2423077994362336,0.0,15,26,288.57672883112906,800.3833999999998,mp-1246195,Cr5(SiN3)2,https://materialsproject.org/materials/mp-1246195,4.932998606205125,15.298637953528528,-6.022900648462719,0.3830058630466754
-8.214648804166666,-98.57578565,12.019647312261846,-0.4694819900000009,0.12518995,0.009328159098690692,0.0,194,12,156.40511388557812,1132.12292,mp-1218039,Ta2SiNi3,https://materialsproject.org/materials/mp-1218039,28.167259332079325,72.44402854238203,-8.604250342815693,-0.5045126942092143
-5.1671058525,-20.66842341,13.850124158737106,-0.3982876375000002,0.0001862,2.605369780229148e-05,0.0,225,4,83.28901628926394,694.692018,mp-864716,PaGaAu2,https://materialsproject.org/materials/mp-864716,-8.290276012431303,49.89669346319063,-8.604250342815693,-0.5045126942092143
-6.631908675,-26.5276347,6.8118116611995765,-0.4419669741666663,0.0003318,5.307793953624848e-05,0.0,225,4,72.85171062253731,298.850024,mp-862473,Sc2AgRu,https://materialsproject.org/materials/mp-862473,19.414434238246965,56.90881572350559,-8.604250342815693,-0.5045126942092143
-6.675090278571429,-93.45126390000001,14.758269292396813,-1.2520187135714278,6.285e-05,2.5526168155969457e-06,0.0,148,14,286.9439574635438,2550.25392,mp-1103863,Ho3Pt4,https://materialsproject.org/materials/mp-1103863,15.849038817464153,56.54702850192745,-8.604250342815693,-0.5045126942092143
-9.246667985,-36.98667194,13.616232185498585,-0.5183269349999993,0.0,0.0,0.0,225,4,68.05641252867511,558.05488,mp-866125,LuTaRu2,https://materialsproject.org/materials/mp-866125,41.49423771157546,59.582593433168725,-8.604250342815693,-0.5045126942092143
-6.300178685,-37.80107211,14.643366537540262,-0.7681274383333339,0.6127307,0.06359558313378551,0.0,187,6,112.28457880343343,990.175,mp-1226944,CeGaPt4,https://materialsproject.org/materials/mp-1226944,24.157585348618735,52.932040317511216,-8.604250342815693,-0.5045126942092143
-7.3361648475,-29.34465939,14.07092805901468,-1.0205392350000002,8e-07,1.2247383324614914e-07,0.0,225,4,76.12443875509138,645.0565,mp-865623,Lu2IrRh,https://materialsproject.org/materials/mp-865623,17.512874915229894,50.52058613147216,-8.604250342815693,-0.5045126942092143
-3.4193843975,-13.67753759,0.8140120590174779,1.2634099049999996,1.74e-05,2.7964627631125823e-07,0.3605,71,4,725.1329419342424,355.4670772,mp-1097168,Al2PdPt,https://materialsproject.org/materials/mp-1097168,7.083175883959232,26.567782669843453,3.5058969526130186,-3.4849554520723407
-4.991085015,-19.96434006,0.8004177969206412,2.9999706791666663,3.3773148999999996,0.04944213731339287,0.0,71,4,796.0708970255072,383.72438,mp-1096485,Ti2NbPt,https://materialsproject.org/materials/mp-1096485,-58.066854485010644,38.16127525985579,-8.604250342815693,-0.5045126942092143
-6.2477591375,-24.99103655,10.86896978298765,-0.2963260758333339,1.22e-05,2.008953380212764e-06,0.0,225,4,70.77296647380155,463.24068,mp-1186470,PaInNi2,https://materialsproject.org/materials/mp-1186470,28.423784478722528,70.8327973193025,-8.604250342815693,-0.5045126942092143
-7.479169680681817,-329.08346595,8.320749675606027,-0.09313825731181877,37.772110999999995,0.8547827527626329,0.0,194,44,514.9830489298074,2580.5144800000003,mp-1208090,Tm2Fe17H3,https://materialsproject.org/materials/mp-1208090,61.73791054838308,74.67410860964604,-8.604250342815693,-0.5045126942092143
-6.093467126666668,-219.36481656,13.842771465209568,-0.6662876315873013,1.25e-06,2.2998734780177018e-08,0.0,205,36,633.4079289551028,5280.286096,mp-1194990,Sr(PPt3)2,https://materialsproject.org/materials/mp-1194990,61.06927259939303,43.14534445079728,-8.604250342815693,-0.5045126942092143
-6.2929944110000005,-125.85988822,3.03959607572419,-2.4939165731329997,12.000000199999999,0.43863452651872653,0.975,71,20,318.82756861721583,583.6099019999999,mp-759619,Mn3O2F5,https://materialsproject.org/materials/mp-759619,-66.82108920394543,-40.507080742082145,3.1479848382262805,-1.4603818279703544
-5.8432452616666675,-35.05947157,10.345712613601787,-0.4650536800000005,1.75e-06,2.250399306503769e-07,0.0,227,6,90.62664253867298,564.6342400000001,mp-673,HoNi2,https://materialsproject.org/materials/mp-673,28.103053617663804,82.49909364709488,-8.604250342815693,-0.5045126942092143
-1.523783881666667,-9.14270329,6.565238252640066,0.017636828333333316,0.0001602,8.298372896083451e-06,0.0,8,6,224.98159578309796,889.5049999999999,mp-1187979,Yb5Mg,https://materialsproject.org/materials/mp-1187979,-51.745544890692905,61.85767265984026,-8.604250342815693,-0.5045126942092143
-6.93829649375,-55.50637195,6.192863155854306,-2.317794834672501,0.99999995,0.09253859548069562,1.6288,15,8,125.93733597661526,469.6744064,mp-765195,WO2F,https://materialsproject.org/materials/mp-765195,-19.61234346095367,0.958949543769784,3.4826667276559964,-0.8842520079337618
-6.023418008571428,-84.32785212,11.240812733139926,-0.6201763871428574,5.7999999999999995e-06,1.4933277636634547e-07,0.09940000000000017,220,14,452.6372396306663,3064.0715600000008,mp-23270,Th3Bi4,https://materialsproject.org/materials/mp-23270,-3.8265886397970417,35.289189352146614,-8.604250342815693,-0.5045126942092143
-7.515888811666668,-90.19066574,8.158770425891916,-0.8852531388888885,2e-07,1.26853615078032e-08,0.0,62,12,183.74036507183308,902.7764,mp-505540,TiAsRh,https://materialsproject.org/materials/mp-505540,43.13042309727563,55.47145285000596,-8.604250342815693,-0.5045126942092143