energy_per_atom,energy,density,formation_energy_per_atom,total_magnetization_uB,total_magnetization_T,band_gap,sgr,num_sites,cell_volume,weight,mp_id,formula,URL,tsne_cry_lin1_0,tsne_cry_lin1_1,tsne_cry_lin2_0,tsne_cry_lin2_1
-5.792750490625,-185.3680157,4.220883077267593,-1.8574015272474995,21.9996745,0.9013817003059009,0.29590000000000005,10,32,284.43625104794165,723.001465,mp-1100715,Li9Mn2Co5O16,https://materialsproject.org/materials/mp-1100715,-72.61331881277941,-51.43494261575554,3.903043222774735,2.4636165804230785
-5.82098527,-23.28394108,1.0377410210891629,4.05107492375,1.5075423000000001,0.028517026415439507,0.0,71,4,616.0879243027077,385.01938,mp-1096104,NbV2Os,https://materialsproject.org/materials/mp-1096104,-60.544735536647636,42.348792510255436,-8.604250342815693,-0.5045126942092143
-8.2783349275,-33.11333971,12.253940252712665,-0.11515332499999965,0.0001103,1.5731084051418073e-05,0.0,225,4,81.71358949019526,603.00506,mp-865416,LuThTc2,https://materialsproject.org/materials/mp-865416,20.766171304613767,56.18972303404124,-8.604250342815693,-0.5045126942092143
-8.289300568148146,-223.81111534,6.2097378987432075,-0.4969739958725917,0.7083850666666667,0.02831822613459388,0.0,202,27,291.52833979110915,1090.19694,mp-1246465,Sr(MnN)4,https://materialsproject.org/materials/mp-1246465,2.6632895788497577,17.500896232220867,-8.604250342815693,-0.5045126942092143
-6.8898830825,-27.55953233,12.743250905751585,-0.3574406337499996,1.1e-06,1.6861803102074168e-07,0.0,225,4,76.02669282882766,583.4413999999998,mp-867344,Er2NiOs,https://materialsproject.org/materials/mp-867344,15.4127524813396,48.139872538752186,-8.604250342815693,-0.5045126942092143
-9.302800475,-37.2112019,10.5855969407935,-0.13237577000000122,4.52e-05,6.508508404171998e-06,0.0,225,4,80.93463125622439,515.94173,mp-979437,YPaTc2,https://materialsproject.org/materials/mp-979437,20.741367908723547,56.37915094786986,-8.604250342815693,-0.5045126942092143
-2.2873271075,-9.14930843,0.3349789293516169,2.911818402916666,6.404997799999999,0.0884951831117665,0.0,71,4,843.483866630674,170.155182,mp-1097371,Ti2BeZn,https://materialsproject.org/materials/mp-1097371,-60.470227854918114,40.05237270214495,-8.604250342815693,-0.5045126942092143
-6.0906835263636365,-133.99503758,4.461249306251503,-1.8895029832575758,0.9999844999999999,0.05568239576080535,0.0,12,22,209.29207472712315,562.289775,mp-770955,Li4TiCo5O12,https://materialsproject.org/materials/mp-770955,-73.39744468669461,-24.79437809872479,-8.604250342815693,-0.5045126942092143
-6.073159255,-24.29263702,0.9248445208583034,3.9011852406250007,2.0013648999999996,0.02783731990701847,0.2030000000000003,71,4,837.8693155818816,466.655,mp-1097673,Zr2ReTc,https://materialsproject.org/materials/mp-1097673,-62.53821133362853,37.80203175057861,-8.604250342815693,-0.5045126942092143
-5.73538025,-22.941520999999998,1.042324152620168,3.2759169900000007,0.430608,0.0061323390083073024,0.0,71,4,818.3392204482162,513.6734,mp-1093863,Hf2TcNi,https://materialsproject.org/materials/mp-1093863,-62.84517078511365,35.090095924977824,-8.604250342815693,-0.5045126942092143
-7.504240946666666,-45.02544568,8.335784126264121,-0.35898335333333264,0.01732525,0.0024265463634043564,0.0,74,6,83.20862471282766,417.70119,mp-1215275,ZrCoNi,https://materialsproject.org/materials/mp-1215275,61.58571493171354,64.54858395233997,-8.604250342815693,-0.5045126942092143
-8.8499422325,-35.39976893,12.208606255909595,-0.1450025900000007,4.3799999999999994e-05,6.3658777309017324e-06,0.0,225,4,80.18502060764668,589.53588,mp-867278,DyPaTc2,https://materialsproject.org/materials/mp-867278,20.735127176814746,56.408737135821745,-8.604250342815693,-0.5045126942092143
-6.0769904875,-24.30796195,12.720562315822495,-0.8791300074999997,1.3000000000000001e-05,1.9616259524575982e-06,0.0,225,4,77.23329814915408,591.6458200000001,mp-1187625,Tm2NiPt,https://materialsproject.org/materials/mp-1187625,18.34566013116246,51.30971694059836,-8.604250342815693,-0.5045126942092143
-7.802677803333334,-23.40803341,8.051811669868544,0.5641323333333332,0.45867349999999996,0.1231453623525168,0.0,216,3,43.40732429009261,210.4784,mp-631256,FeNiMo,https://materialsproject.org/materials/mp-631256,42.66909995666285,87.02581422507876,-8.604250342815693,-0.5045126942092143
-7.894310353571428,-110.52034495,6.612180678017213,-0.06229557601999858,0.016436199999999998,0.0014082199622053259,0.0,63,14,136.02174699666477,541.63157,mp-1245726,Cr(CoN)3,https://materialsproject.org/materials/mp-1245726,2.8735627043902183,16.044218745210888,-8.604250342815693,-0.5045126942092143
-9.54718831,-28.64156493,6.507064636142124,-0.04756120958333317,3.15e-05,1.2400955957053344e-05,0.0,164,3,29.602801720042525,116.0029,mp-1226378,Cr2C,https://materialsproject.org/materials/mp-1226378,-0.6139869955434468,17.22374800447869,-8.604250342815693,-0.5045126942092143
-5.535628175,-22.142512699999997,0.9066938558677808,3.626595690625,3e-07,4.4646205917587164e-09,0.2393000000000001,71,4,783.0944108042712,427.58819500000004,mp-1097564,Zr2CoRe,https://materialsproject.org/materials/mp-1097564,-63.6265528574946,37.38455389886808,-8.604250342815693,-0.5045126942092143
-6.035428231666668,-72.42513878,11.445908088736044,-0.946189331666666,0.000521725,2.014590373455908e-05,0.0,62,12,301.80909348005383,2080.336,mp-1103421,Dy2Pt,https://materialsproject.org/materials/mp-1103421,14.589303904117491,56.32669643787465,-8.604250342815693,-0.5045126942092143
-4.650671025,-18.6026841,0.6831514113826033,1.4731455837499992,0.0002378,2.1564049381542677e-06,0.0,71,4,1285.1652089457589,528.72134,mp-1093985,La2NiIr,https://materialsproject.org/materials/mp-1093985,-68.30018884356701,41.563525382622046,-8.604250342815693,-0.5045126942092143
-5.35799502,-21.43198008,0.7832705781348902,2.9289510187499994,2.0,0.02884056628968565,0.1008,71,4,808.171702004865,381.21182400000004,mp-1093761,Sc2OsRu,https://materialsproject.org/materials/mp-1093761,-66.57739152047444,42.76984998462887,-8.604250342815693,-0.5045126942092143
-8.18175767625,-130.90812282,8.187300861087468,-0.6735439418149989,0.0,0.0,0.4442000000000004,64,16,244.87570521874886,1207.3616,mp-1245971,SrReN2,https://materialsproject.org/materials/mp-1245971,7.033086873937767,11.128521610000325,-8.604250342815693,-0.5045126942092143
-7.365857507142858,-103.1220051,4.7345644826314,-1.08059789893319,0.0,0.0,0.4565000000000001,176,14,329.320477466694,938.9656,mp-8117,Rb(MoS)3,https://materialsproject.org/materials/mp-8117,64.48695400411178,31.85539119582531,-8.604250342815693,-0.5045126942092143
-6.405402078,-32.02701039,8.756547499716326,0.2688424450479999,0.0,0.0,0.0,166,5,56.84972812427447,299.78659500000003,mp-1247096,Co(PdN)2,https://materialsproject.org/materials/mp-1247096,4.5678912569892125,17.974319824481906,-8.604250342815693,-0.5045126942092143
-5.0276608525,-20.11064341,0.6236178958984224,2.34390008875,4.4647058,0.0637309995226,0.0,71,4,816.4311084619283,306.611912,mp-1095879,ScFeRh2,https://materialsproject.org/materials/mp-1095879,-65.8021920204877,42.67255519850044,-8.604250342815693,-0.5045126942092143
-4.811330285,-19.24532114,0.6714346931272681,2.3065164924999992,0.0070631,8.707646054544402e-05,0.0,71,4,945.3051304503576,382.2317,mp-1097446,Y2TcPd,https://materialsproject.org/materials/mp-1097446,-68.65663240968772,41.84784376701212,-1.8168466079839258,-0.6662250100098343
-5.5076555175,-22.03062207,0.6256040911472754,3.39159766625,3.0000001,0.039652979058370216,0.06040000000000001,71,4,881.7041320305417,332.179912,mp-1097402,ZrScTc2,https://materialsproject.org/materials/mp-1097402,-62.51383352264303,37.68504549271898,-8.604250342815693,-0.5045126942092143
-6.492779893125,-103.88447829,8.768692899597376,-0.11478548250000033,2e-07,4.939418552273974e-09,0.05600000000000005,62,16,471.8800259271196,2491.824,mp-1188656,Nd3Os,https://materialsproject.org/materials/mp-1188656,-31.231432201911865,67.5908576667883,-8.604250342815693,-0.5045126942092143
-8.2095270425,-32.83810817,11.655023705976449,-0.02645167000000015,8.190000000000001e-05,1.1344294882505155e-05,0.0,225,4,84.13637998291033,590.53806,mp-866011,DyThTc2,https://materialsproject.org/materials/mp-866011,20.79256734371655,56.22683188887288,-8.604250342815693,-0.5045126942092143
-7.673813380833334,-92.08576057,8.942866069728295,-0.2596845933333339,3.4e-06,2.6940688024566887e-07,0.0,38,12,147.0779817893681,792.0914,mp-1219330,SiNi3Mo2,https://materialsproject.org/materials/mp-1219330,53.641202822794625,57.406660587756356,-8.604250342815693,-0.5045126942092143
-5.9012234125,-23.60489365,1.270549274503106,3.0275826900000014,0.0020549,3.552938790847e-05,0.0,71,4,674.0318117167412,515.7305,mp-1093826,Hf2FeRh,https://materialsproject.org/materials/mp-1093826,-61.246104876463136,35.461688297009225,-8.604250342815693,-0.5045126942092143
-8.9354453875,-35.74178155,12.765216506372061,-0.2503995149999998,0.0054967,0.0008180125897772405,0.0,225,4,78.31040577599575,602.00288,mp-865801,LuPaTc2,https://materialsproject.org/materials/mp-865801,20.73390153301497,56.38170401628084,-8.604250342815693,-0.5045126942092143
-5.4990951325,-21.99638053,1.1014093919773822,2.7593173725000013,0.00013769999999999999,2.052561651498166e-06,0.0,71,4,781.8350878815997,518.5789,mp-1095886,Hf2NiRh,https://materialsproject.org/materials/mp-1095886,-63.01653901059839,35.11013203346357,-8.604250342815693,-0.5045126942092143
-6.198346490625,-99.17354385,3.7020244228171526,-2.0866976089300007,9.9999993,0.7932996684069341,0.0,2,16,146.90619977414443,327.514335,mp-1174777,Li5Mn3O8,https://materialsproject.org/materials/mp-1174777,-70.46939107594064,-42.30850730583235,-8.604250342815693,-0.5045126942092143
-7.917314441923077,-205.85017549,5.783629787887143,-0.012962762252306869,6.06584985,0.2442592186689292,0.0,15,26,289.4130564969084,1008.02085,mp-1246919,Mn5(GeN3)2,https://materialsproject.org/materials/mp-1246919,4.562358238759888,16.273380476172587,-8.604250342815693,-0.5045126942092143
-6.8107624275,-27.24304971,1.3163395521150334,4.051259634999999,6.9572397,0.1042818447680735,0.0,71,4,777.5094723568499,616.345925,mp-1093544,TaMnOs2,https://materialsproject.org/materials/mp-1093544,-58.708831497059144,40.16015240316688,-8.604250342815693,-0.5045126942092143
-5.17719185,-20.7087674,0.871163061404845,3.1390611475,2.9771534,0.03869245233337579,0.0,71,4,896.7107657716977,470.43838,mp-1097569,Zr2NbPt,https://materialsproject.org/materials/mp-1097569,-62.699977885997626,37.93744649040292,-8.604250342815693,-0.5045126942092143
-7.074001511666666,-42.44400907,9.707505526766065,-0.5385173405555553,0.00022109999999999998,4.0342581891368295e-05,0.0,191,6,63.870818386174285,373.388585,mp-15709,LuCo3B2,https://materialsproject.org/materials/mp-15709,7.8056247637944995,39.60557213129536,-8.604250342815693,-0.5045126942092143
-7.625351799444445,-137.25633239,5.159117658732675,-0.4797563657933337,6.73481735,0.4423182471501656,0.0,14,18,177.44689063576527,551.3085599999999,mp-1222676,Li2Mn4N3,https://materialsproject.org/materials/mp-1222676,-1.1176089997721586,15.598007746204235,-8.604250342815693,-0.5045126942092143
-6.359101660454545,-139.90023653,3.2720443353639137,-2.698638963852727,3.00000035,0.15329746332862007,0.8773,2,22,228.06769034171245,449.40081280000004,mp-765943,Li3V2(O2F)2,https://materialsproject.org/materials/mp-765943,-41.47965682504826,-57.73215735697132,3.7221931835092095,2.997536615367764
-5.510242515714286,-154.28679044,4.345676626214831,-1.7299010900892855,4.99999975,0.24086324697778225,0.0,12,28,241.92284078382968,633.11877,mp-1174291,Li4Co3O7,https://materialsproject.org/materials/mp-1174291,-78.35776000246412,-28.2031564199073,-3.530582801448145,-0.7227269388624635
-5.619281881333333,-84.28922822,4.725846294093653,-1.5873340920000003,4.9999557999999995,0.4312411266876777,0.0,166,15,135.12117733459328,384.55098,mp-759191,Li3(CoO2)4,https://materialsproject.org/materials/mp-759191,-74.67945778758941,-24.78809353585082,-0.9746813061629302,0.033727021241330604
-9.605190774375,-153.68305239,15.326047141685994,0.2163738595312488,0.01191055,0.000456591064927032,0.0,140,16,304.0057763701389,2805.84,mp-542019,Np5Ge3,https://materialsproject.org/materials/mp-542019,7.338026388880261,73.95296440273137,-8.604250342815693,-0.5045126942092143
-9.776972095,-39.10788838,12.734962582878365,-0.25670074499999984,5.12e-05,7.544753821780211e-06,0.0,225,4,79.08649247541194,606.52806,mp-1184636,HfThTc2,https://materialsproject.org/materials/mp-1184636,20.791336145462683,56.417317641279936,-8.604250342815693,-0.5045126942092143
-9.091529475833333,-109.09835371,5.765886165957799,-0.4560929853566656,1.3909044,0.13802599377548505,0.0,36,12,117.43940055526916,407.78458,mp-1246797,Mn2CrN3,https://materialsproject.org/materials/mp-1246797,3.0122056313043344,15.860053636876627,-8.604250342815693,-0.5045126942092143
-5.182286234558823,-352.39546395,8.448740871716922,-0.6042292378676472,0.1487098,0.0008589655537455562,0.0,186,68,2017.6288024091955,10265.596,mp-1210477,Nd23Cd4Pt7,https://materialsproject.org/materials/mp-1210477,-30.651391387363237,67.96980728486031,-8.604250342815693,-0.5045126942092143
-5.566032786875,-89.05652459,5.400485248198182,-1.5601907043749996,0.9999998999999999,0.08551018379969412,0.0,12,16,136.2886043427602,443.24438,mp-754464,Li3Co4NiO8,https://materialsproject.org/materials/mp-754464,-73.77223933530345,-27.875227989655414,-8.604250342815693,-0.5045126942092143
-4.643592925,-18.5743717,0.5939673379547009,1.6539455699999994,1.0,0.013930770535104343,0.0,71,4,836.5700047382485,299.237324,mp-1096256,Sc2PdRh,https://materialsproject.org/materials/mp-1096256,-66.77814818813883,42.78435969120052,-8.604250342815693,-0.5045126942092143
-6.8893170875,-27.55726835,7.490031028570905,-0.5783939387500006,9.9e-06,1.5437310804363698e-06,0.0,225,4,74.73791433656152,337.11300000000006,mp-861662,CaZrRh2,https://materialsproject.org/materials/mp-861662,13.536971279006428,46.30539998834878,-8.604250342815693,-0.5045126942092143
-5.612340774,-224.49363096,4.537569460149821,-1.7008705176250003,30.9999994,1.0118658289853448,0.4858000000000002,2,40,357.03943211441737,975.641755,mp-761094,Li10FeCo9O20,https://materialsproject.org/materials/mp-761094,-35.266297155311754,-41.25963483510971,-2.0060361674773484,-0.07903103953995487
-3.768277575,-15.0731103,0.5722816791554913,1.3746652325,0.000672,8.210537011024559e-06,0.2665000000000002,71,4,953.8391358134622,328.7273886000001,mp-1093778,YAlPd2,https://materialsproject.org/materials/mp-1093778,-68.54422927311751,42.133257967723225,-8.604250342815693,-0.5045126942092143
-4.2711225975,-17.08449039,0.3277466983682753,3.1994354216666663,2.2415726,0.025431196128782838,0.0,71,4,1027.2199601035963,202.746182,mp-1093793,Ti2BeTc,https://materialsproject.org/materials/mp-1093793,-59.777079526553365,39.131702593862265,-8.604250342815693,-0.5045126942092143
-7.568120130625,-121.08992209,12.88114184897332,-0.4492997453125005,0.0164268,0.0006674178944667588,0.0,194,16,286.8352688667959,2225.04,mp-1188998,NpPd3,https://materialsproject.org/materials/mp-1188998,60.56133910476392,49.91939325663851,-8.604250342815693,-0.5045126942092143
-5.34912926,-21.39651704,0.5066284976123562,3.018635085,1.86e-05,1.9312220447174192e-07,0.0,71,4,1122.4271458714006,342.45119500000004,mp-1097348,Zr2CoRu,https://materialsproject.org/materials/mp-1097348,-63.44364092105032,37.69585303574122,-8.604250342815693,-0.5045126942092143
-6.485496068985508,-447.49922876,4.051498019106145,-2.0122423546289854,18.999999966666667,0.3213950942247584,0.1109,1,69,688.95647217103,1680.9636600000001,mp-760336,Li5Mn5CoO12,https://materialsproject.org/materials/mp-760336,-69.43679075638143,-39.58942001566412,3.886737684443096,2.0980843031145446
-5.9117603075,-23.64704123,0.8719667634531089,3.45598571875,1.000001,0.01431115581670586,0.0,71,4,814.3350946553386,427.61604500000004,mp-1097305,Zr2MnOs,https://materialsproject.org/materials/mp-1097305,-62.465446944963,37.51429495590435,-8.604250342815693,-0.5045126942092143
-5.608606715,-78.52049401,4.4284470200738815,-1.4249464157142842,2.99999995,0.2469207423338625,0.0,2,14,141.59277752252711,377.60998,mp-764935,Li(CoO2)2,https://materialsproject.org/materials/mp-764935,-74.93674559225919,-24.20931566431103,-1.7204238422774796,-0.7253311343483198
-8.5976379225,-171.95275845,6.145569737621143,-0.25919876945200004,6.90879915,0.3826092680896091,0.0,59,20,210.438166322328,778.82085,mp-1245394,Mn5NiN4,https://materialsproject.org/materials/mp-1245394,3.5079525220998993,16.266950134537364,-8.604250342815693,-0.5045126942092143
-6.725535308863636,-295.92355359,4.186502988836352,-2.0337504202618173,11.000000225,0.29414778884802634,0.3493999999999997,1,44,435.8173679372921,1098.77014,mp-758273,Li2Mn3O6,https://materialsproject.org/materials/mp-758273,-71.07009530519123,-37.124197139954106,-8.604250342815693,-0.5045126942092143
-9.080290558846157,-236.08755453,14.08372500736867,-0.263433748846154,0.022828961538461538,0.0007243142794392146,0.0,166,26,367.3132009291445,3115.33664,mp-1217954,TaNi,https://materialsproject.org/materials/mp-1217954,43.77621812287699,62.199226567637304,-8.604250342815693,-0.5045126942092143
-7.5072896375,-30.02915855,11.201165382200527,1.1312645875000005,0.44818690000000005,0.06984403202745754,0.0,225,4,74.78375762669825,504.453805,mp-631358,SrTa2Mn,https://materialsproject.org/materials/mp-631358,12.291422956050026,46.308853842724865,-8.604250342815693,-0.5045126942092143
-7.3030139825,-29.21205593,13.02828593988716,-0.18419359718749995,0.16197679999999998,0.026625060428822515,0.0,221,4,70.89892336200903,556.26,mp-2375,NpPd3,https://materialsproject.org/materials/mp-2375,60.55833702096407,49.92148771681068,-8.604250342815693,-0.5045126942092143
-9.740612095,-38.96244838,16.230652212570387,-0.012876051250000131,1.3699999999999998e-05,2.004807281426829e-06,0.0,225,4,79.63892034073055,778.41688,mp-1185527,LuPaRe2,https://materialsproject.org/materials/mp-1185527,20.7262852041362,56.301068923742505,-8.604250342815693,-0.5045126942092143
-8.602272765,-68.81818212,8.4483277774649,-0.10706567718750117,6.425e-05,6.96152504059938e-06,0.0,194,8,107.5588548874187,547.2274,mp-1079635,GaMo2C,https://materialsproject.org/materials/mp-1079635,4.481954292309951,22.272406516455565,-8.604250342815693,-0.5045126942092143
-10.88300386,-43.53201544,12.100281071195658,-0.3548019250000021,6.7130269,0.9655545114292464,0.0,225,4,81.02499588213921,590.42588,mp-1184525,GdPaRu2,https://materialsproject.org/materials/mp-1184525,20.70119945935714,54.40039249777346,-8.604250342815693,-0.5045126942092143
-8.567651945,-34.27060778,12.331020902017608,-0.4089411725000005,8e-07,1.1622708422889056e-07,0.0,225,4,80.21582817725263,595.67588,mp-867279,DyPaRu2,https://materialsproject.org/materials/mp-867279,20.73546673451465,54.678835271822024,-8.604250342815693,-0.5045126942092143
-6.473326391590907,-284.82636123,4.007768052700665,-2.0347427056727265,15.999999300000002,0.4487938808967774,0.4550000000000001,1,44,415.4803265822528,1002.77605,mp-758752,Li5Mn5O12,https://materialsproject.org/materials/mp-758752,-68.46308189129668,-42.071908533515604,3.0472510211617414,-0.5486329913264902
-8.426104563333334,-50.55662738,12.08938853908273,-0.3680324000000006,1.13895855,0.1630408009440968,0.0,227,6,81.41211671004893,592.7127800000002,mp-2337,HfCo2,https://materialsproject.org/materials/mp-2337,61.08412534992584,64.2315190984645,-8.604250342815693,-0.5045126942092143
-5.627869083999999,-56.27869084,7.321188111314089,-0.5740212710000001,0.0091504,0.00044084423330080876,0.0,194,10,241.89803617566014,1066.50972,mp-1206451,Nd2Co2I,https://materialsproject.org/materials/mp-1206451,-26.70253095577145,66.4041368147127,-8.604250342815693,-0.5045126942092143
-5.968052682142857,-83.55273755,4.739355914587933,-1.7709177907142868,0.0,0.0,1.0876999999999994,12,14,155.52465172573258,443.88398,mvc-12572,Ca(CoO2)2,https://materialsproject.org/materials/mvc-12572,-74.37850690074545,-24.14957263467237,-2.6287826481117897,-0.3569794345735613