energy_per_atom,energy,density,formation_energy_per_atom,total_magnetization_uB,total_magnetization_T,band_gap,sgr,num_sites,cell_volume,weight,mp_id,formula,URL,tsne_cry_lin1_0,tsne_cry_lin1_1,tsne_cry_lin2_0,tsne_cry_lin2_1
-6.880158156190477,-144.48332128,10.264179755570762,-0.6976357921428582,0.000194,6.674393683802853e-06,0.0,143,21,338.74066664110825,2093.8352,mp-1225165,Er2As7Rh12,https://materialsproject.org/materials/mp-1225165,33.16998192533025,51.11241705699831,-8.604250342815693,-0.5045126942092143
-7.4019378725,-29.60775149,12.982069471091116,-0.6043215524999992,0.0873668,0.011709581341598016,0.0,225,4,86.95258322807949,679.7940000000001,mp-1186644,PmSmIr2,https://materialsproject.org/materials/mp-1186644,14.578871284015564,50.3574657067496,-8.604250342815693,-0.5045126942092143
-6.062814838333334,-36.37688903,10.017112402249387,-0.37451086500000014,5.539999999999999e-05,7.03386879868013e-06,0.0,166,6,91.7894841201697,553.7151236000001,mp-1222339,Lu2AlCo3,https://materialsproject.org/materials/mp-1222339,41.67072841994313,74.55097912743145,-8.604250342815693,-0.5045126942092143
-7.7122051535,-771.22051535,4.509259608754678,0.18492219983333255,0.019262134,0.00012735082615579854,0.0,1,100,1762.7067218166076,4786.7,mp-1244924,Ti,https://materialsproject.org/materials/mp-1244924,59.72234503437448,55.2637970549525,-8.604250342815693,-0.5045126942092143
-8.521096204,-85.21096204,11.895112718634538,-0.6994610359999995,0.00010575,6.484248185746536e-06,0.0,127,10,190.0632601335722,1361.5,mp-976273,Hf3Ge2,https://materialsproject.org/materials/mp-976273,44.77040132919469,60.14830148526562,-8.604250342815693,-0.5045126942092143
-4.150362121320755,-439.93838486,4.286012606153765,-0.2511491918867921,0.00029555,1.8504245774275615e-06,0.0,193,106,1861.3884000169967,4804.424319600001,mp-1207747,Yb6Al43V4,https://materialsproject.org/materials/mp-1207747,9.399084555238597,87.34500432646534,-8.604250342815693,-0.5045126942092143
-7.020310894761903,-147.42652879,8.518084756028795,-0.053404261417142614,9.144557,0.414665957298968,0.0,12,21,257.0050849810366,1318.361715,mp-1220610,Nd2Co17N2,https://materialsproject.org/materials/mp-1220610,61.9890150706475,75.21645070529446,-8.604250342815693,-0.5045126942092143
-9.899253793333333,-59.39552276,13.108564906305974,-0.028622211666666193,2.0381913000000003,0.2694869649604698,0.0,227,6,88.14234644912018,695.81,mp-339,UMn2,https://materialsproject.org/materials/mp-339,54.8248119553989,63.86165405235989,-8.604250342815693,-0.5045126942092143
-7.6904713575,-61.52377086,7.71777520805344,-0.3811633849999989,4.85e-06,4.4266838432331035e-07,0.0,26,8,127.68522927906356,593.4494,mp-1216310,VMoAs2,https://materialsproject.org/materials/mp-1216310,48.86878355677983,59.393513841986646,-8.604250342815693,-0.5045126942092143
-6.012732190769231,-78.16551848,5.670071476120893,-0.3962664307692307,8.255362,0.5156952376388892,0.0,44,13,186.5608143085026,637.0299802000002,mp-1216685,TmAl7Fe5,https://materialsproject.org/materials/mp-1216685,23.51831633254401,89.37031233587601,-8.604250342815693,-0.5045126942092143
-7.58319215,-60.665537199999996,5.730681210568575,-0.4983861987500005,0.00110005,0.00010123266209529968,0.0,223,8,126.63950238694292,437.0452,mp-12071,Ti3As,https://materialsproject.org/materials/mp-12071,42.38092893420675,64.32337681941495,-8.604250342815693,-0.5045126942092143
-8.20968033,-73.88712297,11.515632444754019,0.1869425610416676,0.2375706666666667,0.019399296563738684,0.0,189,9,142.7198109115322,989.7442007999999,mp-1079793,PuAlCo,https://materialsproject.org/materials/mp-1079793,26.269414608106974,65.45060543461146,-8.604250342815693,-0.5045126942092143
-8.407457984166667,-100.88949581,5.857731158155197,-0.03129459249999892,0.0015863,0.00010733806467620204,0.0,38,12,172.2300751786348,607.560228,mp-1219323,ScMnCr,https://materialsproject.org/materials/mp-1219323,42.15021523012421,71.91166619298079,-8.604250342815693,-0.5045126942092143
-6.6106911020000005,-33.05345551,8.25747644886804,-0.452167334,4.5624032,0.6357484049843428,0.0,139,5,83.63456674758484,415.89535,mp-20264,Tb(FeGe)2,https://materialsproject.org/materials/mp-20264,16.962287861470912,71.38576642885204,-8.604250342815693,-0.5045126942092143
-5.5434113325,-44.34729066,6.06427166832102,-0.4595056412499998,3.5e-07,2.4274656234535506e-08,0.0,63,8,168.032149703229,613.6517,mp-29772,YGe3,https://materialsproject.org/materials/mp-29772,3.8366330397702137,74.15223409064875,-8.604250342815693,-0.5045126942092143
-7.74690673375,-123.95050774,9.542903245160494,-0.8793164587500009,1.8425e-05,7.014364024383226e-07,0.0,62,16,306.1234670570056,1759.2520000000002,mp-1106136,GdGaPd2,https://materialsproject.org/materials/mp-1106136,26.67982099305812,51.237503188834935,-8.604250342815693,-0.5045126942092143
-8.804272664444445,-79.23845398,11.437611422563426,-0.25845512944444393,1.9867289666666668,0.17230162804095572,0.0,189,9,134.37753506049515,925.5777750000003,mp-1079643,TaMnGe,https://materialsproject.org/materials/mp-1079643,50.473391869168225,59.28851004825303,-8.604250342815693,-0.5045126942092143
-7.1001143325,-28.40045733,11.08952617291188,-0.6741919337499995,6.73e-05,8.951783969171434e-06,0.0,225,4,87.61589442890262,585.1225,mp-863722,Pm2IrRh,https://materialsproject.org/materials/mp-863722,14.632216552746165,50.584278136646134,-8.604250342815693,-0.5045126942092143
-5.398402824333333,-161.95208473,9.496940203275749,-0.23146561899999935,7.20959025,0.1639565855279372,0.0,186,30,512.4590237505168,2930.85112,mp-1207700,Yb3(Co2Sn)4,https://materialsproject.org/materials/mp-1207700,25.970044948200755,72.84091295457976,-8.604250342815693,-0.5045126942092143
-4.84963896,-48.4963896,6.861255970121269,-0.33092973299999995,1.245e-05,6.775550905505299e-07,0.0,127,10,214.14215381435108,884.8236,mp-1206247,Sm2MgNi2,https://materialsproject.org/materials/mp-1206247,4.180105512158429,59.36022326411357,-8.604250342815693,-0.5045126942092143
-9.2061910325,-110.47429239,10.040141829697212,-0.8726156932142844,0.00014045,9.462914353881313e-06,0.0,62,12,172.97138451164918,1045.8394480000004,mp-1212416,HfCrP,https://materialsproject.org/materials/mp-1212416,47.91989795035694,62.166270449525356,-8.604250342815693,-0.5045126942092143
-7.224593195,-28.89837278,10.191930128224048,-0.3580604637500002,2.13e-05,4.523657506573328e-06,0.0,139,4,54.874087902281744,336.80199999999996,mp-978552,SiRh3,https://materialsproject.org/materials/mp-978552,65.3152538257798,50.87512785231037,-8.604250342815693,-0.5045126942092143
-6.27586221,-18.82758663,7.251271420662785,0.4570034983333346,0.0034209,0.0007616154208228448,0.0,216,3,52.3458284725603,228.584695,mp-1018119,VCoSn,https://materialsproject.org/materials/mp-1018119,45.63181688548316,45.27784150175572,-8.604250342815693,-0.5045126942092143
-6.774623575,-27.098494300000002,14.252776298052266,-0.6480171724999995,6.7e-06,1.3929401729414207e-06,0.0,225,4,56.05569822231959,481.13853860000006,mp-1183158,AlGaIr2,https://materialsproject.org/materials/mp-1183158,41.825514838742535,52.159474418207814,-8.604250342815693,-0.5045126942092143
-4.76035515,-38.082841200000004,9.06098094819798,-0.7991243624999997,2.475e-05,1.9270775221833802e-06,0.0,63,8,149.67643999814385,816.7320000000002,mp-1092296,DyGa2Pd,https://materialsproject.org/materials/mp-1092296,10.504365648720391,79.51804961754364,-8.604250342815693,-0.5045126942092143
-5.81107919125,-92.97726706,9.484276002986832,-0.887234388125,3.25e-07,1.240877199615459e-08,0.0,62,16,305.23335042787863,1743.36,mp-1188088,SmGePd2,https://materialsproject.org/materials/mp-1188088,27.602623630357613,53.44458227991672,-8.604250342815693,-0.5045126942092143
-8.22616814125,-65.80934513,7.278950513797213,-0.2626838012499997,5.0735582,0.6671081086835065,0.0,160,8,88.63267455530665,388.520135,mp-1221761,Mn3Fe3Si2,https://materialsproject.org/materials/mp-1221761,50.027324566265456,65.71645858052453,-8.604250342815693,-0.5045126942092143
-5.913681489166668,-70.96417787,7.825617410723103,-0.3218997408333344,1.56318875,0.08582420698489619,0.0,38,12,212.26532215372097,1000.3421544,mp-1225649,ErAlFe,https://materialsproject.org/materials/mp-1225649,4.410496319121314,70.32157181937241,-8.604250342815693,-0.5045126942092143
-8.8373728675,-35.34949147,10.4293947739618,-0.4833094027083327,0.0009099,0.00017149264475537694,0.0,225,4,61.8337512473379,388.361,mp-865538,Ti2RePd,https://materialsproject.org/materials/mp-865538,63.437905928321456,56.973751989865065,-8.604250342815693,-0.5045126942092143
-7.55291241,-22.65873723,7.679598496824447,-0.456081512222223,0.011464499999999999,0.0022826458051881816,0.0,216,3,58.53208819403146,270.697,mp-31458,TiSbRu,https://materialsproject.org/materials/mp-31458,46.127171019671934,55.39353017148342,-8.604250342815693,-0.5045126942092143
-6.81029810625,-108.96476969999999,6.865353654248962,-0.1651200995833335,7.317077499999999,0.32247932652180594,0.0,166,16,264.4315096120525,1093.268985,mp-1217234,Ti8Co3NiSn4,https://materialsproject.org/materials/mp-1217234,34.711255230601445,59.04501415398005,-8.604250342815693,-0.5045126942092143
-6.9441375349999985,-83.32965042,12.554413729638105,-0.9225925749999996,4.5e-07,2.3063419465832983e-08,0.0,62,12,227.38732022894558,1719.14928,mp-21073,HoGeIr,https://materialsproject.org/materials/mp-21073,14.001381990701175,61.279987633018024,-8.604250342815693,-0.5045126942092143
-7.624393270208333,-365.97087697,9.894068299123033,-0.4152872502083322,0.29973415,0.00461573242172525,0.0,55,48,756.7858964715457,4509.1932,mp-1200972,HfCrGe2,https://materialsproject.org/materials/mp-1200972,48.43370458925782,62.17252859671546,-8.604250342815693,-0.5045126942092143
-8.078175496666667,-96.93810596,11.553578429910598,-0.3783590183333345,0.0,0.0,0.0,194,12,212.36761045355416,1477.596,mp-569220,ErRu2,https://materialsproject.org/materials/mp-569220,30.686870637141947,63.43337049444776,-8.604250342815693,-0.5045126942092143
-4.00277818,-16.01111272,12.3017874491254,-0.557622055,9.6e-06,1.9171692411087368e-06,0.0,225,4,58.356361774232944,432.32199999999995,mp-981368,Zn2PdPt,https://materialsproject.org/materials/mp-981368,41.43780169624622,42.19533134759029,-8.604250342815693,-0.5045126942092143
-5.170435846666667,-31.02261508,8.410550304481053,-0.2999642016666672,1.7459174,0.1708925464454189,0.0,12,6,119.06332306679985,603.05,mp-628705,YbFeGe,https://materialsproject.org/materials/mp-628705,17.896106801589966,71.4947815105072,-8.604250342815693,-0.5045126942092143
-6.1704812504166675,-148.09155001,8.044737670395447,-0.5763589150000001,3.2e-06,1.2674643303224808e-07,0.0,15,24,294.2331896843405,1425.4580999999996,mp-1190542,TbSi3Ni8,https://materialsproject.org/materials/mp-1190542,26.37509651130993,77.5870118146155,-8.604250342815693,-0.5045126942092143
-6.769737633333333,-121.85527739999999,7.012118948622813,-0.29807381333333505,7.4795369,0.3382745317445968,0.0,11,18,257.6812598093046,1088.1356,mp-1105435,CaFe5As3,https://materialsproject.org/materials/mp-1105435,46.599997483140776,65.93760337092361,-8.604250342815693,-0.5045126942092143
-6.8272803813793095,-197.99113106,8.149733675747099,-0.8513641444827579,0.002055,5.0563996941685716e-05,0.0,225,29,473.6394382594025,2324.5676175999997,mp-1193568,Zr6Al16Ir7,https://materialsproject.org/materials/mp-1193568,9.500068460039957,83.88062440971511,-8.604250342815693,-0.5045126942092143
-7.788645329166666,-93.46374395,9.302317112127144,-0.4012580425000003,0.97535095,0.06091910307164716,0.0,38,12,186.58848496027755,1045.2661544,mp-1224488,HfAlFe,https://materialsproject.org/materials/mp-1224488,33.415477093940346,59.23888168193476,-8.604250342815693,-0.5045126942092143
-7.4159641925,-29.66385677,14.31378382230782,-0.6915622029166668,5e-07,1.0091981101264064e-07,0.0,225,4,57.73923204780859,497.71,mp-865048,TiZnIr2,https://materialsproject.org/materials/mp-865048,40.10062887090808,51.638530662022724,-8.604250342815693,-0.5045126942092143
-6.8518489988888875,-61.66664099,10.93570105301358,-0.9735091622222214,5.666666666666667e-07,4.071866814717312e-08,0.0,189,9,162.1853154409301,1068.0929999999996,mp-1080495,ZrGaPt,https://materialsproject.org/materials/mp-1080495,33.31321799643844,58.06698168174897,-8.604250342815693,-0.5045126942092143
-6.22200269875,-99.55204318,9.595469138154304,-0.3660584229687496,5.57440495,0.20709655756137624,0.0176999999999996,166,16,313.6917248685998,1812.6760000000002,mp-22327,PuGa3,https://materialsproject.org/materials/mp-22327,39.39205927690936,46.779935457496535,-8.604250342815693,-0.5045126942092143
-3.178735211428571,-44.50229296,2.2923580593190445,0.06316355071428602,8.55e-06,3.7898892186665175e-07,0.0,5,14,262.9160063956824,362.95300000000003,mp-1074287,Mg4Si3,https://materialsproject.org/materials/mp-1074287,-11.646291660063536,97.28898061590368,-8.604250342815693,-0.5045126942092143
-2.9209099921428567,-81.78547978,2.0710881506471264,0.048061469642857235,0.0005316,1.075669414277332e-05,0.0,1,28,575.9484048595847,718.345,mp-1074066,Mg9Si5,https://materialsproject.org/materials/mp-1074066,-13.183622056451675,95.03704863814801,-8.604250342815693,-0.5045126942092143
-8.040703107777778,-144.73265594,4.4578702985969,-0.8199184585648156,2.045e-05,9.532224960503944e-07,0.0,193,18,250.0209820753601,671.2044,mp-995201,Ti5Si3C,https://materialsproject.org/materials/mp-995201,41.96795683922474,63.88580976881347,-8.604250342815693,-0.5045126942092143
-6.327516847142857,-177.17047172,15.97291959119942,-0.7892438267857145,1e-07,2.433254427300607e-09,0.0,15,28,478.9496997027322,4607.073280000001,mp-570397,Ho2(GePt3)3,https://materialsproject.org/materials/mp-570397,61.97052394023455,44.79115383191714,-8.604250342815693,-0.5045126942092143
-9.494817075714286,-265.85487812,11.409114972409416,-0.25415349100446305,2.1000000000000002e-06,4.5637636953612513e-08,0.0,194,28,536.2577393577806,3684.482,mp-17105,Hf9V4S,https://materialsproject.org/materials/mp-17105,28.14469100157712,60.510197395330756,-8.604250342815693,-0.5045126942092143
-8.422010515517242,-244.23830495,7.692614138450012,-0.06724808331896599,47.195046999999995,1.8833584279488849,0.0,160,29,292.03901207536194,1352.9000999999996,mp-1224758,Fe23(BC)3,https://materialsproject.org/materials/mp-1224758,41.835490820394256,88.04149580539027,-8.604250342815693,-0.5045126942092143
-6.450733265,-38.70439959,6.690048327017628,-0.6839309058333344,0.28826535,0.029262957223571136,0.0,129,6,114.80258249082777,462.52139000000005,mp-21890,NdCoSi,https://materialsproject.org/materials/mp-21890,18.70431423571044,69.7678465135985,-8.604250342815693,-0.5045126942092143
-4.32759171,-38.94832539,8.145798603665433,-0.4051142391666668,2.0766666666666665e-05,1.4418652860757167e-06,0.0,189,9,167.84929964031366,823.3872,mp-1078641,SmZnNi,https://materialsproject.org/materials/mp-1078641,20.26324435165598,78.81259900497854,-8.604250342815693,-0.5045126942092143
-8.279448143333333,-49.67668886,14.050441822881837,-0.2188991283333325,1.14649055,0.15893855728155012,0.0,74,6,84.06566260167374,711.31101,mp-1216321,UCoNi,https://materialsproject.org/materials/mp-1216321,44.222571437526206,73.69825349342028,-8.604250342815693,-0.5045126942092143
-8.09111932125,-129.45790914,9.99895414206012,-0.8792258356249993,0.0,0.0,0.0,63,16,244.8266877041693,1474.2266,mp-9605,Hf3Si3Ni2,https://materialsproject.org/materials/mp-9605,36.88592316491717,66.00831731940265,-8.604250342815693,-0.5045126942092143
-1.590160305,-6.36064122,5.837214904766693,-0.15854702374999974,6.7e-06,1.3509943011885148e-06,0.0,225,4,57.7961238677753,203.16800000000003,mp-865907,LiZn3,https://materialsproject.org/materials/mp-865907,1.0847869694657994,90.45606409087843,-8.604250342815693,-0.5045126942092143
-6.9389999425,-27.75599977,8.923198586958037,0.05700974750000042,5.0000005,1.0737370261490902,0.0,225,4,54.268715961872694,291.62249,mp-1018082,CrCo2Sb,https://materialsproject.org/materials/mp-1018082,45.70179462849245,44.97636126888381,-8.604250342815693,-0.5045126942092143
-5.4131836075,-64.95820329,9.450658044052355,-0.6579062091666662,7.575e-06,3.6267145652406923e-07,0.0,62,12,243.4146362060916,1385.35044,mp-1102179,TmNiSn,https://materialsproject.org/materials/mp-1102179,3.1775703973341445,55.85710481941506,-8.604250342815693,-0.5045126942092143
-10.428377755,-41.71351102,13.10128988635111,-0.5646770464583337,1.2e-06,2.3368149875290307e-07,0.0,225,4,59.84589195852157,472.171,mp-865533,Ti2ReOs,https://materialsproject.org/materials/mp-865533,63.459527032801645,56.827200349624654,-8.604250342815693,-0.5045126942092143
-7.15025062,-57.20200496,9.000578594380046,-0.2882734674999998,0.0,0.0,0.0,59,8,99.25200088913816,537.97316,mp-1451,NbNi3,https://materialsproject.org/materials/mp-1451,36.45003080160451,82.12867152911299,-8.604250342815693,-0.5045126942092143
-1.4441257583333331,-17.329509100000003,4.03774795630024,-0.005544865833333172,1.6666666666666667e-08,8.774145291626359e-10,0.0,8,12,221.37132041950943,538.2840000000001,mp-1094493,MgZn,https://materialsproject.org/materials/mp-1094493,2.048032559476884,98.87925541840258,-8.604250342815693,-0.5045126942092143
-5.687213866206897,-164.92920212,10.114587874642712,-0.6717530540517251,1.2e-06,2.8250384728122807e-08,0.0,225,29,495.0331778366866,3015.32,mp-1209001,Sm3(Ge3Pd10)2,https://materialsproject.org/materials/mp-1209001,28.147616343883595,54.18907420672035,-8.604250342815693,-0.5045126942092143
-5.751012350833334,-69.01214821,7.882425030074461,-0.6956462650000006,0.00018455,9.261936467738484e-06,0.0,62,12,232.2146843986124,1102.3016,mp-1210049,NdNiGe,https://materialsproject.org/materials/mp-1210049,4.322971610097688,75.24457768341664,-8.604250342815693,-0.5045126942092143
-4.5111362425,-36.08908994,13.506992809739744,-1.0662037712499997,3.2e-05,2.05744376878331e-06,0.0,6,8,181.2589380960073,1474.3785689999993,mp-1215710,Yb4Pt3Au,https://materialsproject.org/materials/mp-1215710,25.168288747699147,54.56254605368519,-8.604250342815693,-0.5045126942092143
-7.5190704375,-30.07628175,14.4523540961477,-0.7789298449999995,0.2454078,0.03526445050194632,0.0,225,4,81.10145929350368,705.85935,mp-1187329,TbDyIr2,https://materialsproject.org/materials/mp-1187329,16.462059923305574,48.89064997708429,-8.604250342815693,-0.5045126942092143
-4.233697109090909,-46.5706682,7.907033076062528,-0.4300605218181817,3.43e-05,2.007522111026656e-06,0.0,123,11,199.11831580991725,948.147,mp-1095585,Er2Ga8Fe,https://materialsproject.org/materials/mp-1095585,16.590050254360715,82.87268404406922,-8.604250342815693,-0.5045126942092143
-6.47868827,-25.91475308,6.745500579150637,-0.3827329000000006,7e-07,1.6967444598866608e-07,0.0,123,4,48.079398717097995,195.3098386,mp-1228840,AlVNi2,https://materialsproject.org/materials/mp-1228840,36.79181960091015,80.5023342084992,-8.604250342815693,-0.5045126942092143
-7.087157515625001,-340.18356075,4.601991287989407,-0.6764069518750008,0.676722025,0.011603292665836444,0.0,64,48,679.6831330117312,1883.662944,mp-30076,ScFeSi2,https://materialsproject.org/materials/mp-30076,19.08985080931707,73.58627130007561,-8.604250342815693,-0.5045126942092143
-9.035064065,-18.07012813,15.926078051536322,-0.023525989999999556,0.001714,0.0007751370835748793,0.0,166,2,25.769721825259186,247.15504500000003,mp-1221583,MnIr,https://materialsproject.org/materials/mp-1221583,56.08914093169921,58.68963151503371,-8.604250342815693,-0.5045126942092143
-7.854292905,-282.75454458,7.682242922005148,-0.5292433216666679,1e-07,1.7930654881312791e-09,0.0,62,36,649.9519872364217,3006.9085600000003,mp-540755,Zr2Nb3Ge4,https://materialsproject.org/materials/mp-540755,46.07189084039916,59.64440197321656,-8.604250342815693,-0.5045126942092143
-8.854267644,-88.54267644,13.213629761112886,-0.15109731699999854,1.2e-06,7.876177310595134e-08,0.0,127,10,177.55920385716806,1412.91564,mp-21357,U2Fe2Sn,https://materialsproject.org/materials/mp-21357,48.26253564274523,65.80186523436018,-8.604250342815693,-0.5045126942092143