energy_per_atom,energy,density,formation_energy_per_atom,total_magnetization_uB,total_magnetization_T,band_gap,sgr,num_sites,cell_volume,weight,mp_id,formula,URL,tsne_cry_lin1_0,tsne_cry_lin1_1,tsne_cry_lin2_0,tsne_cry_lin2_1
-7.539090556666666,-158.32090169,8.330822053002388,-0.15162822988095231,25.2425425,1.0974011732986615,0.0,12,21,268.0680798206411,1344.88104,mp-1224208,Ho2Ga3(Fe7C)2,https://materialsproject.org/materials/mp-1224208,55.90606033071957,74.50478952511993,-8.604250342815693,-0.5045126942092143
-5.8523094626315775,-222.38775958,9.402617928017234,-0.2003892663157896,6.8595155,0.17047373746160646,0.0,194,38,468.93579700733255,2655.29688,mp-1202187,Ho2Ni17,https://materialsproject.org/materials/mp-1202187,30.98574121317433,79.99453018593515,-8.604250342815693,-0.5045126942092143
-7.692380960526315,-146.15523825,7.415240090637973,-0.10060333842105253,28.166826399999998,1.2696119880847652,0.0,12,19,258.54987380690073,1154.5704999999996,mp-1220563,Nd2Fe14Si3,https://materialsproject.org/materials/mp-1220563,51.230258431946346,70.2537438966396,-8.604250342815693,-0.5045126942092143
-8.810284105,-35.24113642,7.716185603540603,-0.0439849249999984,4.8627763,1.1926297352333255,0.0,225,4,47.51777379052271,220.805385,mp-864955,Mn2CrCo,https://materialsproject.org/materials/mp-864955,44.970472660766376,79.75515666787456,-8.604250342815693,-0.5045126942092143
-7.953878515,-15.90775703,9.581021645312603,-0.050494120000000635,4.3020955999999995,1.8222380609279498,0.0,221,2,27.513913716966552,158.7505,mp-1918,FeRh,https://materialsproject.org/materials/mp-1918,50.33345208472479,74.43411328416404,-8.604250342815693,-0.5045126942092143
-6.283775753333334,-37.70265452,9.388945147623426,-0.2603977558333348,3.7787593,0.5438072210175771,0.0,187,6,80.98072982500709,457.8776,mp-1225589,ErFeNi4,https://materialsproject.org/materials/mp-1225589,30.096706947236513,80.91786047442581,-8.604250342815693,-0.5045126942092143
-8.014280692647061,-544.9710871,8.185552511195175,-0.1126897177450985,30.848574,0.3964141174689135,0.0,136,68,906.9083660101821,4470.564,mp-4023,Dy2Fe14B,https://materialsproject.org/materials/mp-4023,56.28018226953047,77.85252687092935,-8.604250342815693,-0.5045126942092143
-7.524111539523809,-158.00634233,8.03404433494803,-0.12347899154761965,25.4421207,1.090299115319725,0.0,12,21,271.9475036005448,1315.7404,mp-1219425,Sm2Ga3(Fe7C)2,https://materialsproject.org/materials/mp-1219425,55.87679443159266,74.51792086159267,-8.604250342815693,-0.5045126942092143
-7.91130265734375,-506.32337007,7.3815988564841994,0.06336317536458314,15.839899875,0.24766203587635816,0.0,217,64,745.3674459264673,3313.3840000000005,mp-653838,ZrFe12Si2B,https://materialsproject.org/materials/mp-653838,49.52252802740402,69.04436492825387,-8.604250342815693,-0.5045126942092143
-6.840154764473684,-259.92588105,9.140725967537046,-0.18767175078947373,7.224603999999999,0.17658913798817874,0.0,194,38,476.79038434249617,2624.5756,mp-580102,Gd2Ni17,https://materialsproject.org/materials/mp-580102,30.959768576758126,79.9917234672181,-8.604250342815693,-0.5045126942092143
-7.7382169284210525,-294.05224328,7.503099215923146,-0.06658368250000092,57.96020649999999,1.3060467684550925,0.0,2,38,517.1882179846772,2336.9005,mp-1220603,Nd4Fe29Si5,https://materialsproject.org/materials/mp-1220603,51.31547331300477,70.30168289760961,-8.604250342815693,-0.5045126942092143
-6.28453248,-37.70719488,9.091147352568983,-0.2548156983333338,3.8527911,0.5425135706070497,0.0,187,6,82.76415460778159,453.1186,mp-1225612,DyFeNi4,https://materialsproject.org/materials/mp-1225612,29.887276718642763,80.92890486629261,-8.604250342815693,-0.5045126942092143
-6.257280696666666,-37.54368418,8.453376284600054,-0.20095530291666697,3.7895098,0.5170011533618294,0.0,187,6,85.42184553801486,434.8606,mp-1220174,NdFeNi4,https://materialsproject.org/materials/mp-1220174,29.79183839627469,80.9372335367323,-8.604250342815693,-0.5045126942092143
-6.2842509500000014,-37.7055057,8.989449190056137,-0.2508640366666673,3.8458383,0.5397346277608757,0.0,187,6,83.04015778814879,449.54395,mp-1217544,TbFeNi4,https://materialsproject.org/materials/mp-1217544,29.92371582245676,80.81575703766113,-8.604250342815693,-0.5045126942092143
-7.5361059642857136,-158.25822525,8.132679508077056,-0.14393859892857244,25.562338699999998,1.0946478502543262,0.0,12,21,272.14702050407834,1332.8711,mp-1217860,Tb2Ga3(Fe7C)2,https://materialsproject.org/materials/mp-1217860,55.891734950378755,74.50933518123631,-8.604250342815693,-0.5045126942092143
-8.084353371029412,-549.73602923,7.658410622274077,0.0048400893382349475,30.269141025,0.3795364209213312,0.004599999999999938,136,68,929.4457940525614,4286.60656,mp-14127,La2Fe14C,https://materialsproject.org/materials/mp-14127,56.26016460030682,77.75233857504685,-8.604250342815693,-0.5045126942092143
-7.10055594,-14.20111188,8.457404165482178,0.01848773499999989,3.1956857000000003,1.6560687782652288,0.0,65,2,22.488636117852177,114.5384,mp-1224965,FeNi,https://materialsproject.org/materials/mp-1224965,36.466734052359584,80.4286914211857,-8.604250342815693,-0.5045126942092143
-8.263922308095239,-173.54236847,7.837240884317873,-0.03165358630952498,28.973189,1.2545733678270383,0.0,8,21,269.13963737206063,1270.2575000000004,mp-1219238,Sm2Cr(Fe8C)2,https://materialsproject.org/materials/mp-1219238,57.135139440368974,75.00825822098466,-8.604250342815693,-0.5045126942092143
-7.539755543333331,-158.33486641,8.386772064439945,-0.15330755845238014,25.2093552,1.0995112261538886,0.0,12,21,267.20187242012315,1349.5384,mp-1225739,Er2Ga3(Fe7C)2,https://materialsproject.org/materials/mp-1225739,55.900161029076635,74.50123249112791,-8.604250342815693,-0.5045126942092143
-8.286624257619048,-348.03821882,7.888198435060972,-0.02633475035714349,56.25998860000001,1.2278420397391006,0.0,1,42,533.9917758372144,2536.666100000001,mp-1219362,Sm4Cr3Fe31C4,https://materialsproject.org/materials/mp-1219362,56.96265627100135,74.93630928659856,-8.604250342815693,-0.5045126942092143
-7.781694677500001,-155.63389355,7.598325409989897,-0.059160778187499825,24.1629583,1.071498160911677,0.0,2,20,262.80649971929415,1202.5548672,mp-1219317,Sm2Mn2Al2Fe13C,https://materialsproject.org/materials/mp-1219317,56.33989327197021,74.99965926306274,-8.604250342815693,-0.5045126942092143
-7.028812858421053,-133.54744431,7.1323410196603,-0.2146352721052626,21.6542839,0.9591962900297684,0.0,160,19,263.09570814349644,1130.047693,mp-1225421,Dy2Al5Fe12,https://materialsproject.org/materials/mp-1225421,47.870080287483084,71.27848573727742,-8.604250342815693,-0.5045126942092143
-8.075157908157895,-306.85600051,7.839531774917992,0.08422765657894765,9.392333500000001,0.209091141827834,0.0,194,38,523.4983271773938,2471.47563,mp-1232416,Pr2Mn12Co5,https://materialsproject.org/materials/mp-1232416,44.893477462139,79.84514340463265,-8.604250342815693,-0.5045126942092143
-6.244945386,-31.22472693,8.727145732166791,0.04918381600000003,6.0273705,1.2085930872921242,0.0,166,5,58.119947030805136,305.45578,mp-1224812,GaCo4,https://materialsproject.org/materials/mp-1224812,47.57684274490882,79.53330378587258,-8.604250342815693,-0.5045126942092143
-7.6950896875,-30.78035875,7.879204548607569,-0.3289319779166675,0.9950339,0.23466340975165825,0.0,225,4,49.41626619064646,234.4786,mp-999002,TiFe2As,https://materialsproject.org/materials/mp-999002,50.06858673554885,68.70303892641128,-8.604250342815693,-0.5045126942092143
-8.40673878952381,-176.54151458,7.167472783399434,-0.06374639654762047,36.2065465,1.5820908825409263,0.0,12,21,266.7061941625083,1151.1981,mp-1216161,Y2Fe17C2,https://materialsproject.org/materials/mp-1216161,57.2850245648269,75.17082871537515,-8.604250342815693,-0.5045126942092143
-6.99811297,-27.99245188,6.432945260202762,-0.5318081666666671,0.6930101,0.16235377777414148,0.0,123,4,49.745590796621535,192.71492859999998,mp-1217016,TiAlCo2,https://materialsproject.org/materials/mp-1217016,44.265710065686825,47.65783152407755,-8.604250342815693,-0.5045126942092143
-8.6874784,-34.7499136,6.549533589171821,-0.3341446908333339,0.3843808,0.08555482255934023,0.0,225,4,52.35939490636305,206.517045,mp-861983,Ti2MnFe,https://materialsproject.org/materials/mp-861983,51.558069430617955,68.17538664252544,-8.604250342815693,-0.5045126942092143
-8.133249489117647,-553.06096526,7.788634579055984,-0.07531976950980379,28.84483425,0.36740867464337995,0.0,136,68,914.9472777950514,4291.492,mp-4459,Ce2Fe14B,https://materialsproject.org/materials/mp-4459,56.24988750088635,77.91473313664339,-8.604250342815693,-0.5045126942092143
-6.244733021666666,-37.46839813,8.285330921616634,-0.18530998083333355,3.8260775000000002,0.5155665584253283,0.0,187,6,86.48612731209818,431.52625,mp-1219997,PrFeNi4,https://materialsproject.org/materials/mp-1219997,29.463066845682288,80.75126382933192,-8.604250342815693,-0.5045126942092143
-8.231950396666667,-172.87095833,8.131298904484758,-0.0662856465476206,36.069497999999996,1.5853472483914623,0.0,12,21,265.1509102704266,1298.3864,mp-1225407,Dy2Fe17C2,https://materialsproject.org/materials/mp-1225407,57.32032253979715,75.16716062771064,-8.604250342815693,-0.5045126942092143
-8.59682687,-17.19365374,6.682861054910504,-0.4183477583333328,0.0,0.0,0.0,221,2,25.770074149594347,103.712,mp-305,TiFe,https://materialsproject.org/materials/mp-305,50.6427414144956,68.67747911471943,-8.604250342815693,-0.5045126942092143
-5.849729945789473,-222.28973794,9.458454915466172,-0.20832380368421125,7.1052688999999996,0.17656489765566494,0.0,194,38,468.97919737444056,2671.31244,mp-11527,Tm2Ni17,https://materialsproject.org/materials/mp-11527,30.98405735546628,79.96597874311837,-8.604250342815693,-0.5045126942092143
-7.967962806052633,-302.78258663,6.930399678434969,-0.11714128881579045,57.790424699999996,1.3286726612221242,0.0,2,38,506.8918570718906,2115.5559,mp-1216484,Y4Fe29Si5,https://materialsproject.org/materials/mp-1216484,51.01444326139767,70.21567350614164,-8.604250342815693,-0.5045126942092143
-8.232890848571428,-172.89070782,8.151253020998242,-0.06983391892857158,36.1618031,1.5873622253522444,0.0,12,21,265.492014922071,1303.2470400000002,mp-1224177,Ho2Fe17C2,https://materialsproject.org/materials/mp-1224177,57.38798143959001,75.13418551880913,-8.604250342815693,-0.5045126942092143
-8.234569611904764,-172.92596185,8.215056964796759,-0.07252702416666677,36.1672829,1.59433213123424,0.0,12,21,264.3714250667411,1307.9044,mp-1225775,Er2Fe17C2,https://materialsproject.org/materials/mp-1225775,57.417249356629476,75.12500438232992,-8.604250342815693,-0.5045126942092143
-6.6167784099999984,-39.70067046,7.814782007381251,-0.2630444483333321,3.0316408,0.41276303614784376,0.0,65,6,85.5961778459247,402.8303186,mp-1226649,CeAlCo4,https://materialsproject.org/materials/mp-1226649,40.960580373929226,77.88732870306997,-8.604250342815693,-0.5045126942092143
-7.786993312631577,-147.95287294,7.5871054254012416,-0.03550444289473825,29.8428771,1.3440221832328116,0.0,166,19,258.7686624981055,1182.33,mp-1205374,Nd2Fe15Si2,https://materialsproject.org/materials/mp-1205374,51.38555498177454,70.34422065895112,-8.604250342815693,-0.5045126942092143
-8.241247867142857,-346.13241042,7.843950191537226,-0.036999930833333326,65.8585375,1.4249381743828733,0.0,1,42,538.6336583925521,2544.3639000000007,mp-1219272,Sm4CrFe33C4,https://materialsproject.org/materials/mp-1219272,57.30132584245339,75.07688418991336,-8.604250342815693,-0.5045126942092143
-7.319144895,-29.27657958,7.8392804721143685,0.07761366749999965,4.370617299999999,1.0302189552050538,0.0,35,4,49.44138996174053,233.4091,mp-1226220,CrGaFe2,https://materialsproject.org/materials/mp-1226220,48.08149041072958,70.75905511813312,-8.604250342815693,-0.5045126942092143
-8.652074315,-69.21659452,12.895641394063873,-0.07967203000000113,0.9011416999999999,0.11307353804812433,0.0,194,8,92.87728961470098,721.27917,mp-2157,Co3W,https://materialsproject.org/materials/mp-2157,47.26828926944365,78.25596677774735,-8.604250342815693,-0.5045126942092143
-7.2176987825,-57.74159026,8.153419689436921,-0.11515846750000057,6.44591785,0.7773239347587535,0.0,194,8,96.64071924636276,474.516,mp-1078766,GaFe3,https://materialsproject.org/materials/mp-1078766,49.6619603451351,75.23509971956345,-8.604250342815693,-0.5045126942092143
-7.83440197,-31.33760788,7.947001204463718,-0.4745181454166669,0.0,0.0,0.17189999999999994,225,4,48.51794702815819,232.197,mp-866375,TiFe2Ge,https://materialsproject.org/materials/mp-866375,50.067300433749246,68.555048982947,-8.604250342815693,-0.5045126942092143
-7.576665641666667,-90.9199877,9.192400617249707,-0.08727704291666663,5.549128799999999,0.3589339024671463,0.010299999999999976,166,12,180.17218775369304,997.39596,mp-30634,HoFe3,https://materialsproject.org/materials/mp-30634,43.4995531053932,69.68562554580848,-8.604250342815693,-0.5045126942092143
-7.330378236666667,-43.98226942,9.267977737768923,-0.16232875666666638,1.29259445,0.16492468575737776,0.0,74,6,91.33853659185944,509.78839000000005,mp-1226668,CeFeCo,https://materialsproject.org/materials/mp-1226668,42.322657329447004,74.19966779609075,-8.604250342815693,-0.5045126942092143
-7.373609459230769,-95.85692297,9.21947192218784,-0.20099607807692293,9.776480099999999,0.7159697753296178,0.0,69,13,159.13483537847281,883.5318599999999,mp-1216852,U(Co5Si)2,https://materialsproject.org/materials/mp-1216852,48.77014761785463,50.66419074297042,-8.604250342815693,-0.5045126942092143
-7.5331379975,-30.13255199,6.261339584735437,-0.39191492916666704,0.6513924,0.15345099635747206,0.0,123,4,49.47096729348453,186.5385386,mp-1217020,TiAlFe2,https://materialsproject.org/materials/mp-1217020,48.002686729208435,70.93919196661717,-8.604250342815693,-0.5045126942092143
-5.882190966944445,-211.75887481,9.050796003422567,-0.3399139030555555,1.202442575,0.02683487137705095,0.0,194,36,522.2064774388153,2846.2952,mp-1200995,Sm2Ni7,https://materialsproject.org/materials/mp-1200995,28.965671392448357,81.06832127781433,-8.604250342815693,-0.5045126942092143
-6.5033189433333325,-39.01991366,8.298069648380297,-0.2521222733333334,2.7678861,0.3742345400398479,0.0,187,6,86.19494044839622,430.7346,mp-1226721,CeFeNi4,https://materialsproject.org/materials/mp-1226721,29.284919919910894,80.57369487783859,-8.604250342815693,-0.5045126942092143
-5.855458889210527,-222.50743779,9.320026067603193,-0.20065636500000114,6.92400465,0.1711916739199446,0.0,194,38,471.3593647921181,2645.5756,mp-1197654,Dy2Ni17,https://materialsproject.org/materials/mp-1197654,30.96808284484273,79.97882610160141,-8.604250342815693,-0.5045126942092143
-7.1982570400000006,-43.18954224,8.685922655476109,0.007056917083332338,7.7440257,0.8965482125954456,0.0,216,6,100.66316104395676,526.54735,mp-1217484,TbNdFe4,https://materialsproject.org/materials/mp-1217484,43.1606536930536,70.00238534590619,-8.604250342815693,-0.5045126942092143
-8.148602861,-162.97205722,7.925376665159947,-0.08848810136900198,38.9805494,1.715211283368229,0.0,12,20,264.85474529147893,1264.0917,mp-1219234,Sm2Fe17N,https://materialsproject.org/materials/mp-1219234,60.503519413830396,75.40376664578106,-8.604250342815693,-0.5045126942092143
-8.315308475517242,-241.14394579,6.946262071969267,0.06994229586206988,23.9706007,0.6473507491588119,0.0,225,29,431.5356606259703,1805.17273,mp-1193646,Y6Mn14Fe9,https://materialsproject.org/materials/mp-1193646,55.89042564766101,68.25692923725678,-8.604250342815693,-0.5045126942092143
-8.23063205047619,-172.84327306,8.016568084745494,-0.0628700822619061,36.1750599,1.5762318019927108,0.0,12,21,267.46477941432653,1291.2371,mp-1217725,Tb2Fe17C2,https://materialsproject.org/materials/mp-1217725,57.3876726243432,75.14249724351853,-8.604250342815693,-0.5045126942092143
-7.538071408095237,-158.29949957,8.339312288261674,-0.14800126083333354,25.1667206,1.0991925904161446,0.0,12,21,266.82730082293733,1340.0204,mp-1225932,Dy2Ga3(Fe7C)2,https://materialsproject.org/materials/mp-1225932,55.88242820532651,74.50087560237,-8.604250342815693,-0.5045126942092143
-8.305094156190476,-174.40697728,7.835305007837229,-0.01678386345238215,26.666186199999995,1.1579006569035508,0.0,12,21,268.39043518896926,1266.4086000000002,mp-1219232,Sm2Cr2Fe15C2,https://materialsproject.org/materials/mp-1219232,56.795043631668655,74.88499236588167,-8.604250342815693,-0.5045126942092143
-7.683273325,-30.7330933,8.347883010666825,0.1061639474999998,3.4084385000000004,0.8826998025075388,0.0,166,4,45.00076123212563,226.2284,mp-1224827,Fe3Ni,https://materialsproject.org/materials/mp-1224827,49.6100314784825,75.11459375511721,-8.604250342815693,-0.5045126942092143
-5.8717633225000005,-70.46115987,9.118590860966556,-0.3589836856250012,0.2377539666666667,0.015536706024770646,0.0,166,12,178.33896857215163,979.3206,mp-1095619,SmNi3,https://materialsproject.org/materials/mp-1095619,28.651405607309155,81.21880818537781,-8.604250342815693,-0.5045126942092143
-6.474389466,-32.37194733,8.700527964036766,0.13815524700000026,5.9121023,1.1706844467104127,0.0,166,5,58.85447896724526,308.37278,mp-1226010,Co4Ge,https://materialsproject.org/materials/mp-1226010,47.58496503736719,79.42393230598363,-8.604250342815693,-0.5045126942092143
-6.8128758125,-27.25150325,8.311982833495277,-0.04779463000000028,6.0750877999999995,1.4745119022718678,0.0,225,4,48.01552745088205,240.346195,mp-636212,GaFe2Co,https://materialsproject.org/materials/mp-636212,44.43161323524552,47.59841700424386,-8.604250342815693,-0.5045126942092143
-6.7988714366666665,-40.79322862,10.174642164370429,-0.30174466000000066,3.1149847999999998,0.4255855994848089,0.0,187,6,85.29949008773896,522.65666,mp-1217342,ThFeNi4,https://materialsproject.org/materials/mp-1217342,30.203554342347328,81.89096283747217,-8.604250342815693,-0.5045126942092143
-7.593992394166666,-91.12790873,9.323724712447307,-0.10726644291666668,5.617123266666668,0.36595932079065385,0.0,166,12,178.87867494057625,1004.382,mp-569783,ErFe3,https://materialsproject.org/materials/mp-569783,43.50466056911482,69.68443186170806,-8.604250342815693,-0.5045126942092143
-7.3307819375,-29.32312775,6.950962889274142,-0.05353365750000005,6.4698139,1.787739786952799,0.0,65,4,42.1759535740521,176.54718200000002,mp-1227549,BeFe3,https://materialsproject.org/materials/mp-1227549,56.05536764215867,74.70687583222227,-8.604250342815693,-0.5045126942092143
-6.35516333575,-254.20653343,7.538053698170887,-0.11809663816666713,14.6386879,0.22586660899914265,0.0,140,40,755.3140224128189,3428.76471,mp-1203758,La6InCo13,https://materialsproject.org/materials/mp-1203758,42.86094793535276,80.86760065647294,-8.604250342815693,-0.5045126942092143
-7.1965531675,-28.78621267,8.147568050928331,-0.09401285250000058,6.3860097,1.5390936355227494,0.0,225,4,48.355063632445535,237.258,mp-672661,GaFe3,https://materialsproject.org/materials/mp-672661,48.100085200129264,70.90910819579689,-8.604250342815693,-0.5045126942092143
-7.2384966,-43.4309796,9.172453171170176,-0.05131596958333399,7.5405359,0.8972626497989822,0.0,216,6,97.9399887180185,540.999,mp-1219072,SmErFe4,https://materialsproject.org/materials/mp-1219072,43.14533007906884,69.95089600133043,-8.604250342815693,-0.5045126942092143
-7.471556925,-29.8862277,8.367355343871784,-0.2650102904166669,0.0,0.0,0.04989999999999917,225,4,55.22332900348261,278.267,mp-19963,TiFe2Sn,https://materialsproject.org/materials/mp-19963,50.027555621623925,67.71628594657436,-8.604250342815693,-0.5045126942092143
-5.9158586938888895,-212.97091298,9.890247837019805,-0.4066789438888894,1.38738455,0.032299768994779564,0.0,194,36,500.5815804057866,2981.4872,mp-1200559,Er2Ni7,https://materialsproject.org/materials/mp-1200559,28.97308237993841,81.56367404717635,-8.604250342815693,-0.5045126942092143
-7.3282895775,-87.93947493,8.272619016684391,-0.23920189069444456,5.48138345,0.4072468119522674,0.0,35,12,156.85917211556713,781.4547799999998,mp-1219073,SmFe2Co2B,https://materialsproject.org/materials/mp-1219073,42.37459048988685,83.39599632121681,-8.604250342815693,-0.5045126942092143