energy_per_atom,energy,density,formation_energy_per_atom,total_magnetization_uB,total_magnetization_T,band_gap,sgr,num_sites,cell_volume,weight,mp_id,formula,URL,tsne_cry_lin1_0,tsne_cry_lin1_1,tsne_cry_lin2_0,tsne_cry_lin2_1
-6.430178191944445,-231.48641491,13.15383815936101,-1.2008035725000008,0.000267925,3.824927227901898e-06,0.0,62,36,816.3332576397295,6466.5239999999985,mp-1195885,Er5Pt4,https://materialsproject.org/materials/mp-1195885,15.122049754147152,56.57670919671468,-8.604250342815693,-0.5045126942092143
-7.05961131375,-56.47689051,11.432581055059718,0.2083305900600001,0.61823115,0.08794219280322828,0.0,194,8,81.92774863636994,564.06119,mp-1245931,CoPtN2,https://materialsproject.org/materials/mp-1245931,4.508056771529602,17.975245456192738,-8.604250342815693,-0.5045126942092143
-9.975123921071429,-279.30346979,8.968700322939254,-0.07651670089285696,1.28814475,0.043625599950966334,0.0,227,28,344.11268543712447,1858.5793399999998,mp-15812,Mn3Mo3C,https://materialsproject.org/materials/mp-15812,57.69204440062045,49.29693506352084,-8.604250342815693,-0.5045126942092143
-6.915916828545455,-380.37542557,4.03235576370296,-2.0385444573701808,55.0000003,1.0812226030764978,0.0041999999999999815,1,55,592.8229433635443,1439.5765199999998,mp-694974,Li7Mn16O32,https://materialsproject.org/materials/mp-694974,-67.38984383867286,-37.943974394972685,3.34076599215742,0.08041963999681719
-4.4380063625,-17.75202545,0.6945280804359196,2.3070268370833333,0.00010979999999999999,1.1245939617145617e-06,0.0,71,4,1137.8473970073117,475.9099,mp-1097683,Y2AgOs,https://materialsproject.org/materials/mp-1097683,-69.02822558403422,41.23715974083218,-8.604250342815693,-0.5045126942092143
-7.470129090833333,-89.64154909,8.17760092712703,-0.17409766333333346,3.5104975,0.2512942424256436,0.0,160,12,162.80343255780863,801.7526049999999,mp-1215821,YZr2Co9,https://materialsproject.org/materials/mp-1215821,61.160666137077506,64.64785300979956,-8.604250342815693,-0.5045126942092143
-8.4629344675,-67.70347574,2.751044930423898,0.7625391137499999,0.0,0.0,3.043200000000001,229,8,57.99755875206258,96.0856,mp-570002,C,https://materialsproject.org/materials/mp-570002,64.60259030704731,-38.16900195684246,3.638351609359399,-5.056216859661387
-5.6475862825,-22.59034513,0.5932390658916884,3.38458774625,1.9999999,0.028527112110568676,0.08969999999999967,71,4,817.0518028383867,291.8974120000001,mp-1093740,ScVTc2,https://materialsproject.org/materials/mp-1093740,-65.40719575367929,42.62160622960507,-8.604250342815693,-0.5045126942092143
-8.4311253475,-33.72450139,10.298593565454585,-0.5167198512500004,0.0003793,5.9819754180796716e-05,0.0,225,4,73.89510085367284,458.29432,mp-1184822,HoZrRu2,https://materialsproject.org/materials/mp-1184822,39.698298497969255,59.56389305954592,-8.604250342815693,-0.5045126942092143
-7.7653573075,-93.18428769,11.10139771294185,-0.6539336033333344,0.0009449,6.559733756528644e-05,0.0,194,12,167.8715358322572,1122.2914,mp-1224364,Hf2SiNi3,https://materialsproject.org/materials/mp-1224364,30.247266923283554,71.15278722390887,-8.604250342815693,-0.5045126942092143
-7.2137807525,-28.85512301,10.647307056720093,-0.25716846937500026,9.3e-06,1.3430716773785259e-06,0.0,225,4,80.69770527538194,517.4303199999998,mp-972649,SmHoRu2,https://materialsproject.org/materials/mp-972649,19.746660928541765,53.331273920196935,-8.604250342815693,-0.5045126942092143
-9.253878112,-92.53878112,8.466158509731523,-0.4056803986666651,0.03304925,0.003657623862959526,0.0,127,10,105.30281806311052,536.88009,mp-1092278,Mn(BMo)2,https://materialsproject.org/materials/mp-1092278,21.63422386393002,36.6567552383193,-8.604250342815693,-0.5045126942092143
-9.533169140625,-152.53070625,8.59770121353495,-0.3964084341666663,0.0,0.0,0.0,140,16,204.4969463313919,1058.815,mp-4984,SiB2Mo5,https://materialsproject.org/materials/mp-4984,21.977768138100032,36.66615583342549,-8.604250342815693,-0.5045126942092143
-8.4571009025,-33.82840361,10.418157608738888,-0.5453580537500011,1.7199999999999998e-05,2.730247937438472e-06,0.0,225,4,73.41820914480374,460.62300000000005,mp-1184237,ErZrRu2,https://materialsproject.org/materials/mp-1184237,39.707564356554215,59.5746923810456,-8.604250342815693,-0.5045126942092143
-7.077674411714286,-495.43720882,5.824844284980822,-0.6403534602036643,0.0,0.0,0.0,176,70,1732.0374950906155,6075.6468,mp-28539,Rb3Mo15Se17,https://materialsproject.org/materials/mp-28539,63.61155925046536,32.13463434268614,-8.604250342815693,-0.5045126942092143
-9.413889265,-188.2777853,4.448425614396636,-0.29746872842799943,0.00018705,6.2416869583639025e-06,0.006699999999999928,2,20,349.24737979469137,935.6004,mp-1080195,Mo2N3,https://materialsproject.org/materials/mp-1080195,6.488619969646376,19.229117721066643,-8.604250342815693,-0.5045126942092143
-8.50970584,-153.17470512,13.253485420670982,-0.1810429572222208,3.83277845,0.1203853808839092,0.0,193,18,371.0371474277673,2961.4091,mp-505302,U5Ge4,https://materialsproject.org/materials/mp-505302,25.899971648574308,63.368234386150796,-8.604250342815693,-0.5045126942092143
-8.4158308675,-33.66332347,10.18671563330728,-0.4945798425000012,5.2e-06,8.155123955066222e-07,0.0,225,4,74.31050361860295,455.86400000000003,mp-866009,DyZrRu2,https://materialsproject.org/materials/mp-866009,39.59196177185488,59.454697509207975,-8.604250342815693,-0.5045126942092143
-9.1283549225,-36.51341969,10.64150730817537,-0.5378708612500009,0.004468,0.0006979061530643453,0.0,225,4,74.60940296222886,478.131792,mp-867804,ScPaRu2,https://materialsproject.org/materials/mp-867804,20.939781162698786,54.91294439226865,-8.604250342815693,-0.5045126942092143
-5.4251863975,-21.70074559,9.325169753507922,-0.0956396100000001,0.002592,0.0003729305932151395,0.0,225,4,80.99988694960311,454.875,mp-977386,LiLu2Tc,https://materialsproject.org/materials/mp-977386,8.105460160796781,43.564792214768715,-8.604250342815693,-0.5045126942092143
-8.41680138642857,-235.67043882,8.373403268085186,-0.28827845339285674,4.495e-05,1.4146853665534755e-06,0.0,227,28,370.29450075021776,1867.24016,mp-1194349,Nb3Ni3C,https://materialsproject.org/materials/mp-1194349,22.246773195354574,42.026702662890614,-8.604250342815693,-0.5045126942092143
-8.483507059473684,-161.18663413,5.877358256027142,-0.2662962986336825,16.181471900000002,0.8625306081217939,0.0,12,19,218.63562853566123,773.8450499999999,mp-1246103,Mn10CdN8,https://materialsproject.org/materials/mp-1246103,3.228424270695084,17.42013747515423,-8.604250342815693,-0.5045126942092143
-6.8884698900000005,-137.7693978,5.589344987761918,-0.1640416639999998,3.46e-05,8.822958089066194e-07,0.0,58,20,457.0243188962519,1538.33576,mp-616512,Y3Co2,https://materialsproject.org/materials/mp-616512,-27.73264480249508,66.47048728149001,-8.604250342815693,-0.5045126942092143
-5.548398903333332,-33.29039342,11.968400007485629,-0.4042612666666668,1.1967899,0.16735675257472274,0.0,216,6,83.33973263204821,600.674379,mp-1077547,TmNi4Au,https://materialsproject.org/materials/mp-1077547,30.349485052200567,72.38182666260963,-8.604250342815693,-0.5045126942092143
-5.81582010125,-93.05312162,9.634945161225033,-0.5535272249999998,0.0,0.0,0.0,62,16,416.85713047779666,2418.73,mp-11437,Er3Rh,https://materialsproject.org/materials/mp-11437,-32.641652422950486,70.97815801367919,-8.604250342815693,-0.5045126942092143
-6.07622300375,-97.21956806,7.221547219936466,-0.17195713250000022,8e-07,1.9352137420086395e-08,0.04100000000000037,62,16,481.76858274945687,2095.1718,mp-1105741,Pr3Ru,https://materialsproject.org/materials/mp-1105741,-29.30335078548361,67.22653893301916,-8.604250342815693,-0.5045126942092143
-11.25192103,-22.50384206,16.357843528798412,0.5469741065624998,0.0002758,9.17574730107312e-05,0.0,221,2,35.02920207813545,345.07,mp-11555,PuRu,https://materialsproject.org/materials/mp-11555,20.780271628648386,55.818322455935785,-8.604250342815693,-0.5045126942092143
-5.201918705735294,-353.73047199,7.462327774228573,-0.530159423235294,0.05089775,0.0002833564570502875,0.0,186,68,2093.3550675087686,9407.3679,mp-1210244,Pr23Mg4Pt7,https://materialsproject.org/materials/mp-1210244,-29.077655454527,67.07691952836996,-8.604250342815693,-0.5045126942092143
-4.8763268775,-19.50530751,0.8462941253389239,3.612835068125,0.9999996999999999,0.01046621831156905,0.0,71,4,1113.4930429893866,567.492,mp-1097289,Hf2MgRe,https://materialsproject.org/materials/mp-1097289,-60.496537124033225,39.709231835492844,-8.604250342815693,-0.5045126942092143
-6.8982625294444455,-124.16872553,8.410063413284204,-0.2749663721759256,6.8373369,0.35896940021759705,0.0,191,18,221.9764889600927,1124.2351449999999,mp-5568,Nd3Co11B4,https://materialsproject.org/materials/mp-5568,42.24986890689149,83.55490211372054,-8.604250342815693,-0.5045126942092143
-7.965030205,-31.86012082,9.348355010305482,-0.9680496724999994,4.8e-06,8.15724324851268e-07,0.0,225,4,68.57648988031103,386.065824,mp-862371,Sc2RuPt,https://materialsproject.org/materials/mp-862371,20.74270045690589,53.08612608807436,-8.604250342815693,-0.5045126942092143
-3.62172667,-28.97381336,4.769283747411,2.1575547150000007,0.5860141999999999,0.024180896815413532,0.0,216,8,282.43152007854746,811.1800000000002,mp-1094183,HfMg,https://materialsproject.org/materials/mp-1094183,31.579439463230557,51.913426647587684,-8.604250342815693,-0.5045126942092143
-6.599903916000001,-32.99951958,6.46099612896036,-0.2381066329519996,0.0073759,0.0014323737176299425,0.0,164,5,60.01172410378648,233.49979,mp-1246511,Sr(CoN)2,https://materialsproject.org/materials/mp-1246511,4.033675359648194,14.821362057373738,-8.604250342815693,-0.5045126942092143
-8.667835286999999,-86.67835287,12.35471044664783,1.116502329000001,4.3636965,0.19322336940567555,0.0,227,10,263.1917754835418,1958.1943572,mp-1208233,U4Al,https://materialsproject.org/materials/mp-1208233,-59.78527441983404,43.48474118145584,-8.604250342815693,-0.5045126942092143
-12.035552283333333,-144.4266274,15.567026466999991,-0.4620952145833333,2.8104571,0.11237685069334252,0.0,11,12,291.45904055701266,2732.336,mp-615820,Pu2Pt,https://materialsproject.org/materials/mp-615820,21.823341229774066,56.19349028520307,-8.604250342815693,-0.5045126942092143
-6.788966748888888,-122.20140148,4.074339561053703,-2.045629781794444,18.0000005,1.1299593110828483,0.5882000000000001,2,18,185.6466597297912,455.507225,mp-753084,Li3Mn5O10,https://materialsproject.org/materials/mp-753084,-68.94482832271466,-41.893699268472545,3.042129510281532,-0.5042930349929089
-3.7637086125,-15.05483445,0.9811317552545572,1.9335800850000004,4.5064936,0.06676979803610551,0.0,71,4,786.5677275693762,464.74461399999996,mp-1093650,MnPd2Au,https://materialsproject.org/materials/mp-1093650,7.807873904589129,21.014113811407466,-8.604250342815693,-0.5045126942092143
-7.417038388,-37.08519194,8.18944339494167,-0.44608304566666707,1.0951117,0.21104344734734184,0.0,139,5,60.47334255293431,298.24232,mp-571500,Ho(FeB)2,https://materialsproject.org/materials/mp-571500,6.827548291760772,39.365727685400316,-8.604250342815693,-0.5045126942092143
-9.391312317999999,-93.91312318,7.9051521225664425,-0.6101393139999999,14.508272199999999,0.7196180970630427,0.0,194,10,234.95843788085656,1118.5417200000004,mp-1206201,Gd2Co2I,https://materialsproject.org/materials/mp-1206201,-26.653471296682763,66.41832424953053,-8.604250342815693,-0.5045126942092143
-6.32237741,-25.28950964,1.1319169519498034,3.866678375000001,1e-07,1.221574554695666e-09,0.12729999999999994,71,4,954.0199349898132,650.31373,mp-1096446,YTaOs2,https://materialsproject.org/materials/mp-1096446,-65.96969935404825,42.37826804895396,-8.604250342815693,-0.5045126942092143
-8.594840337857143,-240.65552946,7.471174458385619,-0.17077322732142822,1.75e-07,4.5004640066356135e-09,0.0,14,28,453.166902832887,2038.9096,mp-31225,Pr2Mo2C3,https://materialsproject.org/materials/mp-31225,-14.730172512170856,32.80507744318834,-8.604250342815693,-0.5045126942092143
-9.5993631675,-38.39745267,14.921012847623107,0.11327675999999975,0.1523339,0.020164507701976003,0.0,225,4,88.04128342209223,791.1076400000001,mp-973853,Pa3Tc,https://materialsproject.org/materials/mp-973853,20.77716814697717,56.055047846525866,-8.604250342815693,-0.5045126942092143
-6.9796551875,-27.91862075,6.040346047768584,-0.1909659424999992,0.21002220000000002,0.030111765259011693,0.0,63,4,81.2842522323721,295.67809,mp-8053,YCo,https://materialsproject.org/materials/mp-8053,-27.62361257902731,66.26901872406343,-8.604250342815693,-0.5045126942092143
-4.70162546125,-37.61300369,7.041304936681657,0.029062390625000486,0.4486766,0.018737819642647844,0.0,194,8,279.05627538599566,1183.3027,mp-1187358,TbNd3,https://materialsproject.org/materials/mp-1187358,-52.96702836289359,67.97058532218229,-8.604250342815693,-0.5045126942092143
-5.6353209024,-281.76604512,4.603400394952807,-1.5637347899000005,7.9999984,0.2024639385843303,0.0,1,50,460.4894095505343,1276.5837350000004,mp-758732,Li9Co13O28,https://materialsproject.org/materials/mp-758732,-75.21103509297313,-23.53207328579416,-1.7484258655067428,-0.4506929383608051
-5.7378551975,-22.95142079,14.994097664217243,-1.2076867149999997,5.6e-06,8.048987510477172e-07,0.0,225,4,81.0819530299722,732.14221,mp-865415,YbTmPt2,https://materialsproject.org/materials/mp-865415,23.461879735624127,53.754638627709724,-8.604250342815693,-0.5045126942092143
-8.991980983076925,-350.68725834,11.979948420502891,-0.2650727809294882,23.5277417,0.3770830742096308,0.0,191,39,727.1443469017171,5245.9783,mp-21906,U20Si16C3,https://materialsproject.org/materials/mp-21906,25.686931173486514,63.880223476129224,-8.604250342815693,-0.5045126942092143
-5.591256399000001,-55.91256399,8.325229324760663,-0.6012692549999997,0.425317,0.02180755891270695,0.0,194,10,227.29145828342067,1139.5417200000004,mp-1206614,Dy2Co2I,https://materialsproject.org/materials/mp-1206614,-26.958696019360715,66.2974226522774,-8.604250342815693,-0.5045126942092143
-5.5456373725,-22.18254949,0.7902012088376548,3.159586104999999,0.1713488,0.002800158428099915,0.0,71,4,713.1417972144548,339.36300000000006,mp-1096307,Zr2FeRu,https://materialsproject.org/materials/mp-1096307,-62.61444046103157,38.412940116807754,-8.604250342815693,-0.5045126942092143
-5.872213715,-23.48885486,0.9060127736785738,3.610709565,1.504103,0.024731220880432548,0.0,71,4,708.7767268485443,386.71826,mp-1097577,Nb2TcRh,https://materialsproject.org/materials/mp-1097577,-59.783324176076256,42.49944073347452,-8.604250342815693,-0.5045126942092143
-8.48862648625,-67.90901189,6.470529560045117,-0.4869688696874999,5e-08,6.0862651205093775e-09,0.0,194,8,95.74069270567962,373.0674,mp-9957,V2GeC,https://materialsproject.org/materials/mp-9957,6.1395098021058985,22.438638556556054,-8.604250342815693,-0.5045126942092143
-8.684558625,-17.36911725,8.907804897632255,-0.7373286849999996,8e-07,2.576306234147518e-07,0.0,221,2,36.18844566873764,194.1295,mp-2808,ZrRh,https://materialsproject.org/materials/mp-2808,27.54307112796767,57.96405077723021,-8.604250342815693,-0.5045126942092143
-8.3397372475,-100.07684697,12.876451406702357,-0.2265141066666677,5e-07,3.950805768212482e-08,0.0,38,12,147.48972053152212,1143.6914,mp-1219259,SiNi3W2,https://materialsproject.org/materials/mp-1219259,53.50269627360694,57.44690378508526,-8.604250342815693,-0.5045126942092143
-5.0064530125,-20.02581205,0.990100699023392,2.318844816666667,0.0,0.0,0.20029999999999992,71,4,841.2154355844134,501.57688,mp-1093812,TaInRh2,https://materialsproject.org/materials/mp-1093812,-61.31519569072135,40.602592280712905,-0.2314583787268956,1.2685546702856554
-8.5186661975,-34.07466479,10.231238992314477,-0.4163346324999999,7.000000000000001e-06,9.609111774080094e-07,0.0,225,4,84.89697625119733,523.0839100000002,mp-865530,YThRu2,https://materialsproject.org/materials/mp-865530,20.37274693186485,54.198334639062274,-8.604250342815693,-0.5045126942092143
-6.625291558571428,-92.75408182,6.2421529869319485,-0.4780334100492608,5.5e-07,1.59339411504282e-08,0.09419999999999984,176,14,402.26931707574295,1512.1756,mp-975237,Rb(TeMo)3,https://materialsproject.org/materials/mp-975237,59.28894552521097,32.88857476758166,-8.604250342815693,-0.5045126942092143
-6.098412275,-48.7872982,7.466840788011622,-0.43557182500000025,2.8e-06,2.008820307172314e-07,0.0,26,8,162.4405191776472,730.436,mp-1217442,TbYNi2,https://materialsproject.org/materials/mp-1217442,2.207437863205495,58.970489473800924,-8.604250342815693,-0.5045126942092143
-8.85418911,-35.41675644,8.501743589775156,-0.4674530225000009,1.2e-06,1.8730421023165434e-07,0.0,225,4,74.66397957512754,382.26985,mp-866159,YZrRu2,https://materialsproject.org/materials/mp-866159,39.559791795786964,59.41381532877009,-8.604250342815693,-0.5045126942092143
-6.2303154475,-24.92126179,1.3523457818911002,4.18317118,0.1573765,0.002468662086781133,0.0,71,4,742.9432867704367,605.05426,mp-1096618,Ta2VIr,https://materialsproject.org/materials/mp-1096618,-58.09054131520215,39.997963352244064,-8.604250342815693,-0.5045126942092143
-7.524435162222222,-270.87966584,6.583445556968777,0.19504702574777846,0.05119165,0.0019465942694246684,0.0,62,36,306.4792773126434,1215.0811199999996,mp-1246094,Co4CN4,https://materialsproject.org/materials/mp-1246094,2.9048495540613204,16.888835111032176,-8.604250342815693,-0.5045126942092143
-5.7575403875,-23.03016155,4.582699653013719,-1.735631911875,0.9999998,0.3393211630810365,1.6783000000000006,166,4,34.34522720577708,94.7848,mp-19419,LiFeO2,https://materialsproject.org/materials/mp-19419,-25.363101044794874,-33.46635382649642,6.312328735395442,-0.24452876155488185
-8.131661438333332,-48.78996863,7.126496276753527,-0.2852716616666662,1.5e-06,1.5548124297343635e-07,0.0,97,6,112.43219326350605,482.522595,mp-1215379,Zr4CoNi,https://materialsproject.org/materials/mp-1215379,25.581733038276678,58.07548112982706,-8.604250342815693,-0.5045126942092143
-5.73323284,-22.93293136,10.592941639632624,-0.15273963416666714,0.0022689,0.000312144740720209,0.0,225,4,84.7104055043551,540.3861999999998,mp-1184130,Er2TcAg,https://materialsproject.org/materials/mp-1184130,18.617786038720283,55.62361865533303,-8.604250342815693,-0.5045126942092143
-8.22943982,-32.91775928,12.747507114665511,-0.935946702499999,0.0002447,3.914421595178663e-05,0.0,225,4,72.85238905686133,559.268,mp-1185496,LuHfRh2,https://materialsproject.org/materials/mp-1185496,31.420857179329136,56.850814892600326,-8.604250342815693,-0.5045126942092143
-8.974563679375,-143.59301887,5.249448039496457,-0.5068955189062496,3.8900000000000004e-05,2.6860179097507662e-06,0.0,194,16,168.77888937629513,533.5592772,mp-569458,AlV4C3,https://materialsproject.org/materials/mp-569458,5.328562734921904,21.780975352621518,-8.604250342815693,-0.5045126942092143
-7.851364402500002,-157.02728805,11.754901215138068,-0.12648243250000066,3.335e-05,7.677561199404891e-07,0.0,186,20,506.2324481307841,3583.60284,mp-18014,Th7Fe3,https://materialsproject.org/materials/mp-18014,-30.391180495697235,69.24447892424624,-8.604250342815693,-0.5045126942092143
-5.7599021925,-23.03960877,0.8100559603690264,3.26422248125,3.7977513999999997,0.05363182190222689,0.0,71,4,825.2421647425244,402.5755,mp-1097298,HfSiTc2,https://materialsproject.org/materials/mp-1097298,-61.43385808915582,38.6551021485542,-4.237617672334443,-1.1100397135958324
-7.593486966666667,-91.1218436,11.407440621846108,-0.8000449550000006,1.4e-06,8.978088292060453e-08,0.0,62,12,181.72789296371639,1248.42,mp-1212191,HfNiAs,https://materialsproject.org/materials/mp-1212191,18.69043289734452,28.61648799596126,-8.604250342815693,-0.5045126942092143
-6.32182374,-240.22930212,6.7775060451654685,-2.4305590002467112,0.0,0.0,0.0,63,38,835.0776276133818,3408.37736,mp-18680,Tm8S11,https://materialsproject.org/materials/mp-18680,47.28014291004557,17.853804359322528,-8.604250342815693,-0.5045126942092143