energy_per_atom,energy,density,formation_energy_per_atom,total_magnetization_uB,total_magnetization_T,band_gap,sgr,num_sites,cell_volume,weight,mp_id,formula,URL,tsne_cry_lin1_0,tsne_cry_lin1_1,tsne_cry_lin2_0,tsne_cry_lin2_1
-4.798971057499998,-191.95884230000001,4.605573615109547,-2.8971180175830002,2.99999725,0.06285687251399785,0.0,15,40,556.2186101641487,1542.6952896,mvc-1655,Ba2CaCu3F14,https://materialsproject.org/materials/mvc-1655,-52.06501532772852,-12.440816296280296,1.8240845621374533,-1.155197173681695
-4.235704408,-42.35704408,4.635163867475549,-1.2055041651129996,0.00024180000000000002,9.917370378286284e-06,0.0,225,10,284.14315030269887,793.1461,mp-989540,Sr6Sn2NO,https://materialsproject.org/materials/mp-989540,-35.99902540623804,49.56329042722579,-8.604250342815693,-0.5045126942092143
-5.777669465,-34.66601679,9.577328762215195,-0.05614711833333411,1.12176185,0.13374026914586978,0.0,74,6,97.7498052215496,563.7819999999999,mp-1225619,DyFeCu,https://materialsproject.org/materials/mp-1225619,39.43463124470061,74.36738498496389,-8.604250342815693,-0.5045126942092143
-6.4362305441666665,-77.23476653,8.3140098380564,-0.7226454091666668,0.0,0.0,0.0,62,12,199.34329755578617,998.07478,mp-19767,DyCoSi,https://materialsproject.org/materials/mp-19767,20.860003155402378,69.93529623352681,-8.604250342815693,-0.5045126942092143
-5.149605298,-25.74802649,5.140450826776163,-0.4035478739520002,0.0,0.0,1.6913,164,5,51.88096253068756,160.60539999999997,mp-1029385,Li2SnN2,https://materialsproject.org/materials/mp-1029385,-5.734138732741402,-15.033750604448967,7.4118384480833255,-1.3913823089701678
-6.296300468589744,-491.11143655,8.631426036437661,-0.4860860801282048,0.0020233,1.8307288630665076e-05,0.0,122,78,1287.993527060234,6694.946999999999,mp-1203373,Ge22Rh17,https://materialsproject.org/materials/mp-1203373,34.79444257241312,51.0944849971652,-8.604250342815693,-0.5045126942092143
-4.401930229310344,-127.65597665,9.813017944668609,-0.21438074206896532,7.58e-05,2.078696874224292e-06,0.0,225,29,424.96725747455366,2511.36,mp-1193217,Lu6Cu23,https://materialsproject.org/materials/mp-1193217,4.303836468055752,44.53012779825193,-8.604250342815693,-0.5045126942092143
-6.18523380797619,-519.55963987,2.917760741453686,-2.139130946139456,1.000000175,0.010313548683372831,0.0,181,84,1129.9764193491744,1985.500344,mp-758886,LiCuPO4,https://materialsproject.org/materials/mp-758886,-57.35029731636181,-15.491205201037214,-8.139285405765248,2.2241420301172634
-7.407322546,-74.07322546,5.077331755096345,-2.530797733250001,3.99999985,0.3639138351845235,0.0,194,10,128.09696371805194,391.67449,mvc-3570,YCoO3,https://materialsproject.org/materials/mvc-3570,-32.39006043125205,-16.600004760828952,-8.604250342815693,-0.5045126942092143
-6.469292462666668,-97.03938694,6.726723739383939,-0.6907277001532738,1.1350268000000001,0.04899248679319871,0.0,143,15,269.9939666591381,1093.7260619999997,mp-1216703,TlV6PSe7,https://materialsproject.org/materials/mp-1216703,49.70271072972079,26.931195723913266,-8.604250342815693,-0.5045126942092143
-2.0761676875,-8.30467075,3.0557858545729433,0.10836740025000012,0.00010005,1.1571743463671601e-05,0.0,63,4,100.76175505921907,185.42553856,mp-1065711,NaGa,https://materialsproject.org/materials/mp-1065711,-39.092122497659815,48.41071488324792,-8.604250342815693,-0.5045126942092143
-6.288364312272727,-276.68802974,4.071733104927259,-1.9135074091704547,2.0000011000000004,0.042123017933563565,0.004900000000000127,11,44,553.3350530902662,1356.808,mp-505094,KMgV3Cu4O13,https://materialsproject.org/materials/mp-505094,-55.70092785490536,-10.908850681599082,-8.139285405853483,2.2241420301359422
-6.3127285125,-25.25091405,10.3678955685398,-0.8677261999999999,3.72e-05,5.134593843171199e-06,0.0,225,4,84.43339878105442,527.1762,mp-1187271,Tb2PdRh,https://materialsproject.org/materials/mp-1187271,14.22787457667544,49.047788165637996,-8.604250342815693,-0.5045126942092143
-5.8700489735714285,-82.18068563,9.897754685203036,-0.03146086261904709,1.25e-06,4.364500875360821e-08,0.0,127,14,333.77427068324954,1989.484,mp-1105078,Hf3In4,https://materialsproject.org/materials/mp-1105078,6.132860896270746,46.13465648104373,-8.604250342815693,-0.5045126942092143
-7.378822008333334,-44.27293205,7.6385773915831106,0.04901735500000015,0.18521285,0.0240105773379038,0.0,74,6,89.89715325182699,413.5322,mp-1215282,ZrCrCu,https://materialsproject.org/materials/mp-1215282,22.39526022172775,40.32113637521221,-8.604250342815693,-0.5045126942092143
-6.5309601079999995,-457.16720756,3.8126489365840173,-2.0249228152194285,23.00209495,0.3808364752191847,0.0,12,70,703.8924102466441,1616.15872,mp-767763,Li7Mn8O20,https://materialsproject.org/materials/mp-767763,-65.83573128258203,-38.481823146199865,-5.2477352847060725,-2.7293747697865283
-8.2033643,-49.220185799999996,9.972056360944686,-0.5017506558333326,3.897273,0.4112599267095184,0.0,25,6,110.438846648019,663.2198199999998,mp-1216620,U2Si3Rh,https://materialsproject.org/materials/mp-1216620,22.435960515165572,63.70480651361493,-8.604250342815693,-0.5045126942092143
-3.60036446,-14.40145784,8.535649093757742,-0.5768213616666666,1.7e-06,2.8967541480398363e-07,0.0,225,4,68.39348146530737,351.5622,mp-864932,Mg2AgPt,https://materialsproject.org/materials/mp-864932,36.945962621719644,55.416682943727544,-8.604250342815693,-0.5045126942092143
-4.135250944,-41.35250944,3.5655843748307885,-2.4571873676140004,0.0,0.0,1.0738,225,10,178.20795192570182,382.65615776,mp-1111533,Na2InAgF6,https://materialsproject.org/materials/mp-1111533,9.085139181448993,-16.11331540555956,7.888893022749269,-2.2104581664624603
-6.504452458461539,-84.55788196,6.551494303426018,-2.10758293548077,8.3607146,0.5305061249809271,0.0,47,13,183.6667003548518,724.638995,mp-1214711,Ba2EuCoCu2O7,https://materialsproject.org/materials/mp-1214711,-49.585829387415174,-0.8859218093216493,-8.604250342815693,-0.5045126942092143
-4.791152685454545,-52.70267954,9.800398954444198,-0.8102375763636364,0.0,0.0,0.0,71,11,209.31428587651178,1235.36,mp-10415,Yb3(GePd)4,https://materialsproject.org/materials/mp-10415,6.432027963287274,48.659459109779405,-8.604250342815693,-0.5045126942092143
-4.6649964185714285,-65.30994986,3.251193207462315,-2.7786624565642866,1.00000005,0.057441645946982735,0.0,2,14,202.88529625386002,397.232032,mvc-15792,CaCuF5,https://materialsproject.org/materials/mvc-15792,-52.037236192169544,-12.077280535862329,0.9978028872184876,-2.3424614760269127
-6.808638754166666,-81.70366505,6.493715569895906,-0.8933827749999992,0.46212465,0.022530332720277955,0.0,191,12,239.03910656628932,934.788,mp-31163,Ce2Si3Rh,https://materialsproject.org/materials/mp-31163,11.924532580005947,72.21833388829657,-8.604250342815693,-0.5045126942092143
-4.679211053333334,-28.07526632,7.5351875297903135,-0.18523680333333326,1e-07,1.3005191087904316e-08,0.0,191,6,89.61086918129746,406.63585,mp-2797,YCu5,https://materialsproject.org/materials/mp-2797,3.965893532775853,44.51826970614825,-8.604250342815693,-0.5045126942092143
-4.5912803,-36.7302424,3.1336848934538835,0.15945085666666614,0.005579025,0.0004250237871981897,0.0,12,8,152.9757173035862,288.688,mp-1094501,MgTi,https://materialsproject.org/materials/mp-1094501,-17.785595674840305,38.909131049297706,-8.604250342815693,-0.5045126942092143
-3.3899211800000004,-16.949605899999998,1.2873000207555687,-1.6532873232379999,0.041400900000000004,0.0014443790440210773,0.0,123,5,334.04581175523185,258.9624032,mp-1207045,Ca2Br2F,https://materialsproject.org/materials/mp-1207045,-22.834084348257637,11.283352982362572,-8.604250342815693,-0.5045126942092143
-6.304498900769231,-81.95848571,6.593982482106629,-0.5817268868269238,1.0,0.042646279464478,0.20750000000000046,160,13,273.2727196581565,1085.163,mp-567394,Ga(MoSe2)4,https://materialsproject.org/materials/mp-567394,49.624739164783705,24.458094469050245,-8.604250342815693,-0.5045126942092143
-6.3961214391666665,-76.75345727,6.220071562983912,-0.8182748591666673,0.0,0.0,0.0,62,12,188.25203661824656,705.1572480000001,mp-7066,ScNiGe,https://materialsproject.org/materials/mp-7066,16.609107976530133,75.74343769462841,-8.604250342815693,-0.5045126942092143
-3.553110435,-14.21244174,5.538392639132144,-0.5469214600000001,0.0,0.0,0.0,216,4,56.97391854208538,190.025,mp-3201,Li2GaPd,https://materialsproject.org/materials/mp-3201,31.726546342636524,36.74527997070531,-8.604250342815693,-0.5045126942092143
-5.361256046666667,-80.4188407,7.147569948685418,-0.19367149866666675,1.9333333333333336e-06,8.216097360374314e-08,0.0,152,15,274.23228943563686,1180.3965,mp-1104286,Ge4Rh,https://materialsproject.org/materials/mp-1104286,48.44345811214383,44.563991798256424,-8.604250342815693,-0.5045126942092143
-5.375250334375,-86.00400535,4.255974719992678,-1.83613593125,4.5525e-05,2.836481962407233e-06,0.0,2,16,187.04553944017255,479.3992,mvc-2438,MgCuO2,https://materialsproject.org/materials/mvc-2438,-59.00584673699815,-0.6068651203776143,-8.604250342815693,-0.5045126942092143
-8.705575634999999,-365.63417667,1.414281723860695,-0.03128987350285548,5.33333325,0.041614525202409366,0.0,176,42,1493.5893380215155,1272.0906,mp-1016071,Cr3N4,https://materialsproject.org/materials/mp-1016071,0.7020450406605806,11.27391929563266,-8.604250342815693,-0.5045126942092143
-7.18512038,-14.37024076,6.520886401397947,-0.3474284633333342,0.11656230000000001,0.05006073686027862,0.0,221,2,27.135529347679164,106.5604,mp-571,TiNi,https://materialsproject.org/materials/mp-571,32.61900364228605,71.66498796350473,-8.604250342815693,-0.5045126942092143
-3.4538444175,-27.63075534,5.194309549312469,-0.4437641533333334,0.0,0.0,0.5852999999999997,82,8,259.11145101008987,810.5229999999998,mp-1222542,LiIn2CuTe4,https://materialsproject.org/materials/mp-1222542,58.90884222648103,16.7656257941877,6.490946899328418,-6.062298849564104
-4.6008704602702695,-170.23220703,4.527960646552558,-1.0862845331486497,2.0949554,0.06234409912347419,0.0,2,37,391.61277924426537,1067.85038496,mp-760203,Na7(NiO2)10,https://materialsproject.org/materials/mp-760203,-64.41141185518363,-23.58006480837208,-4.692499517085387,-0.9806014196787898
-6.320552237857143,-88.48773133,4.350658277760268,-1.8165484001371428,5.000000599999999,0.4130458659277406,0.0,74,14,141.07472235403344,369.61967999999996,mp-753984,LiMnCoO4,https://materialsproject.org/materials/mp-753984,-66.79413566838609,-38.336210511240246,0.546352234859402,-2.413687811350289
-4.943070665,-19.77228266,11.323820359111819,-0.6870644512499995,2.72e-05,3.5935129284863306e-06,0.0,225,4,88.21188851187668,601.548988,mp-865514,YSnAu2,https://materialsproject.org/materials/mp-865514,-7.881295882434743,48.19352155964214,-8.604250342815693,-0.5045126942092143
-3.351570985,-33.51570985,3.3861276243812086,-0.3386400463760001,4e-07,1.0586127194895666e-08,0.0,194,10,440.3523425707167,897.95493856,mp-8868,Ba3NaN,https://materialsproject.org/materials/mp-8868,-38.63976888187398,48.497140558700245,-8.604250342815693,-0.5045126942092143
-7.509958936666667,-22.52987681,4.896888419654916,0.7520019533333342,6.5942267999999995,1.1400804556788435,0.0,216,3,67.40712540887314,198.78194,mp-1062072,YMn2,https://materialsproject.org/materials/mp-1062072,31.212984382011186,77.32094875350799,-8.604250342815693,-0.5045126942092143
-7.225007869285713,-202.30022034,8.389763983732987,-0.7082743373469397,4.135e-05,1.2064106763347919e-06,0.0,62,28,399.44571761366944,2018.173144,mp-621581,P3Rh4,https://materialsproject.org/materials/mp-621581,33.80013465227365,52.374223166307296,-8.604250342815693,-0.5045126942092143
-8.8704622675,-70.96369814,12.998511120237547,0.03977270999999938,0.00010229999999999999,7.85347180757421e-06,0.0,194,8,151.80685121745006,1188.3268,mp-1184747,Hf3Ni,https://materialsproject.org/materials/mp-1184747,31.768137789094745,61.72958441578013,-8.604250342815693,-0.5045126942092143
-2.337540178766233,-359.98118753,4.785586604599934,-0.13528290624182734,0.35622725,0.0009192469073986113,0.008099999999999774,223,154,4516.191908656168,13015.42871396,mp-1214812,Cs3(Na13In24)2,https://materialsproject.org/materials/mp-1214812,-38.422013920580326,48.19049307753812,-8.604250342815693,-0.5045126942092143
-7.422975850714287,-207.84332382,6.863857084900753,-3.092932108571428,0.0,0.0,0.2049000000000003,2,28,378.56751828383057,1564.81316,mp-1222487,LiLa8Cu3O16,https://materialsproject.org/materials/mp-1222487,-42.473872512172754,-4.202427588368587,-8.604250342815693,-0.5045126942092143
-7.049168941666667,-42.29501365,9.272026852813195,-0.504985943055555,6.68e-05,1.1963328792053912e-05,0.0,191,6,65.07315316152344,363.351905,mp-5313,HoCo3B2,https://materialsproject.org/materials/mp-5313,7.796650502600535,39.5912722094816,-8.604250342815693,-0.5045126942092143
-6.643911038666668,-99.65866558,6.922982860201987,-1.2177523296186668,0.0,0.0,2.1793,164,15,197.1161335559077,821.80038,mp-27487,Li2ThN2,https://materialsproject.org/materials/mp-27487,33.69022857551362,-10.894205049915175,7.5051458245156875,-4.1985171409452
-5.222477301666667,-31.33486381,7.4194668044775485,-0.3056369125000007,1.5e-06,1.9527526236459552e-07,0.0,216,6,89.52028509479528,399.98625,mp-13436,PrMgNi4,https://materialsproject.org/materials/mp-13436,31.394937231616808,72.90341743349684,-8.604250342815693,-0.5045126942092143
-3.674853245,-29.39882596,1.3930515535969985,-0.3269521011575001,6.1e-05,6.958299892848433e-06,0.3468,6,8,102.16546600079491,85.70816928,mp-569525,NaLi5N2,https://materialsproject.org/materials/mp-569525,4.127021513193845,1.1074879091239007,3.1381767260460887,-1.5860266318436689
-2.797317675,-11.1892707,5.600666846291804,-0.10889452479166684,1e-07,1.2810280820391347e-08,0.0,225,4,90.97431146090729,306.8382000000001,mp-11235,SmMg2Ag,https://materialsproject.org/materials/mp-11235,-6.210016968389537,51.87044449167541,-8.604250342815693,-0.5045126942092143
-5.9371333375,-23.74853335,11.008147903512109,-0.7023676356249995,6.1e-06,8.905197698022378e-07,0.0,225,4,79.82955294569304,529.211,mp-865993,YbSmRh2,https://materialsproject.org/materials/mp-865993,13.75803430739673,48.193811584615815,-8.604250342815693,-0.5045126942092143
-7.198855603125,-115.18168965,6.472463495554927,-0.3611636864583341,0.19503800000000002,0.01039277087191208,0.0,139,16,218.7083226527739,852.4831999999999,mp-1190013,TiNi,https://materialsproject.org/materials/mp-1190013,32.56712743987439,71.60825654922535,-8.604250342815693,-0.5045126942092143
-6.5433670272916675,-314.08161731,4.5825901881877416,-1.175312996815477,3.9999998375,0.04058428197960713,0.09160000000000056,142,48,1148.628358630986,3169.870096,mp-1200979,NpPS4,https://materialsproject.org/materials/mp-1200979,25.108283323756083,-2.7998640196425613,-3.6935075902077688,-1.7252169722010298
-3.2942397105555554,-59.29631479,2.7108231060318846,-0.1378474910149422,5.00000025,0.15033460219035624,1.6939000000000002,140,18,387.60422369383576,632.7622899999999,mp-643697,Rb3MnH5,https://materialsproject.org/materials/mp-643697,2.991195234892914,6.952875587233605,-8.604250342815693,-0.5045126942092143
-6.710623977222222,-120.79123159,6.623206227918095,-2.5312842754166667,2.0000002,0.0867255335097433,0.4394,12,18,268.7574343179308,1071.9627,mp-6829,Ba3Y2Cu2PtO10,https://materialsproject.org/materials/mp-6829,-30.482413226725658,-6.98276798945956,-4.586051789376869,-2.8473765551428234
-7.4180673125,-207.70588475,6.905736299414619,-3.088023570357142,4.72e-05,1.4619005728914042e-06,0.0,1,28,376.27172973662897,1564.81316,mp-774793,LiLa8Cu3O16,https://materialsproject.org/materials/mp-774793,-42.46686142854299,-4.212298117736575,-8.604250342815693,-0.5045126942092143
-5.809372101607143,-325.32483769,6.814564150533048,-1.881467657053571,0.01329825,0.00010648421824185846,0.0,18,56,1455.41442122144,5972.7683,mp-531712,YbPr11Se16,https://materialsproject.org/materials/mp-531712,33.15095788578371,11.712532239296369,-8.604250342815693,-0.5045126942092143
-2.8485204475,-11.39408179,5.086299893807748,-0.10753669104166663,4.7e-06,5.679912899797739e-07,0.0,225,4,96.43476123195666,295.38367,mp-1206372,LaMg2Ag,https://materialsproject.org/materials/mp-1206372,-6.2413935745562945,51.85464897096128,-8.604250342815693,-0.5045126942092143
-6.2516286675,-25.00651467,10.836140678834996,-0.7123694350000003,6e-07,8.792542558729189e-08,0.0,225,4,79.52692656112036,518.967,mp-1187622,YbCeRh2,https://materialsproject.org/materials/mp-1187622,13.713733905805302,48.15064101062897,-8.604250342815693,-0.5045126942092143
-4.644547851290323,-143.98098339,4.321879436534977,-0.9685030814677424,3.9999997000000005,0.1335933267272307,0.5941999999999998,1,31,348.94149832199224,908.18887712,mp-764295,Na4(NiO2)9,https://materialsproject.org/materials/mp-764295,-62.4062937420845,-25.23575661421762,2.8642206115461533,-0.6980201721938196
-5.407915296666666,-16.22374589,10.277716912640589,-0.2050858266666668,2e-07,4.017012896401837e-08,0.0,191,3,58.02353675786602,359.13006,mp-1377,ThCu2,https://materialsproject.org/materials/mp-1377,-12.304597685388485,57.60522915158172,-8.604250342815693,-0.5045126942092143
-9.557620466071429,-267.61337305,8.017372715246513,-0.8898207135542862,3.925e-06,9.502372066917234e-08,0.0,227,28,481.37669110589246,2324.170800000001,mp-1193127,Zr4Ru2N,https://materialsproject.org/materials/mp-1193127,-4.7862642485650255,20.66741918867714,-8.604250342815693,-0.5045126942092143
-4.731048113333333,-28.38628868,11.374823097325224,-0.5764551033333328,4e-07,3.654728889337054e-08,0.0,186,6,127.55052563883798,873.7311380000001,mp-12563,ErGeAu,https://materialsproject.org/materials/mp-12563,-11.39996482368681,54.5634936489252,-8.604250342815693,-0.5045126942092143
-3.3681323733333333,-20.20879424,1.7101729877196068,-1.21910442825,0.0,0.0,0.425,141,6,182.92434336763756,188.392,mp-1173084,K2O,https://materialsproject.org/materials/mp-1173084,7.203593762302022,0.9689972900658508,2.6546945998229377,0.027747004746180536
-5.046682851666667,-30.28009711,6.908189444056973,-0.15802662166666673,4.52e-05,5.0728449291831215e-06,0.0,227,6,103.83990346113791,431.9957,mp-1077241,YCu2,https://materialsproject.org/materials/mp-1077241,1.5535707417427251,41.209157747157604,-8.604250342815693,-0.5045126942092143
-5.3643331275,-21.45733251,6.899288579430491,-0.6814229525000002,1e-07,1.5686083364569104e-08,0.0,225,4,74.2955682543628,308.68685,mp-1185248,LiYPd2,https://materialsproject.org/materials/mp-1185248,28.483850393291412,42.434556799869945,-8.604250342815693,-0.5045126942092143
-7.132589926756756,-263.90582729,3.9976002789056726,-2.681218114382071,26.9999995,0.6664827054584693,0.0,1,37,472.1198921667845,1136.586715,mp-1247574,SrCa7TiMn7O21,https://materialsproject.org/materials/mp-1247574,-30.601978118978572,-10.98643664484531,-8.604250342815693,-0.5045126942092143
-4.541664068888887,-40.87497662,7.859727858641637,-0.279839456666666,0.9038245333333332,0.05218149918279835,0.0,189,9,201.85755142059026,955.44,mp-20665,CeInCu,https://materialsproject.org/materials/mp-20665,-7.33975685220241,54.66594075128584,-8.604250342815693,-0.5045126942092143
-5.190756386666666,-62.28907664,6.773391606279371,-1.3715381983333337,0.0003346,1.0127444602675923e-05,0.0,115,12,385.0379069827882,1570.5818800000002,mp-1223110,La4SbTe7,https://materialsproject.org/materials/mp-1223110,-10.257342681248517,23.953197161647843,-8.604250342815693,-0.5045126942092143
-6.9143447618867935,-366.46027238,5.785590975512857,-2.5533845351179245,0.7139934,0.010360361188198743,0.0,5,53,803.1501199261568,2798.3070399999997,mp-675164,La12Cu10O31,https://materialsproject.org/materials/mp-675164,-53.244997231305284,-2.1797780314808293,-8.604250342815693,-0.5045126942092143
-3.3687006316666666,-20.21220379,1.7150209844659277,-1.2196726865833334,0.0,0.0,0.5071,15,6,182.40725545471886,188.392,mp-684904,K2O,https://materialsproject.org/materials/mp-684904,7.201898173448512,0.9458381262368196,2.6336846268413923,0.005792843942288657