energy_per_atom,energy,density,formation_energy_per_atom,total_magnetization_uB,total_magnetization_T,band_gap,sgr,num_sites,cell_volume,weight,mp_id,formula,URL,tsne_cry_lin1_0,tsne_cry_lin1_1,tsne_cry_lin2_0,tsne_cry_lin2_1
-5.987788238809523,-251.48710603,5.227214164359967,-1.6745685914285713,11.00459665,0.3090577919162953,0.0,1,42,414.96537382150177,1306.2703299999996,mp-757414,Mg2Co7O12,https://materialsproject.org/materials/mp-757414,-73.40951093485342,-21.660253031201858,1.2729089410535015,-1.8516086714227975
-7.037536706666668,-21.11261012,7.416113132699954,-0.6593807355555561,0.0,0.0,1.0560999999999998,216,3,51.1768253795958,228.560195,mp-5967,TiCoSb,https://materialsproject.org/materials/mp-5967,47.170078925551636,46.44090708681786,-8.604250342815693,-0.5045126942092143
-6.935757036666666,-20.80727111,9.832642033292867,-0.4171699583333333,6e-07,1.1528928503874393e-07,1.1532,216,3,60.651246654760214,359.1375950000001,mp-31451,ZrCoBi,https://materialsproject.org/materials/mp-31451,31.57265424801899,48.93048874987396,-8.604250342815693,-0.5045126942092143
-6.958674534375,-111.33879255,13.124438118683068,-0.8358780318749996,5.875e-05,1.9036821521818145e-06,0.0,193,16,359.65894022968735,2842.6441000000004,mp-1208004,Tm5Ir3,https://materialsproject.org/materials/mp-1208004,17.908213781949325,49.6435984863417,-8.604250342815693,-0.5045126942092143
-6.610352477999999,-33.05176239,5.9972289011368884,-0.4222492447240001,0.5513869,0.08813599421363988,0.0,221,5,72.908902936576,263.31894,mp-644483,Ti3SnH,https://materialsproject.org/materials/mp-644483,24.849060614319445,43.09250124768017,-8.604250342815693,-0.5045126942092143
-7.500966935,-60.00773548,10.443311731606158,-0.5761984212499991,0.41262925,0.03384373398413053,0.0,129,8,142.0885771294502,893.61061,mp-19786,UCoAs2,https://materialsproject.org/materials/mp-19786,45.15337072409014,50.64991474866819,-8.604250342815693,-0.5045126942092143
-6.3315775952083335,-303.91572457,3.22479288821616,-2.0817951535250003,10.00000055,0.26704325562392633,0.8297999999999999,2,48,436.4111494336157,847.5173044000002,mp-758346,LiMn3Al2(HO2)6,https://materialsproject.org/materials/mp-758346,-44.20064359819889,-17.32653252635897,-0.4568567997142745,-1.5218217784593082
-6.326806145208334,-303.68669497,3.2290537920750944,-2.0770237035250005,10.0000005,0.2673960972997634,0.17079999999999984,2,48,435.8352823002568,847.5173044000002,mp-758733,LiMn3Al2(HO2)6,https://materialsproject.org/materials/mp-758733,-44.199167629627865,-17.321817984350442,-0.6561239252071498,-1.662683820432508
-8.56656344,-68.53250752,11.314983645378046,-0.2072067449999988,1.846338275,0.13774161064802767,0.0,62,8,156.21529142627492,1064.45764,mp-19715,USi,https://materialsproject.org/materials/mp-19715,25.53836344823968,64.01837289303009,-8.604250342815693,-0.5045126942092143
-6.169194219,-61.69194219,8.296163527864632,-0.7857971769999998,0.19459265,0.012506337103044931,0.0,12,10,181.3316983764891,905.94523,mp-1205659,Tm2CoSi2,https://materialsproject.org/materials/mp-1205659,20.34921710729489,70.90846879994035,-8.604250342815693,-0.5045126942092143
-4.022117595,-32.17694076,10.821643359793965,-0.7497717366666667,1.95e-05,1.2387946458980936e-06,0.0,63,8,183.4478892990053,1195.52,mp-1078504,YbIn2Pt,https://materialsproject.org/materials/mp-1078504,6.1274880630486654,51.186005023171205,-8.604250342815693,-0.5045126942092143
-5.5263341442857135,-154.73735604,10.25271577148209,-0.3150989945918375,2.575e-06,6.918914472768664e-08,0.0,14,28,433.72724012489135,2677.9750480000002,mp-1618,PPd6,https://materialsproject.org/materials/mp-1618,25.736118331195836,47.14510970683168,-8.604250342815693,-0.5045126942092143
-9.86456968,-39.45827872,14.722844919035245,-0.7922595300000008,6.6489908,0.9668063056090296,0.0,225,4,80.14818377352316,710.6182100000002,mp-1184532,GdTmIr2,https://materialsproject.org/materials/mp-1184532,16.913934706215585,49.249542053405655,-8.604250342815693,-0.5045126942092143
-4.6806129205,-93.61225841,13.95813543404816,-0.9060518304999996,9.2575e-05,2.4030981338315367e-06,0.0,136,20,448.9517224165701,3773.792,mp-630862,Yb2Pt2Pb,https://materialsproject.org/materials/mp-630862,24.272660389779354,54.10049777779385,-8.604250342815693,-0.5045126942092143
-3.9214782325,-15.68591293,0.5431907138825729,2.43459328,1.58e-05,1.3896263871578708e-07,0.12519999999999998,71,4,1325.0628018300886,433.4507,mp-1097265,Y2ZnOs,https://materialsproject.org/materials/mp-1097265,-70.77085075821671,42.536652796505365,-2.1411411925992643,-0.7937618727528603
-5.281225175555557,-95.06205316,7.823771533147316,-0.22025273388888894,3e-07,7.558038874439634e-09,0.0,71,18,462.5828855672726,2179.49878,mp-1005689,Sm6GaCo2,https://materialsproject.org/materials/mp-1005689,-29.9557655369975,71.21020096377016,-8.604250342815693,-0.5045126942092143
-5.840424893333334,-35.04254936,10.670071805471613,-0.4955278166666671,0.0,0.0,0.0,227,6,89.1179035615151,572.64202,mp-1576,TmNi2,https://materialsproject.org/materials/mp-1576,27.969009916478203,82.81798628074955,-8.604250342815693,-0.5045126942092143
-8.300116195,-33.20046478,5.953716714281622,-1.4225871680357134,14.002603699999998,1.2669676085885473,0.0,166,4,128.80143848829815,461.806232,mp-569689,Eu2PI,https://materialsproject.org/materials/mp-569689,16.032568490541315,44.37343874215258,-8.604250342815693,-0.5045126942092143
-5.966596555,-23.86638622,0.7524957825931919,3.5014909606250013,6.462182,0.09613096843048632,0.0,71,4,783.4175482641432,355.016285,mp-1097237,Mn2CoRe,https://materialsproject.org/materials/mp-1097237,7.131101140869862,24.005633077829643,-8.604250342815693,-0.5045126942092143
-7.68558954,-245.93886528,9.380189522398004,-1.0015135270535709,5.625e-06,1.4789074508296842e-07,0.0,62,32,443.26042382754684,2503.925944,mp-1200507,Hf2(NiP)3,https://materialsproject.org/materials/mp-1200507,18.503921448458488,28.701603292929267,-8.604250342815693,-0.5045126942092143
-7.116195870666669,-213.48587612,7.071013847052103,-0.6225901785,0.7937488,0.014268119507314525,0.0,148,30,648.3264962561693,2760.74547,mp-1223020,LaMo12PbSe16,https://materialsproject.org/materials/mp-1223020,63.301636665593044,33.32502531980301,-8.604250342815693,-0.5045126942092143
-8.701645294285715,-60.91151706,9.086472461397868,-0.3393696866071433,2.9299999999999997e-05,3.322176615784293e-06,0.0,12,7,102.7832464456098,562.4300999999998,mp-1077960,Er2Mo2C3,https://materialsproject.org/materials/mp-1077960,-14.799838488868625,32.78954546705185,-8.604250342815693,-0.5045126942092143
-9.206411266666667,-165.71540280000002,9.779428617651677,-0.4665878641666663,6.57983595,0.25649296989357034,0.0,14,18,298.96271381603685,1760.684,mp-505267,Np2Si4Tc3,https://materialsproject.org/materials/mp-505267,55.42784544259335,46.58860932512097,-8.604250342815693,-0.5045126942092143
-5.394715150714285,-75.52601211,4.756111781661871,-1.9779146881121423,11.9999996,1.0609349820177794,0.0,139,14,131.81653445257666,377.5485896,mp-760940,Li3Co4O4F3,https://materialsproject.org/materials/mp-760940,-5.914503627320308,12.687999775511663,-8.604250342815693,-0.5045126942092143
-6.143700650666668,-184.31101952,3.3286276984685976,-2.629278791281666,1.9999789000000001,0.08067942082570657,0.2822,8,30,288.8950293124338,579.103516,mp-763225,Li2VO2F,https://materialsproject.org/materials/mp-763225,-31.01792917572388,-66.98556376565881,4.116274011878814,2.7173357399253173
-8.105691546666668,-48.63414928,10.223242218019443,-0.4834961580555562,5e-07,7.324898691424369e-08,0.0,191,6,79.55103042041864,489.76232000000005,mp-2985,HoB2Ru3,https://materialsproject.org/materials/mp-2985,18.470774867468325,38.40064279784798,-8.604250342815693,-0.5045126942092143
-6.32374888875,-252.94995555,7.270868804148204,-0.19536613425000052,0.003171975,3.137918507122939e-05,0.026200000000000227,62,40,1178.054880106921,5158.2541999999985,mp-1197932,Pr7Ru3,https://materialsproject.org/materials/mp-1197932,-29.345182441645488,67.3017397202818,-8.604250342815693,-0.5045126942092143
-6.45826691,-25.83306764,1.2489687014431108,2.7520158025,5.001368599999999,0.07095405789083926,0.0,71,4,821.4649781626007,617.8620450000002,mp-1093666,HfMnIr2,https://materialsproject.org/materials/mp-1093666,-61.72811930102551,35.4076428788467,-8.604250342815693,-0.5045126942092143
-8.294486135,-99.53383362,12.405796993335144,-0.4233883933333331,2.25e-07,1.5557403646659274e-08,0.0,62,12,168.54769814942753,1259.2107,mp-1208576,TaCoAs,https://materialsproject.org/materials/mp-1208576,11.1710336357805,28.58409420934088,-8.604250342815693,-0.5045126942092143
-8.883169089375,-142.13070543,7.968341799254527,-0.3774661512499993,6.1e-05,3.1277655555336507e-06,0.0,121,16,227.28620112476744,1090.6664,mp-1219304,Si6NiMo9,https://materialsproject.org/materials/mp-1219304,52.70964615604717,56.78919369556137,-8.604250342815693,-0.5045126942092143
-9.8610014675,-39.44400587,14.443254804598784,-0.7637204387499992,6.9930642999999995,1.0031791497882725,0.0,225,4,81.23935224139717,706.61432,mp-1184535,GdHoIr2,https://materialsproject.org/materials/mp-1184535,16.345818779726205,49.04690856542317,-8.604250342815693,-0.5045126942092143
-9.446185912857144,-264.49320556,10.16082067245011,-0.4532385917261895,0.70382775,0.021357508288784813,0.0,119,28,384.0548286961076,2350.0274,mp-1218101,Ta2Ti2Co2C,https://materialsproject.org/materials/mp-1218101,21.92930994927882,42.4289450712914,-8.604250342815693,-0.5045126942092143
-5.0126082925,-20.05043317,10.813177688696923,-0.8899668775,3.7000000000000006e-06,5.120375295057097e-07,0.0,225,4,84.2126546858711,548.38,mp-980384,YbDyPd2,https://materialsproject.org/materials/mp-980384,16.474751757478433,54.30658156016911,-8.604250342815693,-0.5045126942092143
-8.38216031,-100.58592372,12.403139438948516,-0.5155895549999995,0.0,0.0,0.0,62,12,191.59022197454826,1431.05352,mp-22287,NbGeIr,https://materialsproject.org/materials/mp-22287,46.69131859595298,57.1728470345581,-8.604250342815693,-0.5045126942092143
-5.6083917525,-134.60140206,7.03734549865456,-0.7218858179166663,0.904831075,0.01754729937623131,0.0,62,24,600.9448935805183,2546.7976,mp-1210073,Nd3NiGe2,https://materialsproject.org/materials/mp-1210073,0.3805656890908248,72.24404513994506,-8.604250342815693,-0.5045126942092143
-5.215477807222221,-93.87860053,9.434875788295477,-0.2847762309259257,0.00049575,1.3276849283054435e-05,0.0,71,18,435.15614946163726,2472.4767799999995,mp-1213258,Er6InCo2,https://materialsproject.org/materials/mp-1213258,-29.56115875861506,71.30648954606583,-8.604250342815693,-0.5045126942092143
-6.20055155,-24.8022062,10.12447838577672,-1.05471736375,7.499999999999999e-06,1.026521032318635e-06,0.0,225,4,85.14729171868227,519.15185,mp-1183571,CaYPt2,https://materialsproject.org/materials/mp-1183571,10.935374476167926,48.77645257734529,-8.604250342815693,-0.5045126942092143
-5.4900566205555545,-98.82101917,9.94495599019336,-0.3130368497222228,7.000000000000001e-06,1.9304637617166452e-07,0.0,71,18,422.5847437580233,2530.856895,mp-1208024,Tm12Co5Bi,https://materialsproject.org/materials/mp-1208024,-29.57155034442353,71.10469569797957,-8.604250342815693,-0.5045126942092143
-6.078626658392857,-340.40309287,4.540797994216788,-1.724415679107143,0.500000375,0.010746821598546313,0.7970999999999999,155,56,542.2102435702794,1482.69154,mp-1178130,Li2CrCo3O8,https://materialsproject.org/materials/mp-1178130,-73.9940372022797,-23.06380000225245,-0.2703829138799272,-1.1958137123206196
-5.265026205,-31.59015723,5.972228525234795,-1.7250932092135418,4.33e-05,3.237482900191884e-06,0.0,71,6,155.86831504868368,560.58976928,mp-1220865,NaSm2Se3,https://materialsproject.org/materials/mp-1220865,30.646653660246482,11.853651901249492,-8.604250342815693,-0.5045126942092143
-8.3851682775,-33.54067311,16.336398211863962,-0.7070307174999995,0.7270669,0.1317642422608393,0.0,225,4,64.3064051460224,632.6469999999999,mp-865998,HfGaIr2,https://materialsproject.org/materials/mp-865998,40.615155035365994,51.197239210933844,-8.604250342815693,-0.5045126942092143
-9.251714914444443,-83.26543423,7.4772221939236365,-0.9784951251587302,1e-07,8.018931720132589e-09,0.0,189,9,145.33188683101793,654.4132860000001,mp-10300,ZrMoP,https://materialsproject.org/materials/mp-10300,51.609277775296896,56.664574886703434,-8.604250342815693,-0.5045126942092143
-5.6464701733333325,-67.75764208,10.616111074306444,-1.0289391324999997,0.00018385,8.371862723688527e-06,0.0,62,12,255.9286838725301,1636.1960000000001,mp-1103572,NdGaPt,https://materialsproject.org/materials/mp-1103572,3.759395585377797,66.73533275672062,-8.604250342815693,-0.5045126942092143
-6.90375831,-27.61503324,9.475245181730473,-0.7752021537499996,2.7000000000000004e-06,4.953836207579111e-07,0.0,225,4,63.518399816630726,362.444,mp-977582,ZrZnRh2,https://materialsproject.org/materials/mp-977582,39.665622645604074,51.05357980779234,-8.604250342815693,-0.5045126942092143
-5.8517302110000005,-58.51730211,9.013450695137294,-0.7494081470000005,0.1634085,0.009677490873071216,0.0,12,10,196.78378087505808,1068.1476699999998,mp-1080818,Ho2CoGe2,https://materialsproject.org/materials/mp-1080818,19.55546565201532,70.31344538072189,-8.604250342815693,-0.5045126942092143
-2.553614775,-15.32168865,7.1902315483774855,-0.4484872116666665,0.00030465,2.138902128575072e-05,0.0,194,6,165.99220625983386,718.7560000000002,mp-1019087,CaSnHg,https://materialsproject.org/materials/mp-1019087,-17.753782790257013,53.57952447669803,-8.604250342815693,-0.5045126942092143
-5.7779972509375,-184.89591203,4.169898980997819,-1.8426482875599997,23.5841272,0.954628733811457,0.0,8,32,287.9139672401387,723.001465,mp-1100673,Li9Mn2Co5O16,https://materialsproject.org/materials/mp-1100673,-83.27703005904473,-44.076776408303225,0.6479715186033842,-2.1612083367078045
-7.215279744313724,-1103.93780088,4.603062207054936,-1.0859384484656862,1.0900374,0.004102215478601761,0.0,6,153,3096.708724926,8584.16607776,mp-1224118,Na17(Mo15S19)4,https://materialsproject.org/materials/mp-1224118,67.13409519257162,33.381070695048905,-8.604250342815693,-0.5045126942092143
-7.968290234166666,-95.61948281,10.568421561540667,-0.21882778499999966,0.005673475,0.00029844788003147616,0.0,194,12,221.54302161075756,1410.0,mp-1102438,SmRu2,https://materialsproject.org/materials/mp-1102438,29.613034646795512,64.09572965020404,-8.604250342815693,-0.5045126942092143
-6.1847996025,-24.73919841,0.9587252400333584,4.331618066458333,1.2671758,0.020016892992617327,0.0,71,4,737.7642902355935,425.954,mp-1097255,TiReMo2,https://materialsproject.org/materials/mp-1097255,-59.259725494298344,36.233453332715456,-8.604250342815693,-0.5045126942092143
-6.76602527,-40.59615162,14.431597862987434,-1.0859421591666667,1.5e-07,1.4357804463677329e-08,0.0,227,6,121.75327504329498,1058.14694,mp-912,LaPt2,https://materialsproject.org/materials/mp-912,24.312211453149143,52.21940031722264,-8.604250342815693,-0.5045126942092143
-5.639003994199999,-281.95019971,4.599326302310988,-1.5674178817,7.9999981,0.2022847467496931,0.031299999999999883,1,50,460.89731201097567,1276.5837350000004,mp-758645,Li9Co13O28,https://materialsproject.org/materials/mp-758645,-75.31926899842857,-23.45196097795446,-1.000279157437257,0.0699074543261401
-5.16657389,-20.66629556,8.558828875182304,-1.8977619205468743,0.0001849,2.2292527224564454e-05,0.0,166,4,96.66183446764357,498.219,mp-1215456,YbErSe2,https://materialsproject.org/materials/mp-1215456,-8.450712021031723,11.269843088163716,-8.604250342815693,-0.5045126942092143
-9.0190772075,-36.07630883,17.256890568984257,-0.9556033950000008,7.0601053,1.15160736276941,0.04499999999999993,221,4,71.44702884620837,742.502,mp-20272,GdPt3,https://materialsproject.org/materials/mp-20272,63.36328420117448,42.96589739885793,-8.604250342815693,-0.5045126942092143
-4.639214716666666,-13.91764415,7.555572692141961,0.03024175500000048,0.006755199999999999,0.0007831058835773937,0.0,166,3,100.52987725230754,457.41821,mp-1220270,Nd2Tm,https://materialsproject.org/materials/mp-1220270,-48.83096045226161,69.57613660694571,-8.604250342815693,-0.5045126942092143
-5.8058336325,-23.22333453,0.6148423355691339,3.340086132499999,10.0492694,0.16814746629636573,0.0,71,4,696.5007507046413,257.891045,mp-1096380,MnV2Ru,https://materialsproject.org/materials/mp-1096380,7.159082701769056,23.251669044728928,-8.604250342815693,-0.5045126942092143
-11.188201085,-290.89322821,15.149876398080654,-0.5064427063461537,3e-07,7.885988828537453e-09,0.0,1,26,443.34572464976736,4044.85096,mp-673681,Ta11O2,https://materialsproject.org/materials/mp-673681,-6.205135549480553,20.372169714259968,-8.604250342815693,-0.5045126942092143
-6.331587961458332,-303.91622215,3.2184111676701987,-2.0818055197750005,10.0000006,0.2665147903261926,0.7926000000000002,2,48,437.27650002237937,847.5173044000002,mp-758686,LiMn3Al2(HO2)6,https://materialsproject.org/materials/mp-758686,-44.20160707180746,-17.32621417441761,-0.4602301148347946,-1.522764036553317
-8.3413223875,-33.36528955,5.877645888482369,-0.3342409743749997,2.3e-06,5.520566663762347e-07,0.0,38,4,48.553618875457495,171.860445,mp-4248,YCoC2,https://materialsproject.org/materials/mp-4248,8.166402272231425,38.409891673445046,-8.604250342815693,-0.5045126942092143
-9.552420710000002,-66.86694497,5.730001785011,-0.4105289808928581,4e-07,6.708066323878285e-08,0.0,160,7,69.49284166183894,239.7981,mp-1216474,V4C3,https://materialsproject.org/materials/mp-1216474,5.255442686462586,21.752671314837322,-8.604250342815693,-0.5045126942092143
-7.033517041666666,-42.20110225,9.10931111707931,-0.8290245366666665,1.255e-05,1.2583057638039828e-06,0.0,109,6,116.2344774242074,637.63392,mp-1077789,ThSiNi,https://materialsproject.org/materials/mp-1077789,10.348844951355447,70.91152410885927,-8.604250342815693,-0.5045126942092143
-6.196794826875,-99.14871723,3.718531684574995,-2.0851459451800007,9.9999977,0.7968368501749606,0.0,10,16,146.25405551419874,327.514335,mp-1174722,Li5Mn3O8,https://materialsproject.org/materials/mp-1174722,-70.55528232876311,-42.215491119079324,-8.604250342815693,-0.5045126942092143
-5.21439719,-93.85914942,9.109209377133533,-0.27659522037037004,1e-07,2.6152498429297105e-09,0.0,71,18,445.6195573079293,2444.53262,mp-1212180,Ho6InCo2,https://materialsproject.org/materials/mp-1212180,-29.5847170393467,71.29250577660193,-8.604250342815693,-0.5045126942092143
-7.674574591111113,-138.14234264,7.493806856467361,-0.6186943721688891,0.00010885,3.4251942650706414e-06,0.0,15,18,370.3570811820685,1671.3756,mp-1246190,Ba3(WN2)2,https://materialsproject.org/materials/mp-1246190,-9.212688772828828,33.702080762033965,-8.604250342815693,-0.5045126942092143
-5.643081279444443,-101.57546303,9.062852949780638,-0.6646703914682546,0.00035033333333333336,1.5358029039465793e-05,0.0,6,18,265.84188297611314,1450.9059017999998,mp-1228856,AlPPd4,https://materialsproject.org/materials/mp-1228856,26.509500370987464,46.669449364105034,-8.604250342815693,-0.5045126942092143
-6.3912932975,-25.56517319,0.8637711761700528,4.066307725625001,1.9999962,0.03164737823638369,0.0,71,4,736.4934019361168,383.10558,mp-1096757,NbCr2Re,https://materialsproject.org/materials/mp-1096757,-58.54221328718457,41.75612411104797,-8.604250342815693,-0.5045126942092143
-6.207348286428571,-86.90287601,7.260891566802374,-0.5380167135714292,4.5e-07,2.1369155992643225e-08,0.0,63,14,245.41582968729927,1073.108,mp-18279,Zr2CuGe4,https://materialsproject.org/materials/mp-18279,21.730073319654466,39.52874467875024,-8.604250342815693,-0.5045126942092143
-8.455195333125,-270.56625066,3.632149184441433,-3.4422123679687493,1.9192869,0.059396340022580436,0.0,8,32,376.5803388091244,823.7059999999999,mp-762447,Mg3Ti9O20,https://materialsproject.org/materials/mp-762447,-42.855525228093406,28.07887099837165,-8.604250342815693,-0.5045126942092143
-9.452718876666667,-113.43262652,10.049086656836133,-0.7054228649999992,0.0,0.0,0.0,62,12,199.95401178609276,1210.062,mp-22258,HfSiMo,https://materialsproject.org/materials/mp-22258,51.84075033967152,58.50517032839328,-8.604250342815693,-0.5045126942092143