energy_per_atom,energy,density,formation_energy_per_atom,total_magnetization_uB,total_magnetization_T,band_gap,sgr,num_sites,cell_volume,weight,mp_id,formula,URL,tsne_cry_lin1_0,tsne_cry_lin1_1,tsne_cry_lin2_0,tsne_cry_lin2_1
-5.90655533,-70.87866396,4.107046294521746,-2.131346916875,8.000002799999999,0.8812488710136818,0.9166,164,12,105.79593787690816,261.66732859999996,mp-1222590,Li3Al(CoO3)2,https://materialsproject.org/materials/mp-1222590,-35.227456833267524,-41.243182886036585,6.824205471592895,-0.4318889427254408
-5.357258981071428,-150.00325147,6.6030454847706475,-1.2643337996428576,0.0,0.0,0.3609,62,28,248.73761925739134,989.09196,mvc-12655,Zn(CoO2)2,https://materialsproject.org/materials/mvc-12655,-74.64220317072552,-24.337820355488525,-1.2153716481054555,0.15598345322301702
-4.8127778675,-19.25111147,0.8066218384445487,1.9906594820833328,8e-07,1.3878651463291317e-08,0.3515999999999999,71,4,671.7692884432986,326.318,mp-1093752,TiGeRh2,https://materialsproject.org/materials/mp-1093752,-61.02569686979846,36.28600666564711,-8.604250342815693,-0.5045126942092143
-8.691975845263157,-165.14754106,5.61905901382034,-0.4175250612652624,18.4771483,1.0387038454408062,0.0,12,19,207.31018186325053,701.5120499999998,mp-1246495,Ca(Mn5N4)2,https://materialsproject.org/materials/mp-1246495,3.3245279216784995,17.184942110126954,-8.604250342815693,-0.5045126942092143
-5.207038784852942,-354.07863737,7.776306898449914,-0.5478523052205889,0.050533999999999996,0.00028846527024888844,0.0,186,68,2041.585486905944,9560.748,mp-1200594,Nd23Mg4Pt7,https://materialsproject.org/materials/mp-1200594,-30.52552182421634,67.92976726322108,-8.604250342815693,-0.5045126942092143
-6.712207075,-26.8488283,13.228781188540768,-1.1221762349999995,0.0006071000000000001,8.864379034172269e-05,0.0,225,4,79.81588666443628,635.85792,mp-1187583,Tm2PtRh,https://materialsproject.org/materials/mp-1187583,18.307829179448422,51.3248607217569,-8.604250342815693,-0.5045126942092143
-8.429936685092592,-910.43316199,5.2394799793744475,-0.602249953372592,2.0994568166666667,0.020368157459049737,0.0,205,108,1201.2478682873855,3790.28376,mp-1245948,Ca(MnN)4,https://materialsproject.org/materials/mp-1245948,2.651454557387627,17.312839656481778,-8.604250342815693,-0.5045126942092143
-5.087197367142856,-71.22076314,3.688176125241728,-2.546666439889286,5.9999972,0.5555364741580614,0.03820000000000024,139,14,125.86816394000064,279.562206,mp-850204,Li5Co2O2F5,https://materialsproject.org/materials/mp-850204,-6.4126740177171255,12.094244577487304,-5.8390885234014505,-2.5021562480393755
-5.740836662272727,-126.29840657,4.941678193947328,-1.711009807045455,0.0,0.0,0.0,12,22,213.77481353539864,636.182775,mp-757593,Li4Co5SbO12,https://materialsproject.org/materials/mp-757593,-73.68390006499493,-24.811124708050343,-4.431873687589969,-0.8744558147734819
-4.915621099166667,-117.97490638,7.254702558858251,-0.4620300741666667,4.2999999999999995e-06,6.873035871618443e-08,0.0,216,24,729.1170809822404,3185.428,mp-1210009,Nd4MgPt,https://materialsproject.org/materials/mp-1210009,-30.587227167843885,67.96590340874056,-8.604250342815693,-0.5045126942092143
-5.70191829375,-91.2306927,4.022946734818467,-1.870570008185001,8.0000003,0.6732309888954676,0.0,12,16,138.4851903945455,335.504635,mp-1174085,Li5Mn(CoO4)2,https://materialsproject.org/materials/mp-1174085,-82.63762806730855,-38.487116019334884,-4.505124805091912,-2.8282372344850453
-5.524607876875,-176.78745206,4.393692379626908,-1.7294092115624995,17.9999986,0.7593079916995029,0.0,166,32,276.2688551728055,730.991765,mp-1175466,Li9Co7O16,https://materialsproject.org/materials/mp-1175466,-78.13108277136577,-27.9038640879682,-4.45494726904518,-0.6583883950067326
-6.160865925,-24.643463699999998,0.9525140898468596,4.322391065625001,0.9118405999999999,0.01004559921396368,0.0,71,4,1057.841268431089,606.79616,mp-1097051,Ta2ReNi,https://materialsproject.org/materials/mp-1097051,-58.3433639355248,40.48378884406379,-8.604250342815693,-0.5045126942092143
-5.68455837,-22.73823348,17.205950140808756,0.3672234056899999,0.0352325,0.011009238518088915,0.0,186,4,37.29611602333468,386.44988,mp-1184680,HIr,https://materialsproject.org/materials/mp-1184680,-61.1990483192241,43.65653306809017,-8.604250342815693,-0.5045126942092143
-9.261301914615384,-361.19077467,13.72949480176353,-0.2616355448717951,0.016309999999999998,0.00033535145549654235,0.0,164,39,566.8017637168373,4686.37092,mp-1217865,Ta19(Ni9Mo)2,https://materialsproject.org/materials/mp-1217865,43.782744067917854,62.18066772986492,-8.604250342815693,-0.5045126942092143
-3.71519937,-14.86079748,0.3371154149580498,3.0798558054166665,3.9321335,0.03661989235721508,0.0,71,4,1251.3782961550146,254.04938,mp-1096650,Ti2NbZn,https://materialsproject.org/materials/mp-1096650,-65.12599155645557,40.871043171030394,-8.604250342815693,-0.5045126942092143
-8.863166246111113,-159.53699243,6.968536031115471,-0.2283990338355548,1.11839265,0.07257162561083101,0.0,2,18,179.59939955250832,753.69796,mp-1246408,Mn4RuN4,https://materialsproject.org/materials/mp-1246408,4.392188144615816,16.701323001343148,-8.604250342815693,-0.5045126942092143
-6.9510333200000005,-69.5103332,4.350042808035854,-1.9808672075380005,9.9999995,1.1402232092488431,0.3112999999999997,8,10,102.20862104301425,267.751535,mp-1003637,LiMn3O6,https://materialsproject.org/materials/mp-1003637,-67.06050558321057,-41.060964950651375,1.8240341881709232,-2.281664616880612
-6.177986205333334,-92.66979308,4.275780832613945,-1.8470511134613328,7.0000000999999985,0.5578364004020229,0.0,1,15,146.24082350046032,376.56068,mp-757164,Li3Mn2(CoO4)2,https://materialsproject.org/materials/mp-757164,-72.28473301500654,-23.638723942340828,-8.604250342815693,-0.5045126942092143
-6.0367486625,-72.44098395,11.712991631289132,-0.9657645058333332,5.3500000000000006e-05,2.0944811447591188e-06,0.0,62,12,297.68349402049637,2099.77856,mp-1102104,Ho2Pt,https://materialsproject.org/materials/mp-1102104,14.720729198489327,56.73732026116186,-8.604250342815693,-0.5045126942092143
-5.0707480125,-20.28299205,0.6080430523802111,2.8172460324999986,0.6065744000000001,0.007518418653340349,0.0,71,4,940.2319387782202,344.286695,mp-1095732,Zr2CoRh,https://materialsproject.org/materials/mp-1095732,-63.503492937000935,37.55174542368619,-8.604250342815693,-0.5045126942092143
-8.456803808333332,-202.9632914,4.067270477587903,-1.1361704928566665,0.088310925,0.00417789485261934,0.0,63,24,246.3396701880646,603.3764,mp-1029338,LiV2N3,https://materialsproject.org/materials/mp-1029338,2.3126157790381257,18.03307673655275,-8.604250342815693,-0.5045126942092143
-5.648955319583332,-135.57492767,3.9916313397328143,-2.0753638772916663,2.9999999,0.17774363549046576,0.0,12,24,196.7001128102164,472.831,mp-756986,Li7Si2(NiO4)3,https://materialsproject.org/materials/mp-756986,-51.058771698452595,-35.853000834325115,2.1001251631539324,-0.43046011287075264
-4.51379291,-18.05517164,0.408559173587817,2.76121901375,0.9999998,0.011286787253348356,0.0,71,4,1032.5402774194604,254.046302,mp-1097476,ZrScCo2,https://materialsproject.org/materials/mp-1097476,-63.71103642709821,37.523832245563185,-8.604250342815693,-0.5045126942092143
-5.7562761025,-23.02510441,0.9191107917005013,2.881358645,0.0008416000000000001,8.930517879729495e-06,0.0,71,4,1098.2633980106116,607.8904,mp-1095774,Hf2NiIr,https://materialsproject.org/materials/mp-1095774,-62.949965026463715,35.077031908645026,-8.604250342815693,-0.5045126942092143
-6.355801634545455,-209.74145394,3.3030703028794783,-2.695338937943637,2.999999966666667,0.1031673539086568,0.945,1,33,338.8881521587283,674.1012192000001,mp-761182,Li3V2(O2F)2,https://materialsproject.org/materials/mp-761182,-41.47808109499605,-57.73371122205498,3.622146774092829,2.639525247721606
-11.77561405,-105.98052645,14.918000953880918,0.1488981654166663,0.0632603,0.0040365903464099255,0.0,189,9,182.63920052904209,1640.799585,mp-20026,Pu2Co,https://materialsproject.org/materials/mp-20026,43.33995278105113,84.51876967516509,-8.604250342815693,-0.5045126942092143
-6.66079972,-26.64319888,1.2568919642643872,4.0482905175,0.37020159999999996,0.005003757955127647,0.0,71,4,862.222646258111,652.6318799999998,mp-1097629,ZrTaOs2,https://materialsproject.org/materials/mp-1097629,-62.01841496898039,37.39871344963354,-8.604250342815693,-0.5045126942092143
-6.0807313875,-24.32292555,1.1094682697860436,3.519950615625,0.0,0.0,0.14250000000000007,71,4,839.4560509806078,560.872,mp-1093573,Zr2ReIr,https://materialsproject.org/materials/mp-1093573,-62.41716880611345,37.54722919813712,-8.604250342815693,-0.5045126942092143
-5.86149182,-23.44596728,0.8765393230926236,2.8769207299999997,0.5557679,0.007281560180511428,0.0,71,4,889.501005903183,469.53585,mp-1097207,YHfRu2,https://materialsproject.org/materials/mp-1097207,-66.75477679285521,42.22302578458467,-8.604250342815693,-0.5045126942092143
-7.4491124275,-29.79644971,13.116882792459267,-0.5191743237499997,0.00035789999999999997,5.288534203078237e-05,0.0,225,4,78.8685412996167,622.9961400000001,mp-1184577,Ho2OsRh,https://materialsproject.org/materials/mp-1184577,18.826566640438568,52.80145173639666,-8.604250342815693,-0.5045126942092143
-6.774374243548388,-210.00560155,6.184814035955317,-0.6133061086290321,2.14e-05,3.73418701510866e-07,0.0,1,31,667.874921967507,2487.555,mp-676910,Mg3(Mo3Se4)4,https://materialsproject.org/materials/mp-676910,63.19834287607228,32.163653892251936,-8.604250342815693,-0.5045126942092143
-6.476459636666666,-97.14689455,4.142875606083711,-1.963308458192,9.9999995,0.7869414229264222,0.19910000000000005,12,15,148.0931597998507,369.477335,mp-863869,Li3Mn3FeO8,https://materialsproject.org/materials/mp-863869,-69.36305624770344,-41.87396567180705,-8.604250342815693,-0.5045126942092143
-5.0221562175,-20.08862487,0.8484853934206747,2.4368996691666664,3.0,0.045299039180284426,0.0,71,4,771.8087392214653,394.371,mp-1097295,Ti2IrPd,https://materialsproject.org/materials/mp-1097295,-59.861905399262504,35.28590437436548,-8.604250342815693,-0.5045126942092143
-5.5828448625,-22.33137945,13.451124745941064,-0.9578926824999998,8e-06,1.334219670590173e-06,0.0,225,4,69.87793707106525,566.0432099999999,mp-867313,LiTmPt2,https://materialsproject.org/materials/mp-867313,28.632940459843017,44.277751233104645,-8.604250342815693,-0.5045126942092143
-9.131042597142855,-127.83459636,5.724756109975161,-0.4207757110200002,6.98534295,0.5421605199980202,0.0,194,14,150.15412630587798,517.6606700000002,mp-1245850,Mn3CrN3,https://materialsproject.org/materials/mp-1245850,2.5173789790072085,17.17118690167843,-8.604250342815693,-0.5045126942092143
-8.179520303333334,-98.15424364,7.592256190477908,-0.19202620333333326,0.022290325,0.0014705853789411165,0.0,38,12,176.64590922184613,807.654,mp-1215355,ZrCrNi,https://materialsproject.org/materials/mp-1215355,36.692023237638075,67.47163805594647,-8.604250342815693,-0.5045126942092143
-4.95099823,-19.80399292,0.904878464981942,1.5057528437500007,0.0,0.0,0.20920000000000005,71,4,970.6945731410893,528.961135,mp-1096474,La2CoIr,https://materialsproject.org/materials/mp-1096474,-68.34780664311718,41.6377113990976,-8.604250342815693,-0.5045126942092143
-6.091336385,-24.36534554,0.9805265805778076,3.167110617499999,2.4299999999999998e-05,3.543939839390696e-07,0.04170000000000007,71,4,799.0930625444522,471.85400000000004,mp-1096560,HfZrRu2,https://materialsproject.org/materials/mp-1096560,-60.89341191148815,35.332582089709554,-8.604250342815693,-0.5045126942092143
-5.6662039875,-22.66481595,0.9931406109619688,2.6602481950000003,0.7572236,0.011051614486283914,0.0,71,4,798.5016933646347,477.5705,mp-1096183,Zr2IrRh,https://materialsproject.org/materials/mp-1096183,-63.107929936270104,37.80364387330307,-8.604250342815693,-0.5045126942092143
-3.445684555,-13.78273822,0.5397284117342557,1.1613161974999993,0.0002839,3.298250774593246e-06,0.0,71,4,1003.1344536977257,326.05085,mp-1095851,YMgPd2,https://materialsproject.org/materials/mp-1095851,-68.8040593334636,42.44290088838709,-8.604250342815693,-0.5045126942092143
-6.70192649,-26.80770596,1.4385083709683124,4.173500860625001,0.2656633,0.004119891650407931,0.0,71,4,751.4899828944292,651.00826,mp-1096583,Ta2ReRh,https://materialsproject.org/materials/mp-1096583,-58.14534800865938,40.46076670925432,-8.604250342815693,-0.5045126942092143
-4.75490657,-19.01962628,0.6371380804596284,1.6100554725,0.2349304,0.0027135399088616553,0.0,71,4,1008.9750623170011,387.1372,mp-1097260,Y2PdRh,https://materialsproject.org/materials/mp-1097260,-67.98255221354846,41.837560364707116,-8.139285407900177,2.2241420305692454
-4.124417,-16.497668,0.4635271276047353,1.8483746824999996,1.4992181,0.014222273822384732,0.0,71,4,1228.4944773102566,342.9251,mp-1095920,Y2NiPd,https://materialsproject.org/materials/mp-1095920,-67.95762846247807,41.890319083789954,-8.604250342815693,-0.5045126942092143
-4.280697395,-17.12278958,0.6512303070332354,2.0621001075,2.9999987999999997,0.034891913772984534,0.0,71,4,1002.0138350757708,392.96985,mp-1096534,YZrPd2,https://materialsproject.org/materials/mp-1096534,-68.55495191838253,42.266594867213655,-8.604250342815693,-0.5045126942092143
-5.9587572325,-23.83502893,1.2246100430541829,3.5041147299999995,1.9998552,0.02864001340808201,0.0,71,4,813.772036502029,600.1385,mp-1093828,Hf2VIr,https://materialsproject.org/materials/mp-1093828,-62.98619057966444,36.0531296586051,-8.604250342815693,-0.5045126942092143
-5.9527933325,-23.81117333,1.247509288118311,3.273057423750001,0.0421165,0.0006085846696318082,0.0,71,4,806.508023428293,605.9034,mp-1096420,Hf2NiOs,https://materialsproject.org/materials/mp-1096420,-62.870123171180445,35.06130043856858,-8.604250342815693,-0.5045126942092143
-5.8888552825,-23.55542113,0.9739210855146632,4.241688368750001,1.0006822,0.016019037363047814,0.2341000000000002,71,4,728.0097368677774,426.98426,mp-1093649,Nb2VOs,https://materialsproject.org/materials/mp-1093649,-59.88027432093697,42.626562793454156,-8.604250342815693,-0.5045126942092143
-5.602028672666666,-84.03043009,7.143141821605643,-0.3205646306666665,0.0043598333333333345,0.00010716133835568308,0.0,6,15,474.1428284106244,2039.6205,mp-1220520,Nd4Rh,https://materialsproject.org/materials/mp-1220520,-29.868428826548357,67.71794440032484,-8.604250342815693,-0.5045126942092143
-6.0453119025,-24.18124761,0.9380735332540436,3.62224102375,0.5427089,0.007591162082531085,0.0,71,4,833.1747635581752,470.67800000000005,mp-1093957,Zr2TcOs,https://materialsproject.org/materials/mp-1093957,-62.609824726407744,37.92124920379722,-8.604250342815693,-0.5045126942092143
-6.435427489428573,-225.23996213,5.982446555036143,-0.7344013222142857,0.8892437,0.015157358591058325,0.0,1,35,683.7143567022417,2463.2270000000003,mp-673706,Li7(Mo3Se4)4,https://materialsproject.org/materials/mp-673706,63.90649946151509,31.995901450698646,-8.604250342815693,-0.5045126942092143
-8.724822025749999,-697.98576206,8.150737708763259,-0.13816468532100004,7.007308275,0.09971896872115824,0.0,14,80,818.9377163185227,4019.7468200000003,mp-1245473,Mn9Ir2N9,https://materialsproject.org/materials/mp-1245473,4.3240193898028485,16.59838252640127,-8.604250342815693,-0.5045126942092143
-6.356375978787879,-209.76040730000003,3.299609335354403,-2.6959132821860607,3.0000002,0.10305926284419227,0.9257,6,33,339.24361269058187,674.1012192000001,mp-759833,Li3V2(O2F)2,https://materialsproject.org/materials/mp-759833,-41.47113470291245,-57.73306214640186,3.581561155242692,2.5480169201252654
-5.386678315,-21.54671326,0.9526250370374733,1.514682713750001,5.0942109,0.06949863251756089,0.0,71,4,854.2364308920532,490.061957,mp-1097451,ScMnPt2,https://materialsproject.org/materials/mp-1097451,-66.30458912494844,42.67268921934321,-8.604250342815693,-0.5045126942092143
-6.0861202575,-24.34448103,1.3790092426634708,3.940316531249999,3.2268907000000002,0.0474235227581925,0.0,71,4,792.9902935199792,658.54576,mp-1093590,Ta2OsPd,https://materialsproject.org/materials/mp-1093590,-58.28919994813492,40.29763580055114,-8.604250342815693,-0.5045126942092143
-4.5866306975,-18.34652279,0.4232282157644236,1.9283599774999995,0.27263930000000003,0.002385975649685013,0.0,71,4,1331.6800035929934,339.4106,mp-1097198,Y2NiRh,https://materialsproject.org/materials/mp-1097198,-67.83563155632844,41.797012290704025,-8.604250342815693,-0.5045126942092143
-7.9586739725,-63.66939178,7.179415898677794,-0.39448041556499897,1.5e-06,1.7087140183660054e-07,0.0,122,8,102.30557583624329,442.3228,mp-1246145,LiReN2,https://materialsproject.org/materials/mp-1246145,7.7350105604065575,36.967225322081035,-8.604250342815693,-0.5045126942092143
-8.109936506666667,-97.31923808,7.9389738831824825,-0.2815939400000005,0.06503015,0.0044218088325055456,0.0,38,12,171.39266055512414,819.42178,mp-1215315,ZrMnNi,https://materialsproject.org/materials/mp-1215315,36.70160917955075,67.47877448123003,-8.604250342815693,-0.5045126942092143
-5.3820940075,-21.52837603,5.407296999084402,-1.2791697480468749,0.3082756,0.02550796333631351,0.0,186,4,140.84479277438558,458.64,mp-10643,SmSe,https://materialsproject.org/materials/mp-10643,10.15586953270934,30.022839920871863,-8.604250342815693,-0.5045126942092143
-8.23999459,-32.95997836,11.89286165652864,-0.06642739375000062,0.00017130000000000002,2.4018082335969558e-05,0.0,225,4,83.11826346559519,595.29706,mp-863681,ErThTc2,https://materialsproject.org/materials/mp-863681,20.70080141851149,56.381740078398934,-8.604250342815693,-0.5045126942092143
-8.892434703500001,-177.84869407,6.773648777745667,-0.2858381114519986,4.1471408,0.255006122878355,0.0,59,20,189.5289687894289,773.1240499999999,mp-1247514,Mn5FeN4,https://materialsproject.org/materials/mp-1247514,2.3656846112078482,16.19752518338272,-8.604250342815693,-0.5045126942092143
-9.088620599999999,-27.265861800000003,6.765408564667632,-0.331630364126666,4.7876857,1.8350040221903907,0.0,164,3,30.406472456586624,123.88278999999999,mp-1221793,Mn2N,https://materialsproject.org/materials/mp-1221793,2.5062910210912723,17.206959636714746,-8.604250342815693,-0.5045126942092143
-8.728361041,-174.56722082,6.852896598358298,-0.2567481019519988,4.7973349999999995,0.2960722069611143,0.0,59,20,188.83384360697724,779.30044,mp-1247508,Mn5CoN4,https://materialsproject.org/materials/mp-1247508,2.6639230998901984,16.44575969406549,-8.604250342815693,-0.5045126942092143
-5.7633806475,-23.05352259,0.8449699310424363,3.8455091825000007,0.0017211,2.653387222160549e-05,0.0,71,4,755.9322933544616,384.65826,mp-1097175,Nb2MoRh,https://materialsproject.org/materials/mp-1097175,-59.639946028683006,42.52811982534305,-8.604250342815693,-0.5045126942092143
-5.349448295,-21.39779318,0.9214662832972408,2.9177679925,0.0695547,0.0010374013338778358,0.0,71,4,781.3706735906444,433.598195,mp-1093805,Zr2CoIr,https://materialsproject.org/materials/mp-1093805,-63.51883884264666,37.49215076780249,-8.604250342815693,-0.5045126942092143
-7.708045706666668,-92.49654848,9.156881495345964,-0.29650405535714225,0.0002499,2.012848929914395e-05,0.0,194,12,144.68799637072252,797.867924,mp-1220086,Ni3Mo2P,https://materialsproject.org/materials/mp-1220086,53.72282791866845,57.55187816298577,-8.604250342815693,-0.5045126942092143
-8.2237066,-32.8948264,11.795739476337856,-0.047476756249999134,0.0011602000000000001,0.00016197755343961862,0.0,225,4,83.47481278734142,592.96838,mp-864626,HoThTc2,https://materialsproject.org/materials/mp-864626,20.703462951218892,56.374180898423106,-8.604250342815693,-0.5045126942092143
-8.949529321052632,-170.0410571,5.845823246523622,-0.3352082173178925,16.8378552,0.9631027902520016,0.0,71,19,203.7471567084095,717.27905,mp-1246793,Mn10FeN8,https://materialsproject.org/materials/mp-1246793,2.578772186735222,17.16626628355634,-8.604250342815693,-0.5045126942092143
-5.6825204025,-22.73008161,0.8298352839876469,2.7444798375,0.26058739999999997,0.003927445044172556,0.0,71,4,773.2514151965031,386.4235000000001,mp-1096136,Zr2RuRh,https://materialsproject.org/materials/mp-1096136,-63.012572115605295,38.241883605420426,-8.604250342815693,-0.5045126942092143