energy_per_atom,energy,density,formation_energy_per_atom,total_magnetization_uB,total_magnetization_T,band_gap,sgr,num_sites,cell_volume,weight,mp_id,formula,URL,tsne_cry_lin1_0,tsne_cry_lin1_1,tsne_cry_lin2_0,tsne_cry_lin2_1
-9.24617308357143,-129.44642317,7.697624150804585,-0.06800258892857057,2.11475565,0.1912331210277297,0.0,15,14,128.87673009145135,597.42325,mp-22749,Mn5C2,https://materialsproject.org/materials/mp-22749,58.874954541495065,69.14465255694502,-8.604250342815693,-0.5045126942092143
-9.5265374925,-38.10614997,10.097067306529064,-0.2756078462499989,0.0020115,0.00033983465087379644,0.0,225,4,68.98105072489936,419.445912,mp-1184559,HfScTc2,https://materialsproject.org/materials/mp-1184559,63.31818543313655,58.151052997350895,-8.604250342815693,-0.5045126942092143
-6.841446993333334,-20.52434098,8.648905773739044,-0.13883517000000012,0.006895699999999999,0.0017352200159422874,0.0,139,3,46.31282126405157,241.22,mp-10201,Ge2Mo,https://materialsproject.org/materials/mp-10201,48.89191743039096,55.69527322830763,-8.604250342815693,-0.5045126942092143
-6.182435785,-49.45948628,3.8557348186337728,0.14149346999999945,0.00587355,0.000473303758477096,0.0,44,8,144.623259204861,335.81199999999995,mp-1094330,MgTi3,https://materialsproject.org/materials/mp-1094330,33.62312121865186,61.461792047914344,-8.604250342815693,-0.5045126942092143
-4.6587159375,-18.63486375,0.9055291379574488,2.4237877549999998,4.0,0.052527710146344025,0.0,71,4,887.4603320868978,483.952,mp-1096470,Zr2PdPt,https://materialsproject.org/materials/mp-1096470,-65.5141944733578,38.52812890202294,-1.5391403936560757,-0.5351945811392449
-6.896885656507938,-869.00759272,4.029350180640373,-2.072538280353652,7.000000094444443,0.06082122725717599,0.3479000000000001,1,126,1341.2826111455106,3254.66442,mp-1097058,LiMn2O4,https://materialsproject.org/materials/mp-1097058,-67.43607509464887,-38.0191977171708,3.3118159916991714,-0.058492959659601884
-5.6448415975,-22.57936639,0.9337968049457054,2.836183581666666,1.0000195,0.016846750476929524,0.0,71,4,691.7827887806918,389.02099999999996,mp-1096518,Ti2IrRu,https://materialsproject.org/materials/mp-1096518,-59.749298185918754,35.56460378000157,-8.604250342815693,-0.5045126942092143
-7.91793911625,-190.03053879,5.8105055107094135,-0.2831894340277792,8.125e-07,2.6777956254384583e-08,0.0,227,24,353.6090483437966,1237.33756,mp-1191331,Ti2Co,https://materialsproject.org/materials/mp-1191331,58.74602991459322,54.401835025691796,-8.604250342815693,-0.5045126942092143
-6.6392054226666675,-99.58808134,7.424243201022577,-0.23309636400000025,0.0,0.0,0.10099999999999998,1,15,370.1944498167009,1655.1333999999995,mp-1220151,Ni(Te4Mo3)2,https://materialsproject.org/materials/mp-1220151,58.363235663646115,32.46077988656364,-8.604250342815693,-0.5045126942092143
-7.023115244027778,-505.66429757,6.165732622140964,-0.5989846980269691,0.8281578000000002,0.0057609917353070115,0.0,167,72,1675.3026365149262,6220.5512,mp-1195519,Rb2Mo15Se19,https://materialsproject.org/materials/mp-1195519,63.30309636279443,32.45146264935856,-8.604250342815693,-0.5045126942092143
-4.8070851957894725,-182.66923744,8.124199730010767,-0.5008839386294732,0.013460900000000001,0.0004221819674279983,0.0,139,38,371.5795855816677,1817.9559144000002,mp-1224531,Ho3Al2(Ni3H4)2,https://materialsproject.org/materials/mp-1224531,-52.28538277581033,40.48123299066528,-8.604250342815693,-0.5045126942092143
-4.131538635,-16.52615454,0.6059368811257003,2.1066228041666664,1.8092849999999998,0.01954328759347575,0.0,71,4,1078.9138972226847,393.6997,mp-1096528,Y2InRu,https://materialsproject.org/materials/mp-1096528,-68.88541314562728,42.083284456705854,-8.604250342815693,-0.5045126942092143
-9.9449427975,-39.77977119,15.420880614756598,-0.915137689999998,4e-07,6.638678517234582e-08,0.0,225,4,70.2191843892108,652.1025,mp-865178,Hf2IrRh,https://materialsproject.org/materials/mp-865178,39.61462764011221,60.60188622188238,-8.604250342815693,-0.5045126942092143
-7.4888445175,-29.95537807,13.490166817895336,-0.6726774174999992,3.72e-05,5.610012473049006e-06,0.0,225,4,77.2781186533796,627.8050000000002,mp-867214,Er2IrRu,https://materialsproject.org/materials/mp-867214,16.654245116563544,49.73983438207796,-8.604250342815693,-0.5045126942092143
-5.31293713,-15.93881139,6.064185512820286,0.019587968333333688,0.0014294,0.00016119975516356352,0.0,166,3,103.33961220346913,377.38985,mp-1220274,Nd2Y,https://materialsproject.org/materials/mp-1220274,-52.89936056083678,68.09067424279996,-8.604250342815693,-0.5045126942092143
-6.592096745,-52.73677396,11.45322982662154,-0.5770440750000008,4.2000000000000004e-06,2.7487262879885533e-07,0.0,189,8,178.07183006413098,1228.2141800000002,mp-30839,Th3Pd5,https://materialsproject.org/materials/mp-30839,21.97531533864426,54.70698099201794,-8.604250342815693,-0.5045126942092143
-5.702534188125,-91.24054701,3.9625694134302094,-1.8711859025600008,10.0000005,0.8289087371664794,0.0,12,16,140.5952770518609,335.504635,mp-1174160,Li5Mn(CoO4)2,https://materialsproject.org/materials/mp-1174160,-82.65027471884142,-38.43469804473608,2.2024579644082194,-1.5493724837748182
-5.9453377525,-23.78135101,9.191938438305117,-0.7194240775000003,6.6e-06,1.084454625603553e-06,0.0,225,4,70.92673652075203,392.616,mp-867831,DyMgRh2,https://materialsproject.org/materials/mp-867831,38.471721709969735,55.98519245148485,-8.604250342815693,-0.5045126942092143
-6.919702135,-27.67880854,11.697277785803285,-0.9729131712499992,1.2e-06,1.7975645983403203e-07,0.0,225,4,77.7990273060772,548.0369999999999,mp-1184345,ErLuRh2,https://materialsproject.org/materials/mp-1184345,17.505457505179706,51.29659030743488,-8.604250342815693,-0.5045126942092143
-6.403882493333334,-38.42329496,11.431907791164189,-0.09751582333333292,1.2e-06,9.123790524493863e-08,0.0,140,6,153.27925043355194,1055.24424,mp-1034,Th2Cu,https://materialsproject.org/materials/mp-1034,-10.137508006183523,55.02979487798541,-8.604250342815693,-0.5045126942092143
-4.9801382475,-19.92055299,0.5836788945282805,3.1104078158333333,4.1913958,0.06339200732508267,0.0,71,4,770.5513707767882,270.84853860000004,mp-1097502,TiAlTc2,https://materialsproject.org/materials/mp-1097502,-60.83501740662,37.85320435871765,-8.604250342815693,-0.5045126942092143
-9.728465986,-97.28465986,13.372244907414059,0.20617429474999935,3.35696215,0.20533213848926746,0.0,127,10,190.53156813625716,1534.342,mp-1079895,Np3Si2,https://materialsproject.org/materials/mp-1079895,-42.89114493480925,42.802441596103904,-8.604250342815693,-0.5045126942092143
-4.860999618999999,-48.60999619,7.733915420121724,-0.3866524749999997,4.3200000000000007e-05,2.512183369116798e-06,0.0,127,10,200.40559314409333,933.3836,mp-1206447,Dy2MgNi2,https://materialsproject.org/materials/mp-1206447,3.85548207312646,59.06939223036401,-8.604250342815693,-0.5045126942092143
-4.9421740625,-19.76869625,0.7799060773077162,2.02386193875,1.4800000000000002e-05,2.1913526605366112e-07,0.3414000000000001,71,4,787.0944815958885,369.675,mp-1097604,ZrGeRh2,https://materialsproject.org/materials/mp-1097604,-63.1740762671237,38.82389511656234,-8.604250342815693,-0.5045126942092143
-8.666549627142857,-121.33169478,6.118897946890378,-0.3172412438771427,2.8184787,0.22771128372953284,0.0,63,14,144.24728011675518,531.5348600000002,mp-1246223,Mn3CoN3,https://materialsproject.org/materials/mp-1246223,2.513851923718018,17.266783863898546,-8.604250342815693,-0.5045126942092143
-7.881652592777778,-283.73949334,7.272403429952718,-1.018941001269842,0.5,0.012482704121861957,0.0,189,36,466.8084999366843,2044.408264,mp-18133,Zr2Co4P3,https://materialsproject.org/materials/mp-18133,11.680694013268518,27.29872615435872,-8.604250342815693,-0.5045126942092143
-8.341631875,-33.366527500000004,11.835360751818529,-0.9632109799999996,5e-08,6.1998076244237814e-09,0.0,63,4,93.9873095952944,669.88712,mp-12755,ThRh,https://materialsproject.org/materials/mp-12755,19.497272976135328,54.60578666218336,-8.604250342815693,-0.5045126942092143
-5.252178850833333,-126.05229242,8.39754461702691,-0.4456882616666669,0.000335925,5.614271108096208e-06,0.0,216,24,697.3107698836528,3526.384,mp-1209983,Nd4CdIr,https://materialsproject.org/materials/mp-1209983,-30.90081529140337,67.98090976436076,-8.604250342815693,-0.5045126942092143
-9.18127102,-36.72508408,10.829923276429227,-0.8450971237500013,7.0051526,1.0039990718480958,0.0,225,4,81.31332431591807,530.32,mp-1184815,GdErRh2,https://materialsproject.org/materials/mp-1184815,16.81283960557775,51.20852525226717,-8.604250342815693,-0.5045126942092143
-7.129705515,-85.55646618,5.022908026286301,-0.8404226616666671,8.975e-05,5.993322552625128e-06,0.0,62,12,174.51960980793473,527.8984280000001,mp-1103034,ScCoSi,https://materialsproject.org/materials/mp-1103034,23.66775406252541,66.79330570173879,-8.604250342815693,-0.5045126942092143
-7.304536390980393,-1117.59406782,6.640141686573223,-2.2358293765889115,0.33521534444444445,0.0017137779004213552,0.0,191,153,2279.5377020271812,9115.3854,mp-706249,Rb(WO3)4,https://materialsproject.org/materials/mp-706249,-17.230027958543936,0.7085391764608959,-8.604250342815693,-0.5045126942092143
-4.72146483875,-37.77171871,6.835905257179471,0.03144411749999953,0.5269924,0.02168034128068169,0.0,194,8,283.2798379294506,1166.172,mp-1186281,Nd3Sm,https://materialsproject.org/materials/mp-1186281,-53.013903206654504,67.86364035356756,-8.604250342815693,-0.5045126942092143
-6.181529265,-24.72611706,3.8046884624660646,0.14239998999999948,4.1e-06,6.520262487572972e-07,0.0,25,4,73.28181290026629,167.90599999999998,mp-1094905,MgTi3,https://materialsproject.org/materials/mp-1094905,33.585650595480054,61.41689546473714,-8.604250342815693,-0.5045126942092143
-6.74279148,-26.97116592,15.615937529131505,-0.9578273275000004,0.0132602,0.001829753545530073,0.0,225,4,84.4568548997279,794.24388,mp-865841,YbPaPt2,https://materialsproject.org/materials/mp-865841,23.078333592733674,53.93193485449526,-8.604250342815693,-0.5045126942092143
-5.270164123953489,-453.23411466,7.275460515833893,-0.24209182546511585,0.0026491999999999996,1.4009887734142294e-05,0.0,127,86,2203.725610179223,9655.3699,mp-1202605,Nd26Ga7Co10,https://materialsproject.org/materials/mp-1202605,-29.32539653510993,71.3597408626827,-8.604250342815693,-0.5045126942092143
-6.8691515725,-27.47660629,11.362713614092314,-0.907349235,0.0001682,2.4853140532948692e-05,0.0,225,4,78.87187102755952,539.70335,mp-1187357,TbLuRh2,https://materialsproject.org/materials/mp-1187357,17.33917841217472,51.203322356037084,-8.604250342815693,-0.5045126942092143
-6.689177703529412,-113.71602096,10.31142153440671,-0.9577255005882349,0.0003483,1.3809769905622063e-05,0.0,229,17,293.93036871889126,1825.2145,mp-1106353,Er4Ge6Rh7,https://materialsproject.org/materials/mp-1106353,32.469157806265144,54.19065541641656,-8.604250342815693,-0.5045126942092143
-8.38422042625,-201.22129023,7.1847485815561125,-0.16610223937499904,2.5e-08,8.907785276664257e-10,0.0,213,24,327.07526087011405,1415.1751087999999,mp-18093,Al2Mo3C,https://materialsproject.org/materials/mp-18093,57.037262535945565,47.38427543677074,-8.604250342815693,-0.5045126942092143
-7.22706539,-28.90826156,9.845258880415207,-0.7287513558333334,0.000153,2.566874729444084e-05,0.0,225,4,69.4647031173118,411.853,mp-977543,ZrInRh2,https://materialsproject.org/materials/mp-977543,32.03403908717937,56.02220132059797,-8.604250342815693,-0.5045126942092143
-6.8877763695833325,-165.30663287,8.249838381030562,-0.2733677804166668,3.62985035,0.14458696360770992,0.0,191,24,292.5748631693565,1453.56133,mp-3867,Pr2Co7B3,https://materialsproject.org/materials/mp-3867,42.08836864047677,83.69613099681752,-8.604250342815693,-0.5045126942092143
-7.2314156775,-28.92566271,12.734211941259868,-0.8760025249999996,0.0001699,2.4485912907600284e-05,0.0,225,4,80.86386700506901,620.1225,mp-864999,Dy2IrRh,https://materialsproject.org/materials/mp-864999,16.282169647336882,48.83131452070664,-8.604250342815693,-0.5045126942092143
-3.9817154825,-15.92686193,11.310522785579483,-0.7110453324999999,4.1899999999999995e-05,5.941451304859039e-06,0.0,225,4,82.1862014708267,559.799488,mp-864824,LiTbAu2,https://materialsproject.org/materials/mp-864824,-10.23417177438365,60.22582358309153,-8.604250342815693,-0.5045126942092143
-8.0068821975,-32.02752879,13.417020341259782,-0.8385781474999998,3.9200000000000004e-05,5.74711781325826e-06,0.0,225,4,79.49016427511519,642.27406,mp-982069,YTmIr2,https://materialsproject.org/materials/mp-982069,17.2287295030199,49.50895374030392,-8.604250342815693,-0.5045126942092143
-10.0221136725,-80.17690938,14.800722301770229,-0.09868426249999906,7.15e-06,5.58759059754116e-07,0.0,223,8,149.12789630734576,1329.20728,mp-541,Ta3Sb,https://materialsproject.org/materials/mp-541,32.22259973760817,52.9397487231166,-8.604250342815693,-0.5045126942092143
-7.62305029,-15.24610058,15.213740072012875,-0.9074312475,0.0,0.0,0.0,221,2,39.235843988233924,359.476,mp-2713,ErIr,https://materialsproject.org/materials/mp-2713,16.849295773112836,49.07498086062717,-8.604250342815693,-0.5045126942092143
-5.8979763175,-23.59190527,1.121486678441607,3.070716812916665,1.0000001,0.016460013374083763,0.0,71,4,708.022871738091,478.181,mp-1097167,Ti2IrOs,https://materialsproject.org/materials/mp-1097167,-59.72652481176785,35.47256380137536,-8.604250342815693,-0.5045126942092143
-8.91949518,-35.67798072,13.048026949139375,-0.6664614625000009,8.640000000000001e-05,1.4240558836332016e-05,0.0,225,4,70.70728107805849,555.597,mp-865846,LuHfRu2,https://materialsproject.org/materials/mp-865846,39.846266814429455,59.71838747708754,-8.604250342815693,-0.5045126942092143
-7.3871356045454535,-325.03396660000004,4.651573318408546,-1.1103010554857944,5e-08,6.305350615610799e-10,0.0,167,44,924.1408989776506,2588.7432,mp-29784,K2Mo9S11,https://materialsproject.org/materials/mp-29784,67.15450667448516,33.38511724553543,-8.604250342815693,-0.5045126942092143
-8.649290755833333,-103.79148907,10.767331528370473,-1.0737964574999983,0.0,0.0,0.0,62,12,190.9127739901641,1237.924,mp-13472,HfSiRh,https://materialsproject.org/materials/mp-13472,43.06500904116851,57.392203173535954,-8.604250342815693,-0.5045126942092143
-8.665047207272728,-190.63103856,6.216523927052474,-0.2450834501727273,3.1598469,0.1713060737823305,0.0,2,22,214.96646108861026,804.7652700000001,mp-1246617,Mn3Fe3N5,https://materialsproject.org/materials/mp-1246617,1.344929931567615,14.858112564734455,-8.604250342815693,-0.5045126942092143
-5.138717466666667,-61.6646096,4.715701978565588,-1.5098077668750003,2.0,0.22580341010346824,0.0,12,12,103.22310692490903,293.13939500000004,mp-754316,Li3Co(NiO3)2,https://materialsproject.org/materials/mp-754316,-67.0140109331649,-25.55880426497724,-6.180324704150793,-1.4480493723746533
-10.141003504,-101.41003504,8.73756886150545,0.06659176450000075,1.9e-06,1.8681372588969104e-07,0.0,164,10,118.52835203842658,623.6828,mp-1221489,Mo3C2,https://materialsproject.org/materials/mp-1221489,4.404599747455851,22.10250923949281,-8.604250342815693,-0.5045126942092143
-6.3219188975,-25.28767559,11.20659086577661,-0.6872627824999995,7.3199526,1.0315239530945646,0.0,225,4,82.70016559144915,558.124138,mp-867244,LiGdAu2,https://materialsproject.org/materials/mp-867244,-10.12983936852009,60.24408662404097,-8.604250342815693,-0.5045126942092143
-8.493628595833334,-101.92354315,8.279822989611446,-0.8651638441666663,2.5e-08,1.622110349059564e-09,0.0,62,12,179.61269988993448,895.5895199999999,mp-10470,NbSiRh,https://materialsproject.org/materials/mp-10470,49.956037145633324,57.04220151676613,-8.604250342815693,-0.5045126942092143
-6.5055512625,-26.02220505,14.906516868925074,-0.7845898687499995,3.04e-05,4.631974400860968e-06,0.0,225,4,76.48651275360294,686.61288,mp-862835,PaZnPt2,https://materialsproject.org/materials/mp-862835,32.10911406752345,42.03341741026565,-8.604250342815693,-0.5045126942092143
-8.340877195,-33.36350878,15.589299587064593,1.4731641218750011,8.75e-05,1.3755811062835885e-05,0.0,225,4,74.13090096548233,695.948,mp-1183358,BaRe3,https://materialsproject.org/materials/mp-1183358,57.34995665661771,45.8192819860765,-8.604250342815693,-0.5045126942092143
-6.656546678333334,-39.93928007,14.635055102344134,-1.0241002600000009,0.0,0.0,0.0,227,6,120.51500234900028,1062.1513,mp-1061,PrPt2,https://materialsproject.org/materials/mp-1061,24.26322391022957,52.628343328788795,-8.604250342815693,-0.5045126942092143
-7.178853135333332,-107.68279703,7.435037499931632,-0.6711249705833334,0.0442019,0.0016686075888360686,0.0,148,15,308.7195630157326,1382.2869999999998,mp-1104068,Lu(Mo3Se4)2,https://materialsproject.org/materials/mp-1104068,63.019184444490215,33.002167211161535,-8.604250342815693,-0.5045126942092143
-6.776750045,-27.10700018,10.769750800887131,-0.5947788387499999,0.00016659999999999998,2.7496339852179787e-05,0.0,225,4,70.61184148676888,457.96691200000004,mp-862629,ScRh2Pb,https://materialsproject.org/materials/mp-862629,31.17724303628362,56.390530952675505,-8.604250342815693,-0.5045126942092143
-5.287845633382354,-359.57350307,7.3154170479939395,-0.4316051532352941,0.01204975,7.01281443167273e-05,0.0,186,68,2002.456622250241,8821.7169,mp-1210413,Pr23Cd4Rh7,https://materialsproject.org/materials/mp-1210413,-29.16311719076497,67.22356706644267,-8.604250342815693,-0.5045126942092143
-6.70176596,-80.42119152,3.5085860025859703,-2.870447560208333,1.9999999,0.2221149430535821,1.983,12,12,104.93723681657093,221.7239772,mp-755151,Li3Al2VO6,https://materialsproject.org/materials/mp-755151,-27.376591292235066,-51.425419378983634,6.439060870984223,0.29399488322204675
-5.0695609875,-20.27824395,0.8351067537758042,2.732165617499999,1.5921536,0.022479024142133843,0.0,71,4,825.4389098450757,415.124,mp-1093901,ZrSbRu2,https://materialsproject.org/materials/mp-1093901,-63.00651699584119,39.98109242352394,-8.604250342815693,-0.5045126942092143
-8.680125665,-86.80125665,6.11671596692276,-0.14347091195199935,2.1145817000000005,0.2342794421462755,0.0,36,10,105.18836767283621,387.46898,mp-1245907,Mn2FeN2,https://materialsproject.org/materials/mp-1245907,3.6504078491566183,14.688823188008671,-8.604250342815693,-0.5045126942092143
-6.2244050091666665,-74.69286011,9.424200159610834,-0.5127832119444449,0.0,0.0,0.0,191,12,146.07598632492676,829.0376200000002,mp-10129,TmNi4B,https://materialsproject.org/materials/mp-10129,30.410692482699083,85.1398709171183,-8.604250342815693,-0.5045126942092143
-6.498161365,-25.99264546,1.0144718233166858,4.572259258125001,0.4643522,0.0070194167978837,0.0,71,4,770.9459021883621,470.99338,mp-1097592,NbReMo2,https://materialsproject.org/materials/mp-1097592,-59.16985334194916,42.42900684180296,-8.604250342815693,-0.5045126942092143
-4.30377205,-17.215088199999997,0.8324903526272767,1.9885195149999992,1.0,0.010990899676765031,0.0,71,4,1060.337653449481,531.58694,mp-1096070,La2CuOs,https://materialsproject.org/materials/mp-1096070,-69.1894797506433,41.340438568423295,-8.604250342815693,-0.5045126942092143
-4.5008649075,-18.00345963,9.126047424836765,-0.4664018474999994,0.0124514,0.0017213596959956936,0.0,225,4,84.29930272366083,463.295,mp-973286,LiLu2Pd,https://materialsproject.org/materials/mp-973286,8.13129110114097,43.69590417988531,-8.604250342815693,-0.5045126942092143
-6.174171742222222,-222.27018272,8.465176619110126,-0.41473039458333394,6.666666666666667e-08,1.6933642284568568e-09,0.0,74,36,458.8130766243917,2338.9596,mp-680551,NdNi4B,https://materialsproject.org/materials/mp-680551,30.385083546795016,85.04677156177091,-8.604250342815693,-0.5045126942092143
-7.503421142142857,-630.28737594,6.0250864244904845,-2.281609363465136,1.81170825,0.017312858478802515,0.0,14,84,1219.5424181588498,4424.977848,mp-1180022,P2W9O31,https://materialsproject.org/materials/mp-1180022,-18.70894832968379,-0.5440500275343599,-8.604250342815693,-0.5045126942092143