energy_per_atom,energy,density,formation_energy_per_atom,total_magnetization_uB,total_magnetization_T,band_gap,sgr,num_sites,cell_volume,weight,mp_id,formula,URL,tsne_cry_lin1_0,tsne_cry_lin1_1,tsne_cry_lin2_0,tsne_cry_lin2_1
-6.55627437,-91.78784118,5.7418618561113925,-0.36303492778571417,4.2000000000000004e-06,1.2200711839012508e-07,0.4914000000000005,176,14,401.1821006069457,1387.2195385599996,mp-1103603,Na(TeMo)3,https://materialsproject.org/materials/mp-1103603,59.626383194442646,33.0059431439058,-8.604250342815693,-0.5045126942092143
-5.7272196175,-22.90887847,0.6103082762429524,3.4259728925,1.8216598000000002,0.023264829962616786,0.0,71,4,912.5251006296311,335.386045,mp-1097316,Zr2MnTc,https://materialsproject.org/materials/mp-1097316,-62.670884381787424,37.759570722663504,-8.604250342815693,-0.5045126942092143
-9.599682786666667,-57.59809672,7.5809648476598595,-0.7267761016666666,7.1784318,0.7817800626935659,0.0,129,6,107.0095198825678,488.53739,mp-1077133,GdCoSi,https://materialsproject.org/materials/mp-1077133,18.697195073591523,69.75416083652392,-8.604250342815693,-0.5045126942092143
-7.755938695999999,-77.55938696,4.929287541715534,-0.575949339428,0.00010180000000000001,7.73537734862805e-06,0.5414000000000003,12,10,153.3711595927501,455.2802,mp-989530,SrTcN3,https://materialsproject.org/materials/mp-989530,6.7666509904166565,12.144901886787961,-8.604250342815693,-0.5045126942092143
-6.918062685,-27.67225074,11.627038348678493,-0.96861107375,7.1e-06,1.061683860701464e-06,0.0,225,4,77.9364394128627,545.7083200000002,mp-976155,HoLuRh2,https://materialsproject.org/materials/mp-976155,17.497919015298322,51.294537478200176,-8.604250342815693,-0.5045126942092143
-5.5140333388235305,-374.95426704,6.871074117418022,-0.1941312256617644,0.13654705,0.0007986715799541881,0.0,186,68,1992.468750788936,8244.552,mp-1210490,Nd23Mg4Ru7,https://materialsproject.org/materials/mp-1210490,-30.956553377883907,68.21414958340414,-8.604250342815693,-0.5045126942092143
-8.8805855525,-35.52234221,12.232874636725574,-0.5426240574999994,2e-07,2.5773400412381094e-08,0.0,63,4,90.43482494425749,666.21612,mp-12775,ThRu,https://materialsproject.org/materials/mp-12775,19.68816201859233,54.62699209901586,-8.604250342815693,-0.5045126942092143
-7.237460582000001,-108.56190873,7.002976865200207,-0.7125449082500003,0.0019887999999999998,7.25001508796948e-05,0.0,148,15,319.69042461893815,1348.2276499999996,mp-1103960,Pr(Mo3Se4)2,https://materialsproject.org/materials/mp-1103960,63.02236576694663,33.03588224969195,-8.604250342815693,-0.5045126942092143
-9.76147255,-39.0458902,15.223760313169766,-0.6856504262500014,1.53e-05,2.5009771768801804e-06,0.0,225,4,71.29500927417132,653.63,mp-976265,Hf2OsPd,https://materialsproject.org/materials/mp-976265,38.963869339517615,60.28460626673872,-8.604250342815693,-0.5045126942092143
-7.0359855226666665,-105.53978284,6.1385418202346385,-0.7061278859791665,0.0016769999999999999,6.448014388981809e-05,0.0,1,15,303.0989921017954,1120.471,mp-1222388,LiMo6(Se3S)2,https://materialsproject.org/materials/mp-1222388,64.32116651446768,33.31991288981924,-8.604250342815693,-0.5045126942092143
-6.663822061666666,-279.88052659,6.3795616206090955,-0.42686877844827453,0.0,0.0,0.0,148,42,1252.138148374731,4810.541807600001,mp-581150,Cs2Te10Mo9,https://materialsproject.org/materials/mp-581150,58.977241381488504,32.83981301229957,-8.604250342815693,-0.5045126942092143
-6.48039665,-25.9215866,1.1314190619633229,3.5907023012500003,2.3763153999999997,0.03133665456714841,0.0,71,4,883.7488868599157,602.148045,mp-1093615,Hf2MnOs,https://materialsproject.org/materials/mp-1093615,-61.26771749089954,35.30171267972261,-8.604250342815693,-0.5045126942092143
-9.25188405,-111.02260859999998,11.961645548693454,-0.161744889999999,0.001184575,8.52469107505506e-05,0.0,38,12,161.94268691274226,1166.54952,mp-1218063,TaCrNi,https://materialsproject.org/materials/mp-1218063,57.215528729613865,63.247711322765795,-8.604250342815693,-0.5045126942092143
-9.003941445,-36.01576578,13.905780245192569,-0.6703889487500003,6.69e-05,1.194165914852595e-05,0.0,221,4,65.28882825972157,546.74541,mp-1150,URh3,https://materialsproject.org/materials/mp-1150,29.910759131380342,57.63219070260645,-8.604250342815693,-0.5045126942092143
-6.829599816428571,-191.22879486,4.370677297656342,-2.2156009337933327,10.0,0.4253831734586077,0.2951000000000001,1,28,273.96628498032743,721.10212,mp-867698,Li4Ti2Mn3Co3O16,https://materialsproject.org/materials/mp-867698,-68.35002496811232,-30.528616065744988,-4.51242157825351,-1.6343898322304593
-7.308117370588236,-372.71398589999995,6.366726450969268,-2.2338926001764707,0.7830334,0.01206767694151362,0.0,156,51,756.1954141550833,2899.3533,mp-757494,K(WO3)4,https://materialsproject.org/materials/mp-757494,-17.275570309841463,0.6248306988231432,-8.604250342815693,-0.5045126942092143
-4.0698448775,-16.27937951,0.6924786858629638,2.701401669166668,5e-07,7.463330382420686e-09,0.19959999999999975,71,4,780.7549830575614,325.59077,mp-1097412,NbInCo2,https://materialsproject.org/materials/mp-1097412,-59.84328932833744,41.73775780023065,-8.604250342815693,-0.5045126942092143
-8.698875510499999,-173.97751021,13.621225850841755,-0.7568288018333333,1.16999675,0.04977402894505403,0.0,127,20,273.94241931342066,2247.120648,mp-20524,Sc2VB2Ir5,https://materialsproject.org/materials/mp-20524,29.647805066173657,49.795342672850246,-8.604250342815693,-0.5045126942092143
-7.139726298888887,-128.51507338,5.645298843164777,-0.6300890821688875,0.0016262999999999998,6.307587445612497e-05,0.0,15,18,300.47947338086243,1021.5336,mp-1245846,Sr3(MoN2)2,https://materialsproject.org/materials/mp-1245846,-8.304755356925176,33.98332174242343,-8.139285411866696,2.224142031408997
-6.319044014285715,-176.9332324,8.321116198297114,-0.8569504474999994,0.0002322,4.325113106421015e-06,0.0,57,28,625.6654504990756,3135.268,mp-1210029,Nd3(GeRh)2,https://materialsproject.org/materials/mp-1210029,13.314736729769384,64.97509440875443,-8.604250342815693,-0.5045126942092143
-7.363373710263157,-279.80820099,6.396991386991376,-2.0782069299013157,3.933387,0.07912448139597132,0.0,12,38,579.3396185959485,2231.8238,mp-766380,Ge2(WO3)9,https://materialsproject.org/materials/mp-766380,-17.96759391646918,0.4551269589078626,-4.9732919129387065,-0.8904762760398494
-4.901567621,-49.01567621,9.797604601754232,-0.8161392560000003,7.895e-05,4.143382891868678e-06,0.0,127,10,222.06212599835902,1310.2232800000002,mp-1206107,Ho2CdPd2,https://materialsproject.org/materials/mp-1206107,10.9725331338491,46.514159481777035,-8.604250342815693,-0.5045126942092143
-9.405194761666667,-169.29350571,11.892813491604153,-0.3769551180208326,0.0038110999999999996,0.00011599257336038445,0.0,12,18,382.9107758193031,2742.41456,mp-1218083,Ta6TeSe2,https://materialsproject.org/materials/mp-1218083,39.31754142949129,65.78617356087602,-8.604250342815693,-0.5045126942092143
-6.190089965,-49.52071972,13.821447590252006,-1.017473355,2e-07,1.434653975070683e-08,0.0,194,8,162.46516546940197,1352.274,mp-30611,ErSnPt2,https://materialsproject.org/materials/mp-30611,22.63017119715725,52.96692035353029,-8.604250342815693,-0.5045126942092143
-9.6565856375,-38.62634255,12.89528693309832,-0.5529249374999985,6e-06,1.0547564667259766e-06,0.0,225,4,66.2943445631648,514.823545,mp-977572,Hf2MnRh,https://materialsproject.org/materials/mp-977572,39.31300131930197,60.88765493742053,-8.604250342815693,-0.5045126942092143
-7.8125296425,-62.50023714,15.56516335693731,-1.2482976287500005,1.01e-05,6.600671693522285e-07,0.0,189,8,178.32435798672782,1671.53418,mp-1207128,Th3Pt5,https://materialsproject.org/materials/mp-1207128,22.415233175910934,54.64876362507002,-8.604250342815693,-0.5045126942092143
-7.613409685,-15.22681937,15.498678770321355,-0.942407105,0.0,0.0,0.0,221,2,38.693987560837975,361.15121,mp-11483,TmIr,https://materialsproject.org/materials/mp-11483,17.80889276574165,49.820700606943255,-8.604250342815693,-0.5045126942092143
-4.7650955725,-19.06038229,6.758695862009324,0.0,5e-08,4.110640704276019e-09,0.0,194,4,141.75484566720664,576.9680000000001,mp-123,Nd,https://materialsproject.org/materials/mp-123,-53.03326814977597,67.89194710016828,-8.604250342815693,-0.5045126942092143
-7.484294145454545,-329.3089424,8.12400897770976,-0.08669311935727303,37.7523807,0.8425389149571981,0.0,194,44,522.1939096053306,2554.77764,mp-1213248,Dy2Fe17H3,https://materialsproject.org/materials/mp-1213248,61.70739960882978,74.7357805085636,-8.604250342815693,-0.5045126942092143
-6.6677348425,-26.67093937,11.634709772270307,-0.8604493162499995,0.2155368,0.03523548576258107,0.0,225,4,71.2883552960061,499.48800000000006,mp-865378,LuSnRh2,https://materialsproject.org/materials/mp-865378,31.880892965913873,56.397468730377284,-8.604250342815693,-0.5045126942092143
-10.3059567425,-41.22382697,15.340082163976508,0.33671082093750115,8.063793400000002,1.1763861899258792,0.0,221,4,79.88530586376612,737.9815386,mp-31434,Np3Al,https://materialsproject.org/materials/mp-31434,6.985413882085407,73.59732363007754,-5.953682796870973,-3.1108006483415287
-6.3154896175,-25.26195847,12.28441738747045,-0.5597865024999997,2.7000000000000002e-05,4.070042702058506e-06,0.0,225,4,77.3111664651494,571.93635,mp-1187367,TbRh2Pb,https://materialsproject.org/materials/mp-1187367,31.110838806996302,56.37004080779275,-8.604250342815693,-0.5045126942092143
-7.4035465006666685,-222.10639502,6.635625712262304,-0.6340263170000005,9.000000000000001e-07,2.6098074951390934e-08,0.0,139,30,401.8939448537647,1605.99524,mp-1193423,Nb4Si7Ni4,https://materialsproject.org/materials/mp-1193423,47.48688425657932,57.451412647065105,-8.604250342815693,-0.5045126942092143
-10.863322254000002,-108.63322254,12.501987101639745,-0.8669933189520009,1.06e-05,1.0489172380623517e-06,0.0,99,10,117.77200536558395,886.6904400000001,mp-1218049,Ta3Mo3N4,https://materialsproject.org/materials/mp-1218049,28.517398270497075,49.04200158883566,-8.604250342815693,-0.5045126942092143
-7.407264675,-29.6290587,9.852048747879042,-1.0191942462500003,0.0004834,7.85096949149325e-05,0.0,225,4,71.75642342209449,425.733912,mp-973432,LuScRh2,https://materialsproject.org/materials/mp-973432,20.212269434996106,52.067404617323476,-8.604250342815693,-0.5045126942092143
-5.324108375714286,-149.07503452,5.025567523960129,-1.3142057042857158,0.999992,0.046746639950372204,0.0,8,28,249.3007316122348,754.500575,mp-772632,Li4Co5Ni3O16,https://materialsproject.org/materials/mp-772632,-73.12662780406355,-23.20349934433576,-8.604250342815693,-0.5045126942092143
-5.73241121,-22.92964484,12.021737262336726,-0.32632617500000016,1.95e-05,2.787806444912036e-06,0.0,225,4,81.51723139878338,590.1569999999998,mp-861636,Er2ZnOs,https://materialsproject.org/materials/mp-861636,11.534720913112444,45.5694330151604,-8.604250342815693,-0.5045126942092143
-9.046995535,-36.18798214,8.990132489705697,-0.26885514499999985,2.14e-05,3.516665073332401e-06,0.1341000000000001,225,4,70.9186063876274,383.95223,mp-979931,YNbRu2,https://materialsproject.org/materials/mp-979931,40.41827492269693,59.17742229874528,-8.604250342815693,-0.5045126942092143
-4.3715062475,-17.48602499,0.7237458532454952,1.517325715,0.40971,0.004356628264721847,0.0,71,4,1095.982165067802,477.68376900000004,mp-1096657,Y2RhAu,https://materialsproject.org/materials/mp-1096657,-68.45331511954683,39.86827686093514,-8.604250342815693,-0.5045126942092143
-5.795806138125,-185.46579642,4.208129278376683,-1.8604571747474996,22.0000017,0.8986714556280032,0.37280000000000013,2,32,285.29830696475733,723.001465,mp-1175628,Li9Mn2Co5O16,https://materialsproject.org/materials/mp-1175628,-72.55697162057524,-51.65520112149702,3.90765939018988,4.4091379000538184
-6.439457054782609,-148.10751226,3.9698463779978788,-2.1108999356434768,16.999999399999997,0.9317642342799284,0.3155999999999999,5,23,212.62792330098745,508.329025,mp-764759,Li6Mn5O12,https://materialsproject.org/materials/mp-764759,-71.52594914219526,-40.3013571678536,-4.795220253360934,-2.141161372838296
-7.066937949333334,-106.00406924,6.7071427559243775,-0.4757172739166672,0.0,0.0,0.07029999999999959,1,15,313.4366976170618,1266.0133999999996,mp-1220110,Ni(Mo3Se4)2,https://materialsproject.org/materials/mp-1220110,62.95844114779962,33.295017190231924,-8.604250342815693,-0.5045126942092143
-9.16075729625,-293.14423348,14.342665251379735,-0.6168947747656262,0.19903675,0.0041918496525827865,0.0,194,32,553.3564819507707,4779.5364,mp-1212452,Hf9W4O3,https://materialsproject.org/materials/mp-1212452,-5.2697266074957225,21.215419447945266,-8.604250342815693,-0.5045126942092143
-6.1633671525,-24.65346861,1.1098370949354426,3.689061483333334,1.0000004,0.016252076629213262,0.0,71,4,717.0818659098187,479.2685,mp-1093707,TiVOs2,https://materialsproject.org/materials/mp-1093707,-60.13267600223271,35.4511453309274,-8.604250342815693,-0.5045126942092143
-4.9011113239999995,-49.01111324,10.032740594998883,-0.8199431950000005,0.00012705,6.779547192843847e-06,0.0,127,10,218.3993837990549,1319.5379999999998,mp-1205644,Er2CdPd2,https://materialsproject.org/materials/mp-1205644,10.998808395962731,46.545898110959556,-8.604250342815693,-0.5045126942092143
-7.4255704425000015,-415.83194478,4.345248794550318,-2.4040709533418374,1.0000075000000002,0.01293042863536177,0.0466000000000002,62,56,901.29666283251,2358.486096,mp-554866,PWO5,https://materialsproject.org/materials/mp-554866,-19.365475145580014,0.5619811630914495,2.3163175754232017,-0.9734161429748772
-5.536230511666667,-99.65214921,9.48405348664724,-0.29262173083333365,4.270000000000001e-05,1.1447395379779508e-06,0.0,71,18,434.70898774694354,2482.810215,mp-1212429,Ho12Co5Bi,https://materialsproject.org/materials/mp-1212429,-29.608382402609678,70.97247217897268,-8.604250342815693,-0.5045126942092143
-8.9871658325,-35.94866333,8.525086613350128,0.04225266499999947,5.0999999999999995e-06,9.043490651613087e-07,0.0,225,4,65.72211177047313,337.41254,mp-999396,Nb3Ni,https://materialsproject.org/materials/mp-999396,58.46008849663375,58.29310027509307,-8.604250342815693,-0.5045126942092143
-6.372665749166668,-76.47198899,6.582738534781535,-2.4486669386197923,1.7199999999999998e-05,7.491182006093934e-07,0.0,12,12,267.58115598441543,1060.75,mp-1095508,Er5S7,https://materialsproject.org/materials/mp-1095508,47.25307111264174,17.872242668301144,-4.5885435088963265,-1.0659147369670932
-7.766268373815789,-590.23639641,7.9077367933848866,-2.8017526841447364,1.036030075,0.012024298635450105,0.1236000000000006,55,76,1004.1302171898288,4781.8192,mp-21950,Tb4Mo4O11,https://materialsproject.org/materials/mp-21950,-20.91266091123307,-14.609605864022422,-0.2653178918019239,1.1935712242277643
-7.040769901999999,-140.81539804,10.369587686465024,-0.0635967089999994,0.0005322,1.7894988228399254e-05,0.0,198,20,346.59387269745514,2164.378836,mp-1220523,Nb3ZnAu,https://materialsproject.org/materials/mp-1220523,56.424102300348814,47.924494569373074,-8.604250342815693,-0.5045126942092143
-6.4735984816666665,-38.84159089,10.120228585865311,-0.1984542883333328,1.86829565,0.23665098493913184,0.0,227,6,92.00569575060815,560.7327799999999,mp-2628,DyCo2,https://materialsproject.org/materials/mp-2628,42.634993373584855,74.17871677664638,-8.604250342815693,-0.5045126942092143
-7.713917675,-30.8556707,12.44637792078716,-0.7440399999999999,0.0,0.0,0.0,225,4,66.70278576942118,499.963,mp-864921,MgZrIr2,https://materialsproject.org/materials/mp-864921,38.93414078380244,55.41062379004259,-8.604250342815693,-0.5045126942092143
-6.0960166825,-24.38406673,8.443183601667009,-0.2642063274999993,0.0003159,4.818270015232477e-05,0.0,225,4,76.4074875424759,388.501824,mp-862375,Sc2TcHg,https://materialsproject.org/materials/mp-862375,10.796562239312372,35.90265605838985,-8.604250342815693,-0.5045126942092143
-5.8168099775,-46.53447982,10.165860218098407,-0.9387081100000004,3.6000000000000003e-06,2.366380850406569e-07,0.0,62,8,177.29450935172434,1085.40128,mp-1087502,HoPd,https://materialsproject.org/materials/mp-1087502,16.587268623403997,54.05537991309181,-8.604250342815693,-0.5045126942092143
-9.18527942,-36.74111768,13.304041019468789,-0.468861007500001,2.5e-06,4.228588885228069e-07,0.0,225,4,68.90043634456515,552.0220899999998,mp-865262,TmTaRu2,https://materialsproject.org/materials/mp-865262,41.4362411593749,59.87983154995676,-8.604250342815693,-0.5045126942092143
-10.739586176,-107.39586176,12.297702272598126,0.029603381874999,11.00903745,0.6027694231844077,0.0,127,10,212.85093535108535,1576.342,mp-1080146,Pu3Si2,https://materialsproject.org/materials/mp-1080146,7.1758596326019815,73.76030222989715,-8.604250342815693,-0.5045126942092143
-5.886285997857143,-82.40800397,10.776429426236863,-0.9698858,1.105e-05,4.505486835702068e-07,0.0,148,14,285.8235312471352,1854.914,mp-1104774,Er3Pd4,https://materialsproject.org/materials/mp-1104774,17.101494622399215,54.20285305482307,-8.604250342815693,-0.5045126942092143
-8.80018961,-140.80303376,13.644735297744115,-0.2540281537499993,1e-07,4.2984707650777806e-09,0.0,140,16,271.1211826131569,2227.8168,mp-568376,Ta5Ga3,https://materialsproject.org/materials/mp-568376,32.34295328211966,43.82303814951218,-8.604250342815693,-0.5045126942092143
-4.837585664000001,-48.37585664,6.178322043500644,-0.7615819610000003,4.7e-06,2.224517566564012e-07,0.0,127,10,246.22913864256242,916.138,mp-977548,Nd2MgGe2,https://materialsproject.org/materials/mp-977548,-1.2966459273876665,68.44050902999062,-8.604250342815693,-0.5045126942092143
-6.62154629,-52.97237032,13.817314801897359,-1.3094262424999998,2.1525e-05,1.4401750486583884e-06,0.0,62,8,174.1828151119776,1449.3719999999996,mp-1025444,ErPt,https://materialsproject.org/materials/mp-1025444,15.641097706807257,56.57471797661758,-8.604250342815693,-0.5045126942092143
-5.492444982142856,-76.89422975,6.963388593832373,-0.04410270285714241,3.95e-06,1.1736281476216188e-07,0.0,15,14,392.2328886274475,1644.8092800000002,mp-1104821,Pr5Co2,https://materialsproject.org/materials/mp-1104821,-29.0838045506564,66.81499737549997,-8.604250342815693,-0.5045126942092143
-8.711722085,-34.84688834,10.390561210600186,-0.7597338249999996,7.0523144,1.1883046894265847,0.0,225,4,69.16418789335523,432.784,mp-863249,GdGaRh2,https://materialsproject.org/materials/mp-863249,32.69453938922233,57.04410325966302,-8.604250342815693,-0.5045126942092143
-6.264106006875,-100.22569611,8.403597611042638,-0.7727966337499996,0.81333885,0.03383253168482029,0.0,63,16,280.1653665247889,1417.85104,mp-1207965,Tm3Co2Si3,https://materialsproject.org/materials/mp-1207965,20.431949208913675,70.80508742301151,-8.604250342815693,-0.5045126942092143
-5.133708658888889,-92.40675586,12.467564587771067,-0.7070205648148149,0.0006271,1.9567498158590046e-05,0.0,194,18,373.4899556213266,2804.216,mp-1205433,Dy(InPt)4,https://materialsproject.org/materials/mp-1205433,32.44918579484991,41.063290308107455,-8.604250342815693,-0.5045126942092143
-10.050175435,-40.20070174,16.881621253998908,0.461804743750001,0.0002849,4.7610236858678714e-05,0.0,225,4,69.7380074700683,708.9810000000001,mp-978554,SmRe3,https://materialsproject.org/materials/mp-978554,67.82649744354302,42.98038386964893,-8.604250342815693,-0.5045126942092143
-7.8549503656410256,-612.68612852,4.379440809081025,-2.8371327630769234,1.0077711,0.013171544841676808,0.0,2,78,891.6668330469411,2351.64728,mp-686097,Li7Nb8O24,https://materialsproject.org/materials/mp-686097,-41.591745486600935,28.723576289669037,-8.604250342815693,-0.5045126942092143
-6.9901869225,-195.72523383,6.183155748647728,-2.2129067758392864,1.9999958999999998,0.0585187323301942,1.1264999999999998,1,28,398.3012077557845,1483.1078,mp-1178148,KLi(WO3)3,https://materialsproject.org/materials/mp-1178148,-17.68360723445178,2.059032592934813,-8.139285405782728,2.2241420301209627
-7.043728952222222,-126.78712114,6.309577036317693,-2.200142745871648,1.0,0.04031922610511704,0.0,227,18,289.04485275030214,1098.2884,mp-752845,Rb(WO3)2,https://materialsproject.org/materials/mp-752845,-16.713127345757893,0.7765013445782063,-4.335001074669585,-0.6355125216213681