energy_per_atom,energy,density,formation_energy_per_atom,total_magnetization_uB,total_magnetization_T,band_gap,sgr,num_sites,cell_volume,weight,mp_id,formula,URL,tsne_cry_lin1_0,tsne_cry_lin1_1,tsne_cry_lin2_0,tsne_cry_lin2_1
-5.78907203,-69.46886436,10.020629977083608,-0.8134481949999994,5.75e-07,3.300529752685888e-08,0.0,62,12,203.0306570867493,1225.2016,mp-19922,LuNiGe,https://materialsproject.org/materials/mp-19922,17.583047767398504,75.99328688503974,-8.604250342815693,-0.5045126942092143
-9.918767415,-39.67506966,11.138066443604584,-0.2851796987499995,0.0009664999999999999,0.00021769409220188767,0.0,225,4,51.74074082007297,347.05104500000004,mp-865462,MnV2Os,https://materialsproject.org/materials/mp-865462,56.528587614521705,55.67561982985146,-8.604250342815693,-0.5045126942092143
-3.2098743,-12.8394972,7.15282295097543,-0.33564266750000016,4e-07,7.782123632393932e-08,0.0,225,4,59.9017200089106,258.0285,mp-1185619,MgZn2Rh,https://materialsproject.org/materials/mp-1185619,37.97186765199297,54.884307153217144,-8.604250342815693,-0.5045126942092143
-6.462537863333334,-38.77522718,7.698467986786441,-0.7416124650000006,0.27637935,0.030357914193143706,0.0,129,6,106.09895087671707,491.88809,mp-21203,TbCoSi,https://materialsproject.org/materials/mp-21203,18.82551201574682,69.83911017347062,-8.604250342815693,-0.5045126942092143
-7.340318325,-58.7225466,6.604945488039512,-0.1980455224999993,2.446608475,0.2233983010209774,0.0,62,8,127.6327237514044,507.6708,mp-20717,CrAs,https://materialsproject.org/materials/mp-20717,45.28578465834031,64.44271639072751,-8.604250342815693,-0.5045126942092143
-8.650889659166667,-103.81067591,8.939234165770443,-0.31774886250000023,1.75e-06,9.430729694445161e-08,0.0,194,12,216.2570025094897,1164.1834,mp-568186,YRu2,https://materialsproject.org/materials/mp-568186,30.68060798792314,63.5029146913421,-8.604250342815693,-0.5045126942092143
-5.039553739166666,-60.47464487,7.705894202276482,-0.08721637333333318,0.87012225,0.04216404324941367,0.0,63,12,240.5002053897284,1116.0647800000004,mp-1095471,SmGaCo,https://materialsproject.org/materials/mp-1095471,24.86420417405528,70.67032803790573,-8.604250342815693,-0.5045126942092143
-8.07329806,-48.43978836,10.256384616139394,-0.27718170000000103,0.00044249999999999997,4.95846381354391e-05,0.0,166,6,104.00244623691044,642.3751950000002,mp-1226767,Ce2CoRu3,https://materialsproject.org/materials/mp-1226767,29.618950568925186,64.66960281232963,-8.604250342815693,-0.5045126942092143
-8.204723912,-164.09447824,8.76915261755182,-0.6598191360000001,1.12412845,0.049937347186704346,0.0,57,20,262.34204472249456,1385.404,mp-504741,Hf(FeSi)2,https://materialsproject.org/materials/mp-504741,48.701544001591024,62.30738026247132,-8.604250342815693,-0.5045126942092143
-8.107069885,-113.49897839,6.903404718192537,-0.5017156321428585,3.65209295,0.23861242536916946,0.0,136,14,178.3717999130145,741.55,mp-19792,Zr(Fe2Si)2,https://materialsproject.org/materials/mp-19792,49.30862918918678,64.37993741566633,-8.604250342815693,-0.5045126942092143
-5.345172705238095,-112.24862681,9.451989304989644,-0.9586952154761906,1.1900000000000001e-05,3.8700066658135756e-07,0.0,174,21,358.35434604944146,2039.796334,mp-1207584,Yb5P7Pd9,https://materialsproject.org/materials/mp-1207584,26.88809866080253,50.73263387950113,-8.604250342815693,-0.5045126942092143
-7.6237179775,-30.49487191,9.953596780967368,0.5170702556249989,0.00029089999999999997,4.5415661912743655e-05,0.0,191,4,74.64754006780935,447.452,mp-1064690,NdRu3,https://materialsproject.org/materials/mp-1064690,30.762320164854604,63.01388970660747,-8.604250342815693,-0.5045126942092143
-4.49318854,-17.97275416,8.69180911405222,-0.3750494050000004,8.88e-05,1.6462738334190146e-05,0.0,225,4,62.86201789735304,329.04053860000005,mp-1185509,LuAlCu2,https://materialsproject.org/materials/mp-1185509,32.980186956214034,67.61979524393448,-8.604250342815693,-0.5045126942092143
-2.880510079375,-46.08816127,8.786075030764545,0.04361690062500001,0.00070745,1.886649385110125e-05,0.0,62,16,437.000546493492,2312.2127800000003,mp-1105958,Yb3Co,https://materialsproject.org/materials/mp-1105958,-28.11514921261965,70.25879479418808,-8.604250342815693,-0.5045126942092143
-9.4923191875,-151.877107,13.85914370069736,-0.3491286481249993,1.5e-07,6.497974178439049e-09,0.0,140,16,269.0238015540848,2245.3188,mp-17615,Ta5Ge3,https://materialsproject.org/materials/mp-17615,41.89689462086057,65.36414450402096,-8.604250342815693,-0.5045126942092143
-9.294321513333333,-111.53185816,11.31387507308197,-0.3363583299999995,3.06951785,0.20998216616925328,0.0,194,12,170.35903808895057,1160.72,mp-956096,HfFe2,https://materialsproject.org/materials/mp-956096,51.19127673100228,62.71837548329285,-8.604250342815693,-0.5045126942092143
-7.187346923333332,-43.12408154,11.469278465624653,-0.7633677149999999,1e-07,1.0855840322644036e-08,0.0,227,6,107.35294943727804,741.4826400000001,mp-546,HoRh2,https://materialsproject.org/materials/mp-546,30.627142968387517,65.68290114112247,-8.604250342815693,-0.5045126942092143
-7.098400127857143,-99.37760179,6.8462772679078805,-0.41205613071428665,0.0,0.0,0.0,148,14,183.54669858014228,756.7492,mp-567653,Ti3Ni4,https://materialsproject.org/materials/mp-567653,32.60001298915464,71.67033838658388,-8.604250342815693,-0.5045126942092143
-9.373226115,-37.49290446,8.590481960380657,0.17080656000000086,0.126804,0.029740426310763176,0.0,65,4,49.68933578752516,257.0583,mp-1226223,Cr3Ru,https://materialsproject.org/materials/mp-1226223,54.940332446268386,64.89367683828975,-8.604250342815693,-0.5045126942092143
-8.264955146206898,-239.68369924,7.508579577096473,-0.17366998862069027,48.5925596,1.89778521409242,0.0,225,29,298.400911145095,1349.3010000000002,mp-542758,Fe23B6,https://materialsproject.org/materials/mp-542758,41.61655929449169,88.2186108515205,-8.604250342815693,-0.5045126942092143
-5.58012079,-44.64096632,9.021131648607627,-0.2897515731249998,0.9059130999999999,0.11598158808727728,0.0,123,8,91.02798228427145,494.5234,mp-1224860,GaNi6Ge,https://materialsproject.org/materials/mp-1224860,35.015557193897926,79.26958849596323,-8.604250342815693,-0.5045126942092143
-5.234021040833333,-565.27427241,8.819943123236834,-0.6047341426851851,8.2525e-05,5.767321756838136e-07,0.0,116,108,1667.5880693064667,8857.384,mp-30665,Ga17Rh10,https://materialsproject.org/materials/mp-30665,36.296093110542,52.90295584244127,-8.604250342815693,-0.5045126942092143
-7.1458294979999994,-285.83317992,7.234547871150454,-0.030005601750001176,26.31212055,0.4127382721800143,0.0,140,40,742.9482019524414,3236.8370772,mp-1210208,Nd6AlFe13,https://materialsproject.org/materials/mp-1210208,53.73637821501276,81.37533715990905,-8.604250342815693,-0.5045126942092143
-9.0027696625,-72.0221573,8.619543327304141,0.061492712499999776,0.00185,0.00021613877054784054,0.0,223,8,99.75082107938287,517.7876,mp-958,Cr3Rh,https://materialsproject.org/materials/mp-958,55.98287022809253,57.48000417987035,-8.604250342815693,-0.5045126942092143
-8.52606015724138,-247.25574456,7.873951000926804,-0.2637431065517247,34.057559399999995,1.2886572609825857,0.0,225,29,308.001991887479,1460.48514,mp-21666,Nb3(Fe10B3)2,https://materialsproject.org/materials/mp-21666,41.66663694396948,88.18989116568201,-8.604250342815693,-0.5045126942092143
-7.555386772142858,-211.55082962,6.705872060224339,-0.4316850351785725,10.3469035,0.33532950778551285,0.0,140,28,359.5969957453118,1452.18594,mp-1211378,LaFe8Si5,https://materialsproject.org/materials/mp-1211378,47.69772752192667,67.6741849801703,-8.604250342815693,-0.5045126942092143
-5.982264134166668,-71.78716961,7.217582395595447,-0.38479055083333336,0.000137475,7.702227283009848e-06,0.0,38,12,208.01029309298238,904.1229344,mp-1226824,CeAlCo,https://materialsproject.org/materials/mp-1226824,24.327299079288444,72.29804320060178,-8.604250342815693,-0.5045126942092143
-7.68694357125,-61.49554857,5.315342742328257,-0.2730693070833325,4.275e-05,3.698050420432991e-06,0.0,63,8,134.7226815173042,431.2438372,mp-1217093,Ti2NbAl,https://materialsproject.org/materials/mp-1217093,35.588862284025424,59.96127956522962,-8.604250342815693,-0.5045126942092143
-11.45084953,-45.80339812,16.09145765538938,-0.30977226374999844,1.8e-05,3.364896249040157e-06,0.0,225,4,62.34164455023322,604.12186,mp-867774,Ta2CrOs,https://materialsproject.org/materials/mp-867774,58.15389712588136,59.107086910827825,-8.604250342815693,-0.5045126942092143
-2.9548658816494844,-286.62199052,2.1308927782614733,-0.0663521532474225,0.9826848,0.005518162113947589,0.10050000000000026,221,97,2075.3780105994615,2663.2364,mp-1194936,Mg64Si32Bi,https://materialsproject.org/materials/mp-1194936,-13.79358859170574,97.30294889455523,-8.604250342815693,-0.5045126942092143
-1.4551053391666666,-17.46126407,4.022991977750669,-0.016524446666666453,3.3333333333333334e-08,1.7484160230830873e-09,0.0,38,12,222.1832908319951,538.2840000000001,mp-1094474,MgZn,https://materialsproject.org/materials/mp-1094474,1.9441164170729333,98.85909627069036,-8.604250342815693,-0.5045126942092143
-5.643020052222222,-50.78718047,10.05560900694957,-0.7542842350000001,1.0333333333333331e-06,6.314150239542204e-08,0.0,189,9,190.7229499053669,1154.9474999999998,mp-3141,ErInRh,https://materialsproject.org/materials/mp-3141,7.430787090866534,55.20943819256874,-8.604250342815693,-0.5045126942092143
-3.8744215716666655,-23.24652943,11.749438951422427,-0.3411501433333329,1e-07,1.3210774015469985e-08,0.0,216,6,88.21636611838665,624.1905690000001,mp-1077165,YbCu4Au,https://materialsproject.org/materials/mp-1077165,4.7229213875405405,45.07228989299963,-8.604250342815693,-0.5045126942092143
-9.7866367475,-39.14654699,7.9547413883573475,-0.2482388975000003,6.409999999999999e-05,1.4207586173280753e-05,0.0,225,4,52.579343374031886,251.8791,mp-865495,V2CrTc,https://materialsproject.org/materials/mp-865495,56.68258599440728,55.73377878705296,-8.604250342815693,-0.5045126942092143
-5.0252883375,-20.10115335,9.152469330434037,-0.3779466124999997,5.96e-05,8.69677083484556e-06,0.0,221,4,79.8666854209333,440.20488,mp-861982,PaGa3,https://materialsproject.org/materials/mp-861982,39.055545166759856,47.33642966489194,-8.604250342815693,-0.5045126942092143
-6.850116786666668,-41.10070072,4.415787888031546,-0.2584273033333335,9.35e-06,9.73383208978994e-07,0.0,140,6,111.94512563836989,297.690038,mp-30562,Sc2Co,https://materialsproject.org/materials/mp-30562,5.5068857270837475,56.75728307455732,-8.604250342815693,-0.5045126942092143
-4.09167239,-49.10006868,2.303884349552181,0.05998404000000039,6.4275e-05,3.228529236821973e-06,0.0,166,12,232.0143193108024,321.904,mp-1073501,MgSi2,https://materialsproject.org/materials/mp-1073501,-13.99906343259903,87.53382165332813,-8.604250342815693,-0.5045126942092143
-10.5133428575,-42.05337143,15.058972866829883,-0.44224390624999893,0.5661579999999999,0.09937063282818054,0.0,225,4,66.39830919574975,602.148045,mp-1184587,Hf2MnOs,https://materialsproject.org/materials/mp-1184587,39.56563116051847,60.86571843125734,-8.604250342815693,-0.5045126942092143
-6.4939615025,-25.97584601,8.317100283633646,-0.3044510850000002,4.1527375,0.8476722140540272,0.0,225,4,57.09314403144165,285.961,mp-865187,MgFeRh2,https://materialsproject.org/materials/mp-865187,38.351966533793814,54.51627983494738,-8.604250342815693,-0.5045126942092143
-6.380052891818182,-70.18058181,9.08973466394247,-0.5366593045454547,0.0,0.0,0.0,187,11,171.98213448516015,941.4244,mp-16043,Mg(As2Rh3)2,https://materialsproject.org/materials/mp-16043,33.37181686302514,51.07626040281328,-8.604250342815693,-0.5045126942092143
-7.0718848425,-28.28753937,8.723395307961347,-0.3776578212500006,2.0337747999999998,0.3798457628397599,0.0,225,4,62.3983352474524,327.80039,mp-22503,ZrCo2Sn,https://materialsproject.org/materials/mp-22503,44.64984349667636,45.447946221247356,-8.604250342815693,-0.5045126942092143
-8.0162688835,-160.32537767,8.797073371929141,-0.5069817950000001,2.03892645,0.08028063456557707,0.0,15,20,295.98396977511965,1568.04064,mp-1105639,U2Fe3Si5,https://materialsproject.org/materials/mp-1105639,22.712851358017268,64.43957819549256,-8.604250342815693,-0.5045126942092143
-7.118804677777778,-64.0692421,4.764735598951685,-0.5400823714814812,7.1e-06,6.591700367070549e-07,0.0,21,9,125.5273378300513,360.18699999999995,mp-1217079,Ti2Si6Mo,https://materialsproject.org/materials/mp-1217079,49.628661887772616,54.93240545414418,-8.604250342815693,-0.5045126942092143
-7.284348055555557,-65.55913249999999,11.040228114852024,-0.25980819055555554,0.15893046666666666,0.01152603229043278,0.0,189,9,160.69588442884069,1068.399585,mp-1080733,HfCoSn,https://materialsproject.org/materials/mp-1080733,44.88033231462892,42.53811726234785,-8.604250342815693,-0.5045126942092143
-5.541663689166668,-66.49996427,8.232896900561034,-0.3998274508333341,0.191296475,0.01091463818601184,0.0,38,12,204.25610747862567,1012.6949344000001,mp-1225728,ErAlCo,https://materialsproject.org/materials/mp-1225728,23.63730337418957,71.90524391904825,-8.604250342815693,-0.5045126942092143
-7.625592075,-30.5023683,7.348172480233959,-0.3050896487500001,4.0000003,1.042117302098703,0.0,225,4,44.732260459142616,197.94799,mp-1008224,CrCo2Si,https://materialsproject.org/materials/mp-1008224,47.13063541666626,48.64356402312737,-8.604250342815693,-0.5045126942092143
-6.001015161034482,-174.02943967,9.86315482036844,-0.8309781372413787,1.21e-05,3.008125178768693e-07,0.0,225,29,468.77764510349664,2784.413,mp-1213199,Dy3(Si3Pd10)2,https://materialsproject.org/materials/mp-1213199,28.26114423366919,54.45325961968822,-8.604250342815693,-0.5045126942092143
-1.4449920025,-5.77996801,4.0017895676072595,-0.006411109999999942,6.15e-06,9.626479365303268e-07,0.0,59,4,74.45348982886868,179.428,mp-1094956,MgZn,https://materialsproject.org/materials/mp-1094956,1.9839896515083009,98.88958409847037,-8.604250342815693,-0.5045126942092143
-8.7440744625,-34.97629785,8.956131567174712,-0.6457543149999996,0.0002692,5.2544871269545724e-05,0.0,225,4,59.7065738477009,322.0279186,mp-11537,NbAlRu2,https://materialsproject.org/materials/mp-11537,43.56593665547404,53.67674604999838,-8.604250342815693,-0.5045126942092143
-8.3699113475,-33.47964539,7.898285048283519,-0.2444153458333353,0.0002188,3.956391781121669e-05,0.0,225,4,64.45037582989673,306.55553860000003,mp-1187418,Ti2AlW,https://materialsproject.org/materials/mp-1187418,36.80137851181304,59.068920614697454,-8.604250342815693,-0.5045126942092143
-3.050239536666667,-128.11006054,0.6667622229275514,-0.12104061444952392,0.08052223333333333,0.0023323460027816914,0.0,1,42,402.3465308228831,161.555652,mp-1238195,Li2BeH4,https://materialsproject.org/materials/mp-1238195,25.806298427833624,80.79651512284826,-8.139285405080694,2.2241420299723345
-8.645941134166668,-103.75129361,14.709144792481474,-0.8323408324999994,7.625e-06,4.4386596242743853e-07,0.0,62,12,200.20062679461373,1773.388,mp-1102841,HfGeIr,https://materialsproject.org/materials/mp-1102841,44.28334661072116,57.3237928817325,-8.604250342815693,-0.5045126942092143
-5.8890313138095225,-123.66965759,7.209872687987282,-0.027204716666666344,0.00017519999999999998,6.7951499604360165e-06,0.0,12,21,300.4778643651074,1304.6409,mp-18654,Cr3Ga4,https://materialsproject.org/materials/mp-18654,45.79035028791357,65.48921318681099,-8.604250342815693,-0.5045126942092143
-5.7105011449999985,-34.26300687,9.161376500266275,-0.717479655,3.645e-05,3.955288201610634e-06,0.0,12,6,107.39815641925202,592.5274400000001,mp-1223980,HoNiGe,https://materialsproject.org/materials/mp-1223980,17.72260478495012,76.14802352672335,-8.604250342815693,-0.5045126942092143
-9.301443303333334,-223.23463928,11.359805391873847,-0.34348012,2.917243625,0.10018771335384044,0.0,194,24,339.34047424572367,2321.44,mp-1191401,HfFe2,https://materialsproject.org/materials/mp-1191401,51.209936851456355,62.71903123617528,-8.604250342815693,-0.5045126942092143
-7.495009241666667,-89.94011090000001,8.65039616158481,-0.4703475733333337,0.983423225,0.06524517331894428,0.0,62,12,175.65863312162918,915.0744,mp-20395,VAsRh,https://materialsproject.org/materials/mp-20395,53.553332396402396,51.967650265022755,-8.604250342815693,-0.5045126942092143
-6.6284424725,-26.51376989,8.401388345169304,-0.02494877750000057,0.0080556,0.002092232378510916,0.0,166,4,44.87096421318578,227.0217,mp-1216317,VNi3,https://materialsproject.org/materials/mp-1216317,37.04123905351618,80.67526880118162,-8.604250342815693,-0.5045126942092143
-6.8277562825,-27.31102513,8.616941993892732,-0.2252796349999997,4.1009485,1.0225980218083597,0.0,225,4,46.736565521039246,242.52743500000003,mp-21171,MnGaCo2,https://materialsproject.org/materials/mp-21171,44.567189579412315,46.89287066860341,-8.604250342815693,-0.5045126942092143
-9.354819725,-18.70963945,8.419439020739794,-0.7732464883333349,0.0,0.0,0.0,221,2,29.374368338705413,148.93699999999995,mp-592,TiRu,https://materialsproject.org/materials/mp-592,62.9701447733416,55.771102175752276,-8.604250342815693,-0.5045126942092143
-7.66999612875,-61.35996903,10.87063929622171,-0.04483497125000113,3.53958825,0.3703696311872832,0.0,194,8,111.37681726618727,729.123,mp-1184368,FeRh3,https://materialsproject.org/materials/mp-1184368,49.94053777311759,77.47967003581219,-8.604250342815693,-0.5045126942092143
-8.37739847,-67.01918776,17.86985887034473,-0.3731990112499979,7.655e-05,7.937769379891816e-06,0.0,140,8,112.38908761942429,1209.4730000000004,mp-1841,SiIr3,https://materialsproject.org/materials/mp-1841,65.09694377872792,49.37681187186315,-8.604250342815693,-0.5045126942092143
-7.649944271904763,-160.64882971,13.721959983159019,-0.5909408097619042,0.0009988,3.694474760609726e-05,0.0,147,21,315.0672463360278,2603.5763340000008,mp-1227422,Ca2P7Ir12,https://materialsproject.org/materials/mp-1227422,40.15276467557445,52.16736706655218,-8.604250342815693,-0.5045126942092143
-6.380538658333332,-38.28323195,8.124937203924171,-0.6986245322222224,2.7000000000000004e-06,2.605330640522624e-07,0.0,129,6,120.77536108660343,590.9480000000002,mp-19959,LuTiGe,https://materialsproject.org/materials/mp-19959,4.617889089744119,77.50143994205636,-8.604250342815693,-0.5045126942092143
-5.807798453125,-92.92477525,10.025338475729626,-0.9116799518750004,9.75e-07,3.82836537953426e-08,0.0,62,16,296.8032574421628,1791.92,mp-1106158,DyGePd2,https://materialsproject.org/materials/mp-1106158,27.709980558800307,53.633183720819034,-8.604250342815693,-0.5045126942092143
-1.4028017341666663,-16.83362081,4.91872183650697,-0.019472197499999844,2.365e-05,1.3157566044274085e-06,0.0,12,12,209.47539305035875,620.4920000000002,mp-1094504,MgZn2,https://materialsproject.org/materials/mp-1094504,2.441511486846492,98.43942890463379,-8.604250342815693,-0.5045126942092143
-5.092819568,-25.46409784,5.9971109881704825,-0.7727008800000007,0.0,0.0,0.0,164,5,81.34597222722479,293.78461580000004,mp-10901,Al3Pd2,https://materialsproject.org/materials/mp-10901,7.657944591884768,83.36278406593726,-8.604250342815693,-0.5045126942092143
-5.132106143333334,-61.58527372,8.866439303421965,-0.6867348591666662,5e-08,2.440845454613985e-09,0.0,62,12,238.730083269503,1274.698,mp-13376,SmZnRh,https://materialsproject.org/materials/mp-13376,17.060659158681368,58.993924075281704,-8.604250342815693,-0.5045126942092143
-8.511162305,-34.04464922,10.167385336599416,-0.3307276924999982,1.5680459,0.2886918982817081,0.0,225,4,63.299692834173754,387.58039,mp-1184647,HfZrCo2,https://materialsproject.org/materials/mp-1184647,31.0374515772209,59.172891021167544,-8.604250342815693,-0.5045126942092143
-6.69773607,-20.09320821,9.01441527607851,-0.05837898666666656,0.0,0.0,0.0,216,3,58.020753573106916,314.97191860000004,mp-961680,NbAlPt,https://materialsproject.org/materials/mp-961680,30.234494747917942,53.22233149452219,-8.604250342815693,-0.5045126942092143