energy_per_atom,energy,density,formation_energy_per_atom,total_magnetization_uB,total_magnetization_T,band_gap,sgr,num_sites,cell_volume,weight,mp_id,formula,URL,tsne_cry_lin1_0,tsne_cry_lin1_1,tsne_cry_lin2_0,tsne_cry_lin2_1
-5.93348932,-23.73395728,9.005212712600374,-0.7020704474999997,1.8100000000000003e-05,2.9403912660487837e-06,0.0,225,4,71.73826654259648,389.04135,mp-977396,TbMgRh2,https://materialsproject.org/materials/mp-977396,38.481142782027135,55.91443075702547,-8.604250342815693,-0.5045126942092143
-8.317720389444442,-299.43793402,7.804148539087204,0.3599950340811107,3.4675e-05,1.005255146657444e-06,0.0,62,36,401.9921681895276,1889.27,mp-1246213,Ru4CN4,https://materialsproject.org/materials/mp-1246213,5.617041786739577,20.50676977722956,-8.604250342815693,-0.5045126942092143
-5.8751201392857135,-82.25168195,10.425254690349497,-0.9424202107142868,8.5e-07,3.405238614281804e-08,0.0,148,14,290.9034043937328,1826.36,mp-1104399,Dy3Pd4,https://materialsproject.org/materials/mp-1104399,16.790961787667243,53.980283920491686,-8.604250342815693,-0.5045126942092143
-8.2193070475,-32.87722819,12.086120288779412,-0.3343672212499991,1.92e-05,3.129596664155752e-06,0.0,225,4,71.49740610217181,520.389,mp-1184568,Hf2ZnTc,https://materialsproject.org/materials/mp-1184568,57.113912082713654,46.030186870028814,-8.604250342815693,-0.5045126942092143
-9.97586974566667,-299.27609237,10.309076020777836,-0.12956937150000086,0.00013082,2.567450596128819e-06,0.0,136,30,593.8126933562093,3686.55,mp-1193848,Zr2Re,https://materialsproject.org/materials/mp-1193848,27.10638591979155,60.44563586291515,-8.604250342815693,-0.5045126942092143
-4.0611938075,-16.24477523,0.7816422733585473,2.415197454166667,5.6703002,0.08262423281400663,0.0,71,4,799.7901288767647,376.4740000000001,mp-1096551,InFeRh2,https://materialsproject.org/materials/mp-1096551,9.396614276400213,26.711437583212323,-8.604250342815693,-0.5045126942092143
-6.997757203571429,-97.96860085,5.447765372719526,-0.7190547081411641,0.0,0.0,0.09289999999999933,176,14,400.8908060780435,1315.2109038,mp-1104663,Cs(MoSe)3,https://materialsproject.org/materials/mp-1104663,64.05347406391623,31.87001737339435,-8.604250342815693,-0.5045126942092143
-5.475556777777778,-49.280011,10.656995599095634,-0.9509625080555552,1.5e-06,8.234543858161577e-08,0.0,189,9,212.28980572510207,1362.432,mp-672307,NdInPt,https://materialsproject.org/materials/mp-672307,9.890436108103144,54.29588448929676,-8.604250342815693,-0.5045126942092143
-4.328145068888889,-38.95330562,10.102891011439064,-0.7312865558333334,4e-07,2.0731111874948332e-08,0.0,189,9,224.8613551045001,1368.079707,mp-621362,NdInAu,https://materialsproject.org/materials/mp-621362,-13.151353187037977,54.69762673034804,-8.604250342815693,-0.5045126942092143
-6.0098802225,-24.03952089,10.799579802434733,-0.15634880499999948,1e-06,1.5176587043206612e-07,0.0,225,4,76.78976003881134,499.41442,mp-977593,Tm2CuTc,https://materialsproject.org/materials/mp-977593,-10.145184193971788,55.51163972938731,-8.604250342815693,-0.5045126942092143
-5.669077734423077,-294.79204219,4.6790720135529975,-1.552706690096154,32.0,0.7535898824523013,0.1903999999999999,2,52,494.871390136418,1394.450125,mp-758799,Li9Co15O28,https://materialsproject.org/materials/mp-758799,-75.80936267543062,-26.10290441897432,-1.142195900811374,0.270852755091296
-5.961567915625,-95.38508665,3.8256573966785683,-1.9900693319950005,8.0009223,0.6480052220120125,0.0,10,16,143.8927705472854,331.5094850000001,mp-1174343,Li5Mn2CoO8,https://materialsproject.org/materials/mp-1174343,-79.78345052671253,-46.36311330527997,-5.546625370014543,-1.9092159079385382
-6.463741398000001,-64.63741398,8.105887815800074,-0.555535230666667,0.0,0.0,0.0,15,10,122.06714394933547,595.8683000000002,mp-30333,Tb(NiB)2,https://materialsproject.org/materials/mp-30333,-25.107838859273397,46.48299390963875,-8.604250342815693,-0.5045126942092143
-6.588329118,-65.88329118,7.519647617767358,0.2565159470479997,0.31649715,0.039878193099408016,0.0,59,10,92.49361617854484,418.85158,mp-1246956,Co2CuN2,https://materialsproject.org/materials/mp-1246956,2.7064195499147874,16.638125324071158,-8.604250342815693,-0.5045126942092143
-8.624855024166667,-103.49826029,11.452940273174551,-0.09855876416666713,2.00470235,0.15716981113433096,0.0,164,12,148.64770064929738,1025.2413199999999,mp-1218042,TaCo4Mo,https://materialsproject.org/materials/mp-1218042,59.880288735468206,63.98046417521349,-8.604250342815693,-0.5045126942092143
-6.579346105,-26.31738442,1.060918917862171,4.580043253750001,7.635745699999999,0.10990201956606917,0.0,71,4,809.698268748356,517.31648,mp-1097435,NbCrRe2,https://materialsproject.org/materials/mp-1097435,-59.236842740814296,42.502605351511264,-8.604250342815693,-0.5045126942092143
-4.810779073833333,-577.29348886,5.7368910753303135,-1.6999601831666666,0.0022597375,6.6665182924483476e-06,0.6809999999999999,88,120,3950.356998767081,13647.838,mp-1197952,Tb5IrBr9,https://materialsproject.org/materials/mp-1197952,-33.05338315410793,37.47877578356653,-5.182399179990519,-3.3841125817084
-5.853034789482759,-339.47601779,4.809575895410124,-1.343262461318966,16.01165615,0.2864949680938659,0.0,194,58,651.3234041406155,1886.48942856,mp-775864,NaCo11O17,https://materialsproject.org/materials/mp-775864,-72.35235187919292,-20.63583100425823,-8.604250342815693,-0.5045126942092143
-5.0850533771428585,-106.78612092,14.21731598308245,-0.4446404328571432,9.913333333333334e-05,2.931385673649773e-06,0.0,1,21,394.11609948546385,3374.37,mp-1224298,In3Pt4,https://materialsproject.org/materials/mp-1224298,33.800681003246694,40.90623392831707,-8.604250342815693,-0.5045126942092143
-8.767006545,-35.06802618,15.347250138127851,-0.909510352499999,0.5751456,0.10501570119137603,0.0,225,4,63.826494514737846,589.9055386,mp-982870,HfAlIr2,https://materialsproject.org/materials/mp-982870,40.74883245889409,51.38793145749146,-8.604250342815693,-0.5045126942092143
-8.452681965,-50.71609179,8.409620205008705,-0.2381202983333341,7.2999999999999996e-06,9.46536076473299e-07,0.0,166,6,89.88001086727269,455.187585,mp-1215528,Zr2Co3Mo,https://materialsproject.org/materials/mp-1215528,61.755935324532786,64.31625916072228,-8.604250342815693,-0.5045126942092143
-8.609212755833333,-103.31055307,8.335318373121014,-0.0998462524999996,0.000290875,2.0894305934379786e-05,0.0,38,12,162.23922926008999,814.38352,mp-1220594,NbCrNi,https://materialsproject.org/materials/mp-1220594,54.00554642088457,59.185978724674385,-8.604250342815693,-0.5045126942092143
-4.75765111,-14.27295333,6.728802412231968,0.0074444624999999345,0.0001302,1.4209019383311958e-05,0.0,166,3,106.78845544889342,432.726,mp-974788,Nd,https://materialsproject.org/materials/mp-974788,-53.055077062668154,67.8777911699036,-8.604250342815693,-0.5045126942092143
-7.62141299,-91.45695588,5.728228059727659,-0.8106000372222214,0.0,0.0,0.0,62,12,156.40645599273276,539.54278,mp-21306,TiCoSi,https://materialsproject.org/materials/mp-21306,46.63968006649349,51.09721998241001,-8.604250342815693,-0.5045126942092143
-3.4915749125,-13.96629965,0.4500151941469449,3.0650077854166664,11.0399196,0.1613632950069721,0.0,71,4,797.3308805865187,216.081045,mp-1096005,Ti2MnZn,https://materialsproject.org/materials/mp-1096005,-65.10745550278486,40.84688611883626,-8.604250342815693,-0.5045126942092143
-5.3190982175,-21.27639287,10.157265379319213,-0.40068113375,2.52e-05,3.5856719345879614e-06,0.0,225,4,81.90443454561381,500.997,mp-862895,Er2ZnRu,https://materialsproject.org/materials/mp-862895,11.558827410704046,46.106575338583056,-8.604250342815693,-0.5045126942092143
-5.549100277999999,-55.49100278,9.812145579994995,-0.6089537190000002,1e-06,6.034194334032514e-08,0.0,127,10,193.13373297958648,1141.2296,mp-1080713,Er2Ni2Sn,https://materialsproject.org/materials/mp-1080713,3.2791713788957266,57.53714587287946,-8.604250342815693,-0.5045126942092143
-5.3160952864705875,-361.49447948,7.812417691790263,-0.628791022720588,0.679033,0.003715625544527228,0.0,186,68,2129.787964333858,10020.11562,mp-567446,La23Cd4Pt7,https://materialsproject.org/materials/mp-567446,-28.76209447115161,64.60730192382951,-8.604250342815693,-0.5045126942092143
-7.096566311111111,-63.8690968,7.294262735152206,-0.9958259177777776,2.333333333333333e-06,1.8057344974408115e-07,0.0,189,9,150.5914509645713,661.504236,mp-1079597,ScGeRh,https://materialsproject.org/materials/mp-1079597,30.009529311566162,51.84078964770816,-8.604250342815693,-0.5045126942092143
-6.4582136925,-25.83285477,1.2627254613859773,4.561801036249999,0.0,0.0,0.4678999999999998,71,4,678.9068826273967,516.26188,mp-1096351,NbVRe2,https://materialsproject.org/materials/mp-1096351,-59.628551176967875,42.56335792111933,-8.604250342815693,-0.5045126942092143
-5.736492745,-22.94597098,0.9539633357174274,3.2167103912500004,0.9952329,0.016205399985261423,0.0,71,4,715.7187536827909,411.17338,mp-1096170,TaSiRu2,https://materialsproject.org/materials/mp-1096170,-60.969966397396796,40.63202681130037,-8.604250342815693,-0.5045126942092143
-8.586234623,-171.72469246,13.842321852563925,-0.7061253613333335,4.29618395,0.1849279313184055,0.0,127,20,270.7433413177871,2256.927648,mp-22425,Sc2FeB2Ir5,https://materialsproject.org/materials/mp-22425,29.648669788361072,49.78913385575739,-8.604250342815693,-0.5045126942092143
-5.649436230357144,-158.18421445,4.685488520594036,-1.4657759310714285,3.999999975,0.17416855322103,0.0,36,28,267.65026140929365,755.21996,mp-1178123,Li(CoO2)2,https://materialsproject.org/materials/mp-1178123,-74.16898832984243,-23.18860320974261,-6.486094967187752,1.2190650616242498
-9.537349872142855,-267.04579642,12.732147172358985,-0.1950871298214269,0.0008964,2.7500497986738842e-05,0.0,44,28,379.8732541919811,2912.66996,mp-1218082,Ta6Cr3Cu3C2,https://materialsproject.org/materials/mp-1218082,22.034061453433072,42.50171479009985,-8.604250342815693,-0.5045126942092143
-6.516675365999999,-65.16675366,4.198537891855607,-1.770749730442,8.0,0.8674653696097927,0.3344999999999998,12,10,107.47693388891804,271.746685,mp-1176665,LiMn2CoO6,https://materialsproject.org/materials/mp-1176665,-66.02892601547957,-41.220769367998756,5.507727731920703,-0.24502113038295897
-5.519476457222222,-99.35057623,4.510903332833002,-1.4939582245000007,2.0,0.12091994126867335,0.3054000000000001,8,18,192.7567058052964,523.62928284,mp-867705,Na3(CoO2)5,https://materialsproject.org/materials/mp-867705,-73.98029694786209,-22.831243214342056,-0.7056778104208774,-1.7420627689460668
-6.112646506470589,-103.91499061,15.497764998284078,-0.21841298431372488,1e-07,5.4371325963038595e-09,0.0,189,17,214.34211077511847,2000.4489999999998,mp-1105186,Cu3B5Pt9,https://materialsproject.org/materials/mp-1105186,22.989398069094324,50.77967503204019,-8.604250342815693,-0.5045126942092143
-9.2538789525,-37.01551581,8.468458881604997,-0.4834441258333317,9.000000000000001e-07,2.5053781294862234e-07,0.0,63,4,41.86457194569119,213.502,mp-999198,BMo,https://materialsproject.org/materials/mp-999198,21.641497917858793,36.64811986063248,-8.604250342815693,-0.5045126942092143
-7.02178507,-28.08714028,13.932167330602635,-0.9281386549999996,0.0,0.0,0.0,225,4,77.00555999775763,646.0880000000001,mp-865599,Lu2RuPt,https://materialsproject.org/materials/mp-865599,17.89692921851615,54.240011173016775,-8.604250342815693,-0.5045126942092143
-8.688220688,-173.76441376,13.763662940072866,-0.7381695873333328,3.94910065,0.16915783481066607,0.0,127,20,272.07178916643153,2255.113738,mp-1208987,Sc2MnB2Ir5,https://materialsproject.org/materials/mp-1208987,29.645914055554552,49.75374706050736,-8.604250342815693,-0.5045126942092143
-4.024775315,-16.09910126,0.392066782987182,1.65913879875,3.6000000000000003e-06,2.7757399580520826e-08,0.0,71,4,1511.4756358753864,356.8717000000001,mp-1093907,Y2GePd,https://materialsproject.org/materials/mp-1093907,-68.49134518347607,42.97089485176448,-8.604250342815693,-0.5045126942092143
-6.9118978725,-27.64759149,1.4495724207201581,4.4096226437500015,0.3563921,0.005576978224915336,0.0,71,4,744.7432014837433,650.12576,mp-1096258,Ta2TcOs,https://materialsproject.org/materials/mp-1096258,-57.948884700874636,40.20017316376297,-8.604250342815693,-0.5045126942092143
-6.83526107,-27.34104428,12.757801815613115,-0.558100164999999,0.4925062,0.07529467280224837,0.0,225,4,76.22981735722274,585.668195,mp-1184125,Er2CoIr,https://materialsproject.org/materials/mp-1184125,17.763925907656823,48.9209752781894,-8.604250342815693,-0.5045126942092143
-9.468460169166667,-113.62152203,11.66366138957244,-0.015073814166665755,0.0476096,0.0033514311046177413,0.0,194,12,165.55475702041701,1162.8601199999998,mp-1217791,Ta2Cr3Cu,https://materialsproject.org/materials/mp-1217791,57.19380152692833,63.23205338200139,-8.604250342815693,-0.5045126942092143
-9.585714014285713,-67.09999810000001,5.7269174982836475,-0.4438222851785706,0.0019297000000000001,0.0003234396980566375,0.0,166,7,69.53026770285452,239.7981,mp-1216471,V4C3,https://materialsproject.org/materials/mp-1216471,5.2720823851510605,21.746799405018333,-8.604250342815693,-0.5045126942092143
-12.4325385475,-149.19046257,16.186314911622222,-0.2602750808333336,6.805467299999999,0.35943980460103003,0.01019999999999932,194,12,220.6526814963377,2150.84,mp-510184,GdOs2,https://materialsproject.org/materials/mp-510184,29.64425993088996,63.66767200873321,-8.604250342815693,-0.5045126942092143
-4.8364454839999995,-48.36445484,8.195641147124565,-0.4130045920000001,1.375e-05,8.245952390270162e-07,0.0,127,10,194.32975481616347,959.12044,mp-1206769,Tm2MgNi2,https://materialsproject.org/materials/mp-1206769,3.79437319961883,58.98359919103989,-8.604250342815693,-0.5045126942092143
-5.62851097,-22.51404388,0.9111754028120134,3.545974724791667,0.9999992,0.018931644094917068,0.0,71,4,615.5860204680721,337.786,mp-1096740,Ti2FeRe,https://materialsproject.org/materials/mp-1096740,-59.68563846840789,35.80066531681739,-8.604250342815693,-0.5045126942092143
-7.416317350000001,-459.8116757,3.8921910616366464,-2.563237858645376,14.99090905,0.2605250809311402,0.0,55,62,670.5881232004217,1571.81315,mp-774293,Li4Ti4Mn4CoO18,https://materialsproject.org/materials/mp-774293,-63.77495156774927,-46.7391171535965,2.455241594972836,-0.40931104606466223
-6.65961454875,-53.27691639,12.0323693434074,-1.0120046999999994,1.185e-05,8.369965510426579e-07,0.0,194,8,164.99550372435644,1195.5677,mp-1078547,YSnPt2,https://materialsproject.org/materials/mp-1078547,22.68148829606425,52.92292598710805,-8.604250342815693,-0.5045126942092143
-7.349583428333334,-132.29250171,4.6429664226296055,-0.7338657332799998,1e-07,4.425679221431758e-09,0.0,15,18,263.3282754909984,736.2816,mp-1246580,Ca3(MoN2)2,https://materialsproject.org/materials/mp-1246580,-8.213678160353266,33.98185053378132,-8.604250342815693,-0.5045126942092143
-8.345562951818183,-183.60238494,8.116938974928916,-0.08632877572090986,22.9590417,1.0323711775794189,0.0,166,22,259.1763165212112,1266.88882,mp-1191093,Gd2Fe17H3,https://materialsproject.org/materials/mp-1191093,61.71723157092654,74.76885041619228,-8.604250342815693,-0.5045126942092143
-8.274400425833333,-99.29280511,7.356572653547668,-0.7249168675000005,8.75e-06,6.277117161350113e-07,0.0,62,12,162.45206858296783,719.7003,mp-1095573,NbCoSi,https://materialsproject.org/materials/mp-1095573,46.54041629326203,50.688030540757865,-8.604250342815693,-0.5045126942092143
-6.8606762925,-82.32811551,8.430038342791379,-0.21340970486111152,3.504695,0.2653012939581764,0.0,191,12,153.95304684983918,781.57156,mp-3689,NdCo4B,https://materialsproject.org/materials/mp-3689,42.49928214328446,83.07866179088245,-8.604250342815693,-0.5045126942092143
-7.3159273325,-29.26370933,7.033962312037362,0.2298072687500001,3.4803935,0.7760405284490532,0.0,225,4,52.26625388245883,221.3973,mp-971752,ZnCr3,https://materialsproject.org/materials/mp-971752,27.128092897607466,30.854740410792424,-8.604250342815693,-0.5045126942092143
-12.601381778,-126.01381778,12.943027622347795,0.33342272850000115,22.22273925,0.9355099325426016,0.0,227,10,276.8385814347415,2157.811,mp-1210273,Pu4Rh,https://materialsproject.org/materials/mp-1210273,-31.673855581642247,67.91027454956671,-8.604250342815693,-0.5045126942092143
-5.758159275,-23.032637100000002,0.6782478023006885,3.5322414833333338,1.3833933999999999,0.019651679295589586,0.0,71,4,820.3958576277942,335.091,mp-1096120,ZrTiTc2,https://materialsproject.org/materials/mp-1096120,-62.497521458759365,37.965651565827216,-8.604250342815693,-0.5045126942092143
-10.279570726333333,-308.38712179,14.171926386876152,0.13330678591666847,0.0010698833333333334,3.6093109736189836e-05,0.010800000000000587,227,30,345.45346069881134,2948.2842,mp-504619,Fe2W2C,https://materialsproject.org/materials/mp-504619,57.51549770504293,48.14139812791525,-8.604250342815693,-0.5045126942092143
-6.0322418575,-24.12896743,4.6707424792769725,-0.5522456875000001,3.9500000000000005e-05,6.4819618446355864e-06,0.0,225,4,71.01793709215946,199.758324,mp-865793,LiSc2Rh,https://materialsproject.org/materials/mp-865793,7.883929689603647,43.460594201522206,-8.604250342815693,-0.5045126942092143
-6.150258726666666,-36.90155236,10.278549093279748,-0.3281545249999998,0.92316305,0.1178426849551278,0.0,74,6,91.2963073136905,565.11383,mp-1223910,HoCoNi,https://materialsproject.org/materials/mp-1223910,42.45920631487929,74.03733519447661,-8.604250342815693,-0.5045126942092143
-2.5365860995833334,-60.87806639,7.46013509256087,-0.3869480412499999,0.00174615,2.7775215690020238e-05,0.0,216,24,732.6584041583831,3291.5399999999995,mp-866208,Yb4MgPd,https://materialsproject.org/materials/mp-866208,-27.468482996675533,70.00686618744061,-8.604250342815693,-0.5045126942092143
-8.1806285575,-163.61257115,13.041084534499525,-1.0029877805000011,1e-07,3.0848445445337168e-09,0.0,87,20,377.78450759246397,2966.94,mp-30859,Zr9Pt11,https://materialsproject.org/materials/mp-30859,26.65109405338274,57.17774605542531,-8.604250342815693,-0.5045126942092143
-5.9712925375,-23.88517015,9.561027116368836,-0.77719527,3.26e-05,5.481796930130749e-06,0.0,225,4,69.30619948674098,399.05021,mp-865230,TmMgRh2,https://materialsproject.org/materials/mp-865230,38.463249080859974,55.96308443902835,-8.604250342815693,-0.5045126942092143
-7.4509248275,-29.80369931,14.644907515764848,0.4820300503449992,0.0006567,9.724117414448972e-05,0.06909999999999883,221,4,78.70353688621752,694.1155799999998,mp-1187180,Pa3H,https://materialsproject.org/materials/mp-1187180,-10.584687563564264,54.27926209080454,-8.604250342815693,-0.5045126942092143
-6.2898098025,-25.15923921,11.278777231671876,-0.8088316908333333,1.4e-06,2.263651770933097e-07,0.0,225,4,72.07685780599594,489.56320999999997,mp-865211,TmInRh2,https://materialsproject.org/materials/mp-865211,32.119175942271376,55.977367048042204,-8.604250342815693,-0.5045126942092143
-7.2241820402808985,-1285.90440317,6.928617618619933,-0.6797019371067409,0.07296085,0.0002231782782072608,0.0,2,178,3809.9159048595466,15896.9165,mp-685447,Pr5(Mo3Se4)12,https://materialsproject.org/materials/mp-685447,63.019460383530365,32.99359475946444,-8.604250342815693,-0.5045126942092143
-5.31931757,-21.27727028,10.340595808174793,-0.13766403499999935,9.25e-05,1.5690009372282912e-05,0.0,225,4,68.70620443134389,427.85088,mp-861971,PaGaCu2,https://materialsproject.org/materials/mp-861971,-11.106109268452188,56.92523816392274,-8.604250342815693,-0.5045126942092143
-6.975363509999998,-34.87681755,7.729410176038312,-0.5166853151666657,2.2e-06,4.1174324229051093e-07,0.0,139,5,62.269249051916276,289.84839,mp-4073,Sm(CoB)2,https://materialsproject.org/materials/mp-4073,7.376833240250804,39.528641401266896,-8.604250342815693,-0.5045126942092143
-8.781981430238094,-368.84322007,11.051164648971245,-0.565504643988094,0.0,0.0,0.0,58,42,823.4122639204724,5479.94614,mp-21584,Ta11(CoSe4)2,https://materialsproject.org/materials/mp-21584,39.360032809757854,65.65473623929918,-8.604250342815693,-0.5045126942092143