energy_per_atom,energy,density,formation_energy_per_atom,total_magnetization_uB,total_magnetization_T,band_gap,sgr,num_sites,cell_volume,weight,mp_id,formula,URL,tsne_cry_lin1_0,tsne_cry_lin1_1,tsne_cry_lin2_0,tsne_cry_lin2_1
-5.478356839642856,-306.78798302,2.7326740372696565,-0.8215486091673208,4.1225e-05,4.983197134841468e-07,0.5327999999999999,60,56,964.1176281982623,1586.6048,mp-1246839,Ca7SN6,https://materialsproject.org/materials/mp-1246839,25.117423399270052,-10.957501103746976,4.412569699857106,-4.101691960509142
-9.033687448888891,-81.30318704,8.396308315303985,-0.7046653211111109,7.058619900000001,0.4725707051755448,0.0,12,9,174.072604625209,880.1763900000002,mp-1078863,Gd3(CoGe2)2,https://materialsproject.org/materials/mp-1078863,19.26190036556069,67.98929715833411,-8.604250342815693,-0.5045126942092143
-5.793376476666666,-34.76025886,7.598881858226973,-0.4100519822222222,7.0932516,0.5739383301665298,0.0,12,6,144.0315261231588,659.1104,mp-1225220,EuGaAg,https://materialsproject.org/materials/mp-1225220,-6.196315934661044,49.09363040851629,-8.604250342815693,-0.5045126942092143
-6.077575315,-72.93090378,5.577395546587066,-0.5716711733333332,7.0035655,0.27534575537130146,0.0,62,12,296.42732594806307,995.6360000000001,mp-867152,EuMgGe,https://materialsproject.org/materials/mp-867152,-14.314292961886942,44.738751689576034,-8.604250342815693,-0.5045126942092143
-9.055959253500001,-181.11918507,5.498687755036224,-1.126689022427999,0.0,0.0,2.0601000000000003,15,20,334.4405853165772,1107.46228,mp-989631,LaMoN3,https://materialsproject.org/materials/mp-989631,34.030644584222216,-9.585888886206712,7.188919129322432,-3.0706904228551304
-5.050675856785714,-282.83784798,4.979887253403778,-1.6518810917328572,0.0,0.0,2.8344,33,56,1993.9675242833425,5979.825357120001,mp-569580,NaLa4I7N2,https://materialsproject.org/materials/mp-569580,-27.681824095263444,37.282842166288965,3.0088754542734693,-4.832363126633696
-2.7684621975,-11.07384879,4.660972598832268,-0.53941317,2.8100000000000002e-05,1.7035487181651502e-06,0.0,139,4,192.23355141944344,539.581,mp-1183360,Ba3Te,https://materialsproject.org/materials/mp-1183360,-37.90286820071695,49.676430909630696,-8.604250342815693,-0.5045126942092143
-6.597089041388887,-237.49520549,5.2645663672533605,-1.761690644768518,5.999999425,0.20710173661992948,1.0282999999999998,55,36,337.63300624849546,1070.4303400000001,mp-542153,Co3BO5,https://materialsproject.org/materials/mp-542153,-4.467262289162477,13.224490783798961,1.8573388133215945,-1.5359528886929592
-2.8518045075,-11.40721803,1.4421239274164883,2.316099444125,2.99998,0.29704476284408426,0.5863,12,4,117.69930195582943,102.21799999999999,mp-1064814,KC,https://materialsproject.org/materials/mp-1064814,-20.311215236259514,22.211925655102046,-8.604250342815693,-0.5045126942092143
-5.441024769107144,-304.69738707,5.2188923679908505,-0.5576652308414286,2.1000000000000002e-06,2.161586271350113e-08,0.09560000000000013,60,56,1132.2026026326187,3558.3888,mp-1245379,Sr7IrN6,https://materialsproject.org/materials/mp-1245379,7.515772615003419,5.349613706407158,-8.604250342815693,-0.5045126942092143
-3.749937911818182,-41.24931703,8.413731374495415,-0.26984840242424274,0.0002991,1.3509695554929566e-05,0.0,123,11,258.01697449804425,1307.337835,mp-1095593,Ho2In8Co,https://materialsproject.org/materials/mp-1095593,-10.217569886655266,42.828757161392936,-8.604250342815693,-0.5045126942092143
-3.19107649,-38.29291788,6.493016028055494,-0.6057701483333329,2.25e-07,9.494185279276022e-09,0.0,62,12,276.186370572482,1079.94,mp-542172,YbMgGe,https://materialsproject.org/materials/mp-542172,-14.320697619492822,44.720448923577564,-8.604250342815693,-0.5045126942092143
-4.551720682142856,-63.72408955,4.499098440192329,-0.7392901208928581,0.0098473,0.0004998074235108209,0.0,227,14,229.6105792681218,622.1116,mvc-11132,Zn(NiS2)2,https://materialsproject.org/materials/mvc-11132,16.080864932965866,10.084086674646533,-8.604250342815693,-0.5045126942092143
-0.53688453,-2.14753812,0.27235582629079225,0.9776057850000002,8e-07,9.435576508431394e-09,0.0,71,4,988.0956197765693,162.06400000000005,mp-1095761,LiMgZn2,https://materialsproject.org/materials/mp-1095761,25.129050428296317,-6.647734726865108,5.57302263639741,-6.91169092102397
-5.062866755,-20.25146702,7.1860139548567785,-0.3759079162500001,0.0001882,2.373792282371922e-05,0.0,225,4,92.39624740898421,399.8465,mp-863673,LiPm2Rh,https://materialsproject.org/materials/mp-863673,9.472592082832273,43.76178471911524,-8.604250342815693,-0.5045126942092143
-5.988465125,-35.93079075,8.181296144355839,-0.18505110625000046,3.1589549999999997,0.4175681814469753,0.0,187,6,88.16444312406547,434.37667000000005,mp-1222950,LaFeCuNi3,https://materialsproject.org/materials/mp-1222950,29.63513192395856,77.72664453926461,-8.604250342815693,-0.5045126942092143
-7.623756044705884,-129.60385276,10.512385241331405,-0.7222345667647059,0.7950236999999999,0.032167998365240064,0.0,229,17,288.0271750303206,1823.4155,mp-1190081,Ce4SiRh12,https://materialsproject.org/materials/mp-1190081,30.50226743726294,56.77522633580711,-8.604250342815693,-0.5045126942092143
-4.1338989,-16.5355956,8.405406418804327,-0.2303620474999999,0.6611911,0.09148494254685642,0.0,216,4,84.2276738873546,426.3482,mp-1226682,CeInCuAg,https://materialsproject.org/materials/mp-1226682,-6.101901993654784,51.071644991415475,-8.604250342815693,-0.5045126942092143
-5.57538662,-33.45231972,3.55648051650035,0.224143268888889,0.57566505,0.059850291447072324,0.0,189,6,112.09365264213746,240.078,mp-1094371,MgTi2,https://materialsproject.org/materials/mp-1094371,33.48813846890046,61.42847593975057,-8.604250342815693,-0.5045126942092143
-6.156745934999999,-86.19444309,5.196240541531169,-0.7151704474485712,2.05297885,0.073423141439289,0.0,176,14,325.85841501181613,1019.6922,mp-8306,Ba3FeN3,https://materialsproject.org/materials/mp-8306,4.205074522305802,6.47810309073442,-6.350439657619102,-2.6823257394772737
-4.438580789722222,-159.78890843,3.295491167446964,-1.3653489407977777,0.0,0.0,1.6139,62,36,926.5349958294701,1838.7932,mp-640057,K2OsNCl5,https://materialsproject.org/materials/mp-640057,6.743790528465818,-14.201956040452034,8.67040205072134,-2.0748547512625986
-6.159193733076923,-320.27807412,4.180508013158996,-1.997476687637362,1.972061925,0.03782251603381979,0.0,15,52,607.6416859443841,1529.774896,mvc-9496,ZnCu2(PO4)2,https://materialsproject.org/materials/mvc-9496,-57.981285315221655,-12.739456913262222,0.6592511742700475,-2.40885882585922
-7.8794013334285715,-275.77904667,2.962167946855892,-2.9877421631292527,3.9999987999999997,0.10176554976377207,2.4928,148,35,458.0749105524525,817.141172,mp-1196389,Ti4Fe(PO4)6,https://materialsproject.org/materials/mp-1196389,0.003441208369830773,-53.369436477895604,6.5239313375505255,-0.3522841253194463
-5.2908974720833335,-126.98153933,7.042510902148068,-0.30971087125000035,4.8625e-05,7.812158577774991e-07,0.0,216,24,725.3806920636177,3076.41152,mp-570820,La4CdRu,https://materialsproject.org/materials/mp-570820,-28.699407655721927,64.45899577199229,-8.604250342815693,-0.5045126942092143
-3.4560391280357146,-193.53819117,2.745613067192749,-0.3209144072471425,0.0,0.0,1.2780000000000005,56,56,538.6815262900046,890.6812800000001,mp-1185821,Mg2NiH4,https://materialsproject.org/materials/mp-1185821,33.033739602613124,-20.8601892768848,6.828771383424398,-2.82036082581535
-5.990727198571428,-335.48072312,3.9555154263662615,-0.7801852260199992,9.800000000000001e-06,1.2258811596321144e-07,0.11929999999999995,60,56,931.6550293126227,2219.264800000001,mp-1245383,Ca7OsN6,https://materialsproject.org/materials/mp-1245383,8.375610495893014,6.006569033539683,-8.604250342815693,-0.5045126942092143
-5.8517582225,-23.40703289,16.169770604194248,-0.16132807718750009,4.0240151,0.5515870591789076,0.0,225,4,85.02036413067384,827.899707,mp-864613,NpAu3,https://materialsproject.org/materials/mp-864613,-9.497025510896606,58.85745654509938,-8.604250342815693,-0.5045126942092143
-6.450446598571429,-90.30625238,4.404193632618466,-1.9184188114285712,12.0000004,0.9011942244474488,0.7331000000000001,166,14,155.1816224944051,411.583165,mp-1177871,Li2NbCo3O8,https://materialsproject.org/materials/mp-1177871,-76.49805024052436,-36.65202048335178,-5.3555082694848215,-3.058773525202085
-4.68786993375,-37.50295947,6.202852562050005,-0.9581019781249998,0.0,0.0,0.3971,11,8,160.5849290341423,599.8562000000002,mp-997042,TlCuO2,https://materialsproject.org/materials/mp-997042,-49.07208161481043,-1.5218575681101136,-6.978849582944632,1.6885149691128185
-6.633473191999999,-33.16736596,9.131239922810561,-0.9023297204999992,3e-07,3.8339888366997884e-08,0.0,139,5,91.19013071455299,501.45099999999996,mp-5161,Sm(GeRh)2,https://materialsproject.org/materials/mp-5161,11.109259275726304,65.23105971097057,-8.604250342815693,-0.5045126942092143
-7.358727386363636,-80.94600125,8.695807760369433,-0.6949111101515151,9.9e-06,7.23076350205001e-07,0.0,69,11,159.56163026993022,835.5824400000001,mp-14696,La2B4Rh5,https://materialsproject.org/materials/mp-14696,12.521108558526914,40.06871613457845,-8.604250342815693,-0.5045126942092143
-5.10674695,-91.92144509999999,4.4875641385314875,-2.258500688713333,19.0000003,1.0342569357414826,0.8302,5,18,214.0930619102953,578.5810051999998,mp-849329,Co6OF11,https://materialsproject.org/materials/mp-849329,-41.56012891667359,-26.04523819445947,4.0737115143815865,1.192483745500789
-9.636588791666666,-115.6390655,9.528457265398583,-0.952224566666666,7.097565275,0.3565520077980264,0.0,62,12,231.9871537202946,1331.182,mp-1095527,GdGeRh,https://materialsproject.org/materials/mp-1095527,13.916877509075695,64.07891043609736,-8.604250342815693,-0.5045126942092143
-8.673372108421052,-329.58814012,5.0754777059228395,-3.643058589232456,0.0,0.0,2.0496,6,38,480.41169308521347,1468.38995,mp-557492,LiLa5Ti8O24,https://materialsproject.org/materials/mp-557492,5.7693940267672135,-41.40786734752741,5.15593369736164,-2.9473365961183453
-4.9539659122222215,-44.58569321,2.462305510107398,-1.557024619527778,0.0,0.0,2.3359,146,9,156.7278155047981,232.40150000000003,mp-545387,K4CO4,https://materialsproject.org/materials/mp-545387,19.56940318832681,-17.638920243787133,8.398959739405724,0.01849586430868784
-5.6320214250000005,-67.5842571,3.5825178060324414,0.16750846388888854,1.75e-07,9.163732079209953e-09,0.0,59,12,222.5579401022577,480.156,mp-1094339,MgTi2,https://materialsproject.org/materials/mp-1094339,33.54433268723582,61.40021413237487,-8.604250342815693,-0.5045126942092143
-4.4941532849999986,-80.89475913,4.422745841909023,-2.655414198705211,1.00000035,0.0408242761038616,0.0,74,18,285.46908760447064,760.3297422,mp-1225926,CsGaCuF6,https://materialsproject.org/materials/mp-1225926,-62.467878428455826,-14.205593879685399,-8.604250342815693,-0.5045126942092143
-6.1420047425,-171.97613279,4.745235199513908,-1.7180867893885718,10.0,0.4480848017123239,0.1987000000000001,8,28,260.0861428020884,743.23451,mp-754275,Li4Mn3Co5O16,https://materialsproject.org/materials/mp-754275,-72.88809112454601,-23.21639486978222,-8.604250342815693,-0.5045126942092143
-6.9816327163750005,-558.53061731,4.3137687416749975,-2.5423795832690006,10.9999999,0.14629107356686671,0.2568999999999999,6,80,876.2989306668455,2276.4601399999997,mp-1247715,Ca4Mn3CrO12,https://materialsproject.org/materials/mp-1247715,-33.00832888171577,-8.401611176956662,3.1241879834838064,-0.4414440410643723
-5.110699963888889,-91.99259935,4.468673821526309,-2.2624537026022224,19.0,1.0299032343228636,0.5523,38,18,214.9980923442941,578.5810051999998,mp-754418,Co6OF11,https://materialsproject.org/materials/mp-754418,-41.49800623271466,-25.929045008322376,4.262335814168186,1.3155040111918603
-5.9608820375,-23.84352815,8.693895513634835,-0.6449865800000003,0.0002739,4.0450987756134224e-05,0.0,225,4,78.91150546058147,413.148,mp-865169,CaErRh2,https://materialsproject.org/materials/mp-865169,13.478926143998914,46.25413043791021,-8.604250342815693,-0.5045126942092143
-6.250953717142857,-87.51335204,5.221213834084028,-1.8044176278571424,3.00000015,0.2631878985531295,0.4903999999999993,2,14,132.8411992268368,417.6910572,mp-1248269,Al(CoO2)2,https://materialsproject.org/materials/mp-1248269,-42.446506883199646,-22.80413168620331,2.147421263593228,-0.7742265380552484
-8.532423433333333,-102.3890812,5.055636089283106,-2.7586728008333345,2.99999965,0.2547749614155331,1.9949,109,12,137.2277324447662,417.80016,mp-758053,NbCrO4,https://materialsproject.org/materials/mp-758053,-1.9612937860779096,-41.222206247730384,-5.858408437653723,-2.162379303245568
-2.478212804736842,-188.34417316,3.4414074927522647,-0.18367493684210506,1.575e-06,9.468760551397518e-09,0.0,136,76,1938.4957426209744,4017.4627712,mp-568580,Na10(Ga2Sn)3,https://materialsproject.org/materials/mp-568580,-10.451364190998024,36.394238426534045,-8.604250342815693,-0.5045126942092143
-4.6839365075,-18.73574603,10.511178703514288,-0.4102494412500004,7.2000000000000005e-06,1.2982062902496374e-06,0.0,225,4,64.63477106269029,409.1368,mp-570899,YbNi2Sn,https://materialsproject.org/materials/mp-570899,29.343216180640198,73.7023753779243,-8.604250342815693,-0.5045126942092143
-6.9357469100000015,-104.03620365,5.405890378092331,-2.667321332354167,1.9999601999999999,0.08209857929414004,0.012599999999999945,1,15,283.8985267922301,924.2326000000003,mp-1227560,Ce4Ga2S5O4,https://materialsproject.org/materials/mp-1227560,-31.30965135726425,26.41512201122098,-8.604250342815693,-0.5045126942092143
-7.213879124999999,-86.5665495,5.818619650163,-2.8243035542225,6.999999799999999,0.5280378719023945,0.0,107,12,154.49356081827466,541.3538900000001,mp-1218753,Sr2NdMn2O7,https://materialsproject.org/materials/mp-1218753,-32.708583668717594,5.759304453596204,-8.604250342815693,-0.5045126942092143
-5.476125773333332,-131.42701856,4.922330231423299,-1.9858429716145831,0.0,0.0,1.0874000000000006,62,24,528.426203938855,1566.412,mp-1190834,SrNdCuS3,https://materialsproject.org/materials/mp-1190834,48.21390369082122,-4.460410704917497,8.412291932456785,-5.7594097771267165
-6.84106916,-41.04641496,7.954035022363273,-0.3742742549999996,6.833524099999999,0.9162717993651546,0.0,216,6,86.91562104325995,416.3286,mp-977381,GdMgNi4,https://materialsproject.org/materials/mp-977381,31.515519483701997,72.9361063469797,-8.604250342815693,-0.5045126942092143
-0.8700869567307692,-135.73356525,6.792610585363248,-0.253224925147436,0.029649000000000002,6.552673030552795e-05,0.0,223,156,5273.13609011974,21570.32093856,mp-684037,K29NaHg48,https://materialsproject.org/materials/mp-684037,-22.358570689170733,43.58530370059874,-8.604250342815693,-0.5045126942092143
-2.929133295,-29.29133295,4.713865721525797,-0.1947080524133792,0.0,0.0,1.1814,225,10,177.26895963544172,503.2233824,mp-989575,Cs2AlTlH6,https://materialsproject.org/materials/mp-989575,37.861301259156505,-6.040888401658775,7.563350796321593,-4.743419531280279
-5.9525369475,-23.81014779,8.588095151846185,-0.6339788424999995,3.09e-05,4.533491487790544e-06,0.0,225,4,79.43339089572197,410.81932,mp-866283,CaHoRh2,https://materialsproject.org/materials/mp-866283,13.479003258077991,46.253505189579414,-8.604250342815693,-0.5045126942092143
-6.930156691538461,-90.09203699,3.0047692081362984,-1.0071017053292293,3.7000000000000006e-06,2.0088009904824805e-07,0.7793000000000001,6,13,214.65560731386412,388.4224,mvc-11129,Ca5(CrN3)2,https://materialsproject.org/materials/mvc-11129,31.41484065408461,-13.284228130934926,3.8683730228059376,-3.4557526663021134
-5.013462948571429,-70.18848128,6.285735705729346,-1.1321328503125003,5.5e-07,2.6617917243086125e-08,1.2881,148,14,240.80530292326802,911.53442,mp-1216740,Tm(CuS)3,https://materialsproject.org/materials/mp-1216740,46.68628741663226,-7.043080965772171,7.39319499568243,-5.821226880949684
-5.337464072727274,-58.71210479999999,7.792965141992742,-0.5473619281818177,1.7434252000000001,0.09880198596294612,9.999999999976694e-05,71,11,205.64354055122658,965.092,mp-22623,Ce3(CuGe)4,https://materialsproject.org/materials/mp-22623,-4.170738484577054,55.57361965369178,-8.604250342815693,-0.5045126942092143
-3.5248474460000003,-17.62423723,7.036637318511363,-0.4047003066666662,6.5000000000000004e-06,5.436246836399453e-07,0.0,139,5,139.34507262332085,590.4834,mp-7882,Ba(AgSn)2,https://materialsproject.org/materials/mp-7882,-17.123338421979867,50.12974213840576,-8.604250342815693,-0.5045126942092143
-5.4528250275,-21.81130011,5.603853503591749,-0.3391948650000005,3.4e-06,1.0438130099545995e-06,0.0,139,4,37.96064989497149,128.10654599999998,mp-865562,Be3Ru,https://materialsproject.org/materials/mp-865562,-27.90537455106107,50.883738267972824,-8.604250342815693,-0.5045126942092143
-6.632027903636364,-72.95230694,8.100369425047475,-0.9357996220454542,0.0,0.0,0.0045000000000001705,71,11,229.36910579088024,1118.89841,mp-15009,La3(GeRh)4,https://materialsproject.org/materials/mp-15009,10.897825763406923,64.31108774096079,-8.604250342815693,-0.5045126942092143
-6.43563425375,-51.48507403,6.941097432706813,-0.7886109137500004,0.0,0.0,0.0,63,8,131.11377905222307,548.0590900000001,mp-4969,TbCoSi2,https://materialsproject.org/materials/mp-4969,20.512401882051694,67.76764770143674,-8.604250342815693,-0.5045126942092143
-6.972900597333332,-104.59350896,6.276143992955816,-2.5196669547499986,2.999998,0.14007638585118304,0.0,121,15,249.59361135069042,943.3596,mp-1226848,Ce4Cu3(SO)4,https://materialsproject.org/materials/mp-1226848,-31.204286302593182,26.338872931995567,-8.604250342815693,-0.5045126942092143
-8.622323766428572,-724.27519638,1.8883432743363349,-0.10844102134857096,0.015439235714285713,9.133463400410998e-05,0.0,12,84,1970.006832731228,2240.266,mp-1096966,CrN2,https://materialsproject.org/materials/mp-1096966,-4.881356204716002,9.695512842639836,-8.604250342815693,-0.5045126942092143
-5.46705277475,-218.68211099,6.4472705083347215,-1.6109670837500003,2.5e-07,2.140466767759954e-09,0.9995000000000004,122,40,1361.1592747076295,5284.88752,mp-32755,La2Te3,https://materialsproject.org/materials/mp-32755,56.47465724887099,22.50192627032095,4.062232694762907,-4.380174403020724
-3.627770113333333,-10.88331034,6.7052698436455085,1.9865027573333345,1e-07,1.7033052204786204e-08,0.0,216,3,68.42029621258929,276.2817,mp-631296,KHfNi,https://materialsproject.org/materials/mp-631296,7.163229493382209,36.28379117566935,-8.604250342815693,-0.5045126942092143
-3.8350987233333336,-138.06355404,4.051709227662328,-0.1868730688888892,0.0199792,0.000296919877534445,0.0,51,36,784.1808801666147,1913.3985,mp-646125,Y5Mg8Cu5,https://materialsproject.org/materials/mp-646125,-23.88867369819245,20.385365140232555,-8.604250342815693,-0.5045126942092143
-6.2237199105,-124.47439821,9.097860492937784,-0.7871766520000001,7.699999999999999e-06,2.4658664714147467e-07,0.0,15,20,363.91386066101563,1993.8329999999999,mp-866028,Dy2Ge5Rh3,https://materialsproject.org/materials/mp-866028,12.302331888182351,62.47099447974809,-8.604250342815693,-0.5045126942092143
-5.5844736525,-44.67578922,3.5498103462203976,0.6729722438749999,0.95574585,0.07146526023141836,0.0,194,8,155.8564819597252,333.18153856,mp-1186192,NaTi3,https://materialsproject.org/materials/mp-1186192,10.919495354643756,51.821314189722614,-8.604250342815693,-0.5045126942092143
-7.67311431,-61.38491448,9.13285397799839,-0.2837464860714292,6.5e-07,6.841606992215885e-08,0.0,194,8,110.72167855859749,608.961848,mp-1206087,NiP2W,https://materialsproject.org/materials/mp-1206087,14.586493220588178,22.441019490868626,-8.604250342815693,-0.5045126942092143
-8.050025672142857,-112.70035941,5.365376843912838,-2.5743337959885717,6.999999799999999,0.5015393947346842,0.2231999999999994,88,14,162.65611821033545,525.55908,mvc-4601,YMn2O4,https://materialsproject.org/materials/mvc-4601,7.90442359759982,36.87063146389613,-8.604250342815693,-0.5045126942092143