energy_per_atom,energy,density,formation_energy_per_atom,total_magnetization_uB,total_magnetization_T,band_gap,sgr,num_sites,cell_volume,weight,mp_id,formula,URL,tsne_cry_lin1_0,tsne_cry_lin1_1,tsne_cry_lin2_0,tsne_cry_lin2_1
-6.653229745,-66.53229745,7.7601678234020275,-0.8365460599760006,3.1e-05,2.445313150549407e-06,0.0,63,10,147.74222592643397,690.4411400000001,mp-1078408,LaNi2AsN,https://materialsproject.org/materials/mp-1078408,17.008771228322928,26.68976152608656,-8.604250342815693,-0.5045126942092143
-7.9029551666666675,-189.67092399999999,5.571634650794138,0.049396350476667315,0.02206275,0.0010179239841390355,0.0,64,24,252.593240327533,847.53036,mp-1245722,CrCo2N3,https://materialsproject.org/materials/mp-1245722,4.4503263209724935,14.536587315502743,-8.604250342815693,-0.5045126942092143
-7.400017755897436,-1154.40276992,4.047491573750797,-2.9305489004115386,17.000000725,0.10906723224278936,0.0,1,156,1816.4860839384664,4427.6057,mp-1247666,Ca8Ti3Mn5O23,https://materialsproject.org/materials/mp-1247666,-32.33315692844656,-9.643399416371857,-5.15210845705422,-3.158606137189456
-5.852424819047619,-122.9009212,9.494497646051947,-0.18924908190476164,0.054282000000000004,0.0014413124441591525,0.0,147,21,438.90965248214536,2509.562595,mp-1224199,Ho4Co3,https://materialsproject.org/materials/mp-1224199,-27.710088712105133,67.33491345274453,-8.604250342815693,-0.5045126942092143
-5.0418049325,-282.34107622,4.622003831734838,-1.2056598889285712,0.999999575,0.02151707146012021,0.07960000000000013,19,56,541.6192366689781,1507.56238,mp-775285,Li2CoNi3O8,https://materialsproject.org/materials/mp-775285,-62.780003031260605,-21.42005488620666,-8.604250342815693,-0.5045126942092143
-7.36774788625,-176.82594927,4.522398284246567,-1.316959782439999,2.25e-07,6.656689611645639e-09,1.5301999999999998,15,24,393.91420162336374,1072.8064,mp-17012,Sr2VN3,https://materialsproject.org/materials/mp-17012,32.45419769158841,-11.477668168799148,5.806109899488328,-5.980533961563318
-5.590515305,-22.36206122,10.878848095927982,-0.6138598225000003,1e-05,1.4306505861495536e-06,0.0,225,4,81.45989583609922,533.6759999999998,mp-862554,LiEr2Ir,https://materialsproject.org/materials/mp-862554,9.921614189474033,42.70660799559965,-8.604250342815693,-0.5045126942092143
-4.770451043333334,-28.62270626,8.64012744267244,-0.34063448666666635,6.13e-05,6.12489966184026e-06,0.0,164,6,116.63769367664473,606.89,mp-1225563,ErCuGe,https://materialsproject.org/materials/mp-1225563,-5.248558448367997,56.722640973717496,-8.604250342815693,-0.5045126942092143
-5.5780250975,-22.31210039,10.595824871253699,-0.5960443199999998,0.0061224,0.0008606247556353822,0.0,225,4,82.90587238667396,529.01864,mp-867913,LiHo2Ir,https://materialsproject.org/materials/mp-867913,9.900138424080064,42.72271294221649,-8.604250342815693,-0.5045126942092143
-6.912737418684211,-262.68402191,4.238730460040968,-2.4783046817152625,28.000000899999996,0.7182780076132311,0.0,65,38,454.30017439158297,1159.6571600000002,mp-1247644,SrCa7Mn8O22,https://materialsproject.org/materials/mp-1247644,-36.11626471043353,6.129158410522977,-8.604250342815693,-0.5045126942092143
-7.047566245,-28.19026498,8.702307936631705,-0.5730943799999997,9.000000000000001e-07,1.2677725998809184e-07,0.0,225,4,82.73296249097764,433.5747,mp-865594,Y2CuIr,https://materialsproject.org/materials/mp-865594,-8.528702010245974,55.216062664788865,-8.604250342815693,-0.5045126942092143
-4.278996013333333,-25.67397608,8.128421494680978,-0.15330696666666613,7.9e-06,1.0676382832914814e-06,0.0,187,6,86.2343671485653,422.121532,mp-1217587,TbBeCu4,https://materialsproject.org/materials/mp-1217587,3.8263999697674667,45.16045405891529,-8.604250342815693,-0.5045126942092143
-6.528106539444446,-117.50591771,3.228335668604008,-1.033020784946667,1.99931845,0.08440765565869042,0.0,2,18,276.043523960551,536.6698,mp-1246110,Ca4CrN4,https://materialsproject.org/materials/mp-1246110,3.286611487430768,5.7784824524496425,-8.604250342815693,-0.5045126942092143
-3.888650095,-15.55460038,9.280884138948977,-0.30653118625,1e-07,1.395291832666894e-08,0.0,225,4,83.52420977255113,466.82342,mp-971982,Tm2ZnCu,https://materialsproject.org/materials/mp-971982,-8.695752109330805,55.462399826146005,-8.604250342815693,-0.5045126942092143
-4.537202716666667,-54.4464326,3.0718529551368987,0.21352843999999985,0.5147077666666667,0.025625331400182298,0.0,26,12,234.08234445819502,433.032,mp-1094400,MgTi,https://materialsproject.org/materials/mp-1094400,-17.685792433667647,38.892658606833905,-8.604250342815693,-0.5045126942092143
-4.62720985,-37.01767879999999,14.175931808045378,-0.5888593637500001,3.95e-06,3.09021388056228e-07,0.0,194,8,148.96559795153968,1271.711238,mp-972895,ScAu3,https://materialsproject.org/materials/mp-972895,-9.898596545584773,57.177596869080226,-8.604250342815693,-0.5045126942092143
-5.894637282000001,-29.47318641,5.496412473694909,-0.5218120749519997,1.008386,0.10757350634862768,0.0,139,5,109.24433123576708,361.600595,mp-1247530,Ba2CoN2,https://materialsproject.org/materials/mp-1247530,4.4503146017621535,6.605929226497269,-5.449430673707794,-3.0301668299860944
-4.132090046666667,-37.18881042,7.943246463579552,-0.4470242066666671,4.61e-05,3.311193337218277e-06,0.0,189,9,162.25340271623824,776.1448158,mp-1078733,YbAlNi,https://materialsproject.org/materials/mp-1078733,25.40961618852311,75.6846555883633,-8.604250342815693,-0.5045126942092143
-4.330157458333333,-103.92377900000001,7.161102300114329,-0.13074649083333334,7.12340205,0.23172555685544444,0.0060999999999999934,194,24,358.2539190680297,1544.976,mp-13223,EuMg2Cu9,https://materialsproject.org/materials/mp-13223,3.576136876102884,41.26600352601296,-8.604250342815693,-0.5045126942092143
-6.348357067999999,-31.74178534,4.674056796664863,-0.00250346495199949,0.0061118000000000006,0.001178068960581898,0.0,115,5,60.46107270473211,170.18479,mvc-14626,Mg(CoN)2,https://materialsproject.org/materials/mvc-14626,4.249917477745779,13.267445495965646,-5.363869542447071,-3.0508719354119336
-4.8741971180000006,-24.37098559,6.301016163831902,-0.3111798729519997,0.0,0.0,0.13680000000000006,164,5,74.79743328874743,283.8234,mp-1245589,Mg2PbN2,https://materialsproject.org/materials/mp-1245589,-1.07077318637148,2.283654202900239,-11.337012896867433,-0.3455187453193746
-3.89615143,-93.50763432,7.470036663283852,-0.17278791874999952,2e-07,6.6746752095207604e-09,0.022700000000000387,194,24,349.2024527556436,1570.90864,mp-13226,HoMg2Cu9,https://materialsproject.org/materials/mp-13226,3.5097847623282488,41.06077104153217,-8.604250342815693,-0.5045126942092143
-4.705848055833333,-112.94035334,2.8890122698432683,-1.65984128875,0.0,0.0,2.5556,14,24,267.54233883457346,465.4712,mp-756495,Li3CuO2,https://materialsproject.org/materials/mp-756495,15.10632902919916,-17.922499771335012,8.247553853901803,-1.392506576735105
-5.008419469090909,-55.09261416,9.221568782714966,-0.6154477681818178,4e-07,2.461867088106637e-08,0.0,71,11,189.35327303185247,1051.54663,mp-568519,Tm3(CuGe)4,https://materialsproject.org/materials/mp-568519,-4.773944723940226,56.07791940707592,-8.604250342815693,-0.5045126942092143
-8.523023998333334,-51.13814399,7.1817792858730085,-0.6536846700000005,7.0295705,0.7118140740705973,0.0,194,6,115.09054529055258,497.76300000000003,mp-607182,GdCuSi,https://materialsproject.org/materials/mp-607182,-4.299416532495289,57.11556829164064,-8.604250342815693,-0.5045126942092143
-7.019407966499999,-280.77631866,7.256806628705253,-2.513132841375,8.0087273,0.2052378980876373,0.0,35,40,454.76117018170316,1987.37506,mp-1076076,La7SmCo6(CuO12)2,https://materialsproject.org/materials/mp-1076076,-40.505896317842954,-3.0108168294401723,-8.604250342815693,-0.5045126942092143
-6.9089649039999985,-138.17929808,4.626940697887365,-2.492889080191999,12.0000038,0.628916457899729,0.2347000000000001,6,20,222.36470329173542,619.59898,mp-1094044,SrCa3Mn4O12,https://materialsproject.org/materials/mp-1094044,-32.90079149274248,-8.205347629000602,1.7033575444326057,-1.5584468703643335
-5.1323210475000005,-61.58785257,6.652665009563602,-1.3951804500000005,0.0,0.0,0.2461000000000002,28,12,393.48292323258136,1576.42188,mp-1205384,LaTe2,https://materialsproject.org/materials/mp-1205384,-10.24241736275584,23.91755548136681,-8.604250342815693,-0.5045126942092143
-4.5296275999999995,-18.118510399999998,11.65337371377585,-0.6217179370833334,0.0,0.0,0.0,225,4,78.90008471635267,553.70705,mp-30395,ScInAu2,https://materialsproject.org/materials/mp-30395,-8.142265906514336,53.67562092192333,-8.604250342815693,-0.5045126942092143
-6.4244644258333325,-77.09357311,2.461580521218925,-2.119196490833333,9.205e-05,3.34911483227524e-06,0.0,186,12,320.3105047268076,474.8278,mp-696695,BaCaCO3,https://materialsproject.org/materials/mp-696695,-35.79065700680317,48.623699650932025,-8.604250342815693,-0.5045126942092143
-6.1383065475,-24.55322619,12.576974493455932,-0.6584376225000002,5.0999999999999995e-06,7.583292606642305e-07,0.0,225,4,78.37720819053442,593.63142,mp-865307,Tm2CuIr,https://materialsproject.org/materials/mp-865307,-9.678975102633453,55.21572409116196,-8.604250342815693,-0.5045126942092143
-6.918308137,-138.36616274,5.745850609674179,-2.636596351143999,9.9996279,0.3851327556886136,0.0,166,20,302.58737935631905,1047.022585,mp-556632,Ba4PrMn3O12,https://materialsproject.org/materials/mp-556632,-38.38141736222421,-22.134319349289175,-8.604250342815693,-0.5045126942092143
-6.3682171392499995,-254.72868557,4.229511105281946,-2.3532037575,0.0795554,0.0023475068043450078,0.0,1,40,394.94828423536075,1005.961386,mp-1260352,Al5(NiO4)3,https://materialsproject.org/materials/mp-1260352,-41.16032530258124,-20.111970672261187,-4.7176445287572815,-1.5245374607136215
-6.855111219444443,-123.39200195,6.688144748983735,-2.50135082375,0.6006416,0.029071489424403286,0.0,46,18,240.78285117438801,969.79988,mp-1076053,La2Cu2O5,https://materialsproject.org/materials/mp-1076053,-44.888342558286034,0.6231920545210482,-8.604250342815693,-0.5045126942092143
-6.927189086,-138.54378172,5.803820132334341,-2.646406594269,8.1385546,0.3156113812404163,0.0,166,20,300.51908169675283,1050.356935,mp-555245,Ba4NdMn3O12,https://materialsproject.org/materials/mp-555245,-38.3843840127454,-22.13652627985384,-8.604250342815693,-0.5045126942092143
-5.075316205454545,-55.82847826,8.074776912382811,-0.6173888215909087,1.9e-06,1.0812593643811457e-07,0.0,71,11,204.7864166294339,995.824,mp-1103415,Sm3(CuGe)4,https://materialsproject.org/materials/mp-1103415,-4.42375398887679,55.41223095527233,-8.604250342815693,-0.5045126942092143
-6.987372974107143,-391.29288655,4.086787851047371,-2.063553696898571,62.0000004,1.1898767296295496,0.0,5,56,607.249475990074,1494.514565,mp-699179,Li7Mn17O32,https://materialsproject.org/materials/mp-699179,-67.3329027924634,-37.314548258452355,-8.604250342815693,-0.5045126942092143
-6.365189004166666,-305.52907220000003,5.460276426028623,-2.488232060114791,5.000000166666667,0.07730776532801213,0.0,150,48,753.7447959840148,2478.50537784,mp-554477,Ba4NaMn2O9,https://materialsproject.org/materials/mp-554477,-32.883278628200124,-23.744364754600557,-6.0500578162377225,-1.866106465436928
-5.033835258333333,-30.20301155,8.305593484550784,-0.2370050412499995,1.59e-05,2.073749824840402e-06,0.0,191,6,89.35486222305526,446.93027,mp-1222942,LaCu3Ni2,https://materialsproject.org/materials/mp-1222942,29.99662307340438,77.24720779710934,-8.604250342815693,-0.5045126942092143
-8.164162583333333,-24.49248775,12.404233097942415,-0.16157995333333255,1e-07,2.0701671062675717e-08,0.0,139,3,56.29528523217386,420.526,mp-30581,Hf2Cu,https://materialsproject.org/materials/mp-30581,-9.88136483130093,53.346765893298844,-8.604250342815693,-0.5045126942092143
-5.18565945,-31.1139567,10.579297226535695,0.11265014583333333,1.5437402,0.20624001681228785,0.0,216,6,87.23257765818974,555.75891,mp-510148,UCu5,https://materialsproject.org/materials/mp-510148,5.683104631398356,42.50547153713377,-8.775807728021427,-3.2792163721951715
-5.6270117325,-22.50804693,11.701400982713231,-0.7989505474999996,6.4e-06,8.931134160693402e-07,0.0,225,4,83.51236606951973,588.49064,mp-1184717,Ho2CuPt,https://materialsproject.org/materials/mp-1184717,-9.730871178814603,55.27934669973315,-8.604250342815693,-0.5045126942092143
-5.0828929675,-40.66314374,5.942677666156119,-1.8415036385416668,0.00493945,0.00045279594205862434,0.0,51,8,127.13159481753256,454.974,mp-997085,SrAgO2,https://materialsproject.org/materials/mp-997085,0.9682390610006916,-11.853430959699836,-8.604250342815693,-0.5045126942092143
-8.363326859166667,-100.35992231,10.793307934215449,-0.4204242824999997,0.99973485,0.05824528498219905,0.0,63,12,200.03292456798906,1300.19042,mp-1178888,UCoSi,https://materialsproject.org/materials/mp-1178888,10.45323292747695,26.20257785152016,-8.604250342815693,-0.5045126942092143
-2.948707367,-29.48707367,3.757837685938172,-0.14791017641337909,0.0,0.0,0.8917999999999999,225,10,162.86317775727537,368.5630824,mp-989648,Cs2AlGaH6,https://materialsproject.org/materials/mp-989648,24.686591710015172,-17.199452248020254,7.29344231613266,-3.8658109724386662
-4.76334343,-33.34340401,1.9943375182856995,-0.1923911663942854,3.5636763999999994,0.44686249026445396,0.0,71,7,92.9398114607114,111.6224,mp-28637,Li4FeN2,https://materialsproject.org/materials/mp-28637,1.3496648150721542,3.0771227600686197,-5.7775679136918106,-2.6174893880612866
-5.479606617142856,-76.71449264,5.4740047423947455,-0.8152005808928574,0.0,0.0,0.0,227,14,241.234190520205,795.2339999999998,mp-15613,Cu(RhS2)2,https://materialsproject.org/materials/mp-15613,13.589264529061403,4.181845156069149,-8.604250342815693,-0.5045126942092143
-4.2726455521428575,-59.81703773,4.451831678740642,-2.017108734251429,1.0,0.07438112600504873,0.0,11,14,156.68040265710223,420.0532256,mp-752742,LiCu2F4,https://materialsproject.org/materials/mp-752742,-60.171290056477076,-17.971396748656787,-8.604250342815693,-0.5045126942092143
-5.5311550513793115,-160.40349649,5.040806975837588,-2.5099073011206907,0.0,0.0,1.7883999999999998,12,29,461.61511513734183,1401.2996000000005,mp-555609,Sr9Zn4(CuO7)2,https://materialsproject.org/materials/mp-555609,10.089272794332476,-26.654537707189366,6.016660312814202,-1.5916743569732703
-1.7906387558333332,-21.48766507,4.651338120729862,-0.2746559408333331,0.0,0.0,0.0,194,12,244.04115324586292,683.5840000000002,mp-13364,CaZn2,https://materialsproject.org/materials/mp-13364,-0.5272638554347615,96.81056676168396,-8.604250342815693,-0.5045126942092143
-4.5357155025,-18.14286201,11.697391865684256,-0.5566025381250004,2.8e-06,3.758607757470375e-07,0.0,225,4,86.81773536573759,611.573138,mp-862909,PmGeAu2,https://materialsproject.org/materials/mp-862909,-7.3801757343268,48.05374766624246,-8.604250342815693,-0.5045126942092143
-6.0312723477941175,-410.12651965,5.4837089164186565,-2.1386076920955883,25.0000009,0.2650350783468973,0.5049999999999999,43,68,1099.2945976053338,3630.27393,mp-1178548,Ba8Co7O19,https://materialsproject.org/materials/mp-1178548,-38.72685467666717,-24.33555168813451,2.0368454239656284,-0.5962454583614262
-4.73262899,-28.39577394,8.963161809031009,-0.3166598916666666,1.57e-05,1.587030370654502e-06,0.0,164,6,115.29005387195556,622.306,mp-1222379,LuCuGe,https://materialsproject.org/materials/mp-1222379,-5.165991285542494,56.492857024129044,-8.604250342815693,-0.5045126942092143
-4.0199479825,-16.07979193,9.875651225028447,-0.750405544375,1.4599999999999999e-05,1.8162673845630215e-06,0.0,225,4,93.680780222956,557.143608,mp-1184999,LaMgAu2,https://materialsproject.org/materials/mp-1184999,-14.086098582229756,45.0761593611827,-8.604250342815693,-0.5045126942092143
-4.3074237900000005,-47.38166169,7.925917279087742,-0.4269736700000005,1.6e-06,1.004934346180418e-07,0.0,71,11,185.54947103726374,885.6460000000001,mp-1205488,Yb3(CuSi)4,https://materialsproject.org/materials/mp-1205488,-4.142134710181582,47.13351523151603,-8.604250342815693,-0.5045126942092143
-6.177071893333332,-222.37458816,3.959601249150429,-0.8853710566133333,0.992202,0.015068772577777003,0.0,62,36,767.360866041361,1829.7932,mp-1246851,Sr4VN4,https://materialsproject.org/materials/mp-1246851,4.824332188010702,7.164204441793768,-8.604250342815693,-0.5045126942092143
-4.539503400000001,-27.237020399999995,9.162275374311355,-0.28062129166666594,4.18e-05,4.602162153991204e-06,0.0,74,6,105.85022673973481,584.0446400000001,mp-30584,HoCu2,https://materialsproject.org/materials/mp-30584,1.8806303297769495,41.417727177461174,-8.604250342815693,-0.5045126942092143
-4.687698748333333,-56.25238498,6.556297648200997,-1.0556046702083333,3e-07,2.4007038899215345e-08,0.0,59,12,145.63309729473463,575.0024,mp-754978,CdCu2O3,https://materialsproject.org/materials/mp-754978,-59.314622694069044,1.1376764222872835,-8.604250342815693,-0.5045126942092143
-9.2364071175,-36.94562847,14.723459952225962,-0.4302974137500009,1.34e-05,2.2671239907494347e-06,0.0,225,4,68.88219108857703,610.756,mp-864974,Hf2CuOs,https://materialsproject.org/materials/mp-864974,-10.009483811013,53.303469168431434,-8.604250342815693,-0.5045126942092143
-4.22733986,-16.90935944,8.390125722461686,-0.30311354270833313,7e-07,1.0653318006022315e-07,0.0,225,4,76.57562964120812,386.91,mp-862916,PmInCu2,https://materialsproject.org/materials/mp-862916,-7.9446390323776885,53.89342356594346,-8.604250342815693,-0.5045126942092143
-6.976590944102564,-272.08704682,4.310380451376187,-2.5400404646669235,23.999999600000002,0.6206599261714248,0.0,1,39,450.64541480088235,1169.7726699999998,mp-1247633,SrCa7Mn6Cr2O23,https://materialsproject.org/materials/mp-1247633,-32.466086944130424,-9.408756138499301,-8.604250342815693,-0.5045126942092143
-3.086762875,-12.3470515,6.445528140756411,-0.5600416766666667,1.18e-05,1.3864957309605614e-06,0.0,225,4,99.18383536668536,384.990769,mp-983850,Ca2AgAu,https://materialsproject.org/materials/mp-983850,-11.696249968502624,49.09748404763176,-8.604250342815693,-0.5045126942092143
-6.136666807333333,-92.05000211,7.00913238063196,-2.1605410199999997,2.8999999999999998e-06,1.5221630221357785e-07,0.0,139,15,222.0313287666268,937.19385,mp-1208753,Sr2YCu2(BiO4)2,https://materialsproject.org/materials/mp-1208753,-44.88436825105489,-5.779208674631591,-8.604250342815693,-0.5045126942092143
-5.574592036666666,-66.89510444,4.6585788496563385,-2.310931480855833,6.424460900000001,0.3951022437143989,0.0,139,12,189.4979961477971,531.6293900000002,mp-23593,Sr3Co2Cl2O5,https://materialsproject.org/materials/mp-23593,-34.503199151013085,-16.87355453347649,-5.023558229469812,-0.5260303518833833
-4.374509143333333,-26.24705486,8.4983369463171,-0.17237406708333286,0.0,0.0,0.02099999999999991,191,6,91.4628031512034,468.09,mp-227,SmCu5,https://materialsproject.org/materials/mp-227,3.595317591442581,43.81604511906279,-8.604250342815693,-0.5045126942092143
-5.807997246428571,-81.31196145,4.8897140248894315,-0.6284951660199992,0.12251485,0.005155118449303106,0.0,176,14,276.9666713853008,815.5712000000002,mp-1245993,Sr3RhN3,https://materialsproject.org/materials/mp-1245993,7.33813328051223,6.555781928624985,-8.604250342815693,-0.5045126942092143
-4.581439949166667,-54.97727939,6.3644771213161535,-0.5477429319444447,7.5e-08,3.248679730957965e-09,0.0,62,12,269.049253951616,1031.2060000000001,mp-20220,CaInRh,https://materialsproject.org/materials/mp-20220,-13.461592591302926,51.39239277647616,-8.604250342815693,-0.5045126942092143
-8.01674248125,-64.13393985,4.038490487120117,-0.8136682774399997,3.9271867,0.5062568807256452,0.0,122,8,90.40408124455247,219.86596720000003,mp-1245566,MnAlN2,https://materialsproject.org/materials/mp-1245566,-0.4672500912659325,10.07874042943562,-8.604250342815693,-0.5045126942092143
-10.66577248,-42.66308992,9.662181349631837,-0.28274035749999804,14.081132,1.992968419493144,0.0,225,4,82.34070484704314,479.116,mp-1184422,Gd2CuRu,https://materialsproject.org/materials/mp-1184422,10.610059159555401,50.11584839154679,-8.604250342815693,-0.5045126942092143