energy_per_atom,energy,density,formation_energy_per_atom,total_magnetization,band_gap,sgr,num_sites,cell_volume,weight,mp_id,formula,URL,tsne_cry_0,tsne_cry_1,tsne_xrd_0,tsne_xrd_1
-7.968758789166666,-95.62510547,9.414413522609369,-0.6078176908333326,1.175e-06,0.0,62,12,189.4009971118587,1073.8075199999998,mp-1102532,NbGeRh,https://materialsproject.org/materials/mp-1102532,62.8104185306915,35.649859359599326,71.0034848071887,3.5225242450290466
-4.891427776428571,-136.95997774,8.855370757184557,-0.7108763900000002,2.26e-05,0.0,63,28,473.00354041444945,2522.447,mp-1213121,Dy2(Ga3Rh)3,https://materialsproject.org/materials/mp-1213121,69.37775871726275,15.822865860545702,64.87718325978847,5.369165687309481
-6.678355632222222,-60.10520069,7.105679983667768,-0.2672914838888885,0.0190112,0.0,153,9,137.10337517908278,586.6846158000002,mp-1228900,AlGeMo,https://materialsproject.org/materials/mp-1228900,54.115796559328395,42.450279060662666,71.36562047208763,18.111105305348982
-6.240386968928571,-174.73083513,8.443322883322415,-0.17069905428571375,11.454008300000002,0.0,42,28,369.5049156281749,1878.8172,mp-1220102,PrGa3Co10,https://materialsproject.org/materials/mp-1220102,22.18066251896719,38.04902193628136,65.49410459808453,-22.18323229190701
-7.0290319095000005,-140.58063819,7.798042887658241,-0.6443762410000005,0.0009551000000000001,0.0,72,20,359.5422880999693,1688.4434,mp-620812,Y2Ge5Ru3,https://materialsproject.org/materials/mp-620812,68.56659517842277,12.956236498269572,43.72496999997343,-13.995441212040207
-7.206380158928572,-201.77864445,9.565208935341088,-0.7634332674999992,4.25e-06,0.0,62,28,448.4540398490411,2583.2314,mp-1192507,Y(GeRh2)2,https://materialsproject.org/materials/mp-1192507,63.53459749816985,34.985417140166476,70.3798130062674,3.4385290241428703
-6.715116416,-100.72674624,5.019982423114858,-0.34165333166666584,0.0053033,0.0,164,15,216.321096712414,653.9612,mp-1216145,Y2Fe4Si9,https://materialsproject.org/materials/mp-1216145,51.14192589013901,0.0848792789260118,41.89167381384365,-9.888999487360158
-4.273602655,-25.64161593,8.354511279925648,-0.15614742583333316,5.9e-06,0.0,187,6,85.09423792841713,428.126502,mp-1223886,HoBeCu4,https://materialsproject.org/materials/mp-1223886,75.28398889828274,19.437564519020555,88.17251128060921,-12.084980912786195
-4.333376303392857,-242.66907299,7.951690103576581,-0.3762902726785714,2.875e-07,0.0,230,56,752.8819911727038,3605.2656,mp-570845,Zn(GaNi)3,https://materialsproject.org/materials/mp-570845,45.682714227617815,59.156470036279565,88.03997553117429,-5.519436964034827
-6.8607898800000005,-123.49421784,4.636139090730691,-0.4011823344444447,0.3219609666666667,0.0,3,18,231.17947535963364,645.4411349999999,mp-1216867,TiMnSi4,https://materialsproject.org/materials/mp-1216867,47.88912591202989,50.33734746164305,76.80226947208884,-6.755475661935298
-5.3907076016666675,-32.34424561,8.296697362840439,-0.5023026066666674,1.63e-05,0.0,65,6,91.19431844775112,455.6422,mp-1226750,CeGa2Ni3,https://materialsproject.org/materials/mp-1226750,75.55550468305825,15.67663588105538,84.860052290746,-12.012418945803251
-9.94448175125,-79.55585401,8.923331019713073,-0.5370741274400004,3.115e-05,0.0,194,8,81.83974673396726,439.7868,mp-1078389,MoN,https://materialsproject.org/materials/mp-1078389,31.92919815330553,48.22298122805514,68.04177841699514,9.802392119595657
-6.543551772727272,-143.958139,6.8153196404529295,-0.21368129181818252,0.00018519999999999998,0.0,194,22,318.8202378705625,1308.528,mp-571557,V6Ga5,https://materialsproject.org/materials/mp-571557,66.79660145315155,33.6257695540761,75.79397638604749,1.049462278441492
-8.322717080833334,-99.87260497,6.063220386221168,-1.0671328904365076,9.775e-06,0.0,62,12,147.54599152714374,538.7430479999998,mp-1101870,TiFeP,https://materialsproject.org/materials/mp-1101870,44.23004864459778,52.96865347961249,74.95805651649285,-10.446815750372167
-4.607483315,-101.36463293,4.734885978591533,-0.5174429772727275,1.635e-05,0.0,63,22,429.96588941785666,1226.0112,mp-1192309,Ca4Ni4Ge3,https://materialsproject.org/materials/mp-1192309,31.80811734342059,19.33443613333993,57.22399149973477,-14.83697192439202
-8.4685742945,-169.37148589,7.182298003202756,-0.14174505845199975,0.2168781,0.0,59,20,180.4228870328476,780.37969,mp-1247476,MnFe5N4,https://materialsproject.org/materials/mp-1247476,27.87456088011809,53.19729548160293,70.18535522388927,-0.4884649988046471
-7.423205885000002,-89.07847062,4.84869203626139,-0.6839775216666671,0.02040795,0.0,62,12,176.5597132182859,515.545648,mp-22701,ScFeSi,https://materialsproject.org/materials/mp-22701,48.41989856280336,45.317553298466606,67.06029183887567,-4.816381870337195
-5.6490267380952375,-118.6295615,7.06154055349571,-0.32486952119047546,0.0311152,0.0,174,21,290.49795994648576,1235.359769,mp-1191350,Pr2Mn3Cu9P7,https://materialsproject.org/materials/mp-1191350,64.82682973438594,9.592019029677736,61.12344178508343,-2.453545776643067
-5.733820936190477,-120.41023966,7.2705546510576,-0.4245415064285708,9.9378588,0.0,6,21,290.37692648177745,1271.395169,mp-1191830,Tb2Mn3Cu9P7,https://materialsproject.org/materials/mp-1191830,64.79391483630796,9.69041057410861,60.96471766652235,-2.3422096804653068
-7.5889879125,-30.35595165,8.533614453800148,-0.0699042612499996,4.0000632000000005,0.0,216,4,47.427107468631924,243.730885,mp-1017515,Mn2CoAs,https://materialsproject.org/materials/mp-1017515,79.40925394176811,48.92023664417482,91.38673701073584,-4.8980662122029965
-6.066695648333333,-36.40017389,15.711230303221074,-0.8025926755555552,2.3899999999999998e-05,0.0,216,6,111.78473766323015,1057.654,mp-1025113,DyInPt4,https://materialsproject.org/materials/mp-1025113,82.05127513238156,11.958364897149208,61.712916311666056,26.19329690268064
-8.526931373793103,-247.28100984,9.238333867734363,-0.24022791586206976,36.0731848,0.0,225,29,308.02242243910143,1713.66882,mp-1208129,U2(Fe7B2)3,https://materialsproject.org/materials/mp-1208129,40.646351779734076,50.65160386009689,66.17074407011951,-9.250706515979283
-2.27858121,-9.11432484,6.837724280678116,0.6641569556550002,4.52e-05,0.0,139,4,51.055183280807384,210.23370000000003,mp-981366,Zn3N,https://materialsproject.org/materials/mp-981366,52.42955006339576,64.21345714209549,80.21007278859463,-4.0251984681221655
-6.3477804183333335,-38.08668251,14.988988787869765,-0.6376252350000003,0.0075596000000000005,0.0,187,6,109.01116262120705,983.998,mp-1226665,CeCuPt4,https://materialsproject.org/materials/mp-1226665,76.77745399224573,12.072171462168102,62.12398765270966,22.76683937301627
-6.61486926,-52.91895408,8.502890922166102,-0.5570239750000008,0.0,0.0,194,8,129.03696309825838,660.7416,mp-3469,ZrNi2Sb,https://materialsproject.org/materials/mp-3469,68.75160305342837,17.867032816375534,65.72812067188039,11.15315150743408
-6.217828409473684,-118.13873978,6.949602013530338,-0.35401092973684234,0.0,0.02340000000000053,166,19,193.36586346692746,809.2647999999998,mp-21312,Ca(Ni2B)6,https://materialsproject.org/materials/mp-21312,31.51994805613292,45.05353189096733,69.2676002116366,-19.835489027223968
-4.275884551666667,-25.65530731,8.250185297529535,-0.15386563666666633,5.610000000000001e-05,0.0,187,6,85.68112156239901,425.696182,mp-1225311,DyBeCu4,https://materialsproject.org/materials/mp-1225311,75.23653582462508,19.263027558988004,88.05975132568399,-12.055042766085274
-5.2044279327777785,-93.67970279,7.968264963616179,-0.5077965669444447,7.433333333333333e-06,0.0,189,18,285.354301305214,1369.30155,mp-1220050,PrGa2Ni3,https://materialsproject.org/materials/mp-1220050,76.49838316180876,15.486884858178101,63.023394872969654,0.6347101297487793
-6.845539903333332,-41.07323942,8.607820026378446,-0.11468276500000013,2.7507669,0.0,194,6,72.30988302499856,374.83639,mp-1025047,FeCoGe,https://materialsproject.org/materials/mp-1025047,46.608749882409704,56.45294510178672,84.8063066125111,-2.4315489291846104
-6.05818858,-36.34913148,15.751802701853087,-0.7986492930555548,3.0299999999999998e-05,0.0,216,6,111.75301217077612,1060.08432,mp-1025022,HoInPt4,https://materialsproject.org/materials/mp-1025022,81.98911640931242,11.905858206564028,61.716165356201905,26.192385298958534
-7.583484568333334,-45.50090741,18.3326228570555,-0.14749862614583384,0.09427569999999999,0.0,191,6,110.45307220605906,1219.42,mp-7751,PuPt5,https://materialsproject.org/materials/mp-7751,76.44226391013645,12.388086832858985,62.08382803920449,22.676964571795548
-7.6996630675,-61.59730454,6.364986096057472,-0.5103853389285709,5.9731845,0.0,6,8,101.1183259619433,387.595066,mp-1221760,Mn4AsP3,https://materialsproject.org/materials/mp-1221760,17.973729836506923,37.44137611258019,67.84027310037838,-23.03552466496774
-6.260460750357143,-175.29290101,8.343316975025656,-0.18056497303571464,11.6171153,0.0,42,28,373.1369577390052,1874.8128399999998,mp-1223198,LaGa3Co10,https://materialsproject.org/materials/mp-1223198,22.215883024163862,38.00337507175453,65.42265118269036,-22.13566346917717
-6.38398819724138,-185.13565772,7.851856070614603,-0.3812426886206898,3.77e-05,0.0,225,29,293.39953795090145,1387.339224,mp-647205,Sc2(Ni7B2)3,https://materialsproject.org/materials/mp-647205,39.57498698394181,53.4361681946621,79.24301012091044,-10.8515109838437
-7.066897365,-56.53517892,7.614804818222387,-0.2507791612500005,5.7170981,0.0,6,8,113.47028529076503,520.3455349999999,mp-1221780,Mn3FeAs4,https://materialsproject.org/materials/mp-1221780,22.58873729030263,35.966137268254634,62.93676921039522,-23.175307219512987
-10.203489398333334,-122.44187278,15.61423313218974,-0.22884372263888744,1.91130275,0.0,22,12,135.10018888037177,1270.36209,mp-1221607,MnRe3B2,https://materialsproject.org/materials/mp-1221607,54.16576506485877,39.22440468619555,68.77805211515503,13.851866425458994
-7.2541633925,-29.01665357,5.2548891221008525,-0.4589430246484376,8.82e-05,0.0,187,4,70.32902516003783,222.561,mp-1217116,Ti3Se,https://materialsproject.org/materials/mp-1217116,68.3234021801841,36.0329571413699,60.94887245622854,-18.451833630919328
-7.17824074,-28.71296296,6.818545553567513,-0.4164164399999999,2.0155382,0.0,225,4,47.68113481906554,195.78942859999998,mp-4955,AlVCo2,https://materialsproject.org/materials/mp-4955,45.28806990928658,60.41416193150437,89.78134585864193,-4.937992740539318
-7.7259917618421055,-293.58768695,7.285249575581419,-0.05240210723684263,60.1240128,0.0,2,38,529.6135979178853,2323.5630999999994,mp-1220120,Pr4Fe29Si5,https://materialsproject.org/materials/mp-1220120,74.49713914824251,35.823842990105774,88.5108155032801,-22.702735645951496
-6.57439293125,-210.38057379999998,6.412384059292884,-0.3512499925000005,5.9129629,0.0032000000000005357,62,32,505.7170700455593,1952.8912,mp-22640,CaFe4As3,https://materialsproject.org/materials/mp-22640,21.009527906233803,37.91166874144629,68.37339176598205,-21.982713705568873
-7.172085849999998,-43.032515100000005,11.031628151987702,-0.2884023841666661,8e-07,0.0,191,6,102.62611144946628,681.7865,mp-1805,ErRh5,https://materialsproject.org/materials/mp-1805,73.38645447948447,15.185539769803011,65.66321066381505,1.6511003403731164
-6.0517074499999985,-36.310244700000005,15.861692918488464,-0.7939432613888885,2.9999999999999997e-05,0.0,216,6,111.22257076652805,1062.413,mp-1080382,ErInPt4,https://materialsproject.org/materials/mp-1080382,81.92621033139477,11.922516403271635,61.7652197181404,26.206771953193112
-8.762465627000001,-87.62465627,6.646897911163866,-0.7998987444760004,0.00065095,0.0,63,10,119.650183249473,478.9424,mp-1079695,V3GeN,https://materialsproject.org/materials/mp-1079695,51.50505905179473,48.75900923899781,73.39190676211635,-3.2791171683683036
-7.607676040833333,-91.29211249,6.484429845419887,-0.4028370924999993,0.17816675,0.0,38,12,141.3159184228501,551.84078,mp-1216425,VCoSi,https://materialsproject.org/materials/mp-1216425,47.5206546503629,53.7291804888477,78.24289493149787,-4.776687987648634
-7.3842083526666675,-332.28937587,5.596596576986336,-0.6624484505138892,0.03620326666666667,0.004499999999999282,12,45,749.8127883560837,2527.131,mp-510285,Ti11Se4,https://materialsproject.org/materials/mp-510285,36.525559406123904,29.90935021056228,61.108226086321004,0.7298311022175362
-5.950504258461539,-77.35655536,7.878700987707088,-0.28065097442307685,11.1892167,0.0,71,13,189.19145066956003,897.6499999999999,mp-1220971,Nd(GaFe)6,https://materialsproject.org/materials/mp-1220971,67.81513652521062,33.77021669905914,68.98253897000832,2.3392527744200304
-6.9828917525,-27.93156701,6.31547017725936,-0.4596212312499999,0.0769217,0.0,225,4,43.845757325743925,166.7570386,mp-867878,AlFe2Si,https://materialsproject.org/materials/mp-867878,42.518131950282786,59.11429610163609,92.56716701858379,-7.979782212079272
-9.698675646666667,-58.19205388,15.545618031868893,-0.2427739533333337,4.0799999999999996e-05,0.0,227,6,111.2129179444553,1041.152,mp-2098,CeOs2,https://materialsproject.org/materials/mp-2098,81.78826722466206,11.857440702608766,61.72691681184003,26.274639815595517
-7.725043222068965,-224.02625344,8.916302616792542,-0.08900254517241453,50.7775719,0.0,225,29,427.9784717080937,2298.04026,mp-1193308,Tm6Fe23,https://materialsproject.org/materials/mp-1193308,71.5185970151449,28.345351713494026,62.66367611812294,12.365408716408224
-5.1499571275000005,-144.19879957,8.402257222570112,-0.5423304542857151,3.45e-06,0.0,63,28,486.73806564921927,2462.874,mp-1209216,Sm2(Ga3Ru)3,https://materialsproject.org/materials/mp-1209216,69.54355904597328,15.722301957737065,64.97598239002544,5.0024331556303165
-5.342465613888889,-192.3287621,9.299721758612764,-0.4635174880555558,0.07742786666666666,0.0,51,36,652.7056464122188,3655.428,mp-30267,CeGa4Os,https://materialsproject.org/materials/mp-30267,62.40822393486486,13.258826183756433,54.4594371518987,-9.077526947353599
-5.4768903942857134,-76.67646552,9.354049464171199,-0.17032256000000046,0.0,0.0,12,14,190.65280355591668,1073.974,mp-2409,Ni5Sb2,https://materialsproject.org/materials/mp-2409,54.10878053082792,64.63754064984144,72.94579833679988,-14.955063984341116
-5.355374005,-53.55374005,6.533838023930657,-0.5026527026250008,1.285e-05,0.0,63,10,122.09620546003336,480.4204,mp-850086,Ni3S2,https://materialsproject.org/materials/mp-850086,18.242317778178148,37.43710421240464,68.37320888792479,-22.609333824315826
-6.458726667586207,-187.30307336,7.609744457080732,-0.4368680356896552,0.0014269999999999999,0.0,225,29,299.73664962131784,1373.6017359999996,mp-1194311,Sc3(Ni10B3)2,https://materialsproject.org/materials/mp-1194311,40.257549842724906,53.56502466105286,79.14470299075333,-10.584490319737334
-5.6486650325,-22.59466013,7.448141728434153,-0.3779468775000003,1.4e-06,0.0,225,4,45.27195598175921,203.0617386,mp-672232,AlNi3,https://materialsproject.org/materials/mp-672232,42.856733505774564,60.493587063181494,91.2212186195614,-8.272011907246647
-7.681552534444445,-69.13397281,7.746981117842133,-0.10009370944444464,2.054271066666667,0.0,189,9,117.52368843658986,548.2881,mp-1206083,CrFeAs,https://materialsproject.org/materials/mp-1206083,45.22587012730453,50.836774481286994,74.44456691898844,-12.685984274435166
-8.52606015724138,-247.25574456,7.873951000926804,-0.2637431065517247,34.057559399999995,0.0,225,29,308.001991887479,1460.48514,mp-21666,Nb3(Fe10B3)2,https://materialsproject.org/materials/mp-21666,41.287210260497424,52.21793434463178,68.02512405663154,-9.024423839092412
-5.2451987082142875,-293.73112766,5.09300497051812,-0.6270298282142862,2.5e-08,0.0,230,56,740.7864580054376,2272.0508352,mp-16515,Al4Ni3,https://materialsproject.org/materials/mp-16515,43.47440615333803,44.69263155309517,68.866197952066,-13.870153055127163
-8.497902599655173,-492.87835078,7.7408085222775815,-0.011401530150862982,94.6264568,0.0,1,58,581.2136160777827,2709.3993,mp-1226402,Fe46(BC3)3,https://materialsproject.org/materials/mp-1226402,39.791747549556604,54.45251018901958,78.97420231011519,-11.624720465714553
-5.573056297241379,-161.61863262,10.235416421358787,-0.6705172468965519,9.6e-06,0.0,225,29,491.3275899694552,3028.5,mp-1194002,Zr6Ga16Pt7,https://materialsproject.org/materials/mp-1194002,59.623076884964334,18.109699222978577,60.165519147399365,-11.59715148798578
-5.96783679,-23.87134716,9.18741703347472,-0.3312863374999999,4.0846501,0.0,99,4,61.00013303209535,337.50104500000003,mp-1222045,MnGaPd2,https://materialsproject.org/materials/mp-1222045,65.57307844620651,35.67824815736835,75.22194922961657,7.235102527479223
-3.92162682,-47.05952184,2.5834601275955893,0.2300296100000002,0.0,0.0,139,12,206.90629339406442,321.904,mp-1257615,MgSi2,https://materialsproject.org/materials/mp-1257615,41.92736053729813,25.337699713493706,74.65829206560734,7.6713591273351645
-6.529748525714285,-182.83295872,10.52335095945824,-0.6701545528571425,14.10145285,0.0,63,28,479.27526262758903,3037.316,mp-1213497,Gd2(Ga3Ir)3,https://materialsproject.org/materials/mp-1213497,62.35684517437632,13.315148548475973,54.722703404888065,-9.34126409748732
-5.1858373975,-62.23004877,8.281126202863907,-0.24909349625000074,1.39e-05,0.0,47,12,178.26468949711742,889.0079400000002,mp-1223292,La2(CuNi)5,https://materialsproject.org/materials/mp-1223292,77.44206408546503,16.808054952789732,85.6857227804883,-12.574358831959088
-7.9511668700000016,-95.41400244,6.242833709893718,-1.1455281896031753,5.5e-07,0.0,62,12,146.58665915205108,551.095828,mp-1102138,TiCoP,https://materialsproject.org/materials/mp-1102138,44.21472563848609,52.92071756676389,74.95955836804612,-10.509818106720259
-7.364335644264706,-500.77482381,7.878312292316233,-0.4457933783823536,2.2e-06,0.0,61,68,1033.2131243808763,4902.008,mp-680655,Zr7Ni10,https://materialsproject.org/materials/mp-680655,66.54193663610576,33.588052779180174,72.06935780571372,1.8086335553538715
-9.084391745,-109.01270094,6.844266409086738,-0.8836787923809529,0.000354275,0.0,62,12,169.6591828702001,699.286568,mp-1102537,NbVP,https://materialsproject.org/materials/mp-1102537,63.06020190853962,28.03923650554131,70.81606419001035,1.898175287958072
-8.093664293793104,-234.71626452,6.911346712622013,-0.04606377965517328,49.8313476,0.0,225,29,436.766435864928,1817.8701,mp-30641,Y6Fe23,https://materialsproject.org/materials/mp-30641,69.60258544590779,31.21176464302255,68.64730166972852,5.541133934283726
-8.219671501111113,-73.97704351,5.575322699792542,-1.02660992367725,7.59e-05,0.0,38,9,117.96718374037765,396.07928599999997,mp-1217126,Ti4Fe2P3,https://materialsproject.org/materials/mp-1217126,49.62701900031686,47.26388393352614,74.62879864058601,-9.112499438596206
-7.882973008333334,-94.59567609999999,6.819397523579164,-0.5370408490476196,5.0063574,0.0,26,12,139.01793171494694,570.910118,mp-1221804,Mn3NiP2,https://materialsproject.org/materials/mp-1221804,44.08609089883422,53.20689382592281,75.58009798651024,-10.882565035232025
-8.40673878952381,-176.54151458,7.167472783399434,-0.06374639654762047,36.2065465,0.0,12,21,266.7061941625083,1151.1981,mp-1216161,Y2Fe17C2,https://materialsproject.org/materials/mp-1216161,71.18657795405932,37.60929386363188,82.00313472971337,-21.43266248158251
-7.562318470588236,-514.237656,8.379385320811469,-0.02268114745097993,31.014141925,0.0,136,68,902.6393243769453,4554.883999999999,mp-1196806,Yb2Fe14B,https://materialsproject.org/materials/mp-1196806,72.72020311963706,31.93831127907457,83.62500745947726,-6.620341356289773
-7.947787062291668,-381.49377899,6.4073254203829455,-0.5918859697916664,0.011807191666666666,0.0,55,48,637.298572806457,2459.06856,mp-1196167,NbFeSi2,https://materialsproject.org/materials/mp-1196167,63.59113533996489,28.237702059516888,63.455223030834034,9.400364865507989
-5.806513011428572,-162.58236432,8.438024396922856,-0.41923553482142895,2.835e-05,0.0,140,28,376.93854468112687,1915.41214,mp-1194233,LaNi9Ge4,https://materialsproject.org/materials/mp-1194233,22.32103027843561,37.896238751631934,65.32034176327956,-22.05061973705784