energy_per_atom,energy,density,formation_energy_per_atom,total_magnetization,band_gap,sgr,num_sites,cell_volume,weight,mp_id,formula,URL,tsne_cry_0,tsne_cry_1,tsne_xrd_0,tsne_xrd_1
-3.905109868571429,-109.34307632,5.684402768570184,-1.3719148821243845,0.0,1.8307,14,28,760.8000011737996,2604.3914228,mp-756122,Cs3TlO3,https://materialsproject.org/materials/mp-756122,-5.127459430215473,-30.448731128122482,-24.036940545638462,-52.452593839909724
-5.7655384996666665,-345.93230998,4.8885561777432525,-1.9389942341041682,0.0,2.205,41,60,1436.2110045307736,4228.143999999998,mp-1195907,Nd4GaSbS9,https://materialsproject.org/materials/mp-1195907,9.435214688720704,-6.337826589591822,-8.652898913005645,-18.459674746348025
-5.024703043333333,-60.29643652,4.631450023456057,-0.5198699445833329,2.2e-06,0.0,51,12,219.25505709910283,611.5296387999998,mp-12274,LaAl4Co,https://materialsproject.org/materials/mp-12274,39.68486234805382,-13.98764115620974,4.41407224055621,-0.09772974371764616
-4.54934957625,-72.78959322,7.840885802888621,-0.6416257793749995,0.5754722,0.0,63,16,320.5083978451022,1513.4060000000004,mp-3440,Li2(LuGe)3,https://materialsproject.org/materials/mp-3440,37.09394911885091,-18.700603404061003,20.77688510293777,2.306274787947894
-6.167015301071428,-172.67642843,8.295393271201068,-1.9590846593995237,5.2300000000000004e-05,1.2134999999999998,44,28,446.4819852234694,2230.4466,mp-1217203,TiBi8W(ClO8)2,https://materialsproject.org/materials/mp-1217203,-18.45392302676132,-56.05391588566558,-10.560428552260351,-58.12540596520916
-7.025306190833334,-168.60734858,4.41022574054568,-2.7813153170486125,0.0,3.9868,63,24,309.0408451393753,820.7816,mp-560870,BaGa2B2O7,https://materialsproject.org/materials/mp-560870,-26.748079456443485,-28.46951743218388,-6.726099472953949,-24.403949318854817
-8.55482511,-34.21930044,9.873037178759672,-0.31211376687499914,1.7e-06,0.0,38,4,52.978388663017434,314.99265499999996,mp-999088,ThCoC2,https://materialsproject.org/materials/mp-999088,51.005887454039154,-10.2229932735067,30.764518867350212,8.20796057432698
-7.121695309166667,-170.92068742,5.019838906256198,-2.623791842183908,0.0,3.596,13,24,407.06387679623083,1230.5613038,mp-572231,CsDy(MoO4)2,https://materialsproject.org/materials/mp-572231,-49.35602082786705,-51.76492933611204,-29.842150856160565,-54.93023405856169
-6.117724373888889,-220.23807746,4.572446828700091,-2.42919984225,0.999999975,0.5194999999999999,62,36,498.05280175391886,1371.43415424,mp-1194762,Na2NdGeO5,https://materialsproject.org/materials/mp-1194762,-21.74169257860817,-37.55428688966857,-17.7562440549459,-26.9720656224075
-7.435037120487804,-304.83652194,7.2991926088667,-2.4228154985060986,2.0000023999999996,0.0,8,41,632.0534220378058,2778.30244,mp-758350,Nb8Tl8O25,https://materialsproject.org/materials/mp-758350,-19.059523306217354,-75.86991913784787,-2.76278322546439,-77.36520292552983
-5.585454607368422,-212.24727508,4.4584917348124975,-1.6643154844078951,0.0,1.9759,161,38,878.7208252259329,2359.3360000000002,mp-560086,Nd4(GeS4)3,https://materialsproject.org/materials/mp-560086,-2.187184754043649,-11.496119176403965,-9.120751226479122,-11.86363900442926
-8.13231432,-162.6462864,7.160932437609586,-3.730706616916668,0.0,3.2252000000000005,14,20,230.974575218806,996.05808,mp-1212333,Ho2MgTiO6,https://materialsproject.org/materials/mp-1212333,9.290026675646432,-81.47401754594631,50.74513543317785,-53.308642880440814
-8.947971145357142,-250.54319207,7.0684749846146575,-2.9339152014583334,18.000000399999998,0.0,173,28,373.30844529255387,1589.0752,mp-556626,Eu3BWO9,https://materialsproject.org/materials/mp-556626,-28.322575310687732,-58.44218156449753,-19.24323970773724,-52.90075755063587
-7.13694421375,-171.28666113,6.154435608136129,-2.7361906334375012,3.99999995,2.3978,36,24,323.7254256301442,1199.8196,mvc-3726,Ca3W2O7,https://materialsproject.org/materials/mvc-3726,-32.200681533367536,-76.94481465160924,31.11308081369308,-63.26824362891485
-5.910370003958334,-283.69776019,5.663032820045045,-2.077028818000416,14.06790855,0.02560000000000029,194,48,718.2507685562009,2449.49235,mp-23580,Ba5Co5ClO13,https://materialsproject.org/materials/mp-23580,-9.431007146730957,-82.65301956344939,19.04271992358155,-75.21077676232696
-6.288700444444443,-226.39321600000002,5.745002871773517,-0.5806021322222219,4.694796825,0.0,92,36,939.8698295572206,3251.688,mp-1196829,Ce5Si4,https://materialsproject.org/materials/mp-1196829,33.52615481533576,-40.34646511772775,20.363490285941282,-18.300664334783143
-10.119731425,-60.71838855,7.106221798046515,-0.5637397666666667,5.30827155,0.0,129,6,112.29134499049171,480.54709,mp-20553,GdMnSi,https://materialsproject.org/materials/mp-20553,41.79950228724586,-6.798432120013369,26.378468685807785,15.568103509074213
-6.2367437358333335,-74.84092483,5.707076481444624,-1.8904597980208344,0.0002295,0.36439999999999984,62,12,286.18041702364354,983.5682800000001,mp-1103471,LaAsS,https://materialsproject.org/materials/mp-1103471,40.01577858647958,-12.64193896690769,20.352610466191454,10.819320200112806
-6.763365012647059,-459.90882086,5.26322230836723,-2.2512038209138665,1.999866525,1.7677000000000005,4,68,1058.292612755644,3354.350096,mp-1217035,Tl2Mo2P2O11,https://materialsproject.org/materials/mp-1217035,-33.14290094202145,-30.432410573749266,-22.03759961061005,-29.563683071296467
-4.372406363333333,-39.35165727,7.1519989368857715,-0.6868771383333327,4.333333333333334e-07,0.0,189,9,177.30157482572525,763.6439999999999,mp-1205878,LiLuGe,https://materialsproject.org/materials/mp-1205878,38.84162048985539,-17.300037049319013,20.48115577004739,6.83351947205726
-5.271620364166666,-63.25944437,2.782308107750724,-0.976873352604167,2.0031643,0.0,12,12,285.786392963047,478.84800000000007,mp-675423,Sr3Cr2O7,https://materialsproject.org/materials/mp-675423,-46.355671047906895,-40.96454538717945,-32.83471549347038,-43.83741447921156
-6.61161372,-158.67872928,4.359285763621905,-2.342356267604167,5.00038545,0.0,46,24,351.1708901556782,921.9019999999999,mvc-340,Sr2Cr2GaO7,https://materialsproject.org/materials/mvc-340,-6.3101187585354666,-45.1883489612828,9.735066159032698,-35.748589866663345
-7.045712434285713,-197.27994816,5.947959579215401,-2.214834105625,1.00000005,1.7542999999999995,9,28,397.1133514997596,1422.4382,mp-1208138,V3Pb2O9,https://materialsproject.org/materials/mp-1208138,-26.09964045730803,-42.39254507301601,-20.170644980820274,-43.90332314976719
-7.002954931538462,-91.03841411,5.895296914519106,-2.61566615471154,6.2330987,0.0,123,13,192.80919478798748,684.51715,mvc-2488,Sr2YTlCr2O7,https://materialsproject.org/materials/mvc-2488,10.813028717119787,-66.45931562728529,11.507381298818428,-48.054347424546684
-7.508381325,-75.08381325,7.018162155958677,-1.1533055942973334,1e-07,0.0,139,10,141.43010679643044,597.74531,mp-6114,La3Ni2B2N3,https://materialsproject.org/materials/mp-6114,49.836306521088886,-10.053347087608472,21.291453036731976,-36.106023726560714
-6.426140905,-102.81825448,4.629938826730563,-0.6694961958924992,2.6313406,0.0,15,16,240.93635169361698,671.7822,mp-8923,Sr2LiFe2N3,https://materialsproject.org/materials/mp-8923,23.32424820066628,-46.895054186080934,15.973390109138201,-21.34381061110928
-8.475549665,-33.90219866,5.866427001208731,-1.5705317530357157,14.0000217,0.0,166,4,117.41408555429504,414.805762,mp-613052,Eu2PBr,https://materialsproject.org/materials/mp-613052,24.49900300225909,-11.25427417869465,13.537834845323408,19.914845956903573
-5.292878463333333,-127.02908312,4.587925071188288,-1.6918622409374997,4.86581905,0.0,8,24,343.36628215604884,948.6912,mvc-890,Sr2GaNi2O7,https://materialsproject.org/materials/mvc-890,-6.327843259779957,-45.17648115287453,9.785777774832919,-35.69325046177987
-6.454872914000001,-64.54872914,5.558515692379143,-2.374834870916668,1.0,0.05290000000000017,1,10,139.76767082675923,467.8606,mvc-5942,Ca2AgWO6,https://materialsproject.org/materials/mvc-5942,-32.2592099431207,-76.71405471037116,-21.53697040159091,-24.73829009570284
-7.146167253333334,-343.01602816,4.775820277282987,-2.5877209381393675,0.0,3.4116,15,48,709.7494382576417,2041.2864,mp-630867,RbLiNd2(MoO4)4,https://materialsproject.org/materials/mp-630867,-51.944633264020126,-52.406888772105674,-24.96658238825349,-59.397263978055776
-7.028681510267857,-787.21232915,3.936787479216308,-2.7821135644132653,1.0000003375,2.3917,61,112,1550.942403127239,3676.9569920000004,mp-15531,BaVZnP2O9,https://materialsproject.org/materials/mp-15531,-28.63232608237372,-27.059321805689805,-21.787771293310488,-10.462939812640329
-5.469696920277778,-196.90908913,5.5184426365688415,-1.7248708723495383,0.0,1.0261000000000005,62,36,754.8834480457342,2508.692,mp-1221044,Nd2InCuS5,https://materialsproject.org/materials/mp-1221044,12.329388397821207,-5.6030008620567795,-2.7738972424306767,-14.368240338760168
-6.20837199125,-99.33395186,6.16964228174394,-0.7764230558035718,13.99932165,0.0,194,16,318.246244283772,1182.426572,mp-1212837,Eu2Zn2CuP3,https://materialsproject.org/materials/mp-1212837,33.046254022404696,-13.528426817620161,24.900828924291396,9.197390928542044
-5.231440283392857,-292.96065587,7.651495861510362,-1.5718852848214284,1e-07,2.7121000000000004,141,56,1031.9274669897584,4754.9552,mp-541433,Cd(BiO2)2,https://materialsproject.org/materials/mp-541433,-22.101556384986417,-56.31115151970372,-13.410116942927955,-55.122111947270156
-8.68465392,-95.53119312,6.746435486199697,-1.2511979706163627,1.9454129,0.0,139,11,148.85030924148342,604.7488099999999,mp-569565,La3(CrN3)2,https://materialsproject.org/materials/mp-569565,18.320214535633372,-70.267206497869,41.80021744664656,-45.4707137656825
-8.920209719565216,-410.32964710000005,7.416376329191192,-3.4112976944021733,6.45e-06,0.0,127,46,657.6752844171979,2937.3398,mp-1096815,Ba3Ta4NbO15,https://materialsproject.org/materials/mp-1096815,-32.21423570872983,-67.57236828522026,-4.527274830839015,-56.24691973665516
-6.8869389729999995,-206.60816919,4.9511266832068115,-2.476319316583333,0.0,3.367,2,30,491.1159192695677,1464.33,mp-555063,Nd2As4O9,https://materialsproject.org/materials/mp-555063,-29.755361014316865,-54.65711511100075,-12.461134558857667,-51.309417650167454
-4.5830660515625,-146.65811365,5.389044646109617,-1.2693684201562498,0.0,0.3109000000000006,14,32,1127.7895778379193,3660.0816,mp-555414,Ba3Sb4O,https://materialsproject.org/materials/mp-555414,-2.2726338217450346,-29.11985507443417,-5.696042969786884,-30.710426006153654
-5.04958344,-60.59500128,6.391503598310562,-2.203962004189167,0.0006826,0.0,139,12,252.43884005101762,971.6505999999997,mp-557692,Ba3Tl2Cl2O5,https://materialsproject.org/materials/mp-557692,-6.7862948576465225,-74.09206782800942,-17.15189920716078,-54.214477278170826
-7.981023661071428,-223.46866251,8.29405698199637,-2.870492542053572,0.0,2.9180999999999995,36,28,385.9732349196215,1927.85832,mp-556697,CaTa2Bi2O9,https://materialsproject.org/materials/mp-556697,-31.831979725251532,-67.38056271652565,-7.152387671604299,-58.545047441847544
-6.595092206538463,-171.47239737,4.243418039675208,-2.6260777560989013,5.5e-07,3.2369000000000003,2,26,361.3316056012165,923.3634480000001,mvc-2777,SrZnSn(PO4)2,https://materialsproject.org/materials/mvc-2777,-25.347623272715424,-41.41441300616248,7.819669075532267,-1.7132152354109695
-7.313980590222221,-658.25825312,3.9264574677794095,-3.096149217,0.0,3.6782,161,90,1495.5126721097974,3536.2414,mp-555068,Sr9LuV7O28,https://materialsproject.org/materials/mp-555068,-23.67001754686089,-34.709115862641696,-18.62964163991797,-30.51958409868493
-6.561975812666667,-196.85927438,4.177565441551085,-2.764766784916666,0.0,3.387,15,30,496.6828785883412,1249.5492,mp-17464,SrGeO3,https://materialsproject.org/materials/mp-17464,-29.25297889699519,-33.356483729951144,-1.6557916328530944,-25.32315082947523
-6.057212740982143,-678.40782699,5.920182996882104,-2.1257348307812487,13.00000065,0.0,15,112,1584.2900313769198,5648.33869,mp-1195315,Ba12(CoO3)11,https://materialsproject.org/materials/mp-1195315,-8.490961024833414,-81.36312147273523,19.729248993415105,-75.3657301860672
-4.991838511666667,-59.90206214,4.836158767889937,-0.51392140625,1e-07,0.0,51,12,213.6389481277417,622.2026988,mp-12896,NdAl4Co,https://materialsproject.org/materials/mp-12896,39.725189528557614,-14.011682170013955,4.56441399135616,-0.18014552184064525
-8.118768025652175,-373.46332918,5.7125768656637375,-2.7937592473586963,2.02e-05,1.8963,38,46,673.2301225759431,2316.0424,mp-1223583,KNb5Pb2O15,https://materialsproject.org/materials/mp-1223583,-29.8304204352435,-56.255935058858434,-15.204805800113853,-51.75222860205879
-6.815503160882352,-231.72710747,5.778260520300544,-2.5568135209047065,9.00000145,1.0699999999999998,64,34,502.40170465208206,1748.23227,mp-18791,Ba4Mn3O10,https://materialsproject.org/materials/mp-18791,-8.620469016331928,-81.55621682570779,17.76919581732113,-73.31409606944057
-2.7232179491176467,-185.17882054,6.501499872544888,-0.6828710148900842,1e-07,2.1031000000000004,198,68,1785.1560469115188,6989.412192000002,mp-1200201,Hg6P4PbCl6,https://materialsproject.org/materials/mp-1200201,4.80690773829271,-8.647878269694061,-20.725318409937227,-35.99796707360911
-5.535634835,-44.28507868,3.854518054227227,-0.7173720611899999,0.23186285,0.0,12,8,175.12446483035174,406.5068,mp-29973,SrN,https://materialsproject.org/materials/mp-29973,6.887998161450403,-39.12017623602304,0.09488214452246604,-35.10886892060509
-7.0476445557692315,-183.23875845,6.048259066382252,-2.687160143846154,5e-08,0.3744000000000001,8,26,343.3529169695735,1250.6103999999998,mp-558708,Nd2Cu(GeO4)2,https://materialsproject.org/materials/mp-558708,-8.799272003612497,-47.75190753314602,-3.8525301756499015,-51.89631731340773
-5.231992756666666,-62.78391308,6.816776923212657,-1.4384209228645826,0.0,1.6092999999999993,36,12,260.2578799805994,1068.4,mp-1225628,ErCuPbS3,https://materialsproject.org/materials/mp-1225628,14.411495214896386,-19.206958923659297,6.182671949048947,-0.10036008975835436
-5.20411647,-166.53172704,6.377418986462464,-1.6451942411979168,0.0,1.4177,4,32,710.1701525435672,2727.45928,mp-1208047,TmAgS2,https://materialsproject.org/materials/mp-1208047,18.571306468179035,9.410631340949381,-6.384662572707608,-21.64670369475288
-6.9201161864285705,-193.76325322,5.4595603064092675,-2.5852309185714284,2.4e-06,1.9825,2,28,497.32077531280817,1635.1032400000001,mp-1194343,TmMoBrO4,https://materialsproject.org/materials/mp-1194343,-31.843126797576836,-34.189434232923304,-37.409084429091784,-24.478241362334035
-5.5639125928125,-178.04520297,3.5442213706917345,-2.2289829247952593,0.91942665,0.975,15,32,628.0030638357887,1340.3972,mp-543079,Rb5Si2NiO8,https://materialsproject.org/materials/mp-543079,-4.72289659876501,-33.460911794776656,-1.9687859249902648,-29.022607826287786
-7.320490705999999,-146.40981412,5.830142141175048,-2.78870769125,0.49886805,0.0,11,20,239.6166518952111,841.29256,mvc-4136,Ca2TaCuO6,https://materialsproject.org/materials/mvc-4136,-28.027355266144113,-80.78447816732769,36.787734785413384,-57.42852994231215
-9.592138476153846,-249.39560038,7.308075582309559,-3.5513154243269236,0.0,2.3038,12,26,375.25054360647607,1651.4874200000004,mp-757365,LaTa3O9,https://materialsproject.org/materials/mp-757365,-32.74691909522111,-70.150061589052,32.03295946146818,-59.59655692720787
-8.234783257111111,-370.56524657,6.0608395777825805,-2.758534210722222,5.4e-07,1.9189,6,45,669.8896998315631,2445.0458,mp-1221063,Nb2PbO6,https://materialsproject.org/materials/mp-1221063,-29.954431382765378,-56.153120387690755,-16.84006239823276,-47.94004867719079
-4.716375827407409,-127.34214734,5.3189173840671495,-1.0591794058333337,4.1e-06,2.5109,148,27,409.9180058181236,1313.0194199999999,mp-1194095,TiAg2(IO3)6,https://materialsproject.org/materials/mp-1194095,-49.237321447092036,-47.831276013082906,-26.625679889586014,-54.388009959610265
-5.6128435925,-179.61099496,4.455222897627481,-2.487640433220444,0.0,3.5723,62,32,736.0239859118218,1974.7508708,mp-559808,Cs3PO4,https://materialsproject.org/materials/mp-559808,-6.891628079461241,-28.958464366445774,-6.289740750216651,-29.19557399642666
-4.784793881111111,-86.12628986,4.67335898460958,-0.4675613319444444,3.3333333333333334e-08,0.0,189,18,445.149354986382,1252.8117,mp-29819,Ba2Si3Ni,https://materialsproject.org/materials/mp-29819,9.33310135932895,-32.928997683109344,-7.195263944191702,-32.80935927664587
-3.97660745,-15.906429800000002,4.01865547133482,-0.9879157033674568,0.0039654,0.0,160,4,110.86682593582094,268.3078,mp-7795,RbSnS2,https://materialsproject.org/materials/mp-7795,5.274982708621415,-4.48665956669843,2.510612809140625,-7.976976555942116
-7.7373518584375,-247.59525947,7.320723638856177,-3.3652767445117187,0.0,2.5657999999999994,57,32,454.4743151549804,2003.61496,mp-18584,Ho2SiSeO4,https://materialsproject.org/materials/mp-18584,25.93782313762173,-39.72120892101805,6.715203873545854,-23.348726265076166
-5.762431047777778,-51.86187943,4.9013521551210095,-2.506964204361668,8.0001733,2.0466,139,9,170.9104846442881,504.4702064,mp-551403,Ba2Fe2S2OF2,https://materialsproject.org/materials/mp-551403,16.042133315260696,-5.742079556531887,-0.11073959024714948,-14.339860239064071
-7.300789197777778,-65.70710278,7.1492607477629315,-3.1090822898611115,2.9999552000000005,1.5058000000000002,71,9,134.01289885628927,576.977195,mp-19248,BaSm2CoO5,https://materialsproject.org/materials/mp-19248,15.647462133880525,-63.38598591302972,17.052827176824007,-38.54045943315217
-3.3029707808333337,-39.63564937,5.5147415145524725,-0.4501407858333331,8.75e-07,0.0,62,12,271.5167302539275,901.722,mp-864619,YbMgSi,https://materialsproject.org/materials/mp-864619,30.62586530868366,-38.53119941892611,19.366884336867553,4.963218719309833
-5.33858180125,-213.54327205,4.264379543971206,-1.7122269338394402,0.0,3.5245,12,40,711.1098271379262,1826.1794075999996,mp-1200987,CsGa(SeO3)2,https://materialsproject.org/materials/mp-1200987,-31.80607147927093,-27.709423390064305,-32.985983131383904,9.615585701180937
-5.261502741999999,-105.23005484,6.842507035084164,-0.543192300034,0.0001776,0.0,227,20,204.59938049505143,843.0832800000002,mp-30085,ThZr2H7,https://materialsproject.org/materials/mp-30085,1.4052164439890524,-53.32952518988279,4.397850456205052,-55.03538864510294
-7.607575225714285,-53.25302658,5.5150990692095005,-3.136610226785714,3.0,2.2122,107,7,90.4213354717354,300.3137,mp-1227067,CaNdCrO4,https://materialsproject.org/materials/mp-1227067,23.551543537589502,-72.58594451918235,43.50700320093295,-39.29242892325315
-6.324639878735633,-1100.4873389,4.492751757670226,-2.283167279201149,0.00037621666666666666,2.9969,165,174,2405.307756507537,6507.7968,mp-662803,K2Ba(Ge4O9)2,https://materialsproject.org/materials/mp-662803,-40.75768930642893,15.661845134119332,-14.172584021072895,37.64458527992468
-4.07671924375,-97.84126185,4.575878672408293,-0.4366036011578156,0.0,1.1651,15,24,503.5493757411825,1387.6101636,mp-1192000,CsH3AuN,https://materialsproject.org/materials/mp-1192000,8.300917269449457,-41.22198540552708,6.6988834846896745,-33.785975118857394
-3.459421294,-17.29710647,5.1699495980296835,-1.3015041396379308,0.0,2.0173,139,5,129.60823061949094,403.5244,mp-5072,Rb2HgO2,https://materialsproject.org/materials/mp-5072,-3.6886334120686883,-28.918375669914354,-22.155332005648646,-52.07970219576628
-6.632700207999999,-232.14450728,5.447892938168804,-2.833104953321428,5.9999989000000005,0.0,12,35,657.059254581414,2155.6786,mp-1228785,Ba12V4O19,https://materialsproject.org/materials/mp-1228785,-9.0225326029252,-32.11521388881589,-2.2741493300258977,-33.17371316145753
-6.440392766538461,-334.90042386,4.0456981213673595,-2.533156079384395,0.0,3.7986,14,52,884.7150296284642,2155.4988152,mp-556330,Cs2Ga2B2O7,https://materialsproject.org/materials/mp-556330,-37.16106359178114,-21.157994279010595,-31.759558462192718,9.351758530407768