energy_per_atom,energy,density,formation_energy_per_atom,total_magnetization,band_gap,sgr,num_sites,cell_volume,weight,mp_id,formula,URL,tsne_cry_0,tsne_cry_1,tsne_xrd_0,tsne_xrd_1
-6.109108367692307,-79.41840878,6.534198174461827,-2.2640367585576935,3.9200000000000004e-05,0.0,25,13,179.82704831836628,707.61695,mp-1218486,Sr2YTlCu2O7,https://materialsproject.org/materials/mp-1218486,10.956790240983116,-68.01817118783802,39.8840304891789,-50.05568904619733
-3.669414341388889,-132.09891629,6.039762333154408,-0.39622505138888897,0.0229253,0.0,4,36,829.6857882576899,3017.758,mp-1215837,Yb7Mg3Si8,https://materialsproject.org/materials/mp-1215837,30.82948188784369,-38.92263186899347,-2.9418961698968973,-27.60961147264109
-3.4626487957142857,-96.95416628,7.057790830565192,-0.3631213722544641,0.0,1.0584999999999996,198,28,914.5610043523891,3887.1596,mp-4876,Tl3SbSe3,https://materialsproject.org/materials/mp-4876,8.144835501153228,-25.419318038702308,4.0160595978198765,-32.94543903835679
-6.016476890714286,-84.23067647,4.720369859042021,-0.8293734426866664,0.00019655,0.1974,176,14,327.0246448319731,929.6242,mp-1246468,Ba3BN3,https://materialsproject.org/materials/mp-1246468,-3.2642745370999715,-28.38134100247385,-5.167998425515429,-35.013731304887344
-6.568890061538463,-85.3955708,4.991060213074823,-2.387144719326924,12.9999784,1.3361000000000005,1,13,193.35559035153872,581.1663386,mp-1253719,Ba2AlFe3O7,https://materialsproject.org/materials/mp-1253719,18.3868907403296,-48.3817884612844,12.696189829796381,-27.935985973769732
-6.180991993333333,-111.25785588,5.268218038208562,-2.054412501701389,3.99999975,0.0,140,18,412.4175807655412,1308.434,mp-16534,BaSm2FeS5,https://materialsproject.org/materials/mp-16534,15.982582351326249,-16.767431030328353,4.3454840828675785,-0.7630073843470115
-6.323610774431819,-556.47774815,5.68241535841311,-2.036827421363638,2.5e-08,2.6511,61,88,1255.6656965673235,4296.9264,mp-29217,Ge3PbO7,https://materialsproject.org/materials/mp-29217,-23.421151589536148,-44.06043325651351,-13.85640350828397,-47.90528885713538
-6.0415568199999985,-90.6233523,7.6998673022534305,-2.1913858569999998,0.0013856,0.0,139,15,218.5087755877063,1013.21832,mp-1208840,Sr2HoCu2(BiO4)2,https://materialsproject.org/materials/mp-1208840,9.676059446459227,-68.5079489598508,11.886931935394347,-46.39873954805714
-4.574908970888889,-205.87090369,5.5654750331247484,-1.798696897506945,1.6162103,0.0,1,45,1103.5078077545186,3698.525,mp-685044,Yb16S29,https://materialsproject.org/materials/mp-685044,9.413446583567467,-1.3266408542740862,-6.6975485031210695,-18.799971208351067
-6.28592886,-213.72158124,5.563381563941291,-1.834933538437501,0.0,2.5265,2,34,507.52740851637697,1700.3928,mp-1204734,V2Pb2Se2O11,https://materialsproject.org/materials/mp-1204734,-26.074271446431485,-42.71569876838909,-20.921257477369824,-48.00124434811634
-5.621814200416666,-134.92354081,5.0202835229070635,-1.8583979467708336,0.042126,0.0,46,24,352.62154922404284,1066.0756,mvc-277,Sr2Cu2SnO7,https://materialsproject.org/materials/mvc-277,7.265258000378388,-62.50449451067776,8.064240995604159,-36.879733739218885
-5.0053535404347835,-115.12313143,6.726161378427894,-1.5892622902173918,0.22557249999999998,0.0,139,23,292.08146352284854,1183.102,mvc-132,Ba2Mg3Tl2(NiO3)4,https://materialsproject.org/materials/mvc-132,9.551026319134776,-63.886020200111744,10.612538119529207,-45.09669169827171
-5.943202266923077,-77.26162947,7.166137092852316,-2.1920697329807703,1.3500000000000001e-05,0.0,25,13,199.82791534785045,862.3670999999998,mp-1228402,Ba2NdTlCu2O7,https://materialsproject.org/materials/mp-1228402,9.366307081740908,-66.14031910174478,11.145172035728901,-48.2621370099782
-5.192108923125,-83.07374277,7.117482781341697,-1.6580334019531255,0.8373299999999999,0.0,143,16,326.9543604451165,1401.4076,mp-1235354,LiTl6Si2O7,https://materialsproject.org/materials/mp-1235354,1.1791726496298474,-33.28575777554708,-21.88518741432408,-52.053781951566584
-6.66092526375,-53.28740211,5.91275220717453,-0.3023774338541667,3.6000000000000003e-06,0.0,12,8,174.85436565303002,622.6113999999999,mp-864790,Nd2BC,https://materialsproject.org/materials/mp-864790,6.767317013277876,-39.090970830702794,0.048128009976336455,-34.974667563862035
-3.740742898611111,-134.66674435,6.311170900474759,-0.7035353131944445,0.0,1.7518999999999996,14,36,1120.3303790565742,4258.0128,mp-5818,Tl4SnS4,https://materialsproject.org/materials/mp-5818,-0.7028842884916228,-23.01190790917927,-13.397292332683591,-29.45496439069861
-6.454760847777778,-116.18569526,5.14697296021813,-2.057520440034724,1.9999997,0.0,140,18,408.91287108512876,1267.458,mp-16532,BaCe2FeS5,https://materialsproject.org/materials/mp-16532,15.977575606704793,-16.77739046356295,4.364178008574801,-0.7887318511437483
-2.422191288055556,-174.39777274,6.724305439628343,-0.3361636954761905,0.0,1.6483000000000003,198,72,2100.1842561443027,8504.636192000002,mp-570135,SnHg7(P2Br3)2,https://materialsproject.org/materials/mp-570135,9.145175795882857,-24.337215516224628,-19.027106928267308,-35.89920667016227
-8.20010710909091,-180.4023564,6.238359423033288,-3.3418256597564953,0.0,1.7175999999999996,8,22,305.65387271265973,1148.289002,mp-1250155,Sr4Ta3PO14,https://materialsproject.org/materials/mp-1250155,-32.207670091907225,-67.96082214322,-6.100517977849747,-55.394161449251534
-6.432818530833334,-77.19382237,4.894770801907239,-2.704959691721744,1.45e-06,3.4081,63,12,245.39546977806538,723.3522076,mp-1178403,Cs2TiO3,https://materialsproject.org/materials/mp-1178403,-6.708291514713305,-32.221172586741105,1.0294331531600256,-29.397056692415546
-6.610547395416668,-158.65313749,5.377904634825757,-2.854104499062501,0.0,3.2123,35,24,345.29499217982107,1118.2896,mp-1217789,SrSmGa3O7,https://materialsproject.org/materials/mp-1217789,-7.490049632164478,-43.984121013569094,9.162183542480207,-36.009266890463365
-7.130397912916667,-171.12954991,5.665626328145309,-2.4105937921875022,4.0236555,0.0,46,24,436.0135374570497,1487.6433,mvc-13321,Sr2YW2O7,https://materialsproject.org/materials/mvc-13321,-29.548294532089358,-58.410014018827255,-13.976901887925,-50.39632053150341
-3.933177333076924,-51.13130533,3.407736676267536,-0.9527487284278848,5.400000000000001e-06,2.8256,5,13,314.8811821307898,646.19507712,mp-1103351,Na4Mg(SiSe3)2,https://materialsproject.org/materials/mp-1103351,10.869675411576063,-6.920639291434884,-7.226097334510531,-23.746433811773386
-7.3582992508333325,-176.59918202,5.356029386337934,-1.227331047023333,0.0,1.3895999999999995,64,24,455.88999722079467,1470.4624,mp-17696,Ba2VN3,https://materialsproject.org/materials/mp-17696,-6.812158877599778,-32.78804887975467,2.2064159724421866,-31.752379022255486
-5.031713580714286,-140.88798026,4.29332107526045,-1.8839934358928576,2.0000006,2.2099,62,28,398.99556285894073,1031.6024,mp-756841,BaLi2NiO3,https://materialsproject.org/materials/mp-756841,-7.364683402511715,-30.48353357277585,-22.568818646963578,-51.750040699455674
-7.5108624685,-450.65174811,5.2652629220124885,-2.8787269550000008,0.0,2.983,61,60,943.682482467396,2992.2430400000007,mp-557108,Ba2Nb2TeO10,https://materialsproject.org/materials/mp-557108,-48.979221395261774,-43.51384827789533,-17.20900072115753,-21.27685370090836
-11.189051183571427,-156.64671657,7.220491577729889,-2.4164637761882157,21.00000765,1.6596000000000002,12,14,303.4192079618328,1319.3522,mp-1104036,Gd3Se2NO,https://materialsproject.org/materials/mp-1104036,29.049161576829057,-18.996392146446073,4.388218869737696,-21.224492904632253
-6.0950605025,-195.04193608,5.945922629180183,-1.84022980296875,0.0,2.3593999999999995,33,32,517.1272949934495,1851.6872,mp-639714,TlVTeO5,https://materialsproject.org/materials/mp-639714,-32.75467969005252,-31.238547637460915,-27.08415084896506,-51.461606870392416
-8.766634459615387,-227.93249595,7.230409372481631,-3.291146058365385,2.00061745,0.30210000000000004,14,26,370.4929897734797,1613.22072,mp-1208912,Sm2Ta2O9,https://materialsproject.org/materials/mp-1208912,-32.11784116008947,-54.547006072957146,-23.343596979646517,-33.93349534969709
-5.552281636153847,-72.17966127,3.8332577848557317,-2.4832545589390382,2.1000000000000002e-06,4.3546000000000005,5,13,254.5796873292265,587.6823999999998,mp-1218418,Sr3Se2(ClO3)2,https://materialsproject.org/materials/mp-1218418,-6.8569754885897805,-41.01010508085829,-3.0793470249788952,-25.827766472230795
-5.494391061111112,-98.8990391,5.0348318088957384,-2.155535026701389,0.0,1.1407999999999996,140,18,429.77241341219315,1303.09,mp-16455,BaNd2ZnS5,https://materialsproject.org/materials/mp-16455,15.975372326633147,-16.772457804738018,4.298375886813629,-0.7366971584137534
-6.266579007916667,-150.39789619,4.4373362194688895,-2.408429196354168,0.9999995999999999,0.0,113,24,371.27228788233003,992.1236,mp-17265,Sr2CuGe2O7,https://materialsproject.org/materials/mp-17265,-7.577883652086913,-43.49744739455215,3.3967594834005888,-33.1542429726162
-9.347391184,-46.73695592,6.0142087830357855,-0.4588374649999992,14.378272899999999,0.0,187,5,110.09773015720396,398.7565,mp-1224874,Gd2Si3,https://materialsproject.org/materials/mp-1224874,48.31694296974211,-15.556005428721432,6.433007896024892,-9.865751343015804
-5.354471452222223,-48.19024307,7.778980622945509,-1.0888075236111117,0.9999993,0.0008999999999996787,99,9,122.29197020140008,572.890395,mvc-15141,Co(BiO3)2,https://materialsproject.org/materials/mvc-15141,-2.9612094577054613,-59.1262625586518,2.616578239138374,-49.79638252538547
-8.802804097272727,-96.83084507,6.322272552807272,-3.4089180542500013,0.0,2.2382000000000004,38,11,171.21970563860347,651.8953300000002,mp-1223498,KLaTa2O7,https://materialsproject.org/materials/mp-1223498,-31.94259462417475,-68.55511727679746,-6.296311751881003,-57.82281246053261
-6.194705245555557,-111.50469442,5.058261042693085,-2.057293206145834,3.99999985,0.0,140,18,421.50237183910485,1283.962,mp-16533,BaNd2FeS5,https://materialsproject.org/materials/mp-16533,15.974188470691347,-16.782619150777204,4.281768802066273,-0.6929115660669093
-8.13244213625,-195.17861127,6.539745249213411,-3.232790529687501,0.0,2.2704000000000004,63,24,292.20204559482005,1150.78712,mp-558054,SrLi2Ta2O7,https://materialsproject.org/materials/mp-558054,-33.52862153236068,-70.60223814398677,-26.09039258512271,-31.660380843521548
-5.041193485384615,-131.07103062,4.7167005634352535,-1.653988773001538,1.9999997,0.0,4,26,448.38766345770034,1273.6288,mp-556868,SrCu2Te2(ClO3)2,https://materialsproject.org/materials/mp-556868,-29.393572469652874,-30.64138974448029,-19.16111315916316,-10.317832861852976
-5.157869351666666,-30.94721611,7.595059292234723,-3.7567896948166655,3e-07,6.0556,129,6,99.47476161620104,454.9828064,mp-557483,YbClF,https://materialsproject.org/materials/mp-557483,-1.9690667992323656,-57.79530130048221,3.684590848052468,-50.90725223746042
-6.345210655,-38.07126393,5.928808885998043,-2.841687320416668,0.0,2.1867,166,6,160.84746075585414,574.29174,mp-1101455,NdIO,https://materialsproject.org/materials/mp-1101455,25.697207545409736,-20.295818695689128,8.238897618656642,-0.17683906726063653
-3.854327538125,-123.33848122,5.978692348387527,-1.3993105770483338,0.561807975,0.0,109,32,737.2683935014193,2654.5000128,mp-1229269,AgPb2Cl3OF,https://materialsproject.org/materials/mp-1229269,2.7887464678404985,-8.260458959399857,-19.931154676498412,-35.97821144123062
-6.829064473846153,-88.77783816,5.534050118385575,-2.291815652788463,16.9999987,0.0,216,13,192.02600812706112,639.9618,mp-1214416,BaErFe4O7,https://materialsproject.org/materials/mp-1214416,-3.183056726499047,-44.65361694157094,8.436619924936515,-39.29438749544058
-5.406666424117646,-91.91332921,7.410501783262986,-1.7277268725,0.004518600000000001,0.0,1,17,329.476097570731,1470.3557999999996,mvc-2820,Ba2Tl2Bi3O10,https://materialsproject.org/materials/mvc-2820,-24.59260650058272,-63.685187189315045,-17.68839789854459,-60.831992744396324
-5.8888956960000005,-58.88895696,6.041795376038129,-1.8928779498750004,0.0,0.2709999999999999,129,10,235.27313366815858,856.0305400000001,mp-1078328,LaBiS2O,https://materialsproject.org/materials/mp-1078328,4.209407016954082,-6.965471375301214,-6.045283405911768,-21.34822983162897
-6.1970494278125,-198.30558169,4.996215082043457,-2.701162408984375,0.0,2.8953,2,32,554.9521869118947,1669.7352,mp-771132,Ba3Ga4O9,https://materialsproject.org/materials/mp-771132,-8.262589771571976,-42.82131429445313,-3.4068976498315218,-30.38825214250409
-5.51378950375,-132.33094809,5.886989667587246,-2.546912883958333,5.5e-07,2.6719,15,24,437.8406003035153,1552.2448,mp-17911,Ba2ZnO3,https://materialsproject.org/materials/mp-17911,15.02877545632127,-65.86474934737033,0.5551319775243221,-32.68294671017465
-4.140150141,-41.40150141,4.385036122316107,-0.3068139492514881,2.2e-06,1.0764,5,10,253.92869797266476,670.5572626000002,mp-1228964,AlAg(PSe3)2,https://materialsproject.org/materials/mp-1228964,7.729733303545762,0.2147653780461492,-0.7301750029604895,-21.262825899620623
-5.4285119941666675,-130.28428786,4.957087023552343,-1.7373442667708343,0.01557715,0.0,46,24,363.0730162636653,1083.8556,mvc-274,Sr2Cu2TeO7,https://materialsproject.org/materials/mvc-274,7.312479371120312,-62.58115795765189,7.917060248782918,-37.21762634877575
-8.290395895000001,-182.38870969,4.9689484177489085,-3.2218223785540765,0.0,1.9664,74,22,349.0087808504434,1044.36366,mp-553965,RbLaNb2O7,https://materialsproject.org/materials/mp-553965,-28.52954408094252,-69.39051438263556,-7.681542674242368,-63.97913225282542
-6.022255185333332,-90.33382778,7.74894139511407,-2.1727942616666662,8.8e-06,0.0,139,15,217.6239765496452,1015.547,mp-1208931,Sr2ErCu2(BiO4)2,https://materialsproject.org/materials/mp-1208931,9.685426605830024,-68.49952376705978,11.876596159650324,-46.383036865802936
-6.342678755,-50.74143004,5.824802443694236,-1.8721052542187493,0.3207966,0.0,99,8,132.47987459450866,464.71,mvc-7747,BaCuWO5,https://materialsproject.org/materials/mvc-7747,-34.201822432431946,-71.9534888816546,-27.46705074998662,-18.99722863158064
-6.89828070923077,-358.71059688,4.438469738451535,-2.891022707252748,1.999998975,3.8444,14,52,783.1020431393927,2093.160496,mp-19491,Ba2Ni(PO4)2,https://materialsproject.org/materials/mp-19491,-25.762121393979765,-26.491661108279533,-19.779330401033427,-30.614060162844325
-5.945615782083332,-285.38955754,4.5598869979096746,-2.0010600315724214,0.0,2.1142,136,48,662.9046669026724,1820.354896,mp-16102,ZnAg2P2O7,https://materialsproject.org/materials/mp-16102,-22.65498241142093,-32.02060170221171,5.699951334494921,-20.720435497061906
-5.586875919285713,-312.86505148,6.91214869776062,-1.6473277963392852,0.999999875,0.0,201,56,882.1819781870913,3672.1648,mp-30059,Tl2(SbO3)3,https://materialsproject.org/materials/mp-30059,-13.996886513953395,-51.039808516411725,-16.029869053853062,-49.670046800087405
-5.044533383,-50.44533383,6.214729029236709,-0.7113619649999997,4.2999999999999995e-06,0.0,127,10,216.68160417469898,810.952,mp-570561,Dy2MgSi2,https://materialsproject.org/materials/mp-570561,30.677262275219054,-39.00737789561214,19.97527656972729,5.7874801050867415
-5.58894843375,-44.71158747,5.618913823240478,-0.7123251493749994,1.1357131999999999,0.0,25,8,209.7061516505563,709.60138,mp-1225557,La4GaSi3,https://materialsproject.org/materials/mp-1225557,33.02683423916435,-39.13961057557508,11.960731821156989,-19.167997891223163
-4.930753225454546,-54.23828548,7.057219705719553,-1.733344746363637,0.0008972999999999999,0.2690999999999999,107,11,239.59554714183724,1018.2708,mp-1218405,SrBi3Br3O4,https://materialsproject.org/materials/mp-1218405,-3.552540347285865,-57.96666009168126,-10.870869188539002,-59.384889772371615
-5.589933308571429,-78.25906632,5.885335255981268,-1.3193117411904762,0.0,1.8721,227,14,211.9917782692057,751.3480000000001,mp-19318,Ag2MoO4,https://materialsproject.org/materials/mp-19318,-3.562295956588533,-44.60473780471293,16.49448869013128,-44.38001795844777
-8.933090472,-44.66545236,9.29219239203442,-2.09024016667075,0.0,1.3857999999999997,164,5,102.04804008859443,571.04952,mp-7768,Th2SeN2,https://materialsproject.org/materials/mp-7768,23.7370724030622,-40.38161819114872,20.10483981086221,-36.71350412691537
-6.182758002142857,-346.23444812,5.514993227348289,-2.3959890375367863,0.0009203,1.5028000000000006,5,56,978.4781215362906,3249.728,mp-683957,Nd4CuTe5(ClO5)3,https://materialsproject.org/materials/mp-683957,-31.352346089915873,-57.202270933436715,-21.04768605721879,-55.925580711496
-2.8681606886956525,-65.96769584,6.5921768144381225,-0.22313356871635648,0.0,0.7578,12,23,591.218789079576,2347.080496,mp-571425,Ag2Hg7(P4Br3)2,https://materialsproject.org/materials/mp-571425,9.162695152091924,-24.55392286062886,5.067053253655394,-34.69284695597807
-8.35399544,-83.53995440000001,6.202335601362457,-2.8560080421250005,1.9999999,0.0,139,10,150.3323790777269,561.5115599999999,mp-1091368,SrTa2O7,https://materialsproject.org/materials/mp-1091368,-33.53388749172461,-69.94627102917077,-26.048789682301397,-31.69530306390332
-6.607627561,-198.22882683,4.556871060571893,-2.443107133708334,0.0,0.0940000000000003,45,30,689.3441910796289,1891.70656,mp-1223194,La4As2(S2O)3,https://materialsproject.org/materials/mp-1223194,0.3503999705963591,-22.43385748359005,-15.52889618915015,-31.07640481918108
-6.956252896666666,-41.73751738,5.2704520924774165,-2.8853000362500008,0.0,2.2391,166,6,146.07061525552348,463.61944000000005,mp-754038,YIO,https://materialsproject.org/materials/mp-754038,25.74230919074162,-20.33268352562759,8.367045367706643,-0.15898070594053532
-5.4726139895,-218.90455958,4.296049531155584,-1.9191229439687505,0.0,4.1093,14,40,706.0338875615574,1826.6096,mp-639278,BaZn(SeO3)2,https://materialsproject.org/materials/mp-639278,-30.512825586556147,-30.09773381820289,-33.18919275436933,9.697212892300797
-8.777729523181819,-193.11004951,4.615911791675101,-2.719937603103181,20.9999878,0.05360000000000032,143,22,296.58110566056814,824.4264,mp-1213517,Eu3Si6N4O9,https://materialsproject.org/materials/mp-1213517,-28.001707148401128,-29.963147980178963,-11.030505265963338,-20.327325478826364
-5.904256930967741,-366.06392972,6.035933390387408,-0.7003998966129029,0.10073960000000001,0.0,12,62,1449.1680822155695,5267.616,mp-648256,Pr14Si11Ni6,https://materialsproject.org/materials/mp-648256,33.195412415204586,-39.171098892734975,18.087756293672992,0.31426842696284146
-6.586928106666666,-79.04313728,4.961617098114757,-2.750670166443965,0.0,3.865,63,12,271.11051419418357,810.0662076,mp-8759,Cs2ZrO3,https://materialsproject.org/materials/mp-8759,-5.445395020299031,-28.97775056500398,-23.274765697143717,-53.804729676660386
-6.881817780769231,-89.46363115,5.7013169662845655,-2.3445689597115384,16.999999300000002,0.0,82,13,186.3922948492373,639.9618,mp-1104205,BaErFe4O7,https://materialsproject.org/materials/mp-1104205,-3.157159593130972,-44.28883830377731,7.796683532719072,-38.83219838249021
-6.575105850625,-210.40338722,4.1729251338702245,-0.8668204146350007,2.0000003,0.3003,18,32,562.4537202114881,1413.44299,mp-721246,Sr6CoC2N7,https://materialsproject.org/materials/mp-721246,18.783181956669498,-43.35182018346684,16.68915498739064,-28.289089408509337
-5.467825609166668,-131.22781462,5.6651296315391875,-1.7136720646875012,1.0237627,0.0,46,24,365.40297128943746,1246.6164,mvc-285,Sr2Cu2BiO7,https://materialsproject.org/materials/mvc-285,7.28881120481142,-62.499708005407506,8.690237316025145,-43.91792741553501
-6.614071949166667,-158.73772678,4.143000996521941,-2.8719229509375013,0.0,3.3054,63,24,349.75264457860465,872.6235999999999,mp-560441,BaZn2Si2O7,https://materialsproject.org/materials/mp-560441,-29.743780570121327,-28.42496502137508,-22.533114620377923,-12.980597757650475
-6.670766100833332,-400.24596605,4.801772738084419,-2.6751616945500003,0.0,3.4576,19,60,921.9137257639363,2665.89347712,mp-14353,BaNaNd(GeO3)3,https://materialsproject.org/materials/mp-14353,-31.083411671314693,-31.25840410839031,-20.41060931220856,-33.042173140898235