energy_per_atom,energy,density,formation_energy_per_atom,total_magnetization,band_gap,sgr,num_sites,cell_volume,weight,mp_id,formula,URL,tsne_cry_0,tsne_cry_1,tsne_xrd_0,tsne_xrd_1
-5.550978019166667,-133.22347246,6.20839338802372,-2.3646225226722923,1.000000025,0.0,14,24,341.2839877465349,1275.9864128,mp-553963,YbSeO3F,https://materialsproject.org/materials/mp-553963,-31.40680197915607,-52.88750533529042,-12.89281939299442,-52.68519685701786
-5.541999456125,-443.35995649,3.8952713568676263,-0.6030589750769998,1.4999989125,0.050400000000000215,11,80,1872.513675344508,4392.51876,mp-1246260,Sr5MnN4,https://materialsproject.org/materials/mp-1246260,3.788200520943892,-33.30610159035156,-1.244818743858893,-29.002372725091178
-4.309482776428571,-60.33275887,4.526937538784374,-1.1612873621938768,1.4400000000000001e-05,1.1637,82,14,489.1042024623803,1333.38881,mp-34034,Ba8P5Br,https://materialsproject.org/materials/mp-34034,2.0105467439611,-27.0593468819728,-11.001641823313234,-26.832965500180787
-6.1291152715,-122.58230543,5.467505471800097,-1.6684320519420006,7.932123299999999,0.0,1,20,332.6133298327557,1095.16558,mvc-293,BaMn2TlO6,https://materialsproject.org/materials/mvc-293,7.3466803977946125,-62.934488292301644,8.616445742403881,-45.229633408056024
-6.597267066111113,-118.75080719,5.574575638895039,-2.760649199861111,0.0,1.5332,140,18,324.07497478244244,1087.9482,mp-19197,Ba3CrO5,https://materialsproject.org/materials/mp-19197,-9.040437502420339,-32.108137384242376,-2.2415053424814992,-33.87359316383348
-4.293618085,-34.34894468,6.1565495884048245,-0.7106728520312506,0.0,0.5187000000000004,38,8,258.1373658738245,957.06,mp-1079543,PbS,https://materialsproject.org/materials/mp-1079543,5.360454838327999,-6.6576530138583205,-4.1508583998051085,-11.065700607007509
-2.9919913054545457,-65.82380872,5.554059035311656,-0.6375932211590911,1.4099999999999999e-05,0.0,72,22,483.15272930804497,1616.01667712,mp-1180288,Na2Hg3(S2O)2,https://materialsproject.org/materials/mp-1180288,17.502984738364447,-21.75618103903336,-7.61992511862704,-5.9805810371196815
-2.50967839125,-20.07742713,6.610092641743939,-0.4512430854166669,2.525e-05,1.5638999999999998,140,8,284.4031121995248,1132.1208800000002,mp-27801,TlAgI2,https://materialsproject.org/materials/mp-27801,-0.6294622102968926,-26.608517303490157,3.935753510353375,-32.600936877638674
-5.838523497285714,-408.69664481,4.5509006013584425,-2.060081888794643,0.0,1.6752000000000002,146,70,1658.1154460784803,4544.25846,mp-1224774,La9Ga5S21,https://materialsproject.org/materials/mp-1224774,11.822803216349671,-14.989979985995262,-8.949961893296367,-10.501249253368695
-5.685757072708332,-272.91633949,6.944771482551365,-1.8819340291071427,9.355e-05,2.4559,61,48,932.971143023893,3901.908496,mp-1194829,Tl2PO3,https://materialsproject.org/materials/mp-1194829,-3.4610331503846266,-30.85413406321127,-15.31010536606948,-53.5702293283106
-4.4283733490625,-283.41589434,4.889205724353143,-0.5940774427539077,0.0072703,0.0,2,64,1553.8000047288735,4574.9288,mp-1204830,As9Pb5S18,https://materialsproject.org/materials/mp-1204830,-0.3985137882042877,-18.452607127266358,-21.046609654464874,-34.67594013869914
-7.528054442045455,-331.23439545,5.1732960360104965,-2.65224957973485,2.175e-06,2.0277000000000003,4,44,579.3736948176238,1804.9992,mp-771652,Ti2Sb2O7,https://materialsproject.org/materials/mp-771652,-38.8397546418172,-42.17423558415469,-6.290963717561059,-36.0059764565089
-8.707456659,-174.14913318,6.893593566017636,-3.98948777625,0.0,4.4724,62,20,248.47833748435397,1031.537728,mp-31121,HoScO3,https://materialsproject.org/materials/mp-31121,10.604566225711052,-82.6957029928272,50.18193504975301,-55.86620762125596
-7.852158351818183,-172.74748374,4.726198592589424,-3.2314657165746765,0.0,2.2628000000000004,1,22,310.64917070036944,884.1645019999999,mp-1250263,Sr4Nb3PO14,https://materialsproject.org/materials/mp-1250263,-14.129145515998314,-79.11556675240959,-2.991834510741222,-53.85020288389006
-3.1032631675,-12.41305267,6.093348599179842,-1.2928630941300003,1.175e-05,2.5859000000000005,63,4,130.71877732803827,479.6726,mp-571079,TlCl,https://materialsproject.org/materials/mp-571079,1.9991060235747455,-21.124179871570295,-24.09866007723678,-18.813911099498675
-4.666805603999999,-46.66805604,3.0160772259381523,-0.7043161238660716,1.05e-06,1.1710999999999996,12,10,270.7432554422536,491.75752400000005,mp-1080140,SnPS3,https://materialsproject.org/materials/mp-1080140,2.4312829456223017,-8.486288230272724,-7.595152558651612,-6.1265825712636985
-8.1276140295,-162.55228059,7.470331671687123,-3.7459830294166676,9.000000000000001e-07,3.2332,14,20,224.96829651411667,1012.07364,mp-1207960,Tm2MgTiO6,https://materialsproject.org/materials/mp-1207960,9.128953134632477,-81.33516011202846,51.28673441967364,-52.8041483734309
-5.538317158571429,-38.76822011,6.4066470457936475,-0.2950939857142864,4.2999999999999995e-06,0.0,139,7,133.23896763187693,514.059,mp-696904,CaBi2(CO)2,https://materialsproject.org/materials/mp-696904,-3.028422759332475,-58.90893749065486,5.415313212882422,-55.43255395962206
-4.1024980719999995,-41.02498072,3.592766413544743,-0.6059725635848217,0.0,2.0871000000000004,148,10,270.06544502870264,584.317524,mp-30943,MgPSe3,https://materialsproject.org/materials/mp-30943,-8.021215658436747,-4.619174411968483,8.251744948432059,-54.526567349351
-8.556600355652174,-393.60361636,6.018018475610474,-3.274947196141304,4.2999999999999995e-06,0.0,127,46,664.7353012486434,2409.0908,mp-1096858,Ba3TaNb4O15,https://materialsproject.org/materials/mp-1096858,-28.824899607506257,-70.20867243759724,-4.102424419105269,-55.46017469005228
-7.679405852777778,-138.22930535,4.8712555597883025,-1.0119305715079367,21.00000045,0.048299999999999337,15,18,432.0721060856112,1267.5002504000001,mp-1205409,Eu3(AlP2)2,https://materialsproject.org/materials/mp-1205409,15.360732265358278,-17.529235288406866,-9.56155870573259,-10.985865954182094
-9.93970547,-168.97499299,7.182895476126473,-3.33839844617647,6.0000002,0.0,38,17,248.063665348049,1073.03432,mp-1224653,GdTa4O12,https://materialsproject.org/materials/mp-1224653,-32.789789198247384,-70.23465538646033,32.174487079497844,-59.511905289656866
-6.651873249586207,-964.52162119,5.751800501179633,-2.146733113773706,10.8223701,0.17910000000000004,225,145,3282.778479240925,11370.93826,mp-556938,Pr30Ti24Se58I8O25,https://materialsproject.org/materials/mp-556938,29.354992515251087,-20.24605969258879,16.90255501930423,-28.175494552851887
-6.043528345263157,-114.82703856,3.9994323713501063,-0.8830196367915792,0.0013785,0.06340000000000012,12,19,417.1142818769762,1004.6258,mp-1247333,Sr9(CrN4)2,https://materialsproject.org/materials/mp-1247333,3.69799535992522,-33.5464971319677,-0.9781179675408922,-32.104856073500365
-7.142248946041667,-342.82794941,4.424337727726142,-2.6245983908749992,0.0,3.6109,60,48,777.5095954422902,2071.5954,mp-1211409,KTb(MoO4)2,https://materialsproject.org/materials/mp-1211409,-50.702221194383505,-53.452444056942475,-24.19220610442277,-56.611926822851544
-6.410391497826088,-294.87800889999994,4.867035419871323,-2.0157256604813685,0.0,1.1382,74,46,734.1618861711249,2151.826496,mp-1194963,Tl2P4Pd3O14,https://materialsproject.org/materials/mp-1194963,-31.73058208740838,-27.478235210670253,-25.820905671702523,-9.246528130282805
-7.702127386153848,-200.25531204,4.599853742538938,-2.4797827257761544,18.99989075,0.0,186,26,402.8601793217817,1115.96166,mvc-1308,BaYMn4O7,https://materialsproject.org/materials/mvc-1308,-3.628666876100395,-44.33723698099533,8.500905999789849,-38.4526603817236
-6.711221787272727,-147.64687932,5.046657571209297,-2.6813050410472723,3.999628,0.0,36,22,510.4221481637597,1551.2588000000005,mp-1227009,Ce4S4Cl2O,https://materialsproject.org/materials/mp-1227009,9.363669205968513,-9.552607202845612,-8.50531159969467,-11.712814686054466
-5.667674019523809,-119.02115441,4.803028330051394,-1.144204814464285,14.9998332,0.15710000000000068,12,21,462.3601192560877,1337.354135,mp-1192255,Sm2Mn3(SbS3)4,https://materialsproject.org/materials/mp-1192255,10.953691609012164,-4.46282369045901,-6.694940595188773,-18.712998506288567
-6.07510047625,-145.80241143,4.3409209862093325,-2.0293668980208337,0.51116535,0.0,8,24,355.96033156002477,930.5386,mvc-887,Sr2VCu2O7,https://materialsproject.org/materials/mvc-887,-6.284919279418182,-45.16516416954313,-15.980110267099825,22.90705365900013
-3.143698647272727,-69.16137024,4.00060798487176,-1.5930512995297803,0.0,3.8959,167,22,1011.3186453088452,2436.4916152,mp-23436,Cs4PbBr6,https://materialsproject.org/materials/mp-23436,0.6660915664045599,-10.08565327157098,-23.035058849027727,-11.000094377008876
-7.362109336666666,-132.51796806,5.287754960491983,-2.2504908796608327,0.0,1.218,58,18,426.98072393623085,1359.6605600000005,mp-556958,La4S3N2,https://materialsproject.org/materials/mp-556958,10.578901470581243,-6.306381316179405,-2.4311807127993648,-13.387378055848249
-5.1009600639285715,-142.82688179,4.306091014243293,-2.6031542178571425,0.0,2.3516,62,28,931.3441917129567,2415.1512,mp-771161,Ba3(BrO)2,https://materialsproject.org/materials/mp-771161,-1.3274438885823996,-25.684632417196298,-25.565258172653014,-50.25848119358324
-7.3769865928125,-472.12714194,7.442341714747329,-2.3954605345312494,2e-07,0.5236000000000001,141,64,938.7688496979373,4207.45216,mp-759378,Nb3Tl3O10,https://materialsproject.org/materials/mp-759378,-18.980862366028585,-76.01463382855377,-2.5957800221540444,-77.18210054875861
-3.3479720490625,-107.13510557,5.258506322328164,-0.3613308616406252,0.11069080000000002,0.0,141,32,868.6786808991307,2750.88524,mp-1201873,SrPb2I6O7,https://materialsproject.org/materials/mp-1201873,-0.2800663595990044,-11.923132280356837,-19.787551547009247,-8.018839330654622
-8.01085540861842,-1217.65002211,4.875165152828897,-2.208327874493948,0.0,2.2198,1,152,2324.622698212763,6824.843799999999,mp-686466,Pr16Si16N27Cl3O14,https://materialsproject.org/materials/mp-686466,-23.5829025054046,-29.951251208578825,-17.8985468402323,-27.89120442191475
-2.9982032091666664,-35.97843851,3.086520709854049,-1.1657087174173852,2.1625e-05,1.9669999999999999,62,12,436.8548966701912,812.0024,mp-1102384,Rb2S,https://materialsproject.org/materials/mp-1102384,2.91147792265378,-28.875476843953557,-5.3489881503859715,-31.18926885288199
-7.061423467916666,-169.47416323,3.7917063564511873,-2.816614318690476,0.0,4.0962,15,24,306.7354064098034,700.4054480000001,mp-1020628,SrGe(PO4)2,https://materialsproject.org/materials/mp-1020628,-25.0829486869766,-29.822841439811945,-29.226964641610557,7.868257075002186
-5.407249851578947,-205.47549436,5.307453881556634,-1.3772097420723683,1.0,0.556,14,38,619.0678492098937,1978.6792,mp-556303,CuBi2(SeO3)4,https://materialsproject.org/materials/mp-556303,-23.92617641178914,-47.399260684426366,-20.65196402230946,-42.33466220079105
-4.399382269714287,-153.97837944,3.83810503358756,-1.5091840875073892,0.955619,0.09109999999999996,225,35,1247.7949364203544,2884.104445,mp-1209503,Rb8Zr6MnBr20,https://materialsproject.org/materials/mp-1209503,8.05908918363975,-0.5532282967173139,-8.231487457846953,-20.236231603144454
-7.301748278333332,-262.86293802,5.632870400335832,-0.9772261473807412,0.00044075,0.029499999999999638,62,36,710.1969025995904,2409.1256,mp-1246142,Ti4Te3N2,https://materialsproject.org/materials/mp-1246142,30.140363559416567,-16.802771507426723,17.193622220462654,-8.07059115729356
-6.3004803137500005,-352.82689757,5.829655202457039,-2.399726501607144,0.0,3.1030000000000006,33,56,831.0412174968376,2917.5368,mp-21724,ZnSiPbO4,https://materialsproject.org/materials/mp-21724,-23.51875968660821,-44.884150880111655,-18.784328716402673,-42.771703109283465
-8.792070866333335,-263.76212599,6.625848594664086,-2.681254370506001,20.000000399999998,2.6399,9,30,363.7142471758668,1451.28508,mp-690508,Ta2Mn4O9,https://materialsproject.org/materials/mp-690508,-29.934002882486983,-79.99924962970186,36.73850283144575,-57.3025522123465
-5.637494582142858,-78.92492415,5.2500146005047235,-1.167909843667143,10.0000036,0.010299999999999976,194,14,407.41575146639525,1288.09898,mp-19213,Ba2Mn2Sb2O,https://materialsproject.org/materials/mp-19213,0.10992068809068874,-32.18675775354918,-2.733370944005847,-34.309987036759985
-4.9128558,-78.6056928,5.622698561641948,-1.5081391584712502,0.9942586999999999,0.0,11,16,359.2519410253768,1216.4516,mp-1105627,AsPb2Cl2O3,https://materialsproject.org/materials/mp-1105627,0.06327883590533219,-17.871193202858496,-6.522684263411852,-8.374977988600424
-5.705671657368421,-216.81552298,4.241732860208262,-1.7505333849342106,0.0,1.9239,161,38,906.9117580081447,2316.64376,mp-650031,La4(GeS4)3,https://materialsproject.org/materials/mp-650031,-2.2079535178142926,-11.488580198897248,-9.12456294323307,-11.785325634415381
-4.7597621145,-95.19524229,4.6127062471157005,-1.4943127719375,8.3e-06,0.8791000000000002,62,20,507.20332559916335,1408.928,mp-1183370,BaSnS3,https://materialsproject.org/materials/mp-1183370,3.549317025352207,-8.562508191180154,-17.234565126922938,-35.024519687467354
-5.253999563636363,-115.58799040000001,4.98301011367924,-1.5358640730681814,2.5e-07,2.3963000000000005,14,22,484.4278743145623,1453.69,mp-27700,Sb4Br2O5,https://materialsproject.org/materials/mp-27700,-39.97661414461599,-45.057596569559905,2.3134894265589456,-26.85468411709449
-5.142583487222222,-185.13300554,4.550998139085576,-0.6620720999733334,1.75e-06,0.0,62,36,757.0974589292896,2074.9582176,mp-1247233,Al4Te3N2,https://materialsproject.org/materials/mp-1247233,-5.804533372991258,-5.764798605195844,-0.07557163265238014,-34.990475573033464
-8.468334129012346,-685.93506445,5.597789927164928,-3.3093538838641985,0.0074417,2.7982,25,81,1149.3681600607526,3874.5981600000014,mp-677080,K6Ba3Ta12(Si2O13)4,https://materialsproject.org/materials/mp-677080,-33.954718762646685,-69.79077891574903,-25.22446736012137,-32.74460063296378
-5.669443715555556,-102.04998688,8.50085622248363,-1.6363996991666676,0.0,1.4566999999999997,64,18,250.6408176097438,1283.1144,mp-27251,Bi2TeO6,https://materialsproject.org/materials/mp-27251,-22.294399167520307,-62.94220215843199,-12.825960112908044,-61.58567470898859
-5.551837024285715,-155.45143668,3.412098300547881,-2.3845068052770944,0.0,2.2055,62,28,461.27426294317667,947.832656,mp-755752,Rb2Be2O3,https://materialsproject.org/materials/mp-755752,-29.71308314523301,-18.061142370022853,5.7563946506988275,-20.680514552633916
-8.984766835625,-143.75626937,7.542693181199758,-0.4483879831250004,22.002645375,0.0,62,16,574.9124963084311,2611.434276,mp-1189094,Eu3Au,https://materialsproject.org/materials/mp-1189094,23.674935457632337,-22.674040924018307,20.63762365048229,1.0554824133836025
-6.463972259807693,-336.12655751,5.437102477319709,-2.1307371424450547,0.9999921,0.4977999999999998,15,52,728.1700259139727,2384.246896,mp-1202993,Cu3P4Pb3O16,https://materialsproject.org/materials/mp-1202993,-26.425347494873385,-43.353093425721795,-18.92807063440512,-38.59415587965028
-7.250179705,-174.00431292,7.252353023498897,-2.3900034989583325,5e-08,2.6612,12,24,384.1877031701007,1677.9279399999998,mp-1211739,LaTl(WO4)2,https://materialsproject.org/materials/mp-1211739,-49.00905214897706,-43.06766273971946,-24.137456978087183,-51.17546353011609
-5.332335652352942,-90.64970609,6.289664845570053,-1.4173226763235296,10.190427,0.0,1,17,269.34749703674225,1020.214185,mvc-3030,Ba2Tl2Co3O10,https://materialsproject.org/materials/mvc-3030,7.4589164670324815,-62.82878914774071,9.286791510685637,-44.24017205997285
-7.6307367,-106.8303138,7.437931131591362,-1.887007392321428,0.34378375,0.0,1,14,189.2183493887556,847.5519199999999,mp-675379,Li2Ta2O3,https://materialsproject.org/materials/mp-675379,-66.3521025450231,-60.762890161508004,-11.859653700541374,-27.76059971454549
-8.158195505,-163.1639101,6.063976852242304,-3.0479484683189666,0.0,3.5409,12,20,344.39216057681165,1257.65552,mp-3033,RbTaO3,https://materialsproject.org/materials/mp-3033,-32.82497906191622,-54.27309308166447,-23.847720525251326,-26.121524468789996
-6.622040283333334,-317.8579336,4.536964633269953,-2.3626086306666667,1.00012145,0.0,60,48,778.8724470795097,2128.054,mp-1211488,KYb(MoO4)2,https://materialsproject.org/materials/mp-1211488,-50.74867047661194,-53.45087423202755,-24.253150713316053,-56.63496249037987
-8.886495575540541,-1315.20134518,4.853767587805822,-3.691509713378379,0.0,2.8636,70,148,1875.3432764949082,5481.64192,mp-560383,La4Ti9O24,https://materialsproject.org/materials/mp-560383,-23.036896171393767,-36.007820238519905,-11.497732173098926,-51.74634762385698
-7.719530997692307,-200.70780594,6.702885663334138,-3.5111673807523074,0.0,1.4115000000000002,176,26,432.5998767701874,1746.2206199999998,mp-558533,Nd3U(ClO2)3,https://materialsproject.org/materials/mp-558533,-1.9027978127783276,-60.21223362566422,-0.697235441817198,-50.402083298779296
-7.959718382380951,-334.30817206,5.766674173846787,-3.5620934265505952,0.0,2.9717,143,42,573.8522801215746,1992.8583692800007,mp-1220974,NaSm9Si6(SO12)2,https://materialsproject.org/materials/mp-1220974,-18.963055312796605,-34.83651624191561,-11.653712291305313,-34.39888475055151
-7.34907900125,-176.37789603,8.60367065294311,-2.5156650979166657,1.5e-07,3.0488,15,24,332.95371738663187,1725.1170000000002,mp-1212931,DyTl(WO4)2,https://materialsproject.org/materials/mp-1212931,-47.179487132641036,-56.50353551034604,-19.972891867557188,-61.64546397079792
-6.323882846538463,-164.42095401,5.7836327437601645,-1.8904351988461539,5.99996385,1.5774,186,26,367.86674680338297,1281.2744,mp-1213890,Cd2Mo3O8,https://materialsproject.org/materials/mp-1213890,-3.1769399371395703,-46.645528607270975,7.662505986839862,-39.17133011626533
-5.831713197857143,-81.64398477,4.2305143440991495,-2.394827972576972,0.9999998999999999,0.7267000000000001,2,14,299.6200493377108,763.3346076000001,mp-561495,Cs4CuSi2O7,https://materialsproject.org/materials/mp-561495,-6.911592572193701,-28.691626505880823,-6.963472494231844,-29.96250354301453
-5.2382609205,-104.76521841,5.384916250442262,-1.2540703257500003,0.0,0.0,14,20,294.9782405674024,956.5768,mp-558696,CuTeO3,https://materialsproject.org/materials/mp-558696,-41.63960769281453,-44.682247990785115,-17.557784579602234,18.9781482096033
-5.945503909166668,-142.69209382,4.507162591056347,-1.8808954542708327,1.81223675,0.0,46,24,343.6082127463572,932.6478,mvc-845,Sr2CrCu2O7,https://materialsproject.org/materials/mvc-845,-6.309838089293133,-45.19436774142561,9.730595722030897,-35.81214873164605
-5.11524669625,-163.68789428,6.173935858873572,-0.9557837966145836,0.0,2.0351,14,32,888.4731182085375,3303.37072,mp-558241,TaTl2AgS4,https://materialsproject.org/materials/mp-558241,-1.2055480529004718,-21.944441135229066,-13.508719576261644,-29.55567386415204
-6.446980467948718,-251.43223825,6.195039840254767,-1.9774460033333328,0.0,3.4478,12,39,743.3329074177356,2773.1820000000002,mp-645513,HfTl8(MoO4)6,https://materialsproject.org/materials/mp-645513,-55.446736822946356,-44.702417886108655,-27.31496736651781,-52.66563282552393
-7.349021252857143,-51.44314877,4.6058297505831245,-3.25588190452381,4.2000000000000004e-06,1.8842,123,7,139.35148708110296,386.5186,mp-36194,Ba2TiO4,https://materialsproject.org/materials/mp-36194,14.908007176451713,-71.87793578491184,7.0382315454083875,-21.244801564505348
-3.5093050842857143,-98.26054236,2.673731111030012,-0.4191851061571426,0.004947925,3.5009999999999994,19,28,297.2160464000001,478.5649544,mp-568450,SrAlH5,https://materialsproject.org/materials/mp-568450,-24.531787859848123,-17.6830108541328,-30.52083415859321,-5.861641093694781
-5.567339350499999,-111.34678701,6.508264185173478,-1.73263115775,0.0,2.4363,163,20,381.8385668175514,1496.566,mp-557787,TlSbO3,https://materialsproject.org/materials/mp-557787,-44.630841354381076,-65.8021816380436,-23.057449461434263,-54.34312482367613