energy_per_atom,energy,density,formation_energy_per_atom,total_magnetization,band_gap,sgr,num_sites,cell_volume,weight,mp_id,formula,URL,tsne_cry_0,tsne_cry_1,tsne_xrd_0,tsne_xrd_1
-8.210941375,-16.42188275,4.505733660608466,-1.0684367536900004,0.0,0.0,221,2,21.730028115587835,58.962612,mp-12981,ScN,https://materialsproject.org/materials/mp-12981,42.38309973433993,58.19107677382547,92.59849358150038,-7.780848251600277
-4.759785956,-23.79892978,4.821487991553194,-0.5556923498571436,0.0,0.0,139,5,78.90895798489295,229.11752400000003,mp-7422,Ca(CuP)2,https://materialsproject.org/materials/mp-7422,33.67812026592712,45.7724090908327,59.76150382200764,-6.173169786740199
-5.058179590769231,-65.75633468,6.101891514071692,-0.3529656484615377,7.0326189,0.0,71,13,190.60759005634074,700.4152316000001,mp-1225036,Gd(AlCu)6,https://materialsproject.org/materials/mp-1225036,33.880114794328,13.920590757566082,57.007717063855566,-16.03060703395206
-10.809101225,-43.2364049,11.819428230178636,-0.2327731437499985,3.3799999999999995e-05,0.0,225,4,66.3099588172807,471.98276,mp-1186205,Nb2MoOs,https://materialsproject.org/materials/mp-1186205,96.44525732056285,10.078014073142144,61.449479700214084,64.30825350170414
-4.08803486,-98.11283664,8.528904632540655,-0.14437330701388856,9.35e-06,0.0,127,24,366.2048271376551,1880.9109399999998,mp-1211998,LaIn2Cu9,https://materialsproject.org/materials/mp-1211998,68.66408820498893,31.06106818999894,68.0445569107365,5.296088213232603
-6.0198444533333335,-36.11906672,8.999255532281364,-0.1828454449999993,0.17565405,0.0,194,6,70.21583238125362,380.53319,mp-1226015,CoNiGe,https://materialsproject.org/materials/mp-1226015,46.497817238554404,56.410543207606004,84.99721009442679,-2.753304440925947
-2.25713323525,-180.57065882,6.3010055532471885,-0.2253498757499997,2.5e-08,0.0,204,80,1314.3264137849026,4987.282944000001,mp-569900,Sc3Zn17,https://materialsproject.org/materials/mp-569900,53.05997155100656,44.70293026305392,67.56298623865912,-4.595851099155917
-4.059136523214286,-113.65582265,8.18347028619917,-0.14086410392857118,3.91e-05,0.0,140,28,480.5327466852576,2368.1620000000003,mp-1192715,BaCu9Sn4,https://materialsproject.org/materials/mp-1192715,33.972811936488434,30.180554794706488,69.18825612999149,-10.5568414486654
-8.837664827500003,-106.05197793,7.9361268001861385,-0.19606649361111173,1.29348485,0.0,164,12,152.3894260418753,728.3067599999998,mp-1216848,TiNbFe4,https://materialsproject.org/materials/mp-1216848,64.52315835696443,46.95826943692229,78.55936088644766,-2.9580432523765
-5.730502609047619,-240.68110958,8.773200817616159,-0.2823919219047617,3.416666666666667e-06,0.0,185,42,498.26046661554176,2632.482,mp-1200317,Ni5Ge2,https://materialsproject.org/materials/mp-1200317,42.657325000831214,55.24942087262866,76.07629535199469,-14.000718131364335
-3.8843049833333336,-116.52914950000002,6.602938168465272,-0.008603428151041707,0.0030440000000000003,0.0,1,30,522.0659899446838,2075.9339999999997,mp-684970,Cu19Se11,https://materialsproject.org/materials/mp-684970,16.20671869022797,24.15299145011445,67.51772076700149,-15.30728637101662
-5.512957970909091,-121.28507536,9.204501392293631,-0.5541208909090911,3.16e-05,0.0,229,22,353.2715857645645,1958.2128,mp-1191661,Dy3(GaNi3)2,https://materialsproject.org/materials/mp-1191661,71.04213411999545,23.269665652832245,60.58836888044565,13.157045639915076
-8.085428334117648,-549.80912672,7.757350865759518,-0.015234398455882403,30.842982525,0.0,136,68,926.7299878050937,4329.2988,mp-1199650,Nd2Fe14C,https://materialsproject.org/materials/mp-1199650,71.80082552954603,32.43041011416855,84.29544245490258,-6.731359613611102
-8.810039790967739,-273.11123352,8.154677654719075,-0.032694569588386464,0.9644703000000001,0.0,8,31,324.83487958798247,1595.219185,mp-1222194,Mn29H2,https://materialsproject.org/materials/mp-1222194,45.44274991732585,54.86685047947788,78.56736035966375,-12.54079100611399
-6.943279113928571,-194.41181519,10.885558897653349,-0.7845044910714277,0.000227925,0.0,62,28,442.89112747732804,2903.34484,mp-1192459,Tm(GeRh2)2,https://materialsproject.org/materials/mp-1192459,63.5983515298529,34.81899504811608,70.4150356463044,3.4710207555121113
-5.29052125,-21.162085,15.048414723953314,-0.4796165700000001,2e-07,0.0,123,4,57.75941116886889,523.437,mp-644280,GaCuPt2,https://materialsproject.org/materials/mp-644280,54.83273378229666,41.64571728565925,78.8186087483195,11.521621483749211
-7.9822790789705875,-542.79497737,7.928213171497393,-0.07244075995098054,31.359467025,0.0,136,68,922.2426485338393,4403.2306,mp-1220557,PrErFe14B,https://materialsproject.org/materials/mp-1220557,72.12281831492469,32.320019967676984,84.16050845603552,-6.705093335718766
-6.234174960833332,-74.81009953,3.6754519889325055,-0.4770395562500009,3.1e-06,0.0,25,12,196.5816330999996,435.11554800000005,mp-1219409,Sc4Si7Ni,https://materialsproject.org/materials/mp-1219409,53.617657959596386,44.92168645588799,67.99624325291627,-4.654584872612838
-4.788269995,-28.72961997,9.135215808490381,-0.018812896111111737,2.8e-06,0.0,194,6,84.41730195733841,464.4096,mp-21092,InNi2,https://materialsproject.org/materials/mp-21092,54.91348529722346,52.93304370642889,81.52304640830347,4.645974774106973
-5.653475380384616,-146.99035989,7.114893387430517,-0.6300286073076933,7.5e-07,0.0,72,26,417.6046366000808,1789.306,mp-1218917,Sr(SiPd)6,https://materialsproject.org/materials/mp-1218917,44.757034407627536,8.88279881175758,18.660472710193268,-5.5299235905192266
-4.98435511,-29.90613066,6.833753112102483,-0.7231865000000001,1.75e-06,0.0,63,6,105.35347231712109,433.569824,mp-1071720,ScZnPd,https://materialsproject.org/materials/mp-1071720,51.84700401698772,43.422387573982135,65.84920774757475,-3.0360170796179498
-7.608742036666666,-182.60980888,6.775348543804102,-0.1988123858333329,11.054819075,0.0,227,24,304.18670600856376,1241.14574,mp-669554,Mn3SiNi2,https://materialsproject.org/materials/mp-669554,47.673672046132715,53.60492868808957,77.79337162479054,-9.274020137746163
-6.617141548333334,-79.40569858,4.3005793455364465,-0.6700275873958338,0.001598525,1.5906000000000002,164,12,392.08153769507277,1015.44,mp-1027692,MoSe2,https://materialsproject.org/materials/mp-1027692,55.141956231342384,-79.08817741071033,43.37262556752348,-79.31482490623844
-6.616877738333333,-39.70126643,3.455719051175606,-0.6697637773958327,0.0003528,1.4247999999999998,164,6,243.9691621059264,507.72,mp-1023940,MoSe2,https://materialsproject.org/materials/mp-1023940,55.14793357327465,-79.09247100257838,43.365690603532315,-79.33252617814243
-6.61607131,-19.84821393,2.480943144642906,-0.6689573490624999,0.00048180000000000006,1.4317,187,3,169.91297910419257,253.86,mp-1023934,MoSe2,https://materialsproject.org/materials/mp-1023934,55.14269110067774,-79.09261431699673,43.2327992052918,-78.85000530554086
-6.61708515,-39.7025109,5.692223189038758,-0.6699711890624999,0.0,1.4625999999999997,194,6,148.11240764632976,507.72,mp-1634,MoSe2,https://materialsproject.org/materials/mp-1634,55.14609907285189,-79.0930829712581,43.29870181578376,-79.21563547102087
-6.617074551111112,-59.55367096,3.976517291530552,-0.6699605901736108,0.0008302333333333334,1.6289000000000002,187,9,318.025354693339,761.5799999999998,mp-1025799,MoSe2,https://materialsproject.org/materials/mp-1025799,55.14634376768026,-79.09340922813367,43.392839929718505,-79.28161202090409
-5.544131449999999,-66.5295774,7.516112211587143,0.06370921333333494,7.78610185,0.0,194,12,163.59339102287575,740.4741799999998,mp-1222029,Mn2GaCu3,https://materialsproject.org/materials/mp-1222029,63.413973984050045,49.7183616052576,79.37894339801608,-3.553561412800473
-7.90475122125,-63.23800977,6.60085012828048,-0.1941386924399993,4.6e-06,0.0,194,8,71.26560681313944,283.28969,mp-1245706,MnNiN2,https://materialsproject.org/materials/mp-1245706,28.62388851011097,53.01400414541733,41.271771967969215,27.992721989098115
-7.726985859,-154.53971718,5.991405731353924,-0.15564805295200018,5.96629465,0.0,59,20,199.30484773313796,719.1136,mp-1246592,MgFe5N4,https://materialsproject.org/materials/mp-1246592,26.35807925588639,53.089396475995024,64.91336070719537,-4.771463390094096
-9.08211334,-90.82113340000001,5.704556547746623,-0.7075365501785711,1e-06,0.0,63,10,113.99603915270659,391.617924,mp-1080573,V3PC,https://materialsproject.org/materials/mp-1080573,52.34089024834841,47.70472086292664,73.26754629982003,-1.9824403918074236
-8.768330483333333,-105.21996580000001,6.453722095189388,-0.903657094047618,0.9649040000000001,0.0,62,12,179.27992814874005,696.7754480000001,mp-1102645,ZrCrP,https://materialsproject.org/materials/mp-1102645,63.08347726730469,27.14611160011625,61.52062505637207,7.212315161413069
-8.242281367142857,-173.08790871,8.130903389598688,-0.13723573100619188,37.2649768,0.0,2,21,265.57144251537744,1300.3824,mp-1225785,Dy2Fe17CN,https://materialsproject.org/materials/mp-1225785,76.18148963672914,34.40822559880778,87.76706764759086,-24.26432186337371
-7.7549576500000015,-23.26487295,8.889337234614164,0.4769983733333329,1.2077133,0.0,216,3,48.4483992106381,259.358045,mp-631342,MnTcPd,https://materialsproject.org/materials/mp-631342,83.9933544851805,36.26168926586955,51.10958324061397,48.74134765883994
-6.777237591666666,-40.66342555,8.600296079150148,0.19911547000000004,4.4547878,0.0,194,6,88.9709357201121,460.8,mp-510164,Fe2Sn,https://materialsproject.org/materials/mp-510164,53.420188375468406,55.94507628757474,81.78540977347042,4.8746062520795626
-8.981403757999999,-179.62807516,8.797933630043554,-0.545837445583335,0.0021898000000000004,0.0,38,20,276.9846209889327,1467.5308759999998,mp-1219392,Sc3Nb3(B2Ru5)2,https://materialsproject.org/materials/mp-1219392,58.39997664727745,39.945470287390926,70.33168131827429,12.330247519563002
-4.121644788928571,-115.40605409,8.019390901793784,0.0008481871428571707,1.2e-06,0.0,140,28,491.84746330165336,2375.3233,mp-1210048,PrCu9Sn4,https://materialsproject.org/materials/mp-1210048,38.703413228925044,27.30387867067131,61.98864682397549,1.8890563570315988
-10.719766854166666,-128.63720225,15.301132853814911,-0.3927989174999998,3e-07,0.0,194,12,204.7560018010244,1886.736,mp-570684,ZrOs2,https://materialsproject.org/materials/mp-570684,82.38634248542166,14.43540190841014,62.880723213651216,24.946323398507207
-11.048327545,-44.19331018,11.867748024040422,-0.29117444437499884,4.11e-05,0.0,225,4,65.76531280158666,470.01975999999996,mp-1186208,Nb2ReTc,https://materialsproject.org/materials/mp-1186208,96.55072708763296,10.254014472321575,61.43411940263909,64.12349428210854
-5.91917482975,-236.76699319,14.609707629994451,-0.4359790077499994,0.0,0.0,62,40,664.2580052615278,5844.2559999999985,mp-21673,Ge2Pt3,https://materialsproject.org/materials/mp-21673,34.798442902452024,28.76146806156414,68.24288357434739,14.296675077570839
-8.271943860555558,-148.89498949,8.731959947471356,-0.7931814322222218,3.05e-06,0.0,46,18,302.291755346925,1589.604,mp-637736,ZrGeRu,https://materialsproject.org/materials/mp-637736,62.74355607089416,35.44269332328216,70.74513089923606,3.881991126657008
-3.5412902534615385,-276.22063977,12.388507171786374,-0.4897959903205126,0.0030686,0.0,38,78,1187.9146410083576,8862.476999999999,mp-569514,Zn49Pt29,https://materialsproject.org/materials/mp-569514,54.01617579727961,41.63482044182536,80.2133259853221,8.622431666273036
-8.275722552916667,-198.61734127,7.975104314181514,-0.3888479470833334,8.5e-07,0.0,227,24,353.29265614808884,1696.7657599999998,mp-540747,Nb3SiNi2,https://materialsproject.org/materials/mp-540747,63.66125687186364,40.470016075078505,74.4413425277148,2.3833678126788183
-7.60529116625,-60.84232933,7.993543716015197,-0.2543549037499995,1.9805539,0.0,160,8,96.61264515231869,465.07633,mp-1221873,Mn3V2Ga2Co,https://materialsproject.org/materials/mp-1221873,80.19686590143496,48.23576074286889,90.68951536895935,-4.240109029503817
-7.3282895775,-87.93947493,8.272619016684391,-0.23920189069444456,5.48138345,0.0,35,12,156.85917211556713,781.4547799999998,mp-1219073,SmFe2Co2B,https://materialsproject.org/materials/mp-1219073,73.94551315007257,26.50131642001853,60.758346875854166,15.914808438412841
-8.234569611904764,-172.92596185,8.215056964796759,-0.07252702416666677,36.1672829,0.0,12,21,264.3714250667411,1307.9044,mp-1225775,Er2Fe17C2,https://materialsproject.org/materials/mp-1225775,75.66920792958719,34.226517837796486,87.9847887466741,-24.18130499706466
-5.692593103529411,-96.77408276,7.722840740341605,-0.6494780594117645,0.0,0.0,229,17,272.44498856211743,1267.0881,mp-22326,Mg4As6Rh7,https://materialsproject.org/materials/mp-22326,45.252443155011136,41.9953546802164,64.60233902761152,-9.763281055815947
-4.967752368333334,-89.41954263,10.24598048958148,-0.16486431579861086,0.0,0.0,14,18,292.64827884044496,1805.72,mp-618,Pd7Se2,https://materialsproject.org/materials/mp-618,63.26089607153374,35.17428595515997,72.18316810349103,2.3808661648850307
-3.794984981666667,-22.76990989,7.489454908497909,-0.12650140083333325,0.0,0.0,216,6,88.06574766884371,397.199,mp-3676,MgCu4Sn,https://materialsproject.org/materials/mp-3676,66.80149536643115,50.06549030155594,73.69433160262962,20.821871319465217
-8.400216295,-100.80259554,11.446768764303446,-0.7129161533333329,0.199710775,0.0,62,12,179.45069678671481,1237.0264,mp-1212428,HfFeAs,https://materialsproject.org/materials/mp-1212428,59.501670955933115,22.80053273930297,57.918543314798185,10.699034478282977
-8.29247042090909,-182.43434926,7.6104672787460395,-0.2360202271427286,38.5255016,0.0,166,22,277.8014663893236,1273.2004,mp-1190963,Pr2Fe17N3,https://materialsproject.org/materials/mp-1190963,78.06567230467044,34.305517245584284,88.66742871336008,-25.97043688749707
-5.60481784875,-44.83854279,8.131714925109533,-0.16971057624999994,3.2332156000000003,0.0,164,8,146.03051696064674,715.1163,mp-1226284,CrNi3Sb4,https://materialsproject.org/materials/mp-1226284,26.01089670384905,23.56423842054476,59.780988480345755,-23.083169305300547
-7.32583947,-29.30335788,6.9765465907171285,-0.08511411708333316,0.8427077,0.0,216,4,64.1175969487156,269.382045,mp-999083,Ti2MnSn,https://materialsproject.org/materials/mp-999083,92.40521432889118,13.790786969171435,57.21461446153197,62.430060422610744
-4.792677003461538,-124.60960209,9.627369834754909,-0.006020980384615353,4.33e-05,0.0,216,26,495.507064418726,2872.82,mp-1193776,Te5Pd21,https://materialsproject.org/materials/mp-1193776,95.5398002432555,17.819679855748912,58.12258338811202,59.821286596789854
-9.151051262272727,-201.32312777,7.984511001286196,-0.07558023346591111,20.8050371,0.0,166,22,270.3396466214491,1299.8971,mp-1191346,Gd2Fe17C3,https://materialsproject.org/materials/mp-1191346,77.6896066449166,34.333869141219985,88.8629688556699,-25.417972903533784
-8.002380637222222,-144.04285147,5.8170446576146055,-0.6907199838355543,0.01171935,0.0,15,18,184.25830547566872,645.476418,mp-1246196,Sc2Co3N4,https://materialsproject.org/materials/mp-1246196,25.508340310022078,52.906483619333756,60.13995269795415,-2.830813784243382
-6.61700682,-19.85102046,5.96989551960384,-0.6698928590625002,0.0,1.3972000000000002,160,3,70.61169484627321,253.86,mp-7581,MoSe2,https://materialsproject.org/materials/mp-7581,55.14672149757147,-79.09332222547275,43.211394785487826,-78.9947616644722
-5.50128333125,-44.01026665,9.643415687680287,-0.13575441625000018,5e-07,0.0,194,8,102.5726352153917,595.6804,mp-976893,Ni3Sb,https://materialsproject.org/materials/mp-976893,54.258104180765436,65.07229401859021,83.22901622924164,5.254856588266182
-5.174085715,-10.34817143,5.712371433223986,-0.410905885,1.1e-06,0.0,12,2,24.90499470455645,85.67493859999998,mp-1228854,AlNi,https://materialsproject.org/materials/mp-1228854,49.03822538075779,52.120164608775795,78.14564873290071,-6.744255155153412
-5.23864157,-15.71592471,7.461047913276144,0.5228881370833326,2.7260909,0.0,156,3,37.34228083527174,167.7844,mp-1225189,FeMoO,https://materialsproject.org/materials/mp-1225189,51.951787288288365,37.13644880905583,74.74527002891627,9.31632994681254
-8.502226702222224,-153.04008064,10.406564480917924,0.04359083277777782,2.8005492999999997,0.0,46,18,295.38240651121515,1851.1555500000006,mp-1106384,TaMnGe,https://materialsproject.org/materials/mp-1106384,57.209212434721934,19.17205006096113,59.329495762806886,-8.348626027917579
-4.0179725692,-200.89862846,7.117550074786612,-0.296700836,0.00019435,0.0,64,50,875.2583125368693,3751.61,mp-1200191,Ga21Rh4,https://materialsproject.org/materials/mp-1200191,52.94996003509007,43.25743200682626,66.50926009698236,-4.0890098475889705
-3.55654291,-21.33925746,7.404796967505607,-0.09764918055555503,2e-07,0.0,216,6,88.19980224593313,393.30699999999996,mp-30587,MgInCu4,https://materialsproject.org/materials/mp-30587,66.78633300299576,50.05434817991279,73.75531293710199,20.87314528420184
-5.932226051111113,-53.39003446,16.172206166524205,-0.3534247161111108,3.3333333333333334e-08,0.0,189,9,142.5613940567562,1388.424,mp-20061,GePt2,https://materialsproject.org/materials/mp-20061,59.5566233435853,31.164485745875073,56.5346755326559,10.662785854196878
-6.477222293,-129.54444586,8.875177138397257,-0.4684453647187503,0.00012255,0.0,62,20,377.8616760677796,2019.57872,mp-622009,TaNi2TeSe,https://materialsproject.org/materials/mp-622009,32.76105992800404,29.87408298721735,36.981572671400244,-46.17252737111388
-11.881547976896552,-344.56489133,17.30963444749621,-0.22160971390804532,7e-07,0.0,217,29,451.674526539757,4708.303,mp-518,Ti5Re24,https://materialsproject.org/materials/mp-518,60.42982063739721,33.17830039772446,70.253044085177,16.24974873937394
-4.007955998333333,-96.19094396,2.5422546355180935,0.1437004316666671,0.0001453375,0.0,12,24,420.5197635705958,643.808,mp-1073593,MgSi2,https://materialsproject.org/materials/mp-1073593,38.69459785631732,24.98777610336329,60.406243551307824,1.8737670508278232
-5.5018268966666675,-33.01096138,7.685814300588252,-0.3932128783333333,1e-07,0.0,216,6,86.24697292080673,399.1946,mp-13435,CeMgNi4,https://materialsproject.org/materials/mp-13435,66.6982536714281,49.980593913486224,73.68312188574279,20.835399299720482
-8.729188691666666,-52.37513215,7.596758015367054,-0.39684698722222106,0.0,0.0,140,6,52.76082880713176,241.37418,mp-20318,Mn2B,https://materialsproject.org/materials/mp-20318,36.72463609523447,55.697205543091954,79.84766297120049,-7.951868423586835
-5.797295966842105,-110.14862337,4.645720944675748,-0.31329311157894696,7.9441894,0.0,2,19,255.45580791642556,714.6934632,mp-1214901,Al12Fe7,https://materialsproject.org/materials/mp-1214901,43.30232894575123,44.22277366277483,67.20060714838083,-13.98587437121501
-9.5818823435,-191.63764687,6.800613139772498,-0.10967059499999862,0.0,0.0,62,20,175.81540269099182,720.0387999999998,mp-20937,Cr3C2,https://materialsproject.org/materials/mp-20937,37.562159950348885,55.93165491634973,77.55477333605809,-10.985515054564562
-7.20597831625,-115.29565306,9.32180031523709,-0.12034699250000006,1.194648025,0.0,51,16,234.769672848726,1317.9310799999996,mp-1205387,NbCo2Sn,https://materialsproject.org/materials/mp-1205387,65.53763825105746,37.59612827258257,76.71916205830419,2.249086306787828
-3.9503532391666663,-47.40423887,2.5997367137691367,0.20130319083333367,4.75e-07,0.0,8,12,205.61088217167358,321.904,mp-1073598,MgSi2,https://materialsproject.org/materials/mp-1073598,40.806855830026436,25.281058340551944,61.31467011715733,3.443709118206712
-9.6378053975,-38.55122159,15.20008683337986,-0.6672361849999984,0.023558900000000004,0.0,225,4,66.43540535457392,608.1301950000002,mp-864835,Hf2CoIr,https://materialsproject.org/materials/mp-864835,95.14573555033888,9.332316203345744,61.47480256603716,64.45439272532182
-5.7141567460000005,-28.57078373,6.127878662683929,-0.6105633529999999,1.1994492,0.0,139,5,83.40460661123167,307.78758999999997,mp-569298,Ca(CoAs)2,https://materialsproject.org/materials/mp-569298,31.11232721600334,19.78381606308652,19.589119411737386,-55.111678399310215