energy_per_atom,energy,density,formation_energy_per_atom,total_magnetization,band_gap,sgr,num_sites,cell_volume,weight,mp_id,formula,URL,tsne_cry_0,tsne_cry_1,tsne_xrd_0,tsne_xrd_1
-6.932420125999999,-138.64840252,7.404030659203503,-3.1406572079166666,2.0000001,0.0,14,20,230.66612869736502,1028.4968,mp-1207619,Yb2MgTiO6,https://materialsproject.org/materials/mp-1207619,9.229607552046339,-81.44869699661166,50.70534715433651,-53.34299929336936
-6.172936532857142,-86.42111146,5.504872733446477,-0.35003260316285684,1.8394646000000001,0.0,176,14,334.87322092864355,1110.1421999999998,mp-1029537,Ba3RuN3,https://materialsproject.org/materials/mp-1029537,-1.5550087546135078,-29.921921521491054,-3.898079113953922,-34.471301956276825
-6.19231209375,-99.0769935,7.0421370916807104,-2.4090935489843748,3.0001186,0.0,42,16,219.17384644672973,929.4887,mp-1218767,Sr2Nd2TlNi2O9,https://materialsproject.org/materials/mp-1218767,10.438772859262196,-67.96931186453897,39.099042181705386,-49.59554495896346
-6.734242251052632,-127.95060277,7.756722339747492,-2.1516961939215804,0.0,1.1016000000000004,123,19,307.9718412114542,1438.60036,mp-1220834,Nb2Bi3Pb2ClO11,https://materialsproject.org/materials/mp-1220834,-18.596620672197027,-55.83192029138381,-9.700318622191869,-59.35194140073858
-7.884744483333333,-378.4677352,5.174143391525132,-2.454558691999999,13.9985856,0.7997000000000001,15,48,678.3789229319285,2113.7894,mp-698120,KGd2Cu(MoO4)4,https://materialsproject.org/materials/mp-698120,-51.07187900412664,-53.722191995856726,-23.71320460656318,-59.85599233526957
-6.453327939444446,-232.31980582,5.929122871265168,-1.9581510197222234,1.0775e-05,2.0142999999999995,61,36,446.38912656177536,1593.8776,mp-17749,V2HgO6,https://materialsproject.org/materials/mp-17749,-21.389700942828433,-44.65525429247721,-15.943732537823069,-49.255534064093894
-9.518526006538462,-247.48167617,7.6136303251554,-3.500712711826922,0.0,2.4409,5,26,368.9234700994989,1691.52718,mp-997499,TbTa3O9,https://materialsproject.org/materials/mp-997499,-32.70090791455961,-70.08171101639444,32.06582056434289,-59.50421373761882
-7.9397188635714295,-111.15606409,7.945183051875203,-2.829187744553572,1e-07,2.2036999999999995,2,14,201.46068272103886,963.92916,mvc-16422,CaTa2Bi2O9,https://materialsproject.org/materials/mvc-16422,-32.11963744000585,-67.71509599407621,-5.2338988033697245,-56.837158636052685
-5.2442632003125,-167.81642241,6.1001090050856535,-1.6603700927604177,1e-07,1.7799999999999998,92,32,733.7350341549377,2695.42816,mp-18262,HoAgS2,https://materialsproject.org/materials/mp-18262,11.5984937042857,-3.9892509880346103,-6.321485008770644,-21.57663988017131
-6.898794255555555,-62.0891483,7.081407454186661,-1.911760770060139,0.0,1.3474,12,9,211.1829935356764,900.5948000000002,mp-30291,Tb4Se3N2,https://materialsproject.org/materials/mp-30291,29.08356296331489,-18.956409700430466,15.168816697057226,3.6504104181581813
-6.664230108333333,-159.9415226,4.850368300267756,-2.863746890312502,0.0,3.2636000000000003,35,24,342.45470723434073,1000.29654,mp-1227153,CaLaGa3O7,https://materialsproject.org/materials/mp-1227153,-7.486076511731887,-43.83740971724766,9.196401471718533,-36.0533537744251
-7.231232025416666,-347.09913722,5.476870226394006,-2.543644843124999,0.9999998999999999,0.07289999999999974,15,48,684.6709308602169,2258.2148,mp-1214581,BaNd2Cu(MoO4)4,https://materialsproject.org/materials/mp-1214581,-48.02757543570183,-54.002148425093615,-24.855121071149515,-59.38834680391487
-7.642380125833332,-91.70856151,9.420238885395463,-0.9012243641666671,0.5070295,0.0,198,12,254.1290076692637,1441.674,mp-21441,CeSiIr,https://materialsproject.org/materials/mp-21441,27.07305536434839,-38.52197063864406,21.438183225966736,-31.349200776270933
-7.501317240909091,-330.0579586,6.8967653511175,-2.8071040143892048,0.0,1.6363000000000003,62,44,813.6739766287446,3379.455920000001,mp-555559,Sm3NbSe3O4,https://materialsproject.org/materials/mp-555559,29.01803786362814,-19.54959935835181,15.676617456905966,-0.39844429025662303
-6.458377350499999,-129.16754701,5.763699318868992,-2.34696515175,8.5e-06,0.4415000000000005,14,20,280.9536622275349,975.1848,mvc-5060,Ca2TeWO6,https://materialsproject.org/materials/mvc-5060,-32.279033000697225,-76.56773229383825,-9.921130308470822,-28.130243559200803
-7.6560789875,-91.87294785,6.0812241456952405,-0.5268664880208339,7.633333333333334e-06,0.0,166,12,142.33145790398908,521.2461000000002,mp-8667,CeB2C,https://materialsproject.org/materials/mp-8667,9.335227666144881,-59.27114656061303,5.1953880705446736,-50.67333712054448
-5.21333109,-20.85332436,5.60286009930104,-0.6573229774999989,0.6161765,0.0,38,4,111.86097003518809,377.4324786,mp-1223252,La2AlGe,https://materialsproject.org/materials/mp-1223252,33.33278968872817,-38.33552019052601,11.98060541576889,-19.232583885005237
-7.006955743333332,-42.04173446,7.403075134885918,-1.573742553020833,1.11e-05,0.0,139,6,131.07809986555247,584.37712,mp-1077374,ThSiS,https://materialsproject.org/materials/mp-1077374,15.505200003879464,-9.228662906460038,1.5642204116387537,-10.127375449597784
-8.034066151428572,-56.23846306,5.532692420688467,-1.828861665144286,0.0,2.0526,42,7,104.99639319563455,349.83384,mp-1223241,La2C(NO)2,https://materialsproject.org/materials/mp-1223241,-10.0270871933809,-59.0861754530021,-11.191867676849196,-60.51565471300165
-6.206462509444445,-111.71632517,4.302490392229884,-1.931844161972224,3.0,0.6249000000000002,8,18,245.35240908444732,635.71307712,mp-1097718,Na2Mo2O5,https://materialsproject.org/materials/mp-1097718,-31.12038915626574,-74.7424727664866,-25.32750442334508,-13.630771408902099
-6.86612021234375,-439.43169359,4.983663330798407,-2.40216442445875,4.99997086875,0.6364999999999998,62,64,1195.5827516088607,3588.22152,mp-1199857,BaMnO2,https://materialsproject.org/materials/mp-1199857,-6.6182574896083715,-33.00293669785542,-1.868414526568232,-27.243785372830764
-6.7387316915,-134.77463383,5.03587680303259,-1.7797206834375003,2.999999775,0.0,62,20,385.70965742910863,1169.7324,mp-15931,NdCrS3,https://materialsproject.org/materials/mp-15931,13.588372342171198,-16.29072347583807,5.215000716474156,-0.5667642183970251
-7.404748235625,-473.90388708,5.2564325078589835,-2.8040048821949397,0.0,2.3146,52,64,917.9499635153556,2905.768496,mp-559607,TiTlPO5,https://materialsproject.org/materials/mp-559607,-32.816561663124524,-30.59870794591028,-20.088180918958454,-29.649378070459623
-5.870417674565218,-270.03921303,5.7305045868902615,-2.0662587194254662,6.25e-06,2.898200000000001,14,46,667.498851052959,2303.532248,mp-1195381,Zn3Te2P2(PbO7)2,https://materialsproject.org/materials/mp-1195381,-23.504595313810377,-44.94357704008585,-18.786164327919508,-42.80585953380746
-6.395456545,-115.11821781,6.605506826814043,-1.8369975175277773,3.99999995,0.6446000000000001,46,18,248.19774655369446,987.31307712,mp-1076261,Na2W2O5,https://materialsproject.org/materials/mp-1076261,-31.87988630713367,-74.64419312263584,-12.864131683992555,-30.381929259068123
-6.185254941875,-98.96407907,6.956501320152711,-2.399713161796876,2.9999968,0.0,42,16,220.28007562559623,922.82,mp-1218716,Sr2Pr2TlNi2O9,https://materialsproject.org/materials/mp-1218716,10.44966371739957,-67.9258998648694,39.08237706893381,-49.62654093234565
-7.0881811655769225,-368.58542061,4.38682738693768,-2.9561740974450563,3.013285275,2.9574,14,52,792.683907915876,2094.1196760000007,mp-505731,Ba2Co(PO4)2,https://materialsproject.org/materials/mp-505731,-25.84454560934709,-26.416001436870047,-19.77089088603141,-30.61405455982597
-4.485747216410257,-174.94414144,4.183806336790648,-0.4547911785671794,14.0000005,0.6589,12,39,439.8113598510122,1108.1254399999998,mp-697962,Eu6Mg7H26,https://materialsproject.org/materials/mp-697962,-24.52951662815615,-17.87291870229617,-8.813118934836915,-28.695153212538557
-6.449291671333332,-96.73937507,4.172082152117091,-2.652082643583333,0.0,3.0029,189,15,248.6678297966715,624.7746,mp-555731,SrGeO3,https://materialsproject.org/materials/mp-555731,-29.384580302395523,-32.860458555104245,-8.499419281326336,-26.965887229691425
-7.50419054275,-300.16762171,7.223615405308321,-2.4723237600000005,0.0,0.7509999999999999,1,40,634.9884068938608,2762.30304,mp-757636,NbTlO3,https://materialsproject.org/materials/mp-757636,-19.063867850461666,-75.921484604477,-2.6946120224700745,-77.08688251256277
-9.627337421235957,-856.83303049,7.866637893968541,-3.4757558864044933,0.00014110000000000001,0.0,8,89,1196.2982507000931,5667.3435100000015,mp-757779,La5Ta22O62,https://materialsproject.org/materials/mp-757779,-48.0421105667281,-61.60602581371172,-1.9102199376155558,-56.63672333594303
-5.651705977083334,-135.64094345,5.756470033590093,-1.8037100465364588,0.0,1.4824000000000002,173,24,515.8968141353743,1788.422,mp-561499,Dy3CuSnS7,https://materialsproject.org/materials/mp-561499,12.73333706424866,-13.26456537802886,1.529405017456917,-5.390898045108474
-5.472252774871795,-426.83571644,6.594076324017079,-1.576751945641026,5e-08,3.0002,63,78,1397.9117077777653,5551.171199999999,mp-21922,Te3(PbO4)2,https://materialsproject.org/materials/mp-21922,-25.337322117749324,-56.75612972257096,-15.97104860957562,-61.16880691760626
-3.8940215266666662,-116.82064579999998,4.690857074069601,-0.7795355871904761,0.0018201,0.4430000000000001,63,30,769.0647408913857,2172.531144,mp-1192527,Ba4Li2(CdP2)3,https://materialsproject.org/materials/mp-1192527,8.644046963466044,-24.332441869760128,-13.559539663675244,-28.118458091286715
-5.4289115603125,-173.72516993,4.913949268703941,-1.0469569544120834,0.0,2.0142,60,32,445.3452183703754,1317.8876,mp-559562,AgTeNO5,https://materialsproject.org/materials/mp-559562,-26.731032996947828,-28.3087400969152,-9.839261708935034,-22.97152764168068
-5.386336421527778,-387.81622235,5.609792237194908,-1.073794749959999,0.0,1.1839,61,72,1603.2947243175531,5416.404,mp-1019516,Ba4GaN3O,https://materialsproject.org/materials/mp-1019516,-2.505240174892605,-31.908646557894226,-3.7090296196378993,-29.888293274277878
-8.126902852142857,-113.77663993,5.023250337712249,-1.5261331977357142,1.9999999,0.0,65,14,244.4343715047395,739.4316000000001,mp-1213870,Ce2CN3Cl,https://materialsproject.org/materials/mp-1213870,-2.406269005539541,-23.82603327126352,-23.851352335878182,-32.225877763478486
-8.692447826999999,-173.84895654,7.939285408946554,-3.6719994775833333,0.99893305,0.0,62,20,226.58333501012717,1083.3288,mp-754231,LuTiO3,https://materialsproject.org/materials/mp-754231,9.145751709161493,-81.16412314269333,51.42483672280971,-52.74981999192204
-7.126925375714285,-199.55391052,5.1741789157185165,-2.3947107481525003,3e-07,1.3376,62,28,676.4111614926721,2107.67244,mp-555129,La3S3N,https://materialsproject.org/materials/mp-555129,10.469118609282845,-6.474605847746668,-8.342136172546201,-12.35688519047631
-5.597795092222222,-100.76031166,6.8315343538312145,-2.072009314583334,0.4794045,0.0,139,18,255.44917214195183,1050.9297,mp-1218439,Sr4TlCu2BiO10,https://materialsproject.org/materials/mp-1218439,9.964500695847732,-67.87578358535244,11.937403212908759,-45.52490704817338
-5.630383858666666,-84.45575788,6.671911466248409,-1.924616139333333,0.0,0.0,65,15,206.54303550352603,829.8732,mp-15039,Ba2Yb(CuO2)4,https://materialsproject.org/materials/mp-15039,24.0681432207324,-77.52090488818502,42.61092720862651,-48.57821537271651
-7.32363692,-263.65092912,3.703411646982691,-2.89590978718254,5.075e-06,2.4431000000000003,14,36,476.23730023782053,1062.126648,mp-17502,SrVPO6,https://materialsproject.org/materials/mp-17502,-23.233610710807728,-33.26059097447106,-8.680063106497611,-18.33360661918215
-6.45950574,-64.5950574,7.132422503116052,-2.227012220416667,0.0003964,1.5478,8,10,146.02965757133592,627.2332,mp-1084840,TiZn(BiO3)2,https://materialsproject.org/materials/mp-1084840,-1.1195359071160078,-78.40165164062381,1.3760531924411252,-47.53973292381456
-7.228871702272728,-318.0703549,3.585399725087433,-2.882019041866883,4.000000075,4.2713,14,44,588.0169063828617,1269.6332960000002,mp-17881,SrFeP2O7,https://materialsproject.org/materials/mp-17881,-24.54898188938177,-32.66399111570421,-2.9344184800248665,-25.86128653297921
-8.56484768828125,-548.15025205,5.470747344823071,-3.3891546133984365,2.0,0.0,193,64,848.1045655812179,2794.13232,mp-1214621,Ba3Ta2Ti6O21,https://materialsproject.org/materials/mp-1214621,-33.94215281375756,-56.36244705545445,-5.823926629787158,-54.609741272339456
-8.508726152000001,-85.08726152,5.717811815309041,-0.9200746809279992,0.7025785,0.0,12,10,136.99672303813335,471.72723000000013,mp-989589,LaMnN3,https://materialsproject.org/materials/mp-989589,11.404259707450793,-18.375017080756386,3.3933398915539135,-0.08789881125583741
-6.556790768750001,-157.36297845,5.931621166445707,-2.3152711384339084,1.0,0.0,15,24,350.3931203148294,1251.6413037999996,mp-1213143,CsYb(MoO4)2,https://materialsproject.org/materials/mp-1213143,-47.758321589751404,-54.77913620372475,-21.54486854242333,-58.399430121933115
-6.047145284545453,-266.07439252,4.389855355366938,-1.9867875155681831,0.999999675,0.5224999999999997,14,44,624.9052606043092,1652.02,mp-560187,SrCuAs2O7,https://materialsproject.org/materials/mp-560187,-30.10089296621819,-29.223884195933863,-30.58495070151487,9.459495304337057
-7.3268824225,-87.92258907,5.2695386696026025,-3.1210740026041663,0.0,1.484799999999999,64,12,235.672067636341,747.8794800000002,mp-28626,LaSO,https://materialsproject.org/materials/mp-28626,0.2581927720712197,-50.50516127806506,4.407135695447767,-59.263605271947
-6.374961116190477,-267.74836688,4.270433306529388,-2.6936663770833333,0.99999985,0.5392,173,42,677.2577595562682,1741.7140000000004,mp-1218606,Sr5As3O13,https://materialsproject.org/materials/mp-1218606,-28.80774129121384,-33.01197072022506,-7.237616204596843,-26.339694616504172
-8.60338846,-137.65421536,5.424874874211488,-3.534297938145833,0.0,2.3574,1,16,225.73952321130423,737.4765892800001,mp-1220854,NaLa2TaTi2O10,https://materialsproject.org/materials/mp-1220854,-29.268778406645108,-68.51905161848511,-1.71449104158907,-50.444236384484384
-5.848492754375,-93.57588407,5.8027757012532755,-0.3887588843149992,0.00022200000000000003,0.7573999999999996,64,16,325.1387286437722,1136.2016,mp-1246036,BaSnN2,https://materialsproject.org/materials/mp-1246036,2.2848508166272823,-54.02150437990015,-15.657879682103731,-54.49002374465681
-8.567790765,-85.67790765,6.655519060849019,-0.8675715564279998,0.00023995,1.2837999999999998,12,10,156.42534851269738,626.9602000000001,mp-989513,SrWN3,https://materialsproject.org/materials/mp-989513,-32.4953139538019,-54.31492648601739,-12.11553268360636,-40.78604054667583
-8.676246291818181,-190.87741842,6.7916017548637475,-3.5249801701136376,0.0,2.928,36,22,317.42388213624787,1298.2631199999998,mp-13664,Sr2Ta2O7,https://materialsproject.org/materials/mp-13664,-32.23822182909411,-68.00787134216696,-6.1574759339829575,-55.572878070222686
-6.650974885555557,-239.43509588,4.032424000025569,-3.0323704843914285,4.9999988,2.1976,14,36,455.3371054990087,1105.7326736,mp-557850,SrFeP(O2F)2,https://materialsproject.org/materials/mp-557850,-23.13882592725717,-33.51454936506332,4.822669659158271,-22.116871365760552
-6.973945793055555,-251.06204855,7.8046647223097585,-3.679295348009513,6.7e-06,2.8557,176,36,584.6151139564478,2747.7372384,mp-1194579,Dy2SeOF2,https://materialsproject.org/materials/mp-1194579,11.679096890658098,-64.63152656040442,6.857985302228554,-36.65691036871735
-4.883252830833333,-175.79710191,6.356247674649402,-1.483678204430001,5e-08,1.3964,62,36,440.90404717070857,1687.7021600000005,mp-24216,ZnHgAsHO5,https://materialsproject.org/materials/mp-24216,-22.331709121141863,-44.15220271113538,-17.259777625435778,-37.23741790818214
-4.5935755725,-257.24023206,4.732899976013202,-1.5295971005357143,0.0,2.8668000000000005,70,56,1237.0866799350222,3525.968,mp-561799,Yb(GaS2)2,https://materialsproject.org/materials/mp-561799,-2.39650495327334,-11.467760280203974,-9.70834600869539,-13.07054419072025
-10.24048840423077,-532.50539702,7.547921378477086,-3.495294812596154,6.99999975,2.0041,2,52,742.7960125401801,3376.35296,mp-1225201,GdTa3O9,https://materialsproject.org/materials/mp-1225201,-32.722432619872144,-70.11490027750287,32.05753645214818,-59.54840843798645
-7.643493533214285,-214.01781893,3.8804000504986456,-2.355960304965715,0.0,3.5234,1,28,391.3961160357947,914.6268,mp-1227610,BaSrSi4(NO)4,https://materialsproject.org/materials/mp-1227610,-23.09918051505155,-43.173128471578224,-3.165654813986948,-25.928592750163514
-6.901972065000002,-193.25521782,5.332892153478606,-2.231004613509643,0.0,1.4853999999999998,62,28,663.7615471943078,2131.6986,mp-558940,Pr3S3N,https://materialsproject.org/materials/mp-558940,10.544977351935971,-6.23270384436351,-8.290618189532854,-12.410467452073881
-7.639624214166666,-91.67549057,6.106224728509831,-1.5053270338541676,6.497414975,0.0,62,12,281.678188962666,1035.8024,mp-1102917,EuAsS,https://materialsproject.org/materials/mp-1102917,31.182261055939907,-17.26706000714037,14.529090834622185,-16.43794059099362
-7.400866603,-222.02599809,3.704542566418129,-3.44314338325,0.0,4.3766,2,30,440.2752242179517,982.2222,mp-18313,SrSiO3,https://materialsproject.org/materials/mp-18313,-21.391607952902113,-32.09790475191699,-18.018269428876547,-31.659391662253253
-6.255740171875,-100.09184275,3.857900694423628,-2.736970421228362,0.0,3.9473,4,16,269.97710394180956,627.2329837999998,mp-1259697,CsSrSiHO4,https://materialsproject.org/materials/mp-1259697,-6.534689451870255,-32.47958340356508,-11.851211795787382,-26.632329862671906
-8.516084814375,-136.25735703,6.0623672309577445,-3.337856977365302,0.0,2.2015,123,16,237.8797045633261,868.46144,mp-6680,RbCa2Ta3O10,https://materialsproject.org/materials/mp-6680,-33.873794180254755,-70.80510503924941,-26.172000298422326,-31.493738670684934
-7.096198658863638,-312.23274099,3.6696559154267328,-2.7939675011850658,3.000000025,3.0309000000000004,14,44,580.1055949102129,1281.986076,mp-17107,SrCoP2O7,https://materialsproject.org/materials/mp-17107,-24.64060970644773,-32.61322014877327,-2.7972893416541287,-25.928649673475558
-7.945069811190477,-667.38586414,5.306921600636701,-3.533016495181547,0.0020625,3.1210000000000004,7,84,1193.895593727031,3815.57443856,mp-686572,NaPr9Si6(SO12)2,https://materialsproject.org/materials/mp-686572,-19.345687176594247,-34.35741599001752,-11.119067677882118,-34.098448704462065
-6.1858777866666665,-1039.22746816,5.0028197190216535,-2.629936111666667,1.25e-08,3.0273000000000003,173,168,2714.610959892275,8178.4944,mp-680226,Ba(GaO2)2,https://materialsproject.org/materials/mp-680226,-7.20006046996148,-42.559938077727146,-4.823356821416115,-27.00746967992443
-7.468971783333332,-896.2766140000001,4.378947418238534,-2.9560146773779987,8.0,1.9934,61,120,1773.7779005444988,4677.56552,mp-558695,Ba2Mn2Si2O9,https://materialsproject.org/materials/mp-558695,-26.416689456663637,-27.558935319904123,-9.047063618204131,-25.17109542277831
-8.620377474222222,-387.91698634,5.084412835805315,-3.2313508372777773,0.0031982,0.0,38,45,640.2516675265585,1960.3898,mp-1218643,Sr3Nd2Nb10O30,https://materialsproject.org/materials/mp-1218643,-29.91164345707914,-69.8069638936177,-3.193881758255104,-55.891626667092936
-5.935934274637681,-819.1589299,6.158269600947398,-2.107468502106625,3.95e-06,3.1558,3,138,1992.1812333005844,7388.196744,mp-1199741,Zn3TeP2Pb3O14,https://materialsproject.org/materials/mp-1199741,-23.441145826719733,-45.01153228393865,-19.28342153148413,-41.76997352230853
-7.326554176666666,-175.83730024,5.2654333523165135,-3.1207457567708325,0.0,1.4779999999999998,57,24,471.7116296642652,1495.75896,mp-557722,LaSO,https://materialsproject.org/materials/mp-557722,0.2576533663880126,-50.50520385561008,4.408573750260032,-59.26230068973897
-6.4905262425,-155.77262982,6.845861457406802,-2.2721476979861115,0.0,2.0965000000000003,62,24,489.61598766732254,2018.5272,mp-17986,TiTl2O3,https://materialsproject.org/materials/mp-17986,-3.5169237459161398,-29.172757531191724,-18.013417703297446,-60.88458472150883