energy_per_atom,energy,density,formation_energy_per_atom,total_magnetization,band_gap,sgr,num_sites,cell_volume,weight,mp_id,formula,URL,tsne_cry_0,tsne_cry_1,tsne_xrd_0,tsne_xrd_1
-6.612709404444446,-59.51438464,8.464876043116424,-0.2926635994444445,3.2353965,0.0,189,9,137.70888800745757,701.9941349999999,mp-610972,MnGePd,https://materialsproject.org/materials/mp-610972,47.0024237361876,45.43838351740353,65.79120096184896,-8.125739365972704
-5.162412103333334,-61.94894524,6.694657069072599,-0.4516929016666668,0.0,0.0,194,12,202.88644561776985,817.9603999999998,mp-12521,SrNi3Ge2,https://materialsproject.org/materials/mp-12521,23.3396148923314,36.48093619366556,42.981730323849966,-78.4544080632187
-8.378255572222223,-75.40430015,8.352971784691903,-0.27791309666666564,2e-07,0.0,87,9,154.93905376489812,779.3864,mp-1743,Mo5As4,https://materialsproject.org/materials/mp-1743,35.294000523972784,31.90468366439259,66.92748961873244,-7.407052634216359
-5.0848057045,-101.69611409,8.141498282286626,-0.3619276285000005,4e-07,0.0,63,20,264.2977435692499,1295.832,mp-29749,Ga3Ni5Ge2,https://materialsproject.org/materials/mp-29749,42.718893774296845,49.419301841248156,75.49814723128196,-15.108553122190434
-8.648501577586206,-250.80654575,7.603507824993019,-0.17052772344827605,45.7542636,0.0,225,29,400.04437585423966,1831.779,mp-582924,Zr6Fe23,https://materialsproject.org/materials/mp-582924,63.0464430339217,43.606234539348094,76.51799025317042,1.4796519199261646
-7.087157515625001,-340.18356075,4.601991287989407,-0.6764069518750008,0.676722025,0.0,64,48,679.6831330117312,1883.662944,mp-30076,ScFeSi2,https://materialsproject.org/materials/mp-30076,49.18469253100475,45.71612007240083,66.71916204802011,-5.717934300374284
-8.812771636785714,-246.75760583,7.088035683211602,-0.1774806301785696,5.51930395,0.0,36,28,294.98449011063036,1259.1457,mp-1192695,Mn5SiC,https://materialsproject.org/materials/mp-1192695,44.62752184186736,53.941483547184006,75.96462280307105,-10.158589026907805
-8.0226716775,-64.18137342,11.292935688087425,-0.20161897000000015,2.765773,0.0,194,8,104.4851830725012,710.57917,mp-1184721,HfCo3,https://materialsproject.org/materials/mp-1184721,52.346119284298865,58.85673186811629,72.23154397464883,-15.991564692883172
-6.670434846538462,-173.43130601,8.298834026155522,-0.27636352807692244,11.592230800000001,0.0,63,26,372.10718869198615,1859.6707,mp-21565,Tb(FeGe)6,https://materialsproject.org/materials/mp-21565,68.23299613972729,34.27792408905247,68.891483225367,2.2722100832893486
-7.596392599999999,-68.3675334,5.748290849909475,-0.7855796472222225,0.08592336666666668,0.0,189,9,116.89542248295948,404.657085,mp-15657,TiCoSi,https://materialsproject.org/materials/mp-15657,49.38598008854608,47.14702036351922,73.76673545793199,-10.153785346427624
-5.3782863971428565,-37.64800478,7.317335832963161,0.24135506794642836,0.4258826,0.0,2,7,109.69334697529676,483.375,mp-684963,Fe3Se4,https://materialsproject.org/materials/mp-684963,22.016874878410782,34.81362561126989,64.85230469227079,-20.178129866496626
-4.1572752585714285,-58.20185362,6.335412863311241,0.25547385428571445,0.0,0.0,71,14,257.03228062047026,980.6488,mp-633403,Cu3As4,https://materialsproject.org/materials/mp-633403,22.87496274415133,36.195689050600905,24.355540042732525,-53.43766619309342
-7.417699241071429,-207.69557875,7.532151024010157,-0.6877308325510205,7.0003546000000005,0.0,59,28,343.1675291782152,1556.59674,mp-583224,EuCo8P5,https://materialsproject.org/materials/mp-583224,23.032660294524756,39.71051882101708,65.27812449307626,-20.204363363174178
-7.40978688,-66.68808192,8.471854626582099,-0.3668090849999999,3.9396582,0.0,189,9,135.52885693383462,691.4506349999999,mp-1079184,MnGeRh,https://materialsproject.org/materials/mp-1079184,46.97559343240908,45.46422933623072,65.72422446152416,-8.165702062073231
-6.8811548937037035,-371.58236426,8.01963971236997,-0.61522885037037,1.2817885166666667,0.0,176,54,678.5509284887261,3277.08885,mp-1198238,ErCo5Si3,https://materialsproject.org/materials/mp-1198238,55.816925535804046,33.84630781515147,61.83102920219938,-3.9047791679532544
-6.325167028125,-202.4053449,7.9236383930886305,-0.08865947624999926,7.13e-05,0.4219999999999997,118,32,443.379203064311,2115.68436,mp-1094148,Mn2FeGe5,https://materialsproject.org/materials/mp-1094148,61.61350356026085,37.32700193826322,73.33768536527579,-1.3880193079687804
-6.2697764992857135,-175.55374198,7.4619363777551735,-0.5812121985714295,2.27e-05,0.0,140,28,347.46490405305315,1561.3972,mp-31051,CeSi4Ni9,https://materialsproject.org/materials/mp-31051,22.11315276249485,39.06299683277396,66.31312837798926,-22.468602263297118
-7.126896409090909,-78.3958605,7.9602382283900415,-0.06236905363636356,12.740357300000001,0.0,187,11,142.15853970903945,681.4749999999998,mp-1225358,Fe7Ge4,https://materialsproject.org/materials/mp-1225358,46.470305560707935,56.37795791122882,75.69124892593949,-15.090545800269798
-8.636536787,-172.73073574,7.0864974707745265,-0.14350147543150055,7.5181757,0.0,12,20,228.15657555410408,973.6784,mp-1226081,Cr12As4C3N,https://materialsproject.org/materials/mp-1226081,51.410552443967724,48.85317528260415,73.46535152540336,-3.4360821473009646
-5.524856446666666,-49.72370802,9.433096176659808,-0.32344305500000003,5.233333333333333e-06,0.0,189,9,126.76245879458536,720.105,mp-1079440,NiAsPd,https://materialsproject.org/materials/mp-1079440,60.13516144566341,36.88417535081435,72.78196302535811,0.2345334534034451
-7.100283464285713,-149.10595275,8.397920593169577,-0.8076716045238092,4.9175977,0.0,174,21,249.5148791008196,1261.883094,mp-979046,Tm2Co12P7,https://materialsproject.org/materials/mp-979046,55.538935118392494,34.65898847488474,62.96278490116885,-4.437576573448477
-8.127903987205883,-552.69747113,8.403651930474943,-0.07971402654411844,29.644288525,0.0,136,68,888.1614611398387,4494.8053599999985,mp-571245,Ho2Fe14C,https://materialsproject.org/materials/mp-571245,72.70689233219734,31.989347052277175,83.45290507510258,-6.735560506711463
-6.244733021666666,-37.46839813,8.285330921616634,-0.18530998083333355,3.8260775000000002,0.0,187,6,86.48612731209818,431.52625,mp-1219997,PrFeNi4,https://materialsproject.org/materials/mp-1219997,78.25188578197405,17.774839911537978,86.18532059974044,-13.499174345260446
-7.907048723333333,-71.16343851,8.578124086678715,-0.21601201500000086,4.027320333333333,0.0,189,9,134.1089335410787,692.7889349999999,mp-10049,MnAsRu,https://materialsproject.org/materials/mp-10049,46.94327015229796,45.571893866023615,65.72733027550372,-8.232315082185426
-5.6876957703125,-182.00626465,12.329724600340118,-0.4695927803124995,5.3500000000000006e-05,0.0,118,32,498.4508138461605,3701.064,mp-1212680,Ga5Ir3,https://materialsproject.org/materials/mp-1212680,35.13690515419,33.753716511478856,58.02165347736902,-11.128762428178591
-8.368563284615384,-108.7913227,8.809439137683716,-0.15761411115384652,16.6959102,0.0,69,13,160.72061352361652,852.6499100000002,mp-1216849,U(Fe5Si)2,https://materialsproject.org/materials/mp-1216849,69.86902946153377,41.529686747220175,83.4963623896443,-18.22732105647972
-8.792989925499999,-175.85979851,5.9440730503320145,-0.7050248076666662,1.2573778999999998,0.0,10,20,196.30366885933609,702.6895,mp-1216907,V11FeB8,https://materialsproject.org/materials/mp-1216907,35.76049096262299,54.81980152627047,75.50032022182259,-8.1500479589802
-6.543817145454545,-71.9819886,9.032211718147561,-0.6642453913636359,2e-07,0.0,187,11,175.97723584057914,957.1974,mp-16044,Ca(As2Rh3)2,https://materialsproject.org/materials/mp-16044,45.48007144510143,47.12909637104786,66.36169008560346,-7.642481529191869
-6.420470566153847,-667.72893888,8.692822160321453,-0.42691963615384604,1.1225e-05,0.0,64,104,1014.440671704636,5310.536,mp-1201139,Lu2(Ni5B3)3,https://materialsproject.org/materials/mp-1201139,53.59140756422092,38.07397932357663,66.1300214915606,-5.7877834702703765
-4.601223553448277,-133.43548305,3.5424552607031314,0.10095597000000113,2.2800000000000002e-05,0.0,225,29,366.2355646379469,781.2963570000001,mp-1214905,Al20(CoB2)3,https://materialsproject.org/materials/mp-1214905,49.40036544008903,44.25089591503667,65.45435223836141,-7.454146504393956
-7.105291868888888,-255.79050728,8.342293534289585,-0.8403142418253972,1.3208738000000002,0.0,62,36,437.98093104378233,2200.349044,mp-1204813,DyCo5P3,https://materialsproject.org/materials/mp-1204813,55.83119909449735,34.663892955688944,62.02039671671587,-4.120447125193358
-7.0205009233333335,-126.36901662,7.448475993885441,-0.6425847057142862,6.666666666666666e-07,0.0,6,18,221.33212209203717,992.8023119999999,mp-1220579,NbNi3P2,https://materialsproject.org/materials/mp-1220579,59.77534099453375,37.20389365908375,74.53014885003286,-9.637547629762976
-8.340073155499999,-166.80146311,7.202252264478245,-0.041204821937500934,37.720616299999996,0.0,12,20,262.6491105991737,1139.1874,mp-1216258,Y2Fe17C,https://materialsproject.org/materials/mp-1216258,71.31922835936443,37.740756410072386,82.12529488237801,-21.27792301043345
-7.283943610526315,-138.3949286,7.56632573892842,-0.34402383210526244,6.6392352,0.0,166,19,188.9522949581199,860.9701899999999,mp-1188251,Y(Co2B)6,https://materialsproject.org/materials/mp-1188251,31.16668880944469,44.72873771263102,66.45022066529508,-20.581396436277853
-7.0587937799999985,-84.70552536,7.917797144324063,-0.2562118142361112,6.6333058000000005,0.0,191,12,151.18860868902303,720.89888,mp-1222740,LaY(Co4B)2,https://materialsproject.org/materials/mp-1222740,74.76779116004876,25.883889107936398,74.96786724580356,1.2993046240354724
-7.2854589475,-58.28367158,6.286143085930116,-0.5054894649999992,2.1000000000000002e-06,0.0,4,8,89.83625543015155,340.08448,mp-1221669,MnCoSi2,https://materialsproject.org/materials/mp-1221669,43.50077685554388,58.004047473233356,78.06635453288736,-7.53124056466849
-7.346282811818183,-242.42733279,8.880338401379111,-0.7563470074242423,6.4e-06,0.0,147,33,453.11943322930773,2423.2215,mp-1219339,Si13Rh20,https://materialsproject.org/materials/mp-1219339,56.078821580312024,39.83015629501807,72.54505191361233,14.113901513329218
-6.851142829,-137.02285658,4.874929418222286,-0.7389785334999999,0.20598049999999998,0.0,15,20,277.36608885879866,814.277818,mp-1189235,Sc2Co3Si5,https://materialsproject.org/materials/mp-1189235,34.470314086250944,45.76892358286726,60.17700093821657,-4.6552783493088405
-5.804397532142858,-243.78469635,7.841280917701393,-0.4269136272448976,2.6666666666666667e-07,0.0,164,42,473.47128167300764,2235.792858,mp-29884,ZnNi10P3,https://materialsproject.org/materials/mp-29884,43.311836980134146,54.132213791244716,76.03343107609014,-11.308891489165951
-8.9100844745,-178.20168949,6.010541730217586,-0.7075258551666664,1.1599999999999999e-05,0.0,10,20,193.6521798240732,700.9498000000002,mp-1216445,V9Cr3B8,https://materialsproject.org/materials/mp-1216445,35.76614365604879,54.823234882277795,75.55212923861869,-8.31878248060366
-6.487417229090909,-71.36158952,9.294903519025043,-0.6367765145454546,1.6e-06,0.0,187,11,179.49718308654136,1004.7394,mp-16045,Sr(As2Rh3)2,https://materialsproject.org/materials/mp-16045,68.31772524818011,34.362280376387844,70.31030930990042,2.442750906540529
-6.348614300277778,-228.55011481,9.925899766035403,-0.3427346069444444,0.029635875,0.0,62,36,501.4898014627754,2997.66364,mp-21826,UNi5Ge3,https://materialsproject.org/materials/mp-21826,68.60530885097786,11.991184047784508,61.13790790757148,-1.797936655364742
-6.12824473423077,-159.33436309,8.205625673675291,-0.32000442423076964,0.0,0.0,59,26,261.9668198090752,1294.5204,mp-22703,Ni8Ge2B3,https://materialsproject.org/materials/mp-22703,39.76386191290533,53.48283829665976,78.84216354361077,-13.566504679832486
-6.280096651944443,-226.08347947,7.3224771618306095,-0.2543638899074073,0.01106895,0.0,63,36,310.4300847027362,1368.9031999999995,mp-1194536,GaNi9B8,https://materialsproject.org/materials/mp-1194536,36.71369906153149,54.797557933328754,76.05373911525685,-10.28093186813967
-8.162888859047616,-171.42066604,7.148016849064077,-0.6765912509523803,15.017061800000002,0.0,174,21,273.37799427916315,1176.7928740000002,mp-1005829,Sm2Mn12P7,https://materialsproject.org/materials/mp-1005829,55.69648775134508,33.81359282307617,61.40836924365959,-3.2858238898688303
-8.304868095,-116.26815333,8.103058441821178,-0.11153885752976274,21.958748899999996,0.0,44,14,174.012026741224,849.1397,mp-1222300,LuTiFe11C,https://materialsproject.org/materials/mp-1222300,71.31469890291253,36.18315579673575,83.505878479811,-21.276738911278567
-7.483581243181818,-329.2775747,8.11654372049548,-0.08397832708454639,37.6619653,0.0,194,44,519.7488945410615,2540.47904,mp-1208578,Tb2Fe17H3,https://materialsproject.org/materials/mp-1208578,74.8770617606793,34.084222337867075,88.73351019578226,-21.280795502702663
-3.6569810508333336,-87.76754522,7.585219952742526,-0.1877195333333332,5e-08,0.0,194,24,347.4504393935508,1587.128,mp-13227,YbMg2Cu9,https://materialsproject.org/materials/mp-13227,68.4039341597886,40.298674164863186,63.78419013681145,-7.0590308848398555
-8.318154513571429,-116.45416319,7.9577553504225875,-0.21202587814619075,23.307891899999998,0.0,44,14,175.51152274888318,841.0990199999999,mp-1223838,HoTiFe11N,https://materialsproject.org/materials/mp-1223838,71.25356030498408,36.20754582791636,83.38997171109256,-21.377034549209693
-7.188054051578948,-136.57302698,7.95981402750382,-0.3367502044736859,6.5229095,0.0,166,19,190.4599311721497,912.97199,mp-1105562,Pr(Co2B)6,https://materialsproject.org/materials/mp-1105562,31.086777529558958,44.641851902890615,66.02436117459723,-20.509037800326208
-6.444624959285713,-180.44949886,7.579792527541429,-0.2805384307142863,6e-07,0.0,62,28,234.152578416066,1068.8264,mp-640067,Ni4B3,https://materialsproject.org/materials/mp-640067,37.179774849997656,54.94985243784953,77.47400964451289,-11.035429723766244
-8.437962943846154,-109.69351827,8.758012541483174,-0.22701377038461604,17.976259,0.0,71,13,161.66435664497348,852.6499100000002,mp-1217053,U(Fe5Si)2,https://materialsproject.org/materials/mp-1217053,69.85592084780417,41.405809091590044,83.48739226856384,-18.28707642588252
-6.664096265862068,-193.25879171,9.801994579181033,-0.3192225386206909,0.0,0.0,225,29,300.44308032243794,1773.48522,mp-10130,U2(Ni7B2)3,https://materialsproject.org/materials/mp-10130,40.65201635631978,50.85761142788488,66.4747170541159,-9.215098890508358
-6.1754138180769225,-642.24303708,8.661981742037577,-0.4124037311538466,1.1e-06,0.0,64,104,1015.0972079302096,5295.12,mp-569740,Yb2(Ni5B3)3,https://materialsproject.org/materials/mp-569740,53.5945507079569,38.05765259702017,66.13382355784182,-5.785274712064807
-6.6756897275862075,-193.5950021,8.647532263356249,-0.10580623206896557,18.4213326,0.0,225,29,304.9319945315853,1587.9839,mp-1193971,In3(Co10B3)2,https://materialsproject.org/materials/mp-1193971,41.01553773946157,51.77849400475522,67.78154470430113,-9.01146992213008
-9.074051073448276,-789.44244339,10.335991550855553,0.05816299482758538,136.6435466,0.0,42,87,1047.870715466238,6522.45,mp-1227244,Fe74W13,https://materialsproject.org/materials/mp-1227244,40.937407288761285,50.554294706965706,66.42222261642111,-10.280442595375288
-7.103374651388888,-255.72148745,8.241583526409674,-0.8359502698809528,1.36197585,0.0,62,36,440.45201920712685,2186.050444,mp-1196894,TbCo5P3,https://materialsproject.org/materials/mp-1196894,56.00102443719986,34.79197778878048,62.025424413237715,-4.062464048162594
-6.430394435499999,-128.60788871,5.477659390586323,-0.3312064004999996,0.0049645,0.0,116,20,245.0922379726131,808.4915599999998,mp-1105498,Co2Si3,https://materialsproject.org/materials/mp-1105498,41.40714200807012,47.189663313726996,60.058169747070046,-5.579773457964014
-7.622903950416667,-365.89938962,4.998157757439493,-0.6461512145833339,0.8344848833333334,0.0,55,48,633.7997525293019,1907.71254,mp-21606,TiMnSi2,https://materialsproject.org/materials/mp-21606,49.19163272511466,46.60383142460592,71.9798297570279,-7.200946976126286
-9.114244334,-91.14244334,7.750683348629486,-0.29311962066666697,0.0014751,0.0,38,10,104.34813580854164,487.0523,mp-1226327,Cr3B4Mo3,https://materialsproject.org/materials/mp-1226327,46.398653685367,41.98596944820999,63.30643156633933,-8.567124682487417
-6.00381310875,-48.03050487,6.309812523312745,-0.4020262862500008,3.7000000000000006e-06,0.0,198,8,91.3496245828879,347.1156,mp-1095177,SiNi,https://materialsproject.org/materials/mp-1095177,43.460830356189184,58.09421211910929,78.08536398854281,-7.4609452013695945
-5.901647200555555,-212.45929922,8.437167451849657,-0.8364084618253966,3.21e-05,0.0,12,36,462.914485413961,2352.059744,mp-1201580,Yb5Ni19P12,https://materialsproject.org/materials/mp-1201580,55.917368307140904,33.741734274010575,61.24381138195302,-2.6080447964952214
-5.395000137586208,-156.45500399,7.310465276264916,-0.3728131410344819,1.2434066000000001,0.0,225,29,412.33770116844664,1815.3023649999998,mp-1194136,Ti6Ga16Co7,https://materialsproject.org/materials/mp-1194136,48.51511592774284,48.927678853684576,73.46951917792192,-6.212129015005237
-7.843103406666668,-70.58793066,7.33443723014067,-0.1752584238888883,6.4820475,0.0,189,9,113.53026777081156,501.452,mp-1226329,Cr3Fe3SiAs2,https://materialsproject.org/materials/mp-1226329,45.22334106074274,50.88318746900424,74.68427777221135,-12.38618881225347
-8.125649997794119,-552.54419985,8.332948059154269,-0.07423861183823653,29.720402275,0.0,136,68,891.8229892720527,4475.3628,mp-571165,Dy2Fe14C,https://materialsproject.org/materials/mp-571165,72.61090032109419,32.06276377598,83.47600412833987,-6.74770481351354
-5.76935292,-34.61611752,8.283260680779039,-0.5212539550000006,3e-07,0.0,65,6,84.33350121499203,420.6804886,mp-1217581,TbAlNi4,https://materialsproject.org/materials/mp-1217581,75.2669029015058,21.046912432417287,89.65446903015146,-13.552825743753154
-6.08307056875,-48.66456455,8.16589379511572,-0.21670029625,0.0,0.009699999999999598,12,8,107.02192920790327,526.29278,mp-21237,CoGe,https://materialsproject.org/materials/mp-21237,42.23554927684509,49.288296686260594,75.21824763119015,-15.470454442645488
-5.812534542602738,-424.31502161,3.0447231687791603,-0.05729203840182625,2.26e-05,0.0,2,73,633.2575836607652,1161.1253877999998,mp-530274,Al23B50,https://materialsproject.org/materials/mp-530274,32.904736023864196,43.573699312634574,85.01751341955098,-10.370846826917145
-6.88299118,-41.29794708,7.8393383999514095,-0.17201417666666666,5e-08,0.010699999999999932,12,6,103.15766266831145,487.0032,mp-1224404,GeMoAs,https://materialsproject.org/materials/mp-1224404,35.26953874411597,31.797374508496993,68.55585972257616,-8.019753217091612
-8.839003314166666,-106.06803977,7.856077573502209,-0.18746362791666607,0.0032446999999999997,0.0,8,12,148.31933038305974,701.70477,mp-1221757,Mn2SiMo,https://materialsproject.org/materials/mp-1221757,64.17188747776397,47.61813991366265,78.34836886607644,-4.048586477036661
-7.978126230625,-127.65001969,6.135702483424102,-0.4196110112499998,0.0055631,0.0,189,16,219.6454886662092,811.5915,mp-1216700,V10(SiGe)3,https://materialsproject.org/materials/mp-1216700,48.472455539589355,48.64578991554448,73.02724421006405,-6.490757080209267
-5.7147428200000014,-34.28845692,8.426674181486652,-0.4748776725000005,5.6e-06,0.0,187,6,84.08155418685044,426.6854586,mp-1224123,HoAlNi4,https://materialsproject.org/materials/mp-1224123,75.53313924054005,19.562680436969767,88.11122536935413,-12.106181115755875
-6.92241012,-131.52579228,7.068942928210382,0.12719958215578978,1.1e-06,0.0,12,19,176.21970722410217,750.1702899999998,mp-1246594,Mn2Ni9N8,https://materialsproject.org/materials/mp-1246594,27.317664324681477,53.756884844637725,71.17497603440881,1.3984014139479122
-9.733139520344826,-282.26104609,7.472793365973826,-0.09699094560344802,0.014775,0.0,225,29,301.28790824939273,1355.8623,mp-641573,Cr21(MoC3)2,https://materialsproject.org/materials/mp-641573,41.359667866534316,52.293987884633246,79.40066671574165,-10.173151732095189