energy_per_atom,energy,density,formation_energy_per_atom,total_magnetization,band_gap,sgr,num_sites,cell_volume,weight,mp_id,formula,URL,tsne_cry_0,tsne_cry_1,tsne_xrd_0,tsne_xrd_1
-8.297210774090908,-365.07727406,8.048953284876568,-0.08337289528409092,35.30553385,0.0,194,44,540.6828603518607,2620.7942,mp-1213192,Dy2Fe17C3,https://materialsproject.org/materials/mp-1213192,76.50584764684304,33.80720386187567,89.26429307274039,-24.618782999103022
-5.637233121666667,-33.82339873,16.646516299347493,-1.0897345683333337,3.3e-06,0.0,227,6,112.36331432024357,1126.4160000000002,mp-410,YbPt2,https://materialsproject.org/materials/mp-410,81.84896016651507,11.47327914523276,61.537341474318104,26.524064071279444
-5.078056102,-25.39028051,6.848168671796107,-0.747203665,0.0,0.0,139,5,97.66124761962645,402.7612,mp-5166,Ca(AsPd)2,https://materialsproject.org/materials/mp-5166,31.645018901511694,18.528096539657774,54.628035018662956,-13.738882673969922
-8.2743153055,-165.48630611,13.927202716555044,-0.7779145103333319,2.95e-06,0.0,127,20,273.09819880713195,2290.517648,mp-1208986,Sc2GeB2Ir5,https://materialsproject.org/materials/mp-1208986,53.47621688941553,21.421565544786528,68.68436377344705,13.184018000841414
-6.237330635,-24.94932254,5.95594107809919,-0.4708227425000002,0.5881784000000001,0.0,123,4,47.045708893545935,168.7412722,mp-1228905,Al2FeCo,https://materialsproject.org/materials/mp-1228905,45.828597835646065,60.2774565426254,89.78371229962603,-5.4732728437100935
-4.03768801,-24.22612806,2.619614706399072,0.11396842000000025,2.15e-05,0.0,74,6,102.0253394185078,160.952,mp-1025126,MgSi2,https://materialsproject.org/materials/mp-1025126,39.202209169084256,25.513085606621594,67.87259706735453,-0.239725466108692
-6.484990062413792,-188.06471181,8.250564657918583,-0.17071292655172415,3.7063787000000006,0.0,225,29,282.4832686390528,1403.548135,mp-1194237,Mn3(Ni10B3)2,https://materialsproject.org/materials/mp-1194237,39.24908958228004,53.64362110646629,79.17670969870754,-12.03911753771157
-5.37975841,-112.97492661,7.599748333529353,-0.3113554780952377,12.923729699999999,0.0,174,21,338.6002211772002,1549.663335,mp-1192171,Nd2Mn3Cu9As7,https://materialsproject.org/materials/mp-1192171,66.74611211375793,9.815202260961447,52.44655659024345,8.698551210235198
-5.640103857741934,-174.84321959,8.385522189178468,-0.30914167774193496,0.0,0.016599999999999504,5,31,393.44593642138017,1986.8546,mp-30082,Ni19Ge12,https://materialsproject.org/materials/mp-30082,42.602602079561365,49.548792191089966,75.53039621665705,-15.077200338050696
-5.034399306,-25.17199653,6.829803570299917,-0.7135850849999997,1e-07,0.0,139,5,96.81439851730372,398.19800000000004,mp-16260,Ca(GePd)2,https://materialsproject.org/materials/mp-16260,31.61534183414877,18.5843410138904,54.59943019500822,-13.81504345970682
-5.489994662934784,-505.07950899,4.376129524582652,-0.4273423146739133,0.0050837,0.0,14,92,1242.9527180633795,3275.6363784,mp-1214980,Al11(CoSi)6,https://materialsproject.org/materials/mp-1214980,42.62126892423751,44.08207307132593,67.67329903122356,-15.568406009334733
-8.173344224166668,-98.08013069,7.1340405745432225,-1.15090734154762,0.0,0.0,62,12,168.64217258552344,724.5238280000002,mp-8418,ZrCoP,https://materialsproject.org/materials/mp-8418,62.63544486441331,28.411980211841158,72.00247949488876,1.1015148427752195
-11.881853098333332,-71.29111859,14.894426833323536,-0.15847738999999925,7.1e-06,0.0,216,6,112.05296006120619,1005.074,mp-1224067,HfZrW4,https://materialsproject.org/materials/mp-1224067,82.12545729218498,11.926495312895732,61.727087465389296,26.13784423283801
-4.369419781666667,-26.21651869,8.842178575205173,-0.18209877500000005,0.0,0.0,191,6,89.51468357802283,476.65535,mp-11363,TbCu5,https://materialsproject.org/materials/mp-11363,77.13958853900762,17.226582055317863,85.01296426656688,-12.908689821332517
-1.7851309330769232,-23.20670213,6.860585764542207,-0.12309562884615377,0.0,0.0,139,13,200.86060739670341,829.8639120000001,mp-11567,ScZn12,https://materialsproject.org/materials/mp-11567,50.6230356567565,50.520766566966756,73.08611405423662,-6.309662189109317
-9.48522253375,-75.88178027,14.466040334363004,-0.5137064187499991,2.75e-07,0.0,63,8,111.64746477270752,972.6339999999999,mp-982070,VIr,https://materialsproject.org/materials/mp-982070,54.64075049459669,41.396389517282145,72.72478101367314,14.9718057205166
-7.7479034846875,-247.93291151,5.488703945703604,-0.6630975334375,8.75e-06,0.0,86,32,528.8903347849093,1748.1808,mp-1199934,Ti3As,https://materialsproject.org/materials/mp-1199934,47.75978497319552,44.66859998242413,67.32284055187893,-3.683537184853941
-9.104906724285714,-127.46869414,7.70860440401919,-0.026653142499999456,3.2388001,0.0,5,14,129.08389719414234,599.2371599999999,mp-1221861,Mn4FeC2,https://materialsproject.org/materials/mp-1221861,39.50228769698021,55.87102128621354,79.28648410311105,-13.910975093129116
-8.0477764625,-96.57331755,7.021824198317485,-0.5964577248809514,5.5246879,0.0,26,12,135.5526653296612,573.203618,mp-1221920,Mn2FeCoP2,https://materialsproject.org/materials/mp-1221920,43.83959002649311,53.42613509872944,75.60938375262012,-10.901348400036747
-4.9371403725,-59.24568447,6.399633999234348,-0.16920095291666706,2.4984487,0.0,166,12,160.07697085725633,616.9286,mp-12695,CaMg2Ni9,https://materialsproject.org/materials/mp-12695,39.89293929597744,45.96157914067224,68.22645468381573,-16.59347245877355
-4.7424989253571415,-132.78996991,8.630768850712165,-0.2140177836309525,5.6399999999999995e-05,0.0,8,28,465.834933011131,2421.2099399999997,mp-1226684,La2In11Ni15,https://materialsproject.org/materials/mp-1226684,71.37274137365988,18.057376825528728,67.30974439552253,1.0520923553892314
-8.434467664583334,-202.42722395,12.042701053777337,-0.13810762458333295,2.1603402166666665,0.0,164,24,295.973617267798,2146.48479,mp-1218185,TaCo3,https://materialsproject.org/materials/mp-1218185,64.54557959083455,47.47750356210506,72.28008550787106,17.623313520846988
-3.820212125,-15.2808485,6.737393692288147,-0.1358840162499999,1.5e-06,0.0,225,4,46.76368609501128,189.7368,mp-1185421,LiZnNi2,https://materialsproject.org/materials/mp-1185421,43.1594184114306,61.6238926737406,61.717880200223064,-30.663926544285445
-8.650889659166667,-103.81067591,8.939234165770443,-0.31774886250000023,1.75e-06,0.0,194,12,216.2570025094897,1164.1834,mp-568186,YRu2,https://materialsproject.org/materials/mp-568186,80.85088477637693,12.893876981987047,60.560482968233174,26.783992436389717
-9.704281488636363,-213.49419275,7.989688147949161,-0.0883507948295452,18.492010699999998,0.0,166,22,266.9600192011101,1284.478865,mp-1193010,Gd2Mn17C3,https://materialsproject.org/materials/mp-1193010,77.32608142570976,34.51653442282197,88.8712578315205,-25.15733213688421
-7.6014760625,-60.8118085,7.199485576232831,-0.3697564633333332,1.02162405,0.0,26,8,62.92056466057368,272.80039,mp-1224999,FeCoB2,https://materialsproject.org/materials/mp-1224999,36.498695809690716,55.56486941758993,75.43622309249848,-4.102715402907297
-6.8250249075,-27.30009963,8.478268974529326,-0.10318460999999957,3.0093687,0.0,225,4,46.924798064054784,239.58549,mp-567981,CrGaCo2,https://materialsproject.org/materials/mp-567981,79.0680951600424,49.38059293790309,92.09673130680291,-5.305012244798629
-5.070502953,-50.70502953,8.826699448530466,-0.27757039542857104,1.525e-05,0.0,37,10,139.55465495417738,741.8115240000001,mp-1001022,Cu2PPd2,https://materialsproject.org/materials/mp-1001022,57.900511698759864,40.3150648641432,72.11532384993369,11.876005937419562
-1.964138829,-98.20694145,7.4071211841881475,-0.2722397543,2.2e-06,0.0,141,50,839.2115362550578,3743.448,mp-1199143,Nd3Zn22,https://materialsproject.org/materials/mp-1199143,71.4660076467789,17.329161463580757,66.2232510383836,4.424075118953059
-4.204164516666666,-50.4499742,5.898627442269435,-0.3164968246875001,0.0,0.1208999999999998,96,12,179.21892140222943,636.6279999999998,mp-618991,Cu2S,https://materialsproject.org/materials/mp-618991,30.393928952566124,47.94907900177064,70.43183454931491,-1.7049731826132892
-5.724801618333332,-34.34880971,7.613186235952067,-0.450666525833333,2.2e-06,0.0,65,6,87.82620833154365,402.66278860000006,mp-1219687,PrAlNi4,https://materialsproject.org/materials/mp-1219687,74.51106094975623,21.433560141024085,89.21756962711146,-13.375458422203543
-8.052822791666667,-48.31693675,7.942087669914128,-0.013909861666667448,9.8641647,0.0,191,6,87.67620435750854,419.341,mp-11317,CeFe5,https://materialsproject.org/materials/mp-11317,77.58422543487167,17.467461467560547,85.15530135441891,-13.207436792874708
-7.538071408095237,-158.29949957,8.339312288261674,-0.14800126083333354,25.1667206,0.0,12,21,266.82730082293733,1340.0204,mp-1225932,Dy2Ga3(Fe7C)2,https://materialsproject.org/materials/mp-1225932,76.37748341084591,34.19153068099718,87.83579258320471,-24.45503474443833
-5.538109835,-287.98171142,11.222767576286502,-0.4320188078205132,0.0,0.0,142,52,791.5728490174778,5349.852000000001,mp-28924,Ga8BIr4,https://materialsproject.org/materials/mp-28924,45.884222782308406,40.546335546345254,59.60489420737512,-10.546979120020662
-9.37816241607143,-262.58854765,9.172469468793473,0.3813337967857149,0.0005392999999999999,0.0,64,28,509.2445293876586,2812.96,mp-1179059,TeMo6,https://materialsproject.org/materials/mp-1179059,65.51432281022426,35.63125730398877,64.6872208475518,8.885824829639438
-2.854237065,-79.91863782,5.442159884045041,-0.576902272577143,0.936411925,0.0,91,28,261.95249234632234,858.5087800000001,mp-677135,Li2CoCl4,https://materialsproject.org/materials/mp-677135,28.054302649142336,54.917413138800455,50.76296202698743,4.425621697848691
-3.9703161333333337,-47.6437936,2.5347171935624075,0.18134029666666684,0.000187325,0.0,1,12,210.88512773328415,321.904,mp-1073519,MgSi2,https://materialsproject.org/materials/mp-1073519,39.048145368139814,24.712000449915735,59.82254849937401,1.5000867887914615
-8.154789155,-163.0957831,8.097158817360965,-0.039912767437502335,37.671874700000004,0.0,12,20,262.33959665508684,1279.2264,mp-1217730,Tb2Fe17C,https://materialsproject.org/materials/mp-1217730,75.55373469865731,34.537973418442434,87.6890533400519,-23.72669788853323
-4.095645583728814,-241.64308944,6.0474742833510495,-0.211564749004238,4e-07,0.0,5,59,856.590269463582,3119.594,mp-685126,Cu39S20,https://materialsproject.org/materials/mp-685126,16.185451766287347,25.43134256625029,70.07765707266853,-21.27473685796757
-5.425638217878787,-358.09212238,8.599735682852437,-0.3371919715151517,1e-07,0.00509999999999966,152,66,815.6334958600308,4224.0696,mp-30029,Ga3Ni13Ge6,https://materialsproject.org/materials/mp-30029,42.743018789325774,49.565950368264524,75.67278369267045,-14.886534357267294
-4.661837225714286,-130.53144232,8.497783586423795,-0.1459906921428567,6.93547445,0.0,140,28,468.47934327977134,2397.436,mp-568497,EuCu9Sn4,https://materialsproject.org/materials/mp-568497,34.11766268264838,30.21046173838572,69.1792057848634,-10.361743423303777
-5.558620453333332,-66.70344544,7.259879564622588,-0.4055846916666663,4.7e-06,0.0,160,12,170.90090425757796,747.17905,mp-1226870,CeY(MgNi4)2,https://materialsproject.org/materials/mp-1226870,66.51096722843899,49.82827740973301,73.88615279784943,21.005742382172876
-5.843448940689656,-169.46001928,7.405741453528432,-0.3107146634482768,0.0,0.0,225,29,294.10213480234853,1311.649,mp-10117,Mg3(Ni10B3)2,https://materialsproject.org/materials/mp-10117,39.414071658167906,53.429679732079535,79.0502717125995,-10.698570984150775
-4.609132372857141,-129.05570644,8.51384967864514,-0.4832663414285712,1e-07,0.0,63,28,442.4153646322468,2268.33445,mp-14125,Ho2(Ga3Co)3,https://materialsproject.org/materials/mp-14125,68.52111065747775,18.523265071792046,64.76772998220072,6.428764523503813
-8.4489947075,-33.79597883,7.233005764978365,-0.22322847124999967,1.1530614,0.0,123,4,44.285513537152355,192.899635,mp-1221697,Mn3Si,https://materialsproject.org/materials/mp-1221697,42.6116747957817,59.81819482793504,91.73456300229816,-8.6878255890371
-7.453082764090909,-163.96782081,7.585177319412747,-0.03927832390272877,38.1165511,0.0,166,22,270.19066770445846,1234.20412,mp-1191073,Pr2Fe17H3,https://materialsproject.org/materials/mp-1191073,77.58457058064636,34.449642671344506,88.61585465667947,-25.687659458548726
-7.592926763846153,-296.12414379,8.450605303682018,-0.7988038709829055,0.0007789,0.0,10,39,536.248900772548,2729.010096,mp-1219413,Sc8B8As3Rh20,https://materialsproject.org/materials/mp-1219413,58.39349001623246,39.80402083675971,69.79141013996815,12.635016118995399
-8.323153372272728,-366.21874838,8.10024138838962,-0.28539587577909165,39.4945554,0.0,194,44,541.7073461164758,2642.49148,mp-1212403,Ho2Fe17N3,https://materialsproject.org/materials/mp-1212403,76.37531557538395,33.79870639152656,89.2296414962199,-24.62772136062234
-7.509436010000001,-45.05661606,7.427002900368472,-0.19553174166666665,4.2035598,0.0,115,6,83.5278602097373,373.59053000000006,mp-1221723,Mn3CoAs2,https://materialsproject.org/materials/mp-1221723,44.01796380579172,49.82652440888237,73.27714405102752,-14.3343479032229
-7.809332780833333,-93.71199337,8.879674882148414,-0.5190076958333331,0.02202835,0.0,62,12,169.62142819024817,907.0447,mp-1101967,NbCoAs,https://materialsproject.org/materials/mp-1101967,60.18220289463274,36.73845823996349,72.59364161557275,0.5216905970293109
-7.367460080689655,-213.65634234,8.103966508409417,-0.292449894252873,20.108370899999997,0.0,225,29,286.4968481117014,1398.1970949999998,mp-1193707,Ti2(Co7B2)3,https://materialsproject.org/materials/mp-1193707,39.25859897144488,53.64147866357973,79.29842862408306,-11.752716423056073
-5.551668232666667,-83.27502349,7.363652067017688,-0.5865863886666669,0.0008019,0.0,221,15,270.02726364896495,1197.43455,mp-1104503,YGa3Ru,https://materialsproject.org/materials/mp-1104503,69.42891549000841,18.16585539480761,54.40345672421992,26.74483205009329
-7.679998038,-153.59996076,8.042860134714596,-0.029207591687500662,27.348550899999996,0.0,12,20,265.92990546468315,1288.03779,mp-1219405,Sm2Mn2Ga2Fe13C,https://materialsproject.org/materials/mp-1219405,76.18298270012353,35.410604607931994,86.65861976457377,-23.39003731233841
-6.4975992175,-25.99039687,6.7281881364665335,-0.2622692175000001,3.2969739000000002,0.0,225,4,48.46339159211246,196.3644386,mp-10885,AlCrNi2,https://materialsproject.org/materials/mp-10885,82.43601297739353,43.68605123442151,89.23759358264151,-3.8617858448101465
-8.544733885555555,-76.90260497,7.173676853834166,-1.0204202784920635,0.0,0.0,189,9,124.93544807115501,539.7322859999998,mp-10739,TiPRu,https://materialsproject.org/materials/mp-10739,47.09057637833835,44.95591882187978,65.35554231596535,-8.26788237841908
-7.165722198181817,-78.82294418,10.680587513765484,-0.6687500009090893,1.8000000000000001e-06,0.0,71,11,164.9259265281295,1060.8036,mp-10076,Hf3(NiGe)4,https://materialsproject.org/materials/mp-10076,59.492366178371,22.683111344079556,57.93927765948472,10.676393395685086
-6.0146776475,-24.05871059,15.715335783676071,-0.09713495750000067,1.07357225,0.0,123,4,53.63007013918503,507.5548,mp-945,NiPt,https://materialsproject.org/materials/mp-945,53.31491467584439,59.280867609926474,87.52998565528819,2.737542095756916
-7.342021141666668,-44.05212685,12.82526438829537,-0.8959911250000007,0.46444830000000004,0.0,74,6,113.44659484020387,876.2110000000001,mp-1226551,CePtRh,https://materialsproject.org/materials/mp-1226551,82.5883863222127,11.492462531622984,60.81014296871818,26.03291834408898
-4.672571363333334,-56.07085636,7.053623016470753,-0.23454687160166665,1.1e-06,0.0,183,12,103.21131521717649,438.42010999999997,mp-1222892,LaNi5H6,https://materialsproject.org/materials/mp-1222892,72.38211589255016,13.122578529789019,64.5988473926391,1.9589026801159664
-8.475359883846155,-220.35935698,9.612149438013263,-0.08543135913461587,4.68e-05,0.0,227,26,324.7126008265437,1879.6222,mp-30052,Ni6Mo6C,https://materialsproject.org/materials/mp-30052,63.9479210946154,43.248737782777816,74.84269678816041,1.7601878586562385
-1.8092525389473688,-34.37579824,8.02004184330881,-0.1940002407894736,5.0999999999999995e-06,0.0,166,19,302.68176687803464,1461.8870000000004,mp-30715,Lu2Zn17,https://materialsproject.org/materials/mp-30715,70.74896805419415,17.320643836847722,66.44941122438081,4.283273440639878
-7.4034964950000015,-148.0699299,7.532678674561682,-0.3790705490000008,0.0,0.0,87,20,323.31375446597684,1466.6434,mp-30814,Zr9Ni11,https://materialsproject.org/materials/mp-30814,65.1823950421783,35.37721880269305,70.16611226741875,5.046839956492702
-7.582899998928572,-212.32119997,6.386247684338871,-0.4572028664285718,7.5e-07,0.0,22,28,387.4390230300354,1490.0472100000004,mp-1220933,Nb4Co3Si7,https://materialsproject.org/materials/mp-1220933,63.6728298084591,27.91445403732251,63.08735835362917,9.806997860748893
-5.24118329375,-41.92946635,8.388734136834012,-0.23969164562500025,5.2e-06,0.0,146,8,103.41168825877988,522.4166,mp-1224859,GaNi4Ge3,https://materialsproject.org/materials/mp-1224859,79.23563783644288,47.16922123475101,83.52561913861037,-1.5284564443155613
-6.12945534,-98.07128544,7.885905273727924,-0.4433143930357142,0.0,0.0,82,16,174.39782769550862,828.2158479999998,mp-2296,Ni3P,https://materialsproject.org/materials/mp-2296,43.25752502207325,54.33384833447052,77.40511807825017,-12.89554117343374
-11.506712139166664,-138.08054567,14.500780927254649,-0.3616333508333322,2.85e-06,0.0,194,12,212.37173454030759,1854.5520000000001,mp-12109,ZrRe2,https://materialsproject.org/materials/mp-12109,82.37090554088158,14.349923700304306,62.85091655523142,25.106424539887854
-6.69201520375,-53.53612163,10.81051007928258,-0.2824934562500001,4.6e-06,0.0,194,8,128.30147807173498,835.2736,mp-1025451,HfNi2Sb,https://materialsproject.org/materials/mp-1025451,68.60481419559407,17.407649464978245,65.68160224937216,11.325625659524569
-4.657088741428573,-32.59962119,6.429559876416598,-0.3791300021428573,0.4333717000000001,0.0,123,7,116.06901271897421,449.41591200000005,mp-1025241,ScGa5Fe,https://materialsproject.org/materials/mp-1025241,57.57888651870486,43.91506115526092,74.82232515700109,13.664458345065267
-4.843153569285714,-135.60829994,9.156242227140568,-0.6739700514285712,7.6e-06,0.0,63,28,466.5046396453338,2572.315,mp-1210956,Lu2(Ga3Rh)3,https://materialsproject.org/materials/mp-1210956,69.33351032332757,15.851817816672366,64.89307961835321,5.400962148161452
-8.114757580000001,-97.37709096,7.396003105907707,-0.16466327499999994,5.4490717,0.0,164,12,154.139951498813,686.5358372000002,mp-1220454,NbAlFe4,https://materialsproject.org/materials/mp-1220454,63.97986594213605,48.022000908377,78.52155117217525,-3.2057334000929107
-8.036999413333334,-96.44399296,6.7798437149168125,-0.8373347373809518,0.01650435,0.0,62,12,137.98805483240022,563.393828,mp-1101982,VCoP,https://materialsproject.org/materials/mp-1101982,43.889958129175966,53.26482070042695,75.43912920849895,-10.752399048016779
-7.193023833333334,-345.265144,7.643720528517124,-0.3895602238690484,10.063644625,0.0,1,48,527.3945645162746,2427.679544,mp-1225371,Fe5Ni4P3,https://materialsproject.org/materials/mp-1225371,43.30897736993328,54.28032101480155,77.37083704199938,-12.96459018979624
-3.790006349583333,-90.96015239,7.358452472382728,-0.32328791625000025,0.0,0.0,227,24,308.43715018624914,1366.7972,mp-17260,Zn3SiNi2,https://materialsproject.org/materials/mp-17260,62.38581834055518,44.80148490357816,80.98536804300441,4.175752231729222
-7.005607725454545,-77.06168498,9.585004502011957,-0.892003837142857,1.8000000000000001e-06,0.0,174,11,158.4082553444689,914.368048,mp-1103449,Yb(P2Rh3)2,https://materialsproject.org/materials/mp-1103449,57.39945707554574,30.26540379318966,62.277013136400356,6.957185872257207
-7.663081824642857,-214.56629109,6.7961120852405354,-0.4830323110714281,0.775883725,0.0,63,28,418.8230649037308,1714.1232,mp-540782,V4As3,https://materialsproject.org/materials/mp-540782,23.08338613695312,35.804373041327274,63.89490372655284,-21.279922353822773