energy_per_atom,energy,density,formation_energy_per_atom,total_magnetization,band_gap,sgr,num_sites,cell_volume,weight,mp_id,formula,URL,tsne_cry_0,tsne_cry_1,tsne_xrd_0,tsne_xrd_1
-5.088025603599999,-127.20064009,6.754792639122987,-1.9000292993499996,0.9036698000000001,0.0,12,25,448.4852190212628,1824.3622,mp-1228333,Ba6Cu3Hg3O13,https://materialsproject.org/materials/mp-1228333,6.626237342423671,-65.79609433341004,9.661673793289452,-48.799422975190325
-5.612638296923077,-72.96429786,6.322069056028187,-1.9535659200961548,0.0013341,0.0,123,13,224.68634887958697,855.4346386,mp-1267165,Ba2AlTlSn2O7,https://materialsproject.org/materials/mp-1267165,6.58851518379076,-66.23937947653732,9.794879246236746,-48.812876115168294
-7.468189372307693,-194.17292368,5.452956855061218,-3.3133464611369234,0.9573149999999999,0.0,176,26,433.62440288747337,1423.95638,mp-1211272,La3Nb(ClO2)3,https://materialsproject.org/materials/mp-1211272,-1.831914936627629,-60.35428669265579,-0.6688608108575219,-50.13518638626819
-6.156745934999999,-86.19444309,5.196240541531169,-0.7151704474485712,2.05297885,0.0,176,14,325.85841501181613,1019.6922,mp-8306,Ba3FeN3,https://materialsproject.org/materials/mp-8306,-2.1077426017107648,-27.792526952364412,-3.942321695775817,-34.556166323128664
-6.043946909375,-96.70315055,7.243717604994825,-2.0546523050000003,2.6e-06,0.0,10,16,251.38135827686955,1096.59305,mp-1228504,Ba2YCu3(PbO4)2,https://materialsproject.org/materials/mp-1228504,9.281903140652801,-65.76892836948298,41.28159007046601,-51.425474094149244
-5.841052557708332,-280.37052277,6.445645259756371,-1.7627551594270827,1.99999985,0.3148000000000002,176,48,802.2097013461148,3113.9040000000005,mp-560702,BaHgRuO5,https://materialsproject.org/materials/mp-560702,5.633338729672308,-66.0921044450568,-34.190392609700666,-19.89589919507839
-6.401632474545455,-281.67182888,5.916001240022683,-2.6027874498599997,4.001396700000001,0.0,14,44,699.216853611399,2491.09938,mp-1208471,Sr3MnBiO6,https://materialsproject.org/materials/mp-1208471,8.914198341874162,-67.30471722047473,7.475027019520601,-46.88803776037592
-6.297097912083332,-151.13034989,4.8524054673350125,-2.398858050520834,1.0000004999999998,0.1878,113,24,407.5549003196949,1190.9516,mp-22067,Ba2CuGe2O7,https://materialsproject.org/materials/mp-22067,-30.256944358513536,-31.645771664167803,-8.480860394164528,-26.2510125796938
-5.560283367749999,-222.41133471,4.5991397063129,-1.7241457777187503,0.9999995,0.5596999999999999,14,40,656.8146235188938,1819.1576,mp-555570,BaCu(SeO3)2,https://materialsproject.org/materials/mp-555570,-30.531372978957954,-30.12637055909768,-32.47682086137694,10.270758080209783
-7.982134578666666,-239.46403736,5.726731501670972,-3.024791613694445,0.0,2.8163000000000005,12,30,431.5975494738573,1488.4584,mp-540598,Ti4Tl2O9,https://materialsproject.org/materials/mp-540598,-8.982279591593798,-43.8191253853952,-2.1810258038190846,-29.930656542130738
-7.012707877692307,-91.16520241,5.51999302377944,-2.755523207275642,1.5178684999999998,0.0,8,13,214.71177119906224,713.7486386,mp-1249385,Ba2Ti2AlTlO7,https://materialsproject.org/materials/mp-1249385,7.174682599194503,-63.71056400421138,8.796886875711024,-45.858772169406
-5.838791802307693,-75.90429343,6.789574599813813,-2.0313348839423075,4.000001,0.2690999999999999,123,13,195.0034594963559,797.32575,mvc-2992,Ba2YTlNi2O7,https://materialsproject.org/materials/mvc-2992,8.696599609868187,-65.08391732218566,10.703235417955497,-47.78960156012662
-7.649415195454545,-168.28713430000002,5.937214198649214,-2.6853406802233546,0.0,2.4847,26,22,357.8235546467102,1279.3888238000004,mp-562854,CsNb2BiO7,https://materialsproject.org/materials/mp-562854,-30.239520018973288,-56.387073989060895,-14.017926658941152,-51.46905581437952
-5.780608896296298,-156.07644019999998,6.7139931818476235,-0.6690900201851852,5.04e-05,0.0,44,27,526.0003150553865,2126.7567,mp-569851,Ho10Si17,https://materialsproject.org/materials/mp-569851,47.992373009020426,-15.016208373042257,5.24107363612344,-50.66271391679185
-6.371415964736843,-121.05690333,6.120919890865992,-2.280734978289473,8.9904815,0.0,1,19,292.87259617701517,1079.5589,mvc-3022,Ba2Ca2Tl2Cr3O10,https://materialsproject.org/materials/mvc-3022,8.948547140248394,-65.36040611092675,9.27963423172701,-45.666937549686864
-7.108368583421052,-270.11800617,5.0154861977798255,-2.0062059881250005,13.00000025,0.0,14,38,586.5976992457984,1771.7576,mp-17465,Gd2Cu(SeO3)4,https://materialsproject.org/materials/mp-17465,-30.159271254828035,-53.25398149971589,-18.959609097691114,-30.705600075426574
-7.129551719615384,-370.73668942,4.605708793447416,-2.9139264416666677,0.0,3.7131,100,52,859.2317876381544,2383.1848,mp-6289,Ba2Ti(GeO4)2,https://materialsproject.org/materials/mp-6289,-30.428157414060358,-31.66209047731182,-8.623745382527794,-26.282789465266518
-8.58265779421875,-549.29009883,5.048539220112048,-3.3427336692838536,4.5e-06,0.0,8,64,877.2693366862289,2667.16322,mp-773061,Ba6Ti7Nb9O42,https://materialsproject.org/materials/mp-773061,-33.907065506286415,-56.305182182817276,-5.327525631098923,-54.63443156631878
-5.323197617575758,-175.66552138,5.182655548085736,-1.931672809932424,5.0000003,0.0,191,33,638.1347312780682,1991.662,mp-559813,Ba9Cu7Cl2O15,https://materialsproject.org/materials/mp-559813,-13.536867302422754,-58.83547853539815,-8.228265901543512,-26.66191061201127
-7.626855849250001,-610.14846794,5.369262954710639,-3.118711601203126,0.0,1.5128000000000004,62,80,1447.9294584382355,4681.8014,mp-555253,La5Ti2AgS5O7,https://materialsproject.org/materials/mp-555253,13.412600222308551,-17.544457258920232,-16.96805467529701,-28.53698991302619
-6.2076635475,-148.98392514,5.258957210245677,-1.0172279105433333,6.4925e-05,0.0,174,24,436.62136193857367,1382.7877600000004,mp-569121,La2B3Cl,https://materialsproject.org/materials/mp-569121,-2.459240964181173,-27.558334508364137,5.182899107142601,-50.66676607966461
-6.9143447618867935,-366.46027238,5.785590975512857,-2.5533845351179245,0.7139934,0.0,5,53,803.1501199261568,2798.3070399999997,mp-675164,La12Cu10O31,https://materialsproject.org/materials/mp-675164,-0.84615927761973,-49.990991358323384,-19.154456640293613,-28.1248393141828
-5.254840465454546,-57.80324512,7.65018793258094,-1.7965796402272731,1.76e-05,0.0,139,11,182.97236396168884,842.9630000000001,mp-550722,Ba2Tl2CuO6,https://materialsproject.org/materials/mp-550722,7.3879951841404425,-65.90869444244365,10.33700068583482,-48.76534666309079
-6.643920815652175,-152.81017876,4.867783206994707,-2.5302868807298147,8.999999699999998,2.4553,150,23,341.91970689333715,1002.319709,mp-1228226,Ba3Co3Te(PO7)2,https://materialsproject.org/materials/mp-1228226,-30.893036096420268,-31.966182116822004,-8.86391435276665,-25.76712650708143
-6.2436937982608685,-143.60495736,4.930930679923693,-2.64699475659938,0.0,2.8782,150,23,344.083317844569,1021.7471240000003,mp-1190416,Ba3Zn3Te(PO7)2,https://materialsproject.org/materials/mp-1190416,-30.86715449688621,-31.99709441903088,-8.852197494972966,-25.876518153237893
-5.226986203913044,-120.22068269,6.425164093896036,-1.758987149130435,2.4267903,0.0,139,23,317.99376269266986,1230.421,mvc-126,Ba2Ca3Tl2(NiO3)4,https://materialsproject.org/materials/mvc-126,9.360859259314497,-64.22319465278858,10.231238084219509,-45.88795563028017
-6.3441119311111125,-57.09700738,5.549771693390846,-1.9538129104166675,1.5484299,0.0,25,9,147.1183033448555,491.6915386,mvc-16255,BaAlCuWO5,https://materialsproject.org/materials/mvc-16255,6.249712876657567,-40.963118701733066,1.5853024942659997,-50.57791574519813
-6.186879370588236,-105.1769493,6.4297669208276735,-1.8761479059047068,11.1407368,0.0,1,17,260.3831828326682,1008.2287349999999,mvc-3169,Ba2Mn3Tl2O10,https://materialsproject.org/materials/mvc-3169,7.123885671900481,-63.832307940489635,8.753780134937466,-45.94433327593422
-6.124523301176472,-104.11689612,6.528124887161173,-1.8397429039705884,4.0000967,0.0,1,17,287.74866430529516,1131.2345999999998,mvc-3126,Ba2Tl2Mo3O10,https://materialsproject.org/materials/mvc-3126,6.3877469742781035,-64.55018852235038,8.551387799787058,-46.62648241283501
-7.301777299285715,-102.22488219,8.459101929421086,-2.1912461802678576,0.0,0.16049999999999984,139,14,189.22126903416438,963.92916,mp-556848,CaTa2Bi2O9,https://materialsproject.org/materials/mp-556848,-2.9206752501288666,-59.16193623584885,4.2737524268428215,-56.707116195355894
-7.071622068333332,-84.85946482,4.718797066382106,-2.4361462617708347,4.999999900000001,0.0,6,12,189.8403605038887,539.4743,mvc-1364,Ba2V3O7,https://materialsproject.org/materials/mvc-1364,6.237042262621762,-41.262015138619425,-2.336625344206292,-24.314450768901814
-7.332892506153847,-190.65520516,5.6230287057063935,-3.211028843636924,0.3628436,0.0,176,26,424.05676253402066,1435.96946,mp-1209779,Pr3Nb(ClO2)3,https://materialsproject.org/materials/mp-1209779,-1.8220687263809368,-60.311491963629415,-0.6631974591815246,-50.086356809077394
-6.008335846666666,-90.1250377,7.408926230725671,-2.1489457288333327,6.7e-06,0.0,139,15,223.8237957264014,998.648,mp-1208767,Sr2SmCu2(BiO4)2,https://materialsproject.org/materials/mp-1208767,9.60951894737801,-68.38732265979462,11.848718928494234,-46.47670577202908
-5.989165567333332,-89.83748351,7.267492326288633,-2.1252866263333328,4.5e-06,0.0,139,15,226.0199146109066,989.19565,mp-1208752,Sr2PrCu2(BiO4)2,https://materialsproject.org/materials/mp-1208752,9.555752284162756,-68.31757630127701,11.792145794545085,-46.564770356925
-8.47942965076923,-110.23258546,7.068975908040018,-3.4537593648284624,0.0,3.0860000000000003,12,13,195.74215270960704,833.28156,mp-559243,Nd2Ta2Cl2O7,https://materialsproject.org/materials/mp-559243,-31.982482135721398,-54.667024862986466,-12.270854760579144,-40.35397278179131
-6.016039868571428,-42.11227908,7.45359016638399,-0.3550600189285719,0.0002796,0.0,139,7,136.54116845768604,612.8864699999998,mp-1147562,LaBi2(CO)2,https://materialsproject.org/materials/mp-1147562,-2.952739530642277,-58.813164474035595,2.54381146723881,-50.030762816350745
-5.939360481785713,-166.30209349,3.7275603017468577,-1.0023871820914283,0.0,0.058000000000000274,5,28,449.5506064623972,1009.1464,mp-1218778,Sr2LiSiN3,https://materialsproject.org/materials/mp-1218778,-9.03254290866377,-43.8121425057436,-2.762154394004256,-37.742604991285454
-5.210965772105263,-99.00834967,6.9531559420682845,-1.5740776540789476,8.5600114,0.0,1,19,274.88724478692717,1151.0321849999998,mvc-3042,Ba2Tl2Zn2Co3O10,https://materialsproject.org/materials/mvc-3042,8.573432094177567,-64.50907929321717,9.254193074224016,-45.9103458720307
-6.478980756176472,-220.28534571,6.587851990729262,-2.7514869846323533,1.295e-05,0.0,118,34,565.1780168205943,2242.2292,mp-636383,Ba4Sm2Cu2O9,https://materialsproject.org/materials/mp-636383,8.769621846781979,-66.27347255504552,16.75711571225747,-39.25523028040901
-5.799712482592592,-156.59223703,6.549079721913527,-0.6780520824074072,6.56e-05,0.0,44,27,533.0834658880242,2102.4535,mp-569825,Dy10Si17,https://materialsproject.org/materials/mp-569825,48.04327663309018,-15.117220021170338,5.245643212430478,-50.66906569652186
-5.13069920125,-164.18237444,6.859395358842539,-1.33236256125,0.0,1.5066000000000002,14,32,591.8738975038405,2444.9272,mp-558338,Tl2CuAsO4,https://materialsproject.org/materials/mp-558338,-3.185602284549641,-30.37917478161215,-3.9360760361202254,-31.217710008987265
-7.31948879826923,-380.61341751,4.898741600252515,-3.0953183826546162,0.0,3.1501,136,52,968.1170687853473,2856.0336399999997,mp-555073,La3As2ClO7,https://materialsproject.org/materials/mp-555073,-13.173546760194998,-59.44170514256549,0.7427964314912641,-33.73599037166497
-6.921540635,-96.90156889,6.281720805866827,-2.059912083125,1.1316888999999999,0.0,139,14,208.26288633717118,787.8461599999999,mp-555616,CaNb2Bi2O9,https://materialsproject.org/materials/mp-555616,-18.06875610842416,-55.9635950399522,2.4258656048043834,-50.074290359857514
-5.168164968421053,-98.1951344,6.556670733921091,-1.7249500443421055,0.0007946,0.0,1,19,336.9269442229231,1330.3625999999995,mvc-2762,Ba2Tl2Zn2Sn3O10,https://materialsproject.org/materials/mvc-2762,6.427563742224064,-67.23019014040503,2.281631318953292,-33.94560763361148
-5.675526303478263,-130.53710498,5.916491191334464,-2.1388070808695656,0.0083207,0.0,139,23,412.71112498307417,1470.4874,mvc-16378,Ba2Ca3Tl2(SnO3)4,https://materialsproject.org/materials/mvc-16378,6.220726208487064,-67.32277685907515,-6.774554852737269,-55.82968480457223
-8.40127328590909,-554.48403687,4.881267132920693,-3.363045197335857,0.0,2.0419,36,66,866.0889056493048,2545.92708,mp-766208,Ba3LiTi5Nb3O21,https://materialsproject.org/materials/mp-766208,-33.869328552169186,-56.22970725853542,-5.341896611871757,-54.63093013841711
-6.399268693076923,-83.19049301,7.354537226503076,-2.0900550624038465,6.2650068,0.0,123,13,196.78948666381686,871.5818,mp-1214867,Ba2GdCu2HgO7,https://materialsproject.org/materials/mp-1214867,8.941058855766398,-65.83332798319042,11.110135337436303,-47.84289268947659
-6.5923019926086965,-151.62294583,4.971837653656593,-2.4667263309782608,10.0000045,2.3042,5,23,346.7549183232808,1038.2226,mp-1228826,Ba3Fe2(Ge2O7)2,https://materialsproject.org/materials/mp-1228826,-8.70777856490745,-43.214630850190275,-3.0100893027784035,-30.916377350648556
-8.7645254515625,-560.9296289,7.234064839929602,-3.2296846835546877,9.99999945,2.1632,15,64,893.0863959374692,3890.69136,mp-1228561,Ba3Ta6Fe2O21,https://materialsproject.org/materials/mp-1228561,-33.908793694429896,-56.57538033950061,-5.783767045312074,-54.698694865555886
-7.706621606625001,-616.52972853,5.287116577276377,-3.1349464237447933,0.0,1.3055000000000003,62,80,1414.744486743497,4504.5126,mp-559474,La5Ti2CuS5O7,https://materialsproject.org/materials/mp-559474,13.465333597875937,-17.567690827637858,-17.032567867999187,-28.503841553411352
-7.065160460454546,-466.30059039,5.468946472793991,-2.7424490552146468,1.1599999999999999e-05,0.0,8,66,892.8946995925837,2940.7278,mp-772829,Ba6Li2Ti7(Sb3O14)3,https://materialsproject.org/materials/mp-772829,-33.91221653802913,-56.407851124354465,-5.396429177312945,-54.672110711500814
-6.464364203529412,-219.78838292,6.405353484810762,-2.73113555375,5.5e-07,0.0,118,34,574.9366401985366,2217.7572,mp-560766,Ba4Nd2Cu2O9,https://materialsproject.org/materials/mp-560766,8.741996307262854,-66.3061745501211,16.780060597709706,-39.283294946843185
-8.478734796923076,-110.22355236,7.292766931514988,-3.4605639671361534,0.0,3.1287,12,13,192.52156699513145,845.5175600000001,mp-554623,Sm2Ta2Cl2O7,https://materialsproject.org/materials/mp-554623,-31.966089635654058,-54.67693968281904,-12.203437783035142,-40.35263648893251
-6.312003926315789,-119.9280746,6.126043569240798,-2.2442657952831566,13.001327499999999,0.0,1,19,295.01999497393933,1088.384735,mvc-3046,Ba2Ca2Mn3Tl2O10,https://materialsproject.org/materials/mvc-3046,8.930846466568077,-65.47430269854353,9.097520804642386,-45.829684770316
-4.50637386875,-36.05099095,6.190913395400113,-0.7453877756640628,0.0,1.5257,42,8,237.68259959080825,886.1414,mp-1216543,Tl3V(SeS)2,https://materialsproject.org/materials/mp-1216543,-0.8336666930398209,-24.255977259147212,5.440277323791951,-51.47296849284133
-6.585494944444445,-59.2694545,6.060316462123724,-2.3909735826388894,0.05671759999999999,0.0,99,9,134.68182290245562,491.53585,mvc-7194,BaYCuSbO5,https://materialsproject.org/materials/mvc-7194,9.606446634395235,-65.44473186241913,39.84872076153915,-53.683886775825
-6.288001781304348,-144.62404097,7.388989611837264,-1.9514167021739135,8.4161047,0.0,139,23,389.01196472438636,1731.0074,mvc-248,Ba2Ca3Tl2(WO3)4,https://materialsproject.org/materials/mvc-248,5.908430176654883,-67.52942912608253,2.9100958670081765,-34.27729771779874
-5.6363486929999995,-225.45394772,5.587181908636936,-1.3983912660000009,0.99999995,0.0,2,40,521.9763498997321,1756.2832,mp-1202558,Cu4As3PbO12,https://materialsproject.org/materials/mp-1202558,-8.370906149885048,-44.13423299609292,-2.4047419577015026,-30.122737282274
-7.968758837727273,-175.31269443,5.985626531137253,-3.32910344747159,2.12059645,0.0,55,22,399.8506797938489,1441.3132,mp-19976,Ce4S3O4,https://materialsproject.org/materials/mp-19976,0.2191542452999915,-58.24960881936193,-5.912683005493236,-23.41023372679423
-6.857408955,-137.1481791,5.5075091809123515,-3.0506083067389995,0.0,3.3427999999999995,12,20,374.69869067484007,1242.7629999999995,mp-560170,Nd5Te2Cl3O10,https://materialsproject.org/materials/mp-560170,-13.312874630627014,-59.08705555576814,-15.058860290713966,-52.54550270764114
-5.791589871666668,-173.74769615,7.590278787242494,-2.1447005036666664,0.0001727,0.0,66,30,446.8755533711432,2042.656,mp-1208674,Sr2YbCu2(BiO4)2,https://materialsproject.org/materials/mp-1208674,9.438947319493932,-68.5737058067511,11.916312841541734,-46.38562016686159
-8.273976475454544,-91.01374123,5.264223558778666,-3.2164159059051736,0.0,1.4415,123,11,179.67994274524548,569.6194819,mp-553248,CsLaNb2O7,https://materialsproject.org/materials/mp-553248,-28.61071597984179,-69.29955519005054,2.8944732248216467,-58.261885479996785
-4.971641955555556,-89.4895552,5.370216954980194,-1.1574693478848614,0.0,0.0,11,18,264.62062760879655,855.78848,mp-696931,TlCuHSeO5,https://materialsproject.org/materials/mp-696931,-31.80485333602005,-32.39819096104779,-9.06386679533022,-30.055068582594863
-6.484264088333332,-155.62233812,4.134541451716278,-2.8340273859375014,0.0,3.6062,113,24,366.94215382416564,913.6416000000003,mp-972387,Sr2MgGe2O7,https://materialsproject.org/materials/mp-972387,-7.711818792256344,-43.54015047880785,3.3359436220176852,-33.139805414147894
-5.287138109583333,-253.78262926,6.947991566092947,-1.2265822588541664,0.99999965,0.0045000000000001705,62,48,609.3753570347336,2549.7352,mp-1198524,Cu3TePbO7,https://materialsproject.org/materials/mp-1198524,-8.686351415790204,-47.27435612621541,-1.0884655984517282,-48.48421256250485
-6.304148375555554,-56.73733538,5.7531594217489435,-1.9138493548611115,1.8003303,0.0,99,9,141.91732500865783,491.6915386,mvc-7698,BaAlCuWO5,https://materialsproject.org/materials/mvc-7698,6.257508741526905,-40.96169646165937,-0.4526763373871023,-37.59769062981646
-6.35824900642857,-89.01548609,5.1355713388663435,-0.8167566060199992,0.9255761,0.0,176,14,329.1214408262025,1017.87829,mp-9324,Ba3MnN3,https://materialsproject.org/materials/mp-9324,-2.0809386419291966,-27.8405604600577,-4.1743170613586615,-34.57877036770593
-5.9808943625,-95.6943098,5.1506558395879285,-1.6752283997120836,0.35039415,0.0,11,16,351.98758807021994,1091.79422,mp-571135,La3BCCl3,https://materialsproject.org/materials/mp-571135,-1.8818996801245167,-26.101263050465608,-3.3945857526690943,-25.54177600369696
-6.459898,-38.759388,5.917014703586929,-1.20084408652,14.000001500000002,0.07819999999999983,164,6,96.09179621431365,342.40482000000003,mp-1018693,Eu2H3Cl,https://materialsproject.org/materials/mp-1018693,25.527570252974197,-41.64386616196376,20.21269656083665,-36.677537344109275
-6.464222352999999,-193.92667059,6.565027557713536,-0.6068495120555544,0.0002161,0.0,127,30,452.48373327366613,1788.918,mp-1208836,Sm5(SiB4)2,https://materialsproject.org/materials/mp-1208836,30.04074448601045,-40.22277509840821,13.423294933455356,-19.542887285409037
-8.87942726,-213.10625424,4.961897338481222,-3.171493735184168,18.99999725,0.0,113,24,352.7516007627212,1054.0656900000001,mp-1190662,Eu2MnSi2O7,https://materialsproject.org/materials/mp-1190662,-23.26467005099011,-30.310739096255695,-8.896801062640243,-26.01789332389443
-6.51326535923077,-84.67244967,6.450458503969128,-2.3807969962500013,7.924607400000001,0.0,123,13,203.78873468612255,791.6289499999998,mvc-2985,Ba2YTlFe2O7,https://materialsproject.org/materials/mvc-2985,8.622749490875497,-65.80732272858394,10.183814100351183,-48.513057613473684