energy_per_atom,energy,density,formation_energy_per_atom,total_magnetization,band_gap,sgr,num_sites,cell_volume,weight,mp_id,formula,URL,tsne_cry_0,tsne_cry_1,tsne_xrd_0,tsne_xrd_1
-6.584467945555557,-59.26021151,7.899615874860557,-0.6851294427777779,0.0,0.0,189,9,143.1035946681641,680.7810000000001,mp-16740,TiGePd,https://materialsproject.org/materials/mp-16740,47.03810838075101,44.92999178569662,64.13570321614974,-8.869276266105242
-7.988667903676472,-543.22941745,8.035202167304734,-0.07929636656862726,31.054683125,0.0,136,68,910.7942747709213,4407.25328,mp-1220477,NdHoFe14B,https://materialsproject.org/materials/mp-1220477,72.31103741898318,32.253683415668924,84.04853015459797,-6.730378336531963
-8.056655084166666,-96.67986101,11.54637830836517,-0.8193004524999997,0.0,0.0,62,12,179.67910358957667,1249.3791800000001,mp-9801,HfCoAs,https://materialsproject.org/materials/mp-9801,59.47671934554382,22.853508296748856,57.9359731889195,10.692264026986287
-8.0981379525,-129.57020724,7.710903421733211,-0.27224159625000066,12.000321099999999,0.0,166,16,177.32063083050946,823.4086799999999,mp-1222120,Mn4Fe8Si3Ge,https://materialsproject.org/materials/mp-1222120,42.39327735965093,60.0884980853756,91.66319255095956,-8.735643953375067
-7.636133206875,-244.35626262,10.539043921817402,0.13498328710937546,0.17384195,0.0,194,32,370.1056823475175,2348.9722,mp-1198477,Ni10(WC)3,https://materialsproject.org/materials/mp-1198477,45.81109152743348,41.49621222151351,66.09678415935265,-10.169063549895665
-7.939599436206898,-230.24838365,7.843611366660996,-0.10312360948275792,42.0766653,0.0,225,29,323.08336145006837,1526.0949999999998,mp-1210236,Nd2(Fe7B2)3,https://materialsproject.org/materials/mp-1210236,53.72224150053255,38.388891703794535,67.51061062593803,-4.784537958399481
-1.5484259652083334,-74.32444633,6.3561936332172015,-0.16324188531249995,0.0025180999999999997,0.0,21,48,783.7109813094493,2999.880538600001,mp-1227673,Ca4AlZn43,https://materialsproject.org/materials/mp-1227673,50.546579417511104,50.53508211397714,72.8939578008524,-6.343142911791973
-8.005618772,-160.11237544,8.892005361169836,-0.5710359356666658,3.75440775,0.0,127,20,256.8599493107813,1375.457,mp-1189775,Ti2FeB2Rh5,https://materialsproject.org/materials/mp-1189775,58.7185586250651,39.91470358834656,71.2097003860178,11.954611461093636
-5.519273122857144,-154.53964744,8.607623492099483,-0.2950256558333341,0.68340295,0.0,194,28,422.24483381966553,2188.76188,mp-1212410,LaInNi5,https://materialsproject.org/materials/mp-1212410,71.37608411056533,22.026563952811255,63.51570353984575,17.268316308887364
-6.3753681250000005,-38.25220875,8.440168440513128,-0.2643249899999998,4.341475900000001,0.0,187,6,84.92356975464337,431.6485286,mp-1216604,TmAlCo4,https://materialsproject.org/materials/mp-1216604,75.41440896883189,19.584496651694568,88.18264094872632,-12.097685344780405
-7.396770494,-36.98385247,8.535898415663237,-0.818480876000001,1e-06,0.0,164,5,70.98373357468324,364.8875,mp-1207013,Si2Rh3,https://materialsproject.org/materials/mp-1207013,56.119844491618025,40.05247571473522,52.88925704464058,47.458904029894676
-7.262517000833332,-87.15020401,9.928450845551907,-0.5206656777083332,0.000102,0.0,166,12,224.59508575188718,1342.86591,mp-569100,LaRh3,https://materialsproject.org/materials/mp-569100,72.79164228376544,15.586671640717812,58.946799360728704,20.42602781184411
-8.1327308655,-162.65461731,8.97789633067117,-0.5062399091666663,2.068852,0.0,10,20,253.72360335053543,1371.786,mp-1217491,Ti2FeB2RuRh4,https://materialsproject.org/materials/mp-1217491,58.740412541679284,39.91786815725629,71.38710755111195,11.869331280605312
-7.447315451666666,-134.05167813,7.820335262145539,-0.5955999842592591,3.85e-06,0.0,123,18,215.2436090308675,1013.6932316,mp-541849,Al3(BRu2)2,https://materialsproject.org/materials/mp-541849,57.66116612111416,39.536090535435704,69.96528762243315,12.480726736448787
-5.8640896271428575,-123.14588217,6.908661846451977,-0.4303474792857138,12.1665911,0.0,174,21,296.5457043551785,1233.776469,mp-1192355,Ce2Mn3Cu9P7,https://materialsproject.org/materials/mp-1192355,64.83802064615314,9.605006789553617,61.094552564427225,-2.354299515843825
-8.012452313970588,-544.84675735,8.220768056464253,-0.11309855700980286,31.000810575,0.0,136,68,906.8685581174823,4489.5999999999985,mp-1226057,DyErFe14B,https://materialsproject.org/materials/mp-1226057,72.5234465452518,32.10597502354305,83.79110537335507,-6.684693642232678
-6.089261653333334,-36.53556992,15.247256708942011,-0.8066744793055557,2.75e-05,0.0,216,6,113.8642082971152,1045.514,mp-1077380,SmInPt4,https://materialsproject.org/materials/mp-1077380,82.541224505688,11.832139485223315,61.58431940708993,25.94300924208301
-7.96037669625,-63.68301357,12.068534559135893,-0.3298855862500005,5e-08,0.0,38,8,98.31471273805046,714.53575,mp-1218015,TaCoNi2,https://materialsproject.org/materials/mp-1218015,49.854768189744775,67.51074211602962,72.71125621595453,-16.65578660030364
-6.973662181666668,-41.84197309,8.181112969386524,-0.02641390083333424,8.037864599999999,0.0,187,6,87.782547855471,432.48543,mp-1219989,PrFeCo4,https://materialsproject.org/materials/mp-1219989,77.80500019657478,17.238023082070242,86.14638225114429,-13.188792100018096
-7.298188617272728,-80.28007479,6.538240770868216,-0.3273398245454551,5e-07,0.0,38,11,87.60516776121656,344.9384,mp-1226092,Cr2(NiB2)3,https://materialsproject.org/materials/mp-1226092,35.51960049891864,54.98943413695083,71.115907697211,-1.9153655767082356
-8.717243236551724,-252.80005386,8.537532012037973,0.07396862517241379,46.894195200000006,0.0,217,29,346.1853525167497,1779.885,mp-1193426,Fe25Mo4,https://materialsproject.org/materials/mp-1193426,46.57213220383867,54.18142125506099,78.22422884535051,-9.566871231491623
-8.013979215681818,-352.61508549,4.717097893236428,-1.107651025324676,0.19056660000000003,0.0,8,44,651.7877177529658,1851.535192,mp-1217410,Ti27CuP16,https://materialsproject.org/materials/mp-1217410,51.591983333732315,46.839114153418464,72.31646215433716,-4.891494120696486
-10.557527093846154,-137.24785222,14.5575444203369,-0.02086764692307733,7.9547049,0.0,166,13,170.4113365464001,1493.955,mp-1473,Fe7W6,https://materialsproject.org/materials/mp-1473,60.839179122273656,31.42153502488349,72.08290301642644,18.328754118559374
-7.64549316375,-183.49183593,5.895191747181499,-0.5433623131547627,1.348894725,0.0,6,24,288.2643484891188,1023.3867240000001,mp-1226398,Cr2CoP3,https://materialsproject.org/materials/mp-1226398,17.096846866116124,37.66370909191219,68.05209816815629,-23.61443368985445
-5.953594145,-23.81437658,5.909212950194597,-0.5200207175000005,3e-07,0.0,123,4,47.35034657687461,168.50147719999998,mp-1228910,Al2FeNi,https://materialsproject.org/materials/mp-1228910,45.856573202268564,60.254855008940886,89.71557204349062,-5.45669137121091
-7.421492083333334,-44.5289525,7.534179455121991,-0.03617875666666729,8.2400509,0.0,115,6,81.41038439238245,369.3743,mp-1226210,CrFe3As2,https://materialsproject.org/materials/mp-1226210,43.99586526297328,49.85199864275937,73.55739435015646,-13.952422548688727
-6.28819611375,-50.30556891,6.0155239569062875,-0.5199420587499999,1.3e-06,0.0,6,8,95.88478049196578,347.35539500000004,mp-1226011,CoSi4Ni3,https://materialsproject.org/materials/mp-1226011,17.448705869412198,37.448307649038156,68.05383359238796,-23.675695320203623
-9.5910949025,-230.18627766,10.939290552989213,-0.5600393249999994,2.3093073333333334,0.0,194,24,424.39071939855967,2795.7990000000004,mp-1191219,GdRh3,https://materialsproject.org/materials/mp-1191219,72.96640146895574,15.524289933578132,58.96001815921837,20.390623044812735
-8.086848185625,-258.77914194,4.67864609084021,-1.1224707093452384,0.0010307,0.0,62,32,471.69589105580286,1329.025144,mp-680570,Ti5P3,https://materialsproject.org/materials/mp-680570,51.57264182860664,46.93729847015633,72.23393474134875,-4.3581270180610545
-7.87879749,-141.81835482,11.305691525890785,-0.07156950250000055,4.114042633333333,0.0,166,18,234.7208883928349,1598.084655,mp-510322,UCo5,https://materialsproject.org/materials/mp-510322,69.83716521156664,42.468684743421036,67.73310225758536,14.253965000958116
-1.7775450620833333,-42.66108149,7.316904814026451,-0.2121470179166665,5.15e-06,0.0,141,24,390.53093320600095,1720.8133,mp-568148,PrZn11,https://materialsproject.org/materials/mp-568148,71.39988493361481,17.93284094828423,68.1905406695614,3.5295133888547685
-4.13366197,-82.67323940000001,7.667595987770772,-0.4587513299999998,1.8000000000000001e-06,0.0,229,20,349.676232407126,1614.6419999999996,mp-1106289,Ga7Pd3,https://materialsproject.org/materials/mp-1106289,42.45165427030371,40.403251914444816,62.29099686328769,-11.092396116495626
-5.88316785,-52.94851065,8.331258255802325,-0.40263166801587297,2.3e-06,0.0,189,9,105.32050722095673,528.4141619999998,mp-1219800,Ni6Ge2P,https://materialsproject.org/materials/mp-1219800,42.7533368451816,55.20602038882897,76.55614511279033,-12.245923936877524
-8.728361041,-174.56722082,6.852896598358298,-0.2567481019519988,4.7973349999999995,0.0,59,20,188.83384360697724,779.30044,mp-1247508,Mn5CoN4,https://materialsproject.org/materials/mp-1247508,27.77375044978725,53.236943126608594,70.08031746746231,-0.417245612217396
-1.7740613316666665,-42.57747196,7.368260944671966,-0.21021211104166626,5.5e-07,0.0,141,24,389.3118503045887,1727.4820000000002,mp-30802,NdZn11,https://materialsproject.org/materials/mp-30802,71.40245866627974,17.943068962621332,68.18046881237039,3.5307327419789885
-4.621385342857144,-129.3987896,8.40325954195696,-0.4884617535714284,0.0001545,0.0,63,28,443.4912360993097,2244.31457,mp-1193699,Tb2(Ga3Co)3,https://materialsproject.org/materials/mp-1193699,68.62526841069932,18.39506701208745,64.79172230978811,6.384849218371315
-6.686718886153847,-86.92734552,5.482201611681843,-0.3947860969230779,10.132657,0.0,71,13,178.15857349425843,588.1832316000001,mp-1215723,Zr(AlFe)6,https://materialsproject.org/materials/mp-1215723,41.50474900826162,43.51347442812417,67.87381515911378,-17.055719409481448
-7.460600416666666,-44.763602500000005,13.202691871857093,-0.6666729812499987,3.02e-05,0.0,191,6,108.26978159944906,860.8364700000002,mp-1018746,LaGe2Ir3,https://materialsproject.org/materials/mp-1018746,64.51868646852262,12.386322540646734,52.4365439265836,-9.243088963942665
-5.120932885714286,-143.38612080000001,8.82259611548949,-0.5330615442857142,2.22e-05,0.0,63,28,474.51755849869346,2521.15528,mp-1212385,Ho2(Ga3Ru)3,https://materialsproject.org/materials/mp-1212385,69.38466645530815,15.769437347680922,64.8484924276649,5.321099269978833
-9.86816038,-19.73632076,8.863077901502036,-0.4607527561900007,0.0,0.0,187,2,20.59902775290145,109.9467,mp-13036,MoN,https://materialsproject.org/materials/mp-13036,31.87556245352802,48.2203065330752,68.02343340884384,9.77736716512646
-4.3670741516666665,-26.20244491,8.92837031745614,-0.1834232766666665,1e-07,0.0,191,6,89.31536605511292,480.23,mp-1225307,DyCu5,https://materialsproject.org/materials/mp-1225307,77.17253859392312,17.330207411898208,85.01610756381545,-12.955702952019172
-8.450820015,-169.01640030000002,9.160301523862751,-0.44051281866666586,0.16945965,0.0,10,20,247.34038764898048,1364.444,mp-1217246,Ti2FeB2Ru3Rh2,https://materialsproject.org/materials/mp-1217246,58.75251867259893,39.92299644138278,71.46171851837744,11.791708565122631
-1.8452274715384616,-23.98795713,7.031698678382192,-0.17281931384615382,1.5e-06,0.0,139,13,206.35156282770942,873.8138500000001,mp-30886,YZn12,https://materialsproject.org/materials/mp-30886,67.68608539376838,32.060383565169765,68.94571705230463,4.655213100467049
-8.28198027,-33.12792108,7.778211271395349,0.1075080612499999,0.8427747,0.0,139,4,49.29602582056257,230.9099,mp-1183700,Cr3As,https://materialsproject.org/materials/mp-1183700,47.17466327139656,56.70675509561189,82.54743511440974,-1.9282871852448196
-5.698578140952381,-239.34028192,8.778603309839408,-0.2432972995238093,0.0,0.04129999999999967,185,42,503.13281141553773,2659.8612,mp-941,Ni5As2,https://materialsproject.org/materials/mp-941,42.6644937747872,55.167196109886284,75.98643362233682,-14.03066619799893
-8.423042540833334,-101.07651049,7.849080716461286,-0.8787332548809523,2.5e-08,0.0,62,12,154.7027959513907,731.2533480000001,mp-21449,NbCoP,https://materialsproject.org/materials/mp-21449,62.473367351682185,28.95671870662449,72.85932102471574,0.33382739823298
-7.63534008,-61.08272064,7.725808557283545,-0.18665747749999986,2.0025264,0.0,26,8,128.00580011465698,595.5586000000002,mp-1226254,CrMoAs2,https://materialsproject.org/materials/mp-1226254,34.95316657659353,31.83642222374813,70.3897731336636,-9.159315415187864
-5.3602085375,-42.881668299999994,8.92425846277687,-0.4597644600000006,0.0,0.0,62,8,133.2709588107922,716.24,mp-1424,GePd,https://materialsproject.org/materials/mp-1424,35.13193205815387,31.539880569847217,70.76323012370993,-9.190619983279019
-7.980044858571429,-111.72062802,4.6142209660570845,-1.148917364727892,0.0005325,0.0,220,14,204.6887287949976,568.7785719999998,mp-567920,Ti4P3,https://materialsproject.org/materials/mp-567920,51.76580864222279,46.56223773492815,74.43079504129912,-4.838579972630126
-1.79830951875,-43.15942845,7.231556043911844,-0.22100230145833333,0.0054927,0.0,141,24,394.22058707421525,1716.80894,mp-571191,LaZn11,https://materialsproject.org/materials/mp-571191,71.40061572956358,17.943037464348713,68.19028981591971,3.526760325469388
-8.526610036666666,-102.31932044,12.349032558261106,-0.23024999666666565,0.0,0.0,166,12,144.31583104770357,1073.242395,mp-7851,TaCo3,https://materialsproject.org/materials/mp-7851,49.839973766572115,67.58209890116613,72.85194076245719,-16.94804630288046
-7.99785711875,-63.98285695,8.029694610625272,-0.6521889762500006,0.0,0.2264999999999997,198,8,106.83731343751283,516.622,mp-189,SiRu,https://materialsproject.org/materials/mp-189,55.86637916310072,39.71838322037527,70.46947733474,18.29233121885888
-1.7192734053846157,-22.35055427,7.447857282925475,-0.18156025096153827,2.2e-06,0.0,139,13,208.5229305377736,935.268,mp-30870,SmZn12,https://materialsproject.org/materials/mp-30870,70.9783676086751,17.650562714057948,66.76143070221892,4.3132682169489405
-8.65332245,-190.37309390000001,8.983632704504274,0.031086649134545563,3.09435475,0.0,137,22,212.5431956838564,1149.8736,mp-1246939,Fe6WN4,https://materialsproject.org/materials/mp-1246939,67.2129409060112,12.097649187834385,56.97716824230972,14.399877842800198
-7.750400161666667,-93.00480194,6.6329809205559505,-0.35972837333333274,0.9941741,0.0,62,12,139.2070907484225,556.05918,mp-1095673,CrCoSi,https://materialsproject.org/materials/mp-1095673,44.14438245652196,53.0607429698247,75.29595856836356,-10.609373756343066
-8.418589093333333,-75.76730184,6.701725746901734,-0.5091581373809521,3.5878072,0.0,189,9,104.698410614169,422.54955600000005,mp-1849,Mn2P,https://materialsproject.org/materials/mp-1849,43.920359420098585,53.55831268859885,76.44372031187288,-11.647796683039806
-5.973877465,-71.68652958,8.51051206697846,-0.14312694250000035,13.389181299999999,0.0,47,12,178.55574106711924,915.125,mp-1225966,Eu2(CuNi)5,https://materialsproject.org/materials/mp-1225966,77.31274405134505,16.881763480740236,85.35146793463939,-12.55949649675274
-6.8606762925,-82.32811551,8.430038342791379,-0.21340970486111152,3.504695,0.0,191,12,153.95304684983918,781.57156,mp-3689,NdCo4B,https://materialsproject.org/materials/mp-3689,74.1078706181636,26.44700957673501,60.874223984147434,15.917844902333991
-8.553919563,-85.53919563,7.727863722525946,-0.15101089897599707,11.101479699999999,0.0,123,10,114.16186218920626,531.289715,mp-1221763,Mn7SnN2,https://materialsproject.org/materials/mp-1221763,50.89507950609297,62.08518015309677,85.52919177754335,9.003137671582799
-6.422678358888889,-57.80410523,8.410765448257381,-0.12736866055555554,1.1955448333333334,0.0,38,9,112.21537271031,568.3799999999999,mp-1080824,FeNiAs,https://materialsproject.org/materials/mp-1080824,42.52718514196452,54.86737166871267,75.09614640413595,-12.869771777854695
-6.791708765,-40.75025259,10.300450903236618,-0.2975984333333344,2.912732,0.0,65,6,84.79415648603205,525.98465,mp-1217356,ThCo2Ni3,https://materialsproject.org/materials/mp-1217356,75.22830072907031,20.29186499620047,89.8557249817833,-13.366935709718428
-7.0113536025,-56.09082882,11.169353734705807,0.15192495750000035,7.79506465,0.0,194,8,108.3803234890915,729.003138,mp-1184413,Fe3Au,https://materialsproject.org/materials/mp-1184413,52.65913064630354,58.44743176108306,72.11911009668852,-15.955252595775926
-8.219171390833333,-98.63005669,6.369321383923904,-0.9166952407142864,0.0018139,0.0,6,12,142.53506605666362,546.721048,mp-1217193,Ti3Fe5P4,https://materialsproject.org/materials/mp-1217193,44.139754517428855,53.08112631016138,75.19558655553777,-10.694289787872153
-7.559934081176469,-128.51887938,8.080831198264155,-0.6229482405882344,2.4e-06,0.0,229,17,271.89632285530075,1323.153648,mp-1188796,Sc4Ge6Ru7,https://materialsproject.org/materials/mp-1188796,45.697963950218366,42.464334796958354,64.60953980131973,-9.604988413134574
-7.944270364090909,-174.77394801,8.895503716749447,0.0038642641345451134,3.481355,0.0,137,22,221.5666348923916,1186.93194,mp-1247444,Co6WN4,https://materialsproject.org/materials/mp-1247444,72.09485237431925,13.199646059582278,52.58985067722602,-7.8427661002650275
-8.62408733078125,-551.94158917,8.26324229212899,-0.5604346951562515,7.34625e-05,0.0,62,64,1108.1404030313292,5514.3736,mp-623038,Nb5As3,https://materialsproject.org/materials/mp-623038,64.98660134957325,34.05189606160043,70.92374299210789,1.8925246246163456
-8.103656946458333,-388.97553343,7.426814895854764,-0.3006075198710316,17.34716095,0.0,1,48,514.5751481309899,2301.4540960000004,mp-1225248,Fe9BP2,https://materialsproject.org/materials/mp-1225248,43.41719302042417,54.15118350654832,77.37141829251055,-12.86036895633196
-4.599788260625,-147.19322434,6.679369917858543,0.5302270937799998,1.2227124,0.0,123,32,428.326630538209,1722.9055999999996,mp-1202727,Cu11PdN4,https://materialsproject.org/materials/mp-1202727,50.284409541362116,60.437755756036225,85.35876902053728,6.573835667663981
-5.90877286921875,-378.16146363,4.3154788876961625,-0.3537825223437503,1.25e-08,0.0,14,64,852.3522317320771,2215.1289264,mp-29066,Al3Fe2Si3,https://materialsproject.org/materials/mp-29066,42.67796896134705,44.073985334327936,67.63502415157757,-15.572211938256896
-1.863127626842105,-35.39942491,7.72166888553182,-0.2371810265789473,7.699999999999999e-06,0.0,166,19,307.4782017440683,1429.8037000000004,mp-568012,Tb2Zn17,https://materialsproject.org/materials/mp-568012,71.02060739050152,17.462388141616028,66.46721929397694,4.287222399232257
-5.996682664,-29.98341332,7.055502831509823,-0.8083500549999997,1e-07,0.0,139,5,92.06309050531,391.16900000000004,mp-16261,Ca(GeRh)2,https://materialsproject.org/materials/mp-16261,31.588500952461157,18.66183359476332,54.4229769403697,-13.882675281451125
-5.6830908536111115,-204.59127073,5.404355969718151,-0.6358769702777769,1.6233333333333333e-05,0.0,6,36,558.7693575701558,1818.559179,mp-1216255,Y2(AlNi)5,https://materialsproject.org/materials/mp-1216255,40.41422420236113,5.387957661544051,61.7194380787126,10.743995799046823
-9.249145498333332,-110.98974598,15.766339096610498,-0.19923517916666592,0.00114635,0.0,194,12,223.62764819698606,2123.28,mp-570007,SmOs2,https://materialsproject.org/materials/mp-570007,81.66121757203867,11.723415492763055,60.331538431377446,26.51203016031517
-7.6904713575,-61.52377086,7.71777520805344,-0.3811633849999989,4.85e-06,0.0,26,8,127.68522927906356,593.4494,mp-1216310,VMoAs2,https://materialsproject.org/materials/mp-1216310,34.945323950657944,31.84153089662001,70.35675661265235,-9.141087221213693
-4.286985351132077,-227.21022361,6.999504152136159,-0.2001148420754716,2.3e-06,0.0,6,53,776.3881429908583,3272.631296,mp-1224683,MgSc8Ga15Cu29,https://materialsproject.org/materials/mp-1224683,49.536357397970455,50.26111042623369,72.07003255899009,-7.148449886890925