energy_per_atom,energy,density,formation_energy_per_atom,total_magnetization,band_gap,sgr,num_sites,cell_volume,weight,mp_id,formula,URL,tsne_cry_0,tsne_cry_1,tsne_xrd_0,tsne_xrd_1
-9.061033085652172,-416.80752194,6.941212837625043,-3.456829930199276,6.00231335,0.0,55,46,624.4768517854519,2610.3732800000002,mp-1228610,Ba2EuTa3Ti2O15,https://materialsproject.org/materials/mp-1228610,-32.176179343914754,-68.92903502881576,-2.933851105361003,-55.73804556172225
-3.0622648693055563,-220.48307059,6.167934283901817,-0.8325201869754499,0.930800525,0.03189999999999982,205,72,1748.2938387510917,6493.892192,mp-570405,TiHg6P4Cl7,https://materialsproject.org/materials/mp-570405,4.522535255767963,-9.016227383097606,-20.487585740082114,-36.04796725000908
-6.366829924090909,-140.07025833,5.099242445065697,-2.9102676504790903,0.0,3.9379,63,22,486.3327709804489,1493.4479999999999,mp-553883,Ba3WCl2O5,https://materialsproject.org/materials/mp-553883,-32.062716066746376,-34.061962635951616,-24.874725835988965,-51.23862869111744
-8.259953254666666,-371.69789646,4.849543359714381,-3.2316208929259265,1.24e-05,1.077,1,45,594.6048790970207,1736.52174,mp-781824,Li5La4TiNb7O28,https://materialsproject.org/materials/mp-781824,-29.231495107585502,-68.47487583316577,1.1494454515526704,-51.85027108926533
-7.127499854791666,-342.11999303,4.758133140994553,-2.6195011864870685,0.00030235,3.602,60,48,792.6852335986781,2271.3720000000003,mp-1209371,RbDy(MoO4)2,https://materialsproject.org/materials/mp-1209371,-50.75253631234216,-53.22573558216238,-24.624598952522664,-56.690381506957614
-5.124723281428572,-71.74612594,4.619849099909677,-0.5589313878571426,1.19644545,0.0,63,14,271.99978754570304,756.7410000000001,mp-1210884,Li2Ce2Si3,https://materialsproject.org/materials/mp-1210884,32.9051670502243,-23.159726891180405,19.337178261568,5.0024467226661375
-2.669560172,-13.34780086,5.086794383184771,-0.013716932999999544,0.0,0.6909000000000001,8,5,168.73724105997312,516.89941,mp-1096949,CuGeI3,https://materialsproject.org/materials/mp-1096949,18.86719757411327,-8.712175809672955,-9.155792052845783,-19.150485120153846
-5.6021430510000005,-112.04286102,4.251302046569742,-2.0475270619687507,0.0,4.0046,62,20,236.33084279955781,605.0527999999998,mp-12271,MgSeO3,https://materialsproject.org/materials/mp-12271,-27.731976338005985,14.453324858518933,12.067414395914831,-18.610247456465107
-8.609485205999999,-172.18970412,7.26429897099672,-0.6093454019279989,0.0,0.013199999999999434,14,20,339.3683637521812,1484.62228,mp-989632,LaOsN3,https://materialsproject.org/materials/mp-989632,-24.46579997578887,-43.100281854772504,-25.119027677224746,-10.209281118224348
-6.172843256499999,-123.45686513,5.879755099554414,-1.1270280640000003,9.106844725,0.0,141,20,349.10164207970405,1236.124,mp-1237225,YbCr2O2,https://materialsproject.org/materials/mp-1237225,10.5288197874633,-18.769438726490765,-10.255658390872918,-21.624631942859114
-6.392834201764706,-217.35636286,4.728030223281128,-1.3170177061764698,5e-08,0.0,51,34,1008.538705906972,2871.59854,mp-554027,Y7C3I6O,https://materialsproject.org/materials/mp-554027,26.210979601014014,-20.598290775594045,10.278013361517413,-2.6141558644937617
-6.629194001666666,-39.77516401,6.256297883934073,-0.6458909322222226,0.1474214,0.0,129,6,124.68199142429899,469.7557000000001,mp-22532,TbTiSi,https://materialsproject.org/materials/mp-22532,37.87926711125787,-14.124137271257426,14.437610801519565,-17.02617837202524
-7.233347155538461,-940.33513022,6.3532665340314605,-0.2719767750512819,0.52408695,0.0,14,130,2127.367437614769,8139.364399999999,mp-1221391,Nd25(B7C13)2,https://materialsproject.org/materials/mp-1221391,10.138128585226145,-59.82954711018962,-1.151289323088605,-32.82899373048814
-8.3131346559375,-266.02030899,4.942564538521465,-3.1639437544087503,14.000000325,0.6426999999999996,87,32,605.974035415223,1803.6708,mp-555322,Eu2SiCl2O3,https://materialsproject.org/materials/mp-555322,-23.19074952076508,-30.26766362379139,-10.310697890603171,-19.191497425637788
-5.027318794375,-80.43710071,6.4407082877277695,-1.4455250418749994,0.0,2.5808,173,16,387.7958899977581,1504.1382,mp-15573,Tl3AsO4,https://materialsproject.org/materials/mp-15573,-32.40392726626233,-32.438295442804495,-20.2231259025498,-52.81190366936621
-6.00634619425,-240.25384777,5.270986768202307,-2.0398338475,3.6675e-05,0.0129999999999999,14,40,754.3212372857048,2394.4136,mp-1200875,Ba(SbO2)3,https://materialsproject.org/materials/mp-1200875,-45.40050607163063,-46.77046150247109,-26.18347125697493,-23.434729923509394
-6.7637947325,-135.27589465,5.245470107820182,-1.102658332,8.999572525,0.0,141,20,377.9687603974285,1193.9640000000004,mp-1237565,DyCr2O2,https://materialsproject.org/materials/mp-1237565,10.631470742926439,-18.7940752513187,-16.737226725998255,-12.772943940452846
-10.799969986818182,-237.59933971,7.556849474948923,-0.26164583613636433,20.78801925,0.0,176,22,287.283278623532,1307.38058,mp-28826,Gd3(MnC3)2,https://materialsproject.org/materials/mp-28826,30.482145539066728,-52.2388894876964,19.22057122936004,-28.915778981422907
-4.4157669075,-105.97840578,4.632953073855077,-1.2034553973090285,2.5e-08,1.4199000000000002,15,24,664.0075789447679,1852.6008,mp-1190401,BaAgSbS3,https://materialsproject.org/materials/mp-1190401,-0.4441184319798437,-22.426556051659784,-15.68987213805885,-28.428766893762226
-4.208856568888889,-37.87970912,4.1333405454018015,-0.8421261169444452,1.1e-06,2.2404,5,9,137.96821656105286,343.4244,mp-1095064,Sr(BrO3)2,https://materialsproject.org/materials/mp-1095064,-29.602325000241052,-33.14125563858906,-24.705651274338962,-20.216440328657704
-4.364988607857144,-61.10984051,5.147757587984552,-1.3806702254166672,3.65e-06,2.0136000000000003,66,14,342.53359474396666,1061.8719999999996,mp-1104196,Yb(InS2)2,https://materialsproject.org/materials/mp-1104196,12.09227223316284,-15.616169558195825,-9.090066867076565,-11.551856217974342
-6.936931786428572,-194.23409002,5.252105220925446,-2.583865714285713,4.6475e-05,1.9143,2,28,508.82753190412336,1609.3664,mp-1192462,DyMoBrO4,https://materialsproject.org/materials/mp-1192462,-31.72962307758563,-33.94739597759169,-37.467401060773696,-24.78427239956521
-3.2650075048148146,-264.46560789,6.707137390312711,-0.588113940191111,0.0,2.7756000000000003,204,81,875.5911477896507,3536.62876,mp-740759,Yb19(Mg4H27)2,https://materialsproject.org/materials/mp-740759,1.3887158395463717,-53.292177262085715,10.073105932557523,-23.932535617226186
-6.315551240833333,-75.78661489,4.611649207041932,-2.38510597786,2.0,0.0,72,12,288.4903384101476,801.1954000000002,mp-1101996,Ce2NCl3,https://materialsproject.org/materials/mp-1101996,8.376853928023053,-10.181263645012793,-10.392326074447418,-21.161280538637236
-3.66746058,-14.66984232,6.403726629201937,-0.29913702679687537,9.000000000000001e-07,0.35470000000000024,38,4,125.52159922251494,484.0633,mp-1216592,TlSbSe2,https://materialsproject.org/materials/mp-1216592,24.038874633240965,-10.830077587858632,-0.6082323640939293,-6.33593326759431
-6.328212725217392,-291.09778536,5.899763477321253,-0.7924283226086956,0.0035116,0.0,59,46,1119.737233208175,3978.33756,mp-679979,La9B3C6I5,https://materialsproject.org/materials/mp-679979,3.9785570105373376,-32.938432372973296,1.7767992234057013,-30.65760696521644
-6.959129955555556,-62.6321696,6.66580547584793,-2.9326533993055555,2.0000044999999997,2.0241,71,9,138.96339752110399,557.8326999999998,mp-18802,BaPr2NiO5,https://materialsproject.org/materials/mp-18802,15.53250656504474,-63.444578140602616,16.846161744791697,-38.87833588994121
-4.4399710509375,-142.07907363,7.014086602675464,-1.1306239925683603,7.665e-05,2.0959000000000003,4,32,518.9056508594584,2191.848,mp-1194584,Hg3Te2SeO10,https://materialsproject.org/materials/mp-1194584,-24.698059612510914,-56.44239447932858,-15.088661909014686,-61.75763344272999
-8.37238733875,-669.7909871,6.12842188377766,-1.5824684665233335,0.0,1.1710000000000012,14,80,1101.9755746632836,4066.9752799999997,mp-29990,La3B2N5,https://materialsproject.org/materials/mp-29990,11.810915143920205,-60.47549732563715,8.185665064615439,-46.25808202374446
-8.628721038888889,-77.65848935,7.768093242736414,-2.7210879613888888,1.0,0.0,5,9,111.46473073497152,521.4381599999998,mp-754223,Ta2CuO6,https://materialsproject.org/materials/mp-754223,-36.49754216506189,-77.98757353673409,3.8757488453542788,-56.25711850278201
-6.6633911375,-106.6142582,7.181904144902477,-2.189480631796875,14.998996900000002,0.0,42,16,218.47933456983142,944.9327,mp-1218836,Sr2Eu2TlNi2O9,https://materialsproject.org/materials/mp-1218836,10.43314802565101,-67.98860374975216,39.092454376926476,-49.61647238148281
-4.13871152875,-165.54846115,5.655834609784688,-0.7333158513333338,0.0,2.438,29,40,664.1666192960196,2262.16696,mp-27384,AgIO3,https://materialsproject.org/materials/mp-27384,-2.053465891666004,-34.949151065522145,-1.1069116358618172,-27.87136758533554
-6.646977003333332,-39.88186202,7.92272346024264,-1.2054035211979166,4.25e-06,0.0,139,6,142.13836745096694,678.1671200000001,mp-1076936,ThSiSe,https://materialsproject.org/materials/mp-1076936,39.614295950673814,-9.578281481684163,23.582955891811014,10.923783677049787
-4.723205025714286,-132.24974072,6.4233942720757815,-2.0883210651785715,4.25e-07,0.669,62,28,669.4278558540382,2589.52,mp-540678,Yb3S4,https://materialsproject.org/materials/mp-540678,6.0371441792852245,-7.7878975325651965,-3.2330706976528854,-11.155918038847203
-6.090377512777778,-109.62679523,4.239666116440197,-0.7897829071688887,1.0064939,0.0,2,18,361.4658130544592,922.8896900000001,mp-1246657,Sr4MnN4,https://materialsproject.org/materials/mp-1246657,18.139197617549712,-44.65782569097585,15.107534548329088,-24.17602105811645
-6.4460595975000015,-180.48966873,4.020251938499387,-2.3527437981428574,0.9997362,0.6910000000000001,15,28,393.8210913430465,953.46147712,mp-17711,BaNa2V2CuO8,https://materialsproject.org/materials/mp-17711,-26.91183853491543,-28.49621328844664,-19.816961745377128,18.931979654420395
-5.712171855625,-182.78949938,6.0110225992353525,-2.224938849335937,1.0,0.0,2,32,542.2739881956924,1962.9898,mp-766417,Ba10Cu5O17,https://materialsproject.org/materials/mp-766417,14.819434227845509,-67.19679572453994,21.18784249000829,-71.89458713673989
-4.6268172675,-55.52180721,4.221522021745376,-0.4844984565799996,7.0,0.17189999999999994,36,12,141.84289428289455,360.60152,mp-643756,EuMgH4,https://materialsproject.org/materials/mp-643756,-24.537555926299053,-17.803637538562402,-11.856127601223927,-25.85068280757331
-3.5841949766666663,-43.01033972,5.902741547175228,-0.6236207396875001,7.195e-05,1.8596000000000004,62,12,414.0415900068117,1471.79948,mp-23514,BiSI,https://materialsproject.org/materials/mp-23514,20.083926091561846,-10.737301392230973,2.0957428282861,1.4406878074014118
-4.544935733333333,-81.8088432,4.07819968848683,-1.7692481679310343,0.0,2.1607000000000003,2,18,427.1902523142791,1049.1576,mp-7118,Rb4SnO4,https://materialsproject.org/materials/mp-7118,-4.156972848706944,-30.162790675318828,-3.409817051956814,-32.43006607435769
-6.211740606538461,-161.50525577,5.105369541835122,-2.1939680035576923,2.48411335,0.0,8,26,349.4843982004113,1074.4986772,mp-1265131,Sr2AlCu2MoO7,https://materialsproject.org/materials/mp-1265131,18.902924206561675,-51.10277448282354,8.709385904489928,-35.402271518153206
-7.168061617321428,-401.41145057,5.150864879236576,-3.3475269466785718,0.00011565,3.6508,26,56,876.5697928095079,2719.05233856,mp-1214692,Ba6NaNd(SiO4)4,https://materialsproject.org/materials/mp-1214692,-10.699582788732153,-31.728144694679322,-6.54761446320503,-24.940636162112373
-4.374462898333333,-157.48066434,5.283968732501659,-0.2128113021955558,3.75e-07,0.6803000000000003,62,36,866.9867675440158,2758.8216,mp-1247260,Ga4Te3N2,https://materialsproject.org/materials/mp-1247260,13.138406237441595,-0.28484932373622696,-1.170204701572269,-17.147007349815098
-7.068130756666666,-169.63513816,6.0836800618385025,-2.5733966817672407,0.0,2.9585,15,24,338.47935389844037,1240.0793038,mp-1213685,CsEr(MoO4)2,https://materialsproject.org/materials/mp-1213685,-47.84784049668707,-55.03700589269035,-21.054446863710837,-58.656946232172785
-6.8575062865000005,-548.60050292,5.3530775703392885,-2.3106958199500007,3.0000032375,2.2846999999999995,6,80,1242.4606105222215,4005.31867424,mp-697828,NaLaCoWO6,https://materialsproject.org/materials/mp-697828,-34.874165489753985,-50.67501400506625,-28.64447859079331,-22.8691825818448
-7.322646174000001,-73.22646174,5.90724498601766,-1.0079572541519999,1.0,0.0,15,10,190.9843728076489,679.4128000000002,mp-1078814,Ce2C2Cl,https://materialsproject.org/materials/mp-1078814,18.2241857663085,-43.076628505686635,14.720533728443735,-27.314653768395306
-6.706921123928572,-187.79379147,5.9450352895813525,-2.9873475325892858,0.9986404000000001,0.0,1,28,457.5836922146357,1638.23381,mp-1228223,Ba5La3(GaO4)4,https://materialsproject.org/materials/mp-1228223,15.052992109860885,-66.04926220730607,1.5157976247383629,-32.735223264869646
-7.488843157142857,-209.68760840000002,6.137590100787046,-3.2273059252471423,2.9999997000000005,1.6632999999999996,63,28,375.64056109372564,1388.42131,mp-753433,SrLiLa3MnO8,https://materialsproject.org/materials/mp-753433,16.919518520973305,-69.73479693145899,38.92690580471698,-41.859004862678255
-6.742617067115384,-350.61608749,3.8809091302119665,-2.6421610155219777,2.99999975,0.29849999999999977,15,52,713.1657579512695,1666.766896,mp-560776,Sr3Cu3(PO4)4,https://materialsproject.org/materials/mp-560776,-25.74746364006507,-32.78464834289967,-15.251869880980525,17.64717346978151
-5.950802044285713,-166.62245724,5.44873640484964,-2.242911886020408,0.0,3.7543000000000006,4,28,444.65671019450167,1459.0546479999996,mp-18168,TlZnPO4,https://materialsproject.org/materials/mp-18168,-32.811520438278194,-30.64590008052528,-12.847299584526672,-25.50486399716562
-3.4984005906451614,-108.45041831,4.430405165901702,-0.4385323161512797,1.0,0.058600000000000214,2,31,1256.237560600771,3351.7076346999997,mp-1201827,Cs13Nb2(In3As5)2,https://materialsproject.org/materials/mp-1201827,-3.222594389935375,-25.45758073396195,-7.7829040569672,-31.09481880986166
-7.251314287826087,-166.78022862,5.6107214947511554,-3.0339204670289868,0.0,3.1148,150,23,306.96488947351975,1037.19001,mp-1211258,La3TiGa5O14,https://materialsproject.org/materials/mp-1211258,-7.8960908565716865,-46.44377227397686,7.969473233822978,-35.44663818948195
-7.0261779427999995,-351.30889714,4.961532989328168,-2.9530210532452004,2.0,0.1816,173,50,832.560859655405,2487.6128,mp-695708,Ba7SiB3NO13,https://materialsproject.org/materials/mp-695708,-23.473284960720147,-25.346552547404627,-4.9921779195130895,-8.321987875462645
-4.111834675,-16.4473387,7.9364893921834385,-0.5163490042968748,4e-07,0.8605999999999998,63,4,119.7456024207376,572.3199999999998,mp-1063670,PbSe,https://materialsproject.org/materials/mp-1063670,24.862790773458947,-10.962179555592805,-0.25245311455121583,-9.401117640637702
-6.942129916428571,-194.37963766,5.1569317615123165,-2.585918017142856,3.05e-06,1.9275,2,28,513.6140006960579,1595.0678,mp-1193567,TbMoBrO4,https://materialsproject.org/materials/mp-1193567,-31.678634627378358,-33.86967016190337,-37.4839530573006,-24.84168064161058
-5.5562449269230765,-72.23118405,6.780470462380871,-1.883342577019232,1.7899999999999998e-05,0.0,123,13,182.4768162066467,745.1066386,mp-1265832,Ba2AlTlCu2O7,https://materialsproject.org/materials/mp-1265832,8.640012152997741,-63.837553725936715,10.364939675973812,-44.834178102459745
-7.091734276666667,-42.55040566,5.431241732756632,-2.933562549270833,5e-08,0.6270999999999995,71,6,115.55201625487757,377.9441,mp-1219736,PrSO,https://materialsproject.org/materials/mp-1219736,0.4773379771282382,-50.55802162155933,4.693312432938037,-59.33756762761571
-6.7306955760000005,-134.61391152,6.239219695566497,-2.5761401911874997,0.0,2.0613,14,20,485.16660618342047,1822.9388,mp-10925,Pr2Se2O,https://materialsproject.org/materials/mp-10925,28.46650232659679,-19.260391754706863,15.530324251731416,3.107268485712112
-4.6566511673529405,-158.32613969,4.587164530562788,-2.686354427748681,9.0000007,2.9081,64,34,650.4398398428697,1796.8108492,mp-1196471,Cs4Co3F10,https://materialsproject.org/materials/mp-1196471,-53.66174329692562,-62.072099438658036,-22.523295651558694,-13.778120509943529
-6.031937577058822,-410.17175524,5.7107464530321375,-2.1392729213602943,16.00000015,0.8183000000000002,1,68,1055.5908297169326,3630.27393,mp-704890,Ba8Co7O19,https://materialsproject.org/materials/mp-704890,-8.488596766315169,-81.21894701562887,17.6940597830465,-73.24965866207462
-4.432857517857143,-62.06000525,4.96201325944785,-1.8048454628386703,2.8699999999999996e-05,2.5647,12,14,345.6519272007952,1032.8751114000004,mp-1178422,Cs3GaO3,https://materialsproject.org/materials/mp-1178422,-5.604063912008242,-29.185783757735162,-4.9149677513602015,-30.01295063061764
-6.231257057250001,-249.25028229,4.248578067383194,-0.7134523695357146,0.2656868875,0.0,33,40,816.470025518224,2088.9822879999997,mp-651900,CeSiP3,https://materialsproject.org/materials/mp-651900,9.179396757388252,-16.92727731007064,2.9578499572080554,-0.4570491479934719
-6.111393708461539,-158.89623642,6.011265192661003,-1.9589079224038477,7.99999965,0.12650000000000006,186,26,363.5818309848003,1316.1911599999999,mp-562270,BaYbCo4O7,https://materialsproject.org/materials/mp-562270,-3.1239041756757406,-44.12960057999875,7.919814665104897,-38.330791438195774
-6.5590199625,-78.70823955,4.946288201869773,-0.500828191250001,21.1609295,0.0,189,12,311.2555466115586,927.1445,mp-1102914,Ba2Eu3Si7,https://materialsproject.org/materials/mp-1102914,18.061798510164014,-15.222690662450882,3.770479291087768,0.5468090142461529
-6.002604835625,-96.04167737,4.454802731194318,-2.332885788426725,3.0,2.7202,36,16,310.7467954504355,833.6543975999999,mp-542168,Cs2CoSiO4,https://materialsproject.org/materials/mp-542168,-6.971402656748307,-28.913342389933838,-6.12305320302124,-30.07098885177355
-7.9576889400000015,-286.47680184,4.21863846370303,-2.1612737641052786,1.1325e-05,2.1703,62,36,755.4849209183722,1919.3272,mp-1246598,Y4S3N2,https://materialsproject.org/materials/mp-1246598,12.268101572050805,-18.492924114461594,1.8947065686400877,-24.44101777550117
-5.635929289166668,-135.26230294,5.868221652737009,-1.7947788873697919,0.0,1.4608999999999996,173,24,510.1985875118775,1803.0039199999999,mp-554553,Ho3CuSnS7,https://materialsproject.org/materials/mp-554553,12.760085847955079,-13.211689145239086,1.5660812315304695,-5.414858379961606
-5.775274046,-57.75274046,5.6999687579020035,-1.7230572097499999,0.0,2.0857999999999994,1,10,154.2166790594343,529.3644,mvc-6009,Zn2SnWO6,https://materialsproject.org/materials/mvc-6009,-23.66694610715857,-41.994688407800155,-22.08390544869853,13.393262262028795
-5.1104051525,-40.88324122,6.264765842295676,-0.6349232699999998,0.0,0.0,63,8,143.97097608196594,543.1636543999999,mp-16516,TbAl2Ni,https://materialsproject.org/materials/mp-16516,39.73862640464343,-14.220527441830086,20.17897100560285,10.205896858218333
-5.9213635490625,-189.48363357,4.527557665915893,-1.5654317639388022,4.025e-06,0.9518,57,32,466.1798257672552,1271.0668,mp-557135,VAgSeO5,https://materialsproject.org/materials/mp-557135,-26.979084987989587,-32.26018499239308,11.09935572844259,-2.384610197985168
-7.0778251449999985,-169.86780348,5.897476022173056,-2.5780866121839074,0.0,3.063,15,24,344.4733622784562,1223.4120038,mp-1213289,CsTb(MoO4)2,https://materialsproject.org/materials/mp-1213289,-47.75313387393243,-54.82826943080494,-21.366082103581604,-58.5279246993958
-5.978333023333334,-71.73999628,4.538509743914157,-2.4314350186933336,6.15e-06,3.3972999999999995,72,12,294.29803584393125,804.3620000000002,mp-28969,Pr2NCl3,https://materialsproject.org/materials/mp-28969,8.39933000490548,-10.171464969571023,-10.419804202984908,-21.13900836107634