energy_per_atom,energy,density,formation_energy_per_atom,total_magnetization,band_gap,sgr,num_sites,cell_volume,weight,mp_id,formula,URL,tsne_cry_0,tsne_cry_1,tsne_xrd_0,tsne_xrd_1
-8.08056209452381,-339.38360797,5.322660767948769,-3.6376533950119057,0.0,4.4433,143,42,590.1839374545814,1891.76455,mp-1223421,KPr9(Si3O13)2,https://materialsproject.org/materials/mp-1223421,-18.873729456216566,-34.459406121870515,-11.3645706069064,-34.17834960815294
-6.8932334573333325,-206.79700372,5.083499135342215,-2.4891133295833328,0.0,3.3593,2,30,486.32128736727987,1488.802,mp-4794,Sm2As4O9,https://materialsproject.org/materials/mp-4794,-29.73573025423923,-54.678305486499156,-12.463276927414572,-51.175483372321786
-7.128142952857143,-49.89700067,6.299189685049856,-2.9161891203571426,4.9999998,0.9931,107,7,104.40995578632544,396.07507,mp-1227839,BaLaFeO4,https://materialsproject.org/materials/mp-1227839,15.40078658670464,-72.15248446786045,21.300679501713603,-72.00737882910855
-7.940377401071429,-222.33056723,4.4722185457762,-3.78780576561643,0.0,5.0261999999999984,2,28,387.1200937784225,1042.6046127999996,mp-1193084,BaY2Si2O7F2,https://materialsproject.org/materials/mp-1193084,-21.30898110292885,-35.835486394029296,-17.88042755787041,-32.42106287894092
-8.4000568015,-336.00227206,4.8679490839581865,-3.2235356018260006,0.0,2.5637,62,40,622.4257035846856,1824.67052,mp-554475,LaNb2ClO6,https://materialsproject.org/materials/mp-554475,-46.336012810703075,-49.63788350418093,-24.31812154325157,-34.22785670220867
-5.5561225094230755,-288.91837049,5.058082058423258,-1.2634967548076923,10.994302025,0.0,186,52,735.3721762108219,2239.97914,mp-1202680,Co3(TeO4)2,https://materialsproject.org/materials/mp-1202680,-40.29080754067765,-42.16874787019448,-19.187491970716703,17.24902767522897
-5.28638948475,-211.45557939,5.7757857677409215,-1.5328537301874996,0.0,2.972700000000001,148,40,597.4259172987518,2078.0024,mp-560198,ZnTe6O13,https://materialsproject.org/materials/mp-560198,-45.2118150652953,-47.78469001602306,-23.24009496210576,-55.78586906899622
-6.209240175714285,-347.71744984,7.888239360705406,-1.6682396422799997,2.996312375,0.7675000000000001,114,56,898.1721973171801,4266.68516,mp-21823,Mn(PbO2)2,https://materialsproject.org/materials/mp-21823,-14.82253057298337,-52.430730951783794,7.268644791627387,-33.451766624791034
-6.99475212142857,-146.88979455,3.9840996068622925,-3.4654362991580947,1.3333333333333334e-07,3.8711,1,21,319.11136738425193,765.6378096,mp-694911,BaCaBO3F,https://materialsproject.org/materials/mp-694911,-22.408419903721246,-25.19281246500361,-17.364726865346345,-8.4922678688489
-8.392142753888889,-302.11713914,6.3725580879474695,-2.831865960575186,0.0,1.2114000000000011,62,36,524.8417811047455,2014.15604,mp-1019895,La3BN2O3,https://materialsproject.org/materials/mp-1019895,12.138224021535327,-60.6680946559012,7.795250492336729,-46.23449105603383
-7.692661115,-46.15596669,9.098869656730976,-0.3113175966666664,1.1577035,0.0,141,6,107.38266500127105,588.39982,mp-7284,USi2,https://materialsproject.org/materials/mp-7284,49.24996247089955,-14.68846290538398,21.583390974128765,23.37907083348705
-8.317998772916667,-199.63197055,6.925899141827237,-2.730702044847501,20.0000061,0.0,63,24,317.9798223363308,1326.25378,mp-579071,BaEu2Mn2O7,https://materialsproject.org/materials/mp-579071,16.791674831991436,-72.58446541610087,41.819254077003826,-45.12327987295722
-4.934483989137932,-286.20007137,7.45162768869435,-1.5584014766227579,0.06320805,1.8938,15,58,1366.6090141743612,6132.624,mp-561236,Pb13(Cl3O5)2,https://materialsproject.org/materials/mp-561236,-19.987946312748612,-55.13518299491618,-12.299917628210025,-58.51251368944599
-6.600775505416667,-158.41861213,3.8425962970986425,-2.038754201686112,0.0,2.5726,62,24,402.862912013577,932.2512128,mp-10234,Sr2BN2F,https://materialsproject.org/materials/mp-10234,-17.717629582540752,-32.55661177175499,-6.8718607899878625,-20.38705343634957
-7.390683402115385,-384.31553691,4.251943179289574,-3.0861836594419776,5.000000025,4.1325,14,52,811.5891771686612,2078.1390760000004,mp-19487,Ba2Mn(PO4)2,https://materialsproject.org/materials/mp-19487,-26.067832769772373,-26.19439271649625,-19.825490511183794,-30.702035055907558
-3.706832290833333,-44.48198749,5.671680883894492,-1.0727021252011495,0.0,1.5531999999999997,63,12,465.7356492280962,1590.7509037999996,mp-12488,CsErCdTe3,https://materialsproject.org/materials/mp-12488,18.641946228577485,-10.587710609400338,3.2074667967265063,2.3090911244824683
-5.317509045166667,-319.05054271,6.4483609580870365,-1.3904559717499998,2.088333333333333e-05,0.0,1,60,857.9100557139129,3331.516800000001,mp-677054,AgSbO3,https://materialsproject.org/materials/mp-677054,-6.627090953109543,-45.541234495665705,0.06070337980870155,-26.709846571840767
-6.902834461166665,-414.17006767,3.496320109167419,-2.5743482510043103,0.0,3.8546,9,60,851.7053943058072,1793.294,mp-1020896,Rb4Ge3B6O17,https://materialsproject.org/materials/mp-1020896,-32.06294312242293,-18.55777284287971,-31.88190754900009,9.062366115494546
-5.304080991805557,-381.89383141,3.85786296451432,-2.0815715387954987,0.0,3.0075000000000003,14,72,1506.0244982095335,3498.8856,mp-556051,Rb2GeO3,https://materialsproject.org/materials/mp-556051,-4.467462476723684,-33.79513473249711,-1.2117204927338767,-29.783877184523444
-4.992747494375,-239.65187973,5.572952849755706,-1.1604909774999996,0.0014588125,0.3607,14,48,1710.8472822001331,5741.79288,mp-1225760,Dy2CI3,https://materialsproject.org/materials/mp-1225760,22.58959279938036,-13.067884263270955,19.046761070003164,-0.3976265714209285
-3.167520728974359,-123.53330843,2.5699868257467533,-0.4606535988235896,1.2e-06,2.9617,12,39,466.5437185851038,722.0614400000002,mp-699151,Sr6Mg7H26,https://materialsproject.org/materials/mp-699151,-24.537479816386245,-17.842933990007587,-8.668382535500712,-28.71605044765388
-5.472926806,-109.45853612,7.0799725887865925,-1.5683002792500005,0.0,2.6902000000000004,76,20,359.12645003653574,1531.1927999999998,mp-555021,TePbO3,https://materialsproject.org/materials/mp-555021,-25.848157784462376,-63.84474768482835,-21.01755919028365,-68.60971693529707
-7.53615636,-180.86775264,6.897769977409,-3.3175721846875006,0.0,4.3777,113,24,260.2489845000809,1081.057168,mp-1208014,Tm2Be2GeO7,https://materialsproject.org/materials/mp-1208014,-16.024916573166827,-35.98263034235881,-14.611213885536364,-34.827824216356284
-6.283736569772728,-276.48440907,5.929924209747293,-1.4980430315909103,1.000000075,0.16169999999999973,14,44,663.4740809415721,2369.3216,mp-557143,Tl2Cu(CO3)2,https://materialsproject.org/materials/mp-557143,-32.88420737445956,-30.38682581600848,-16.110984239834632,-28.348521273430748
-5.329889551388889,-383.7520477,4.946819301982098,-1.4662504551388893,5.000771925,1.8533,14,72,1264.6901711869646,3767.568,mp-554007,FeTe2BrO5,https://materialsproject.org/materials/mp-554007,-42.17208155852259,-44.55553109888147,-33.25545537872446,11.881431521495903
-7.040123509821428,-394.24691655,4.915513433123247,-2.7151897588585703,4.3125e-06,2.6693,14,56,908.8554118406424,2690.386,mp-1197647,PrMoClO4,https://materialsproject.org/materials/mp-1197647,-32.50781518993359,-33.287474643788144,-22.469311694727867,-29.734368853700037
-3.5916496466666668,-43.09979576,4.622674268432657,-0.3103385577380955,0.0,1.0540000000000005,15,12,285.6826175541573,795.294572,mp-29245,Cd2P3Br,https://materialsproject.org/materials/mp-29245,12.997538035454605,-0.8326855305403147,-2.8537937699416087,-22.349185678695218
-6.0846938378571425,-170.37142746,5.815866587690519,-3.5108050094214285,0.0,4.7797,14,28,446.0937357731637,1562.397264,mp-30997,ZrTlF5,https://materialsproject.org/materials/mp-30997,-59.824323631513394,-42.11522248596325,-34.694255959006554,-17.836163018650574
-7.291775864761903,-306.25458632,4.766561930760234,-2.2287964502380957,5e-08,0.7986,122,42,401.4078797148325,1152.2376,mp-540900,B2PdO4,https://materialsproject.org/materials/mp-540900,31.696550036247487,2.360145972395133,-22.131789398481654,-15.146182766645438
-5.747314848888887,-103.45166728,5.847560243546986,-2.017546508055556,0.0,1.7575000000000005,63,18,277.45320915632834,977.0468,mp-27254,Ba(TeO3)2,https://materialsproject.org/materials/mp-27254,-59.57824920615264,-54.47336453231885,-16.37455549046704,-53.41856418018281
-8.18631867892857,-229.21692301,7.231434054060153,-3.3667517677083327,0.0,3.8085,173,28,362.68606748923975,1579.4512,mp-561186,Sm3BWO9,https://materialsproject.org/materials/mp-561186,-28.3190318815945,-58.4889040215332,-11.689136894739173,-53.04814008029482
-7.662088545,-30.64835418,6.507751425149159,-1.8172898470312504,7.0000000999999985,0.8719000000000006,166,4,108.6391497249032,425.7633,mp-557655,GdTlS2,https://materialsproject.org/materials/mp-557655,4.663250967890282,-4.937264070473233,-2.2154450743677065,-5.380665473927542
-8.05313255423077,-418.76289282,7.204506996151121,-3.7501279766289755,1.5e-06,4.752,14,52,745.170739971304,3233.0392,mp-1201047,Dy4BClO7,https://materialsproject.org/materials/mp-1201047,-11.63372287333688,-55.35415233335585,-3.4537668049910617,-51.184057450350856
-5.481837994166668,-65.78205593,3.9614444198809915,-1.5812280864166663,0.0,2.4392000000000005,191,12,228.6923346710161,545.57703928,mp-1210094,NaAs4IO6,https://materialsproject.org/materials/mp-1210094,-32.196863625403346,-23.92700467414141,-27.407164011197548,-16.8905473363288
-5.451274704285715,-76.31784586,6.332374900836,-1.0471474758100012,9.99994315,0.0,194,14,429.26551307835183,1636.98058,mp-556391,Ba2Mn2Bi2O,https://materialsproject.org/materials/mp-556391,3.2718856630250626,-8.765428831370182,-34.159724034771045,-19.95359994986308
-7.5742225775,-212.07823217,6.39198707994354,-3.1856046343750006,13.5022266,0.0,99,28,387.18920313380204,1490.42469,mp-756619,SrLiLa7Fe3O16,https://materialsproject.org/materials/mp-756619,19.770024707250858,-69.44045158975719,42.234811935927155,-43.607040430700856
-6.836934853250001,-546.95478826,5.5438168012291635,-1.0255307038805,0.0,1.6979000000000002,2,80,1753.9820729265375,5855.7824,mp-30001,Ba16Nb5N19,https://materialsproject.org/materials/mp-30001,-2.554933792549396,-31.46648171826809,-2.8976322911126715,-32.06590729833825
-7.1478478632608695,-328.80100171,5.962126850352362,-2.9501959754347835,2e-07,3.4567,5,46,620.8971794625594,2229.3169,mp-1223200,La6TaGa11O28,https://materialsproject.org/materials/mp-1223200,-8.077180988270051,-46.43427249793513,8.209580630933534,-35.50412440593264
-5.93132232625,-94.90115722,7.637689968151162,-2.0908435690625,1.3e-06,0.0,123,16,233.8355202063029,1075.5322,mp-14825,Sr2ErCu3(PbO4)2,https://materialsproject.org/materials/mp-14825,11.523528134124046,-68.45511030003027,41.41741518756065,-50.17455158186741
-7.258782345,-87.10538814,4.410852311687362,-2.4636334680208343,0.04024369999999999,0.0,123,12,181.2071891732734,481.33656,mp-1147663,CaNb2CuBrO7,https://materialsproject.org/materials/mp-1147663,-29.45952690678943,-70.9363331942224,-22.0817942209902,-17.238421769563
-7.9005200035,-158.01040007,7.646989323533728,-3.1085286357500004,7.999998700000001,2.1786,14,20,229.67347734185097,1057.675,mp-1232352,Dy2CrFeO6,https://materialsproject.org/materials/mp-1232352,9.634316826920674,-80.90906123424153,51.92365132922532,-53.20149727239627
-3.266375327,-65.32750654,5.302956470275922,-1.2559976350689657,1.000602125,0.2506000000000004,62,20,795.5063977820073,2540.461680000001,mp-1209166,RbTmI3,https://materialsproject.org/materials/mp-1209166,23.608952069021296,-22.405614649842878,15.464392613189785,3.0092632330890687
-3.796568570833333,-45.55882285,5.521689701877081,-1.096417542701149,5e-08,1.3861,63,12,447.25469729615,1487.2289038,mp-510462,CsDyZnTe3,https://materialsproject.org/materials/mp-510462,18.607710934041076,-10.671833434462542,3.190268950468357,2.2525082468597897
-5.22418518875,-250.76088906,4.6711251807930685,-1.0546042834722222,0.003492225,0.037999999999999916,14,48,638.8195154254862,1797.0104,mp-1195958,CuAg(AsO4)2,https://materialsproject.org/materials/mp-1195958,-30.625009505638037,-29.26504191324147,-18.845844596079626,18.97757768999439
-6.44276419075,-257.71056763,6.052149281820243,-0.2208370445,17.09759335,0.0,140,40,807.1719107743829,2941.891026,mp-1211603,La6Al5Fe9,https://materialsproject.org/materials/mp-1211603,34.19977845739742,-14.074580572716187,7.2573550587753735,-23.954582419274196
-7.347207879583332,-176.33298911,8.68154679314273,-2.516075819166666,5e-08,3.0677,15,24,330.8967258940669,1729.9776399999996,mp-1212131,HoTl(WO4)2,https://materialsproject.org/materials/mp-1212131,-47.09689423795375,-56.54142930950264,-19.93701745063646,-61.67086038617717
-7.0524873135,-282.09949254,4.462486900093372,-2.525261486468751,5e-08,1.8220000000000005,14,40,642.60254944392,1726.9124,mp-769404,YSeO3,https://materialsproject.org/materials/mp-769404,-41.33071342652783,-48.01627561974925,-26.57154537964654,-23.56664045286423
-7.790213842000001,-38.95106921,6.221851979209462,-3.5007258293124988,3e-07,2.8889,164,5,94.09085708279646,352.5478,mp-3211,Nd2SO2,https://materialsproject.org/materials/mp-3211,1.0186287033416288,-58.299989249132274,-13.64776646960885,-66.21019348673451
-8.038078465555555,-72.34270619,4.114013774280805,-2.241663289660834,0.0001499,1.4112,12,9,193.67446981209042,479.8318,mp-1246909,Y4S3N2,https://materialsproject.org/materials/mp-1246909,13.162243155812565,-1.6028587646729775,-1.1691963408348396,-17.120465083822666
-3.880569473611112,-139.70050105,6.3919486281529165,-1.6980959717061113,0.0,1.7766,2,36,825.0406877300012,3175.8468576,mp-675275,Tl2CuF3,https://materialsproject.org/materials/mp-675275,-2.3652119080218847,-22.73420743564372,-24.182534871659183,-27.43724289325575
-4.855350062,-24.27675031,4.586691220747424,-0.5677130509519998,0.0176555,0.0,164,5,141.2973826510359,390.2874,mp-1247390,Ba2SrN2,https://materialsproject.org/materials/mp-1247390,-2.9251417775889736,-28.48410227625111,-26.10839656662511,-69.94219672116918
-7.709569967,-77.09569967,7.631352483100882,-2.7889615349166674,2e-07,1.9852,99,10,141.32477645035527,649.4874,mp-1079416,ZrTi(PbO3)2,https://materialsproject.org/materials/mp-1079416,-2.2498286010181947,-81.04288874285163,26.028391523842334,-66.84307616510279
-2.310459855,-166.35310956,5.52410183928717,-0.36470445166666665,0.0038931375,1.1726,205,72,2357.177948257156,7841.604880000001,mp-27528,Cd4As2I3,https://materialsproject.org/materials/mp-27528,19.052528282803248,-8.571986263635363,-14.329838577321382,-13.14015808565591
-3.76110545,-45.1332654,5.821355489356718,-0.7638793663541664,0.0,1.9974000000000005,62,12,366.2026890740313,1283.7976,mp-23324,BiSBr,https://materialsproject.org/materials/mp-23324,2.015993287944032,-7.6829221771118155,-7.498301860677196,-6.125168581166142
-4.173266961666666,-75.11880531,4.554346815159462,1.167582131455556,1.6040622,0.0,63,18,348.36465979201347,955.4568972,mp-1106104,AlI3N5,https://materialsproject.org/materials/mp-1106104,-33.51774212355124,-23.749953809643717,-37.063898384772365,-22.426270880064358
-6.117819908095237,-256.94843614,6.877751105113495,-2.043312905189252,0.0,3.1297999999999995,174,42,686.7844194600168,2844.577686,mp-1229056,As3P3Pb10(ClO12)2,https://materialsproject.org/materials/mp-1229056,-27.776607285531334,-45.66468440721919,-24.08335221959527,-39.792846505463814
-7.934831725555557,-71.41348553,6.6963003390270925,-3.1488765571599613,0.0,1.9903,123,9,150.74930246551168,607.9126,mp-867300,Rb2Hf2O5,https://materialsproject.org/materials/mp-867300,-46.422971045913506,-75.42603554222805,-11.454658958773074,-60.41550844662578
-5.93110701875,-94.89771230000001,7.545617840319582,-2.0882512175,2e-07,0.0,123,16,235.64149937262408,1070.7732,mp-22301,Sr2DyCu3(PbO4)2,https://materialsproject.org/materials/mp-22301,11.538514459514733,-68.437619308479,41.43463568637544,-50.19815208301565
-6.0511240834375,-193.63597067,7.686173517927508,-1.8572100795312492,0.0,2.3809,62,32,493.09317351638185,2282.3912,mp-23553,GeBi2O5,https://materialsproject.org/materials/mp-23553,-21.004617687092477,-57.22738872312225,-12.9466158701487,-56.66697831891214
-6.210811735,-248.4324694,6.391308962503167,-2.2254511961875005,0.0,3.0384,2,40,621.4320589756228,2391.8524,mp-557829,Lu2Te5O13,https://materialsproject.org/materials/mp-557829,-32.09662533917603,-57.88243060016975,-24.059308543985097,-53.16575466104911
-7.015947324632353,-954.16883615,4.8217557284713255,-3.0682948148235285,0.0,3.9839,230,136,2062.796667340964,5989.80295424,mp-6575,Ba4Na(BO3)3,https://materialsproject.org/materials/mp-6575,-22.79520645374549,-25.58059080839619,33.84104711855443,-65.72607873809707
-5.460998957105264,-207.51796037,5.681480041440048,-1.4465077454385964,0.0002571,2.1124000000000005,15,38,592.7686038072433,2028.1384,mp-1197464,Ag2Te4MoO12,https://materialsproject.org/materials/mp-1197464,-41.22907897094823,-48.21871384854378,-6.917061715029062,-35.881247155016815
-4.4505514999999995,-13.3516545,3.493076586714397,-0.6770251974600002,0.00023650000000000003,0.036599999999999966,166,3,89.96411207712866,189.2467,mp-1245,Sr2N,https://materialsproject.org/materials/mp-1245,6.8261866482948435,-39.134587383733844,6.962968911339889,-56.837619777999755
-8.88892745638889,-320.00138843,8.879448086494467,-3.0254966388888898,0.0,2.6067,62,36,497.5135779250617,2660.36864,mp-771957,Ta2PbO6,https://materialsproject.org/materials/mp-771957,-21.33993418013505,-62.93399629048852,-6.268235136070112,-52.22547456607418
-8.158690869047616,-342.6650165,5.168883291783562,-3.7487018942261914,0.0,4.421200000000002,173,42,601.0654688650261,1870.98116,mp-1218249,SrLa4Si3O13,https://materialsproject.org/materials/mp-1218249,-18.909207333702085,-34.31654093417704,-10.681959371141792,-33.941595647773354
-4.8261700425,-19.30468017,7.611921098964879,-1.3701384767968756,2e-07,1.1713000000000005,166,4,115.88935478946965,531.2375099999998,mp-1067280,TmTlSe2,https://materialsproject.org/materials/mp-1067280,24.86125514493038,-11.082934498535524,13.695787777709016,19.881670192640048
-7.284480409545455,-320.51713802,5.572481904724143,-3.2783858252272733,3.885e-05,2.5467,55,44,817.4307916844368,2743.1564,mp-771193,Ba3Y2O6,https://materialsproject.org/materials/mp-771193,-7.495140238534246,-62.4653424851062,7.495846926568373,-45.991231933398645
-4.69077614225,-187.63104569,4.525476439474413,-1.9057766238534484,1.51e-05,1.9337,14,40,1199.7637144055436,3269.7228379999997,mp-1178475,Cs5YO4,https://materialsproject.org/materials/mp-1178475,-5.4076766355177615,-27.791430305051012,-6.542473647327548,-30.51068651372437
-5.281802851111111,-95.07245132,3.085628837678304,-2.91965194522848,1.0000008,0.0,63,18,354.95898407433737,659.588032,mp-1106402,Rb2TiOF5,https://materialsproject.org/materials/mp-1106402,-30.083623202507578,-20.702696034315494,-8.246199330815147,-1.8519117880122995
-6.612676602857142,-185.15494488,4.097332770520259,-2.555119102359693,1.0002171,0.0,15,28,441.0524069275388,1088.284248,mp-1192982,Ba2CuP2O9,https://materialsproject.org/materials/mp-1192982,-26.28605946888792,-25.573263966315498,-21.49501490825782,-7.501079611131431
-4.930925278,-49.30925278,6.020223051035898,0.31801875399999985,0.5338489000000001,0.0,227,10,343.43959608279715,1245.1275899999996,mp-1212172,Pr4Co,https://materialsproject.org/materials/mp-1212172,-10.027558196054649,-62.22060684245325,-8.25454682557985,-66.82893082433843
-7.977235163333333,-47.86341098,7.910271311601376,-2.4384928185466657,0.0,2.5081000000000007,129,6,118.18507905461996,562.99552,mp-28065,ThNCl,https://materialsproject.org/materials/mp-28065,0.9990749614658102,-52.147679700344035,-1.7785904479508063,-43.94894300906265
-6.2523784614893625,-293.86178769,5.798910191682669,-2.3089247786227665,37.9997862,0.0,187,47,767.7395936567708,2681.0890000000004,mp-1228981,Ba10Fe8Pt2Cl2O25,https://materialsproject.org/materials/mp-1228981,-13.419078279436235,-82.32121313777144,13.264596339277078,-72.02454653568435