energy_per_atom,energy,density,formation_energy_per_atom,total_magnetization,band_gap,sgr,num_sites,cell_volume,weight,mp_id,formula,URL,tsne_cry_0,tsne_cry_1,tsne_xrd_0,tsne_xrd_1
-4.272682093333334,-25.63609256,4.435068486497683,-1.1989829216522991,0.0,1.1239,63,6,159.08793054052532,424.90170379999995,mp-541037,CsCuO,https://materialsproject.org/materials/mp-541037,-5.590531700796528,-29.43936321639568,-9.430119627809884,-29.7643313902071
-6.28431187,-100.54898992,3.7198456798984783,-2.7503993173706034,2e-07,4.0578,4,16,237.6444581184757,532.35768,mp-995216,RbSrSiHO4,https://materialsproject.org/materials/mp-995216,-9.037674133865869,-30.977321305875613,2.4495944168613133,-34.90300254060424
-7.61174194375,-730.7272266,5.500971015577535,-3.3384315499218755,0.0,3.8623,185,96,1382.6086147996255,4580.2536,mp-14386,Ba3Lu(BO3)3,https://materialsproject.org/materials/mp-14386,-22.699414599737448,-25.841443787483158,-7.338531115018051,-21.947065770924407
-6.71225166,-93.97152324,4.3895671788339,-2.9866312382371567,0.0,4.6427,164,14,232.75575325006318,615.2803339999998,mp-1209420,Rb3Tm(PO4)2,https://materialsproject.org/materials/mp-1209420,-8.190470868486157,-33.572289720818176,-29.336251244938413,-60.9117208777987
-8.322658063967392,-1531.36908377,5.090958600241674,-3.1422444742173923,0.0,2.5069,40,184,2615.046806858276,8017.33335424,mp-1199624,Ba2NaNb5O15,https://materialsproject.org/materials/mp-1199624,-28.789276801741305,-70.68961921256663,-4.764079630137292,-56.24225816846557
-9.54280897,-248.11303322,7.42039466102728,-3.5144086843269235,0.0,2.2687,12,26,371.95897170825583,1662.16048,mp-1101443,NdTa3O9,https://materialsproject.org/materials/mp-1101443,-32.72915666040624,-70.13868112204047,32.03723649408361,-59.564254538308106
-6.491828234333334,-194.75484703,7.69172171798895,-0.680551167555556,2.45e-06,0.0,127,30,417.65863976831184,1934.6212,mp-1212227,Ho5(SiB4)2,https://materialsproject.org/materials/mp-1212227,30.05867200016993,-40.2696671997802,13.42213760231732,-19.598686888251574
-6.85595972,-41.13575832,4.453039451773118,-1.0820022162500005,3.2e-06,0.0,12,6,134.8560172264875,361.6411,mp-643367,YCBr,https://materialsproject.org/materials/mp-643367,20.80774909810274,-1.9588489045392743,16.20529158216311,-7.927619570355665
-7.152245646875,-228.87186069999998,5.0757136385659765,-2.9898109082552087,0.0,3.4845,148,32,460.12651871998816,1406.4532,mp-866313,Ba3In(BO3)3,https://materialsproject.org/materials/mp-866313,-23.39120002958324,-25.390643317823265,-9.701724392318457,-19.429374806727427
-5.14313292625,-41.14506341,5.206360107457624,-2.3386285159375,1.9e-06,1.7805,129,8,266.79910147509474,836.5068,mp-1078191,Ba2TeO,https://materialsproject.org/materials/mp-1078191,-0.0827085376929591,-29.938983986619462,2.238545271090708,-49.163355945393384
-5.08852145625,-40.70817165,5.4548979798667006,-0.5739853825000001,1.25e-06,0.0,63,8,154.37617125496263,507.1282544,mp-1206143,PrAl2Ni,https://materialsproject.org/materials/mp-1206143,39.39401042180863,-13.807118000719885,11.47850191658219,-17.55856690694281
-8.773763316666667,-105.2851598,6.324196136062006,-2.8290044306644453,0.0,1.0174000000000003,119,12,162.390669036003,618.4681099999999,mp-754172,La3Ti2N3O4,https://materialsproject.org/materials/mp-754172,16.572022511095927,-72.41441083578299,41.84483433110454,-45.091534797993965
-4.3589708945,-87.17941789,6.195230911006344,-1.06448380746875,0.0,2.5715,14,20,351.17759540838586,1310.1928,mp-557224,HgSeO3,https://materialsproject.org/materials/mp-557224,-33.75853206323502,-29.821657638104725,-21.98198411365974,-46.727354886038704
-8.2468107285,-164.93621457,7.423413145846649,-3.3104317657500015,1.999999975,1.5490000000000004,62,20,233.9251877413189,1045.7588,mp-22789,DyVO3,https://materialsproject.org/materials/mp-22789,9.59521244339448,-81.39336882398908,51.14254250124787,-53.718613656524184
-9.429443882222225,-678.91995952,6.2807412755630505,-3.26572038583,34.99845875,0.1413000000000002,62,72,1010.2140569229953,3820.9840128,mp-1196201,Eu5B3O9F,https://materialsproject.org/materials/mp-1196201,-17.769883641710727,-32.89008502509772,-18.32789748516655,-34.11112688906282
-8.014124232,-160.28248464,8.191745559872832,-3.0774215314420004,3.99999975,0.3985999999999996,62,20,225.33375056260837,1111.61298,mp-21125,LuMnO3,https://materialsproject.org/materials/mp-21125,9.014105567414287,-80.96341313837424,51.71136593860211,-52.32484461810216
-6.224131036875,-99.58609659,4.126029506804452,-2.705361286228362,0.0,3.9552,4,16,252.432721350616,627.2329837999998,mp-995215,CsSrSiHO4,https://materialsproject.org/materials/mp-995215,-9.268507226684763,-30.83919558854878,-8.340121832997909,-22.882246124140657
-6.819968666538463,-177.31918533,5.53017354130612,-2.278100345865386,7.00000035,0.5758999999999994,186,26,379.3165599610674,1263.2563,mp-1214367,BaTbFe4O7,https://materialsproject.org/materials/mp-1214367,-3.2141391441824587,-44.46754153667448,7.96928386569638,-38.5759306387079
-7.079553174487179,-552.20514761,3.87072944187797,-2.9845523063553125,3.000000083333333,3.0105,14,78,1091.6718177697637,2544.695514,mp-561556,Sr2Co(PO4)2,https://materialsproject.org/materials/mp-561556,-24.111925073515984,-34.662544845521445,-15.803854565071545,-30.481672411801085
-8.469596305777777,-381.13183376,4.960707032461877,-3.2068141982777774,0.0,2.3448,3,45,651.5882757120735,1946.5598,mp-1228700,Ba2Sr3Nb10O30,https://materialsproject.org/materials/mp-1228700,-28.825536541227265,-70.70064104453981,-4.721055167413366,-56.22999954312519
-6.605529041111112,-118.89952274,4.312478883016248,-2.6923839104166682,1.00000005,0.0,46,18,237.0027261051353,615.5045,mvc-6231,Ca2YNiO5,https://materialsproject.org/materials/mvc-6231,13.329348274952329,-70.42644360857969,11.056955454863264,-34.56323842182938
-4.619133286818182,-101.62093231,3.7543760103347887,-3.0176610549422263,0.0,4.3466,127,22,408.708419679438,924.0644448,mp-1209273,Rb3GeF7,https://materialsproject.org/materials/mp-1209273,-29.450199847076487,-20.602430237375238,-2.085878451112998,-7.240957162352906
-6.7079438125,-268.3177525,6.278091853374879,-2.4292172923125,2.0001356,1.5176999999999996,55,40,929.0805350181856,3512.626199999999,mp-704623,Nd7V(Se2O)4,https://materialsproject.org/materials/mp-704623,29.13752659676173,-19.470262774109337,16.106734598162753,2.0347786283255265
-8.273358956428572,-231.65405078,5.029085801702983,-2.566297934285715,7.000063725,1.5235,2,28,524.4580269700532,1588.3664,mp-1193134,GdMoBrO4,https://materialsproject.org/materials/mp-1193134,-31.62320263374754,-33.78419221544452,-37.44083619033319,-24.846872398568767
-7.127552325,-171.06125580000003,6.797168879755708,-2.541455378333333,2.5e-08,2.6687000000000003,64,24,281.3495456609616,1151.6624,mp-1190383,CaWO4,https://materialsproject.org/materials/mp-1190383,-38.825448244808356,-53.23224272076284,-12.333140753238045,-40.17723666706025
-4.224502128108108,-156.30657874,5.871315424641132,-0.91422633888232,0.0,1.2039999999999995,1,37,866.7782859674684,3064.745,mp-1181234,In10(Pb2S7)3,https://materialsproject.org/materials/mp-1181234,7.9089846132139305,-5.216678268091677,-17.648662798680302,-34.595595730140104
-7.815085281071428,-218.82238787,4.748632847405206,-3.4094118563809532,2.5e-08,2.3591,57,28,405.45374663714585,1159.47348,mp-1211901,KLaTiO4,https://materialsproject.org/materials/mp-1211901,12.56428585534471,-63.94162256805024,15.152778182754252,-42.658551636142796
-5.012437041315789,-190.47260757,6.383021195752868,-1.633421631036185,4.454887,0.0,63,38,781.8243459448497,3005.29,mp-1216334,Yb6Fe2S11,https://materialsproject.org/materials/mp-1216334,11.950574848157524,-2.9550410676292937,-5.3028597932794845,-17.73009042383496
-7.133531188666668,-428.01187132,3.4637261639246013,-3.3567131744443808,0.0,5.4897,19,60,708.6088068661279,1478.0904303999996,mp-9512,SrAl2P2(O4F)2,https://materialsproject.org/materials/mp-9512,-25.083301741575152,-29.855788042339906,-16.261839105809138,-28.284114212909703
-1.5657602216666666,-9.39456133,5.9433804558912815,-0.011756661666666742,9.5e-06,0.0,12,6,206.96597059363842,740.77,mp-980663,Yb2Mg,https://materialsproject.org/materials/mp-980663,1.1710500779444082,-34.037753967775046,1.1352315185884068,-49.464603377858076
-6.6986706637500015,-267.94682655,5.993534067546588,-0.16200524200000074,11.30268495,0.0,140,40,810.5428666991513,2925.565836,mp-1211667,La6Mn9Al5,https://materialsproject.org/materials/mp-1211667,34.20083906591073,-14.069397679469551,7.198163908461224,-23.966788402821702
-5.3874236955555554,-48.48681326,7.948956609906566,-3.4765846747649998,1.6094001,0.0,139,9,137.71615693067807,659.2436127999998,mp-558896,Yb3(SF2)2,https://materialsproject.org/materials/mp-558896,0.6703624584739043,-59.632152660471675,-6.563923083849269,-59.68294731988769
-8.118817963333333,-194.85163112,8.392246445005126,-2.495573672500001,7.0000005000000005,3.0177,15,24,339.2641631541053,1714.6170000000002,mp-1212540,GdTl(WO4)2,https://materialsproject.org/materials/mp-1212540,-47.28210478094618,-56.433190220531365,-20.06292611727134,-61.54296476749469
-6.464162517073171,-530.0613264,5.114189016987965,-1.926994558793201,0.00945865,2.2311,2,82,1161.9637502585028,3578.6585600000008,mp-1196049,V6H2Pb4Se3O26,https://materialsproject.org/materials/mp-1196049,-26.579194223137442,-42.02096856790661,-20.73157295456872,-34.60487720099414
-6.62020922,-185.36585816,5.9305099826372185,-2.535293657857143,0.0,3.5439,62,28,511.4461714170336,1826.5976,mp-541006,BaTlVO4,https://materialsproject.org/materials/mp-541006,-9.740533921276427,-31.513392369066374,-6.981717972595145,-27.15113687857656
-7.0590756358333335,-84.70890763,3.7927840467327454,-2.8142664866071425,0.0,4.1077,12,12,153.32412495704676,350.20272400000005,mp-1101981,SrGe(PO4)2,https://materialsproject.org/materials/mp-1101981,-25.138610460316386,-29.83283806120137,-29.241491525589772,7.896159857553612
-3.0209606625,-12.08384265,6.263172719088043,0.1214544675,6.425e-06,0.0,18,4,135.3210527681898,510.4,mp-1064307,Te,https://materialsproject.org/materials/mp-1064307,26.528549327320878,-19.088313981463045,3.7690134509239734,-33.80997809776246
-5.405693659375,-86.49109855,7.652897721349157,-1.6739128410325002,0.0,2.3000000000000003,15,16,315.2275088875031,1452.7836,mp-29558,Bi3ClO4,https://materialsproject.org/materials/mp-29558,-22.208013201007123,-56.114180553571074,-15.303861810175373,-59.16446689952211
-6.24330301,-112.37945418,4.335989831613441,-1.968684662527778,4.00002445,0.5236999999999998,46,18,243.45684002757162,635.71307712,mp-1099875,Na2Mo2O5,https://materialsproject.org/materials/mp-1099875,-31.062866456791678,-74.69518712148984,-12.848506666142333,-30.39906870255712
-7.090306458888889,-255.25103252,4.267540967126801,-1.0950739310577775,0.000362075,0.00439999999999996,52,36,780.295738387325,2005.3392,mp-1247420,Sr3Zr2N4,https://materialsproject.org/materials/mp-1247420,3.5927487393875333,-32.82653212528363,-2.676667474547908,-26.09805089130549
-9.067653286190476,-380.84143802,5.742507657070353,-3.3619355827437416,35.00015845,0.3929999999999998,176,42,615.1909346635939,2127.4649784000003,mp-1212781,Eu5P3O12F,https://materialsproject.org/materials/mp-1212781,-19.297244006975454,-33.70857356130021,-10.56102600378546,-33.915331081523775
-8.957572096153848,-465.79374900000005,4.973720120499988,-3.241304599134616,0.856086175,0.0,2,52,751.6311601780262,2251.31896,mp-1227785,CeNb3O9,https://materialsproject.org/materials/mp-1227785,-30.880097601092874,-70.69275327887077,32.53246385410395,-59.01287099480518
-8.15489429986842,-619.77196679,5.074852149625705,-2.100212013351052,0.627152,0.015500000000000291,19,76,1118.1451346807755,3417.2164,mp-686294,Ce4Si4N7ClO3,https://materialsproject.org/materials/mp-686294,-23.66303137631091,-29.974815156528624,-19.736851601768716,-7.772280724034672
-2.8058692045454547,-61.729122499999995,3.9660101694372383,-0.9548798487676337,2.365e-05,1.3416,186,22,861.8676275594041,2058.4736,mp-1190907,Rb6HgSe4,https://materialsproject.org/materials/mp-1190907,4.058366824445564,-31.814871926233266,-19.89782150301025,-29.451246915918695
-4.0455449865625,-129.45743957,3.3554789804579377,-1.0291691044843745,1.25e-08,2.2333,15,32,823.0398934325302,1663.13046304,mp-17060,NaAlSe2,https://materialsproject.org/materials/mp-17060,-6.651231472277143,-4.752398077500791,-27.930203688423056,-45.78334516610013
-4.986933825833334,-59.84320591,4.782170539564472,-0.5059190733333333,1.6e-06,0.0,51,12,213.73521228454567,615.5339988,mp-975726,PrAl4Co,https://materialsproject.org/materials/mp-975726,39.72605289047985,-14.014027716721134,4.555747344120996,-0.16193619027365985
-4.226362285945947,-156.37540458,5.861492757883343,-0.9160864967201582,1e-06,1.3392,2,37,868.2308296466355,3064.745,mp-622755,In10(Pb2S7)3,https://materialsproject.org/materials/mp-622755,7.914837289614952,-5.214627348836905,-17.651723677750347,-34.61558642735953
-7.30810545375,-58.46484363,4.9139052475290015,-0.6781018778571424,6.9956942,0.0,12,8,165.506478957464,489.77057199999996,mp-1079534,EuP3,https://materialsproject.org/materials/mp-1079534,8.794016367389005,-17.251564954443754,2.94942704783225,0.5771017237483497
-7.106275573846153,-184.76316492,6.958692971844075,-3.1156819184446163,0.0,3.4707,176,26,399.59472118028367,1674.5508000000002,mp-1208868,Sm3W(ClO2)3,https://materialsproject.org/materials/mp-1208868,-1.5787504163144124,-59.89049036098083,-0.8091462131731758,-49.47348540780819
-7.987859315714287,-223.66006084,5.460898163382555,-1.2533670700592856,56.00000060000001,0.6649000000000003,156,28,761.3936763256705,2503.9419299999995,mp-684011,Eu8C4I9N7,https://materialsproject.org/materials/mp-684011,8.845290442503773,-26.205862845689573,4.507124083281111,-27.3756618702209
-6.856467356538461,-178.26815127,5.264061474068142,-2.2621851526923082,5.08e-05,1.0598,2,26,361.01536844217264,1144.45192,mvc-6,Nb2Zn2TeO8,https://materialsproject.org/materials/mvc-6,-40.22508410600766,-42.21573970837165,-16.545816644018327,21.4155462555504
-6.4751061390625,-207.20339645,4.017718451759275,-3.0747785049553573,0.0,4.252000000000002,14,32,656.5182208318578,1588.4633279999998,mp-1202046,Sr2PIO4,https://materialsproject.org/materials/mp-1202046,0.6356494428481031,-23.136024021415555,-14.513697319384306,-28.27321391227505
-3.9966473471428574,-55.95306286,5.977870652254678,-0.6900832274553578,8.15e-06,0.8384999999999998,15,14,412.4390442983925,1484.7632,mp-28011,Tl2Sn2S3,https://materialsproject.org/materials/mp-28011,5.206698190605856,-6.013520302167611,-16.19660154713512,-31.357923052945058
-3.6795021,-51.5130294,5.2207808441460495,-1.6157190439285714,0.0,2.1335000000000006,1,14,579.3554564443865,1821.5096399999998,mp-756745,BaLaI5,https://materialsproject.org/materials/mp-756745,3.753540273578931,-28.41336930015564,-4.177477839177058,-28.927941733032398
-4.400428756923077,-57.20557384,4.647761912550587,-1.4805766016147222,7.999999799999999,1.5234,8,13,353.3898523454876,989.1197114,mp-1105876,Cs6Fe2O5,https://materialsproject.org/materials/mp-1105876,-5.348640755089934,-28.479320586515808,-6.382052654940647,-30.766918199691528
-8.1245904978125,-259.98689593,5.140698786773929,-3.0428879921599994,35.00000005,0.7065999999999999,15,32,687.7838880216374,2129.2422,mp-669318,Eu5Si(Cl3O2)2,https://materialsproject.org/materials/mp-669318,10.376338459854118,-16.596300137384596,1.17169947390298,0.5177570653809005
-6.093062146785713,-170.60574011,4.973216814863182,-1.6806072789285724,3.9999994,1.3299,84,28,485.30181203652467,1453.4504,mp-601882,Fe(SbO2)2,https://materialsproject.org/materials/mp-601882,-40.17435939731548,-42.25596503961923,-27.575705062648808,-24.03346003599443
-7.8311722449999985,-109.63641143,4.7957482678977446,-3.3929177912380952,0.0,2.4214,129,14,189.57996763572342,547.51967856,mp-6514,NaLaTiO4,https://materialsproject.org/materials/mp-6514,12.477393850230284,-63.9643707720686,11.651498378992017,-44.43080086805094
-6.963681816666668,-250.6925454,4.7864738289791084,-3.1122762843750005,0.0,3.7561,20,36,654.2740684116662,1885.9332,mp-1199246,Ba5B3BrO9,https://materialsproject.org/materials/mp-1199246,-23.73678517226316,-25.36802788300477,-9.33258427423008,-19.1664602936904
-4.4206349430000005,-88.41269886,4.729940279599791,-1.3355322757500006,0.0001065,0.4224000000000001,62,20,640.4438001291753,1824.2636,mp-755363,Ba3SiO,https://materialsproject.org/materials/mp-755363,-3.7545127329977186,-28.369423685587915,-27.31863927874368,-58.5264161612216
-6.775447426296296,-365.87416102,4.948202989448216,-2.2910635742500003,1.99931315,0.0,11,54,817.2915723474231,2435.4288,mp-1212472,K2Nd4Ge4O17,https://materialsproject.org/materials/mp-1212472,-29.702916672593933,-54.672706245162715,-15.711440071832357,-52.59603913580774
-7.1893751820833325,-172.54500437,5.703002599761512,-2.8029421683333333,0.0,3.8836,14,24,329.7913469181379,1132.6447999999998,mp-556843,NdAsO4,https://materialsproject.org/materials/mp-556843,-29.140384953238808,-53.836316094240075,-15.716946210121007,-51.18704838149272
-5.556921934166668,-200.04918963,4.774048349814048,-0.564301872446666,0.34677005,0.0,62,36,881.2806740170371,2533.6812,mp-1246210,Ba4SiN4,https://materialsproject.org/materials/mp-1246210,-3.501307098234558,-26.576632464318127,-27.029302985633198,-59.82903964635669
-6.313218089615384,-164.14367033,5.025194245756494,-1.0925890853292306,0.0,1.6017,70,26,471.75607303049736,1427.6484,mp-1019517,Ba4Mg(SiN3)2,https://materialsproject.org/materials/mp-1019517,-3.934589486067128,-32.27259806690853,-0.6391475793487678,-35.81009133509825
-5.07932325275,-406.34586022,3.5789853327273704,-0.9838298764593753,1.1244418375,0.039000000000000035,61,80,1122.3676785111659,2419.05632,mp-723054,CdHSeNO6,https://materialsproject.org/materials/mp-723054,-38.29669787145321,-43.39908306845912,-23.930439320630484,-29.17969492958945
-6.9620146766666675,-41.77208806,6.6997913882963385,-0.5283761658333338,1.85879515,0.0,129,6,115.68792677428223,466.76709000000005,mp-1019102,SmMnSi,https://materialsproject.org/materials/mp-1019102,41.73936752322758,-6.547947537867515,26.281656309581084,15.651683348177295
-5.796426329999999,-150.70708458,5.558943690700869,-0.6746344964830754,0.00464675,1.1927000000000003,15,26,547.2188434055691,1831.9104,mp-1246227,Ba5(GeN3)2,https://materialsproject.org/materials/mp-1246227,-2.733256663682888,-32.277124298354515,0.016257637643026044,-31.057016240324092
-8.266835152352941,-140.53619759,6.274198726612688,-3.2285376098529404,0.0,0.0,139,17,210.9023267994856,796.8756400000002,mp-15902,Li2Ca2Ta3O10,https://materialsproject.org/materials/mp-15902,-33.8174749698771,-70.94939226986973,-26.076771572735087,-31.666412924304442
-7.570771981999999,-37.85385991,6.426118296621536,-3.2688334412187503,0.0,2.2028,164,5,101.49466549561652,392.7741,mp-4764,Pr2SeO2,https://materialsproject.org/materials/mp-4764,23.401344249818173,-9.27016493870588,20.079631756719547,-36.702870987602225
-6.971450035,-41.82870021,7.240428528093617,-0.5674396633333328,1.8728981,0.0,129,6,110.97839976555763,483.89779000000004,mp-20822,TbMnSi,https://materialsproject.org/materials/mp-20822,41.76012187192991,-6.72622759414163,26.38590874963825,15.60143187562491
-6.985629875555556,-62.87066888,6.861310168692849,-2.9632835154166663,2.0000022,2.0531,71,9,136.61772894508803,564.5014,mp-18763,BaNd2NiO5,https://materialsproject.org/materials/mp-18763,15.577124306340618,-63.431165688067324,17.014615523498186,-38.67409350143107
-5.0761889375,-60.91426725,6.1810499261338485,-1.7426068498697915,1.2947064,0.0,8,12,260.2173684646781,968.6111,mp-1215807,Yb4CrS7,https://materialsproject.org/materials/mp-1215807,11.649027077132454,-2.8906583509397943,-5.529378274382952,-17.449291001628495
-5.973441806875,-191.15013782,5.265559354006755,-1.6608955569270831,0.0,2.5943000000000005,14,32,462.1979083035799,1465.6268,mp-645743,VAgTeO5,https://materialsproject.org/materials/mp-645743,-25.744616354742142,-35.217894640620436,-1.1539034955506144,-28.035995061358513