energy_per_atom,energy,density,formation_energy_per_atom,total_magnetization,band_gap,sgr,num_sites,cell_volume,weight,mp_id,formula,URL,tsne_cry_0,tsne_cry_1,tsne_xrd_0,tsne_xrd_1
-5.048006135833334,-60.57607363,4.617656370105363,-1.9277214761566093,0.0,2.1213,36,12,242.8377802834034,675.2876,mp-753798,Rb2SnO3,https://materialsproject.org/materials/mp-753798,-5.536656116872213,-31.38052583772143,-0.09442587685176508,-34.86343026811516
-3.02319122625,-24.18552981,4.847385177615091,-0.1573506362499999,1.1125e-05,0.0,12,8,200.1463683947911,584.26,mp-1094565,MgSb,https://materialsproject.org/materials/mp-1094565,30.394481594316353,-26.074756183592314,4.4792605168951285,9.532749621472572
-5.90144399,-141.63465576,4.498600137733474,-1.992610551666666,1.999999775,0.1148,2,24,404.50709105005296,1095.8583999999996,mp-1190729,BaGeO4,https://materialsproject.org/materials/mp-1190729,-29.66451707667596,-26.572341339403106,-22.08279293252912,-10.982614095977283
-6.849532376111112,-123.29158277,6.127943513909602,-1.7930692172823617,0.0,1.3824,15,18,449.0238672905806,1657.0479999999998,mp-31303,Pr4Se3N2,https://materialsproject.org/materials/mp-31303,28.18323616765112,-19.459021982975408,19.47982520268696,-1.2022327952048648
-4.95912112,-89.26418016,3.3604479373533738,-0.7912404347619046,5.296666666666667e-05,0.7929999999999993,14,18,443.44572631065864,897.4051440000002,mp-1105302,SrP2,https://materialsproject.org/materials/mp-1105302,23.742299205058174,-10.989497925224109,8.943438935064368,-2.2917380934412983
-7.191134642083332,-172.58723141,7.215101928366499,-2.342867609166666,0.0,2.696400000000001,12,24,387.0928331319232,1681.9322999999995,mp-1209599,PrTl(WO4)2,https://materialsproject.org/materials/mp-1209599,-49.0180117537275,-43.054556782052735,-24.162516494269948,-51.20667800894403
-6.8846654093333335,-206.53996228,5.1503124513971485,-2.4776864133125,0.0,3.292,2,30,452.88889918091974,1404.6760000000002,mp-560590,Nd2Mo(SeO5)2,https://materialsproject.org/materials/mp-560590,-48.45294940210659,-54.33122966115217,-24.54752812532525,-52.01338438397215
-3.3125558666666666,-39.7506704,4.7999692824790845,-0.4885780249999995,0.0,0.01910000000000034,62,12,480.58244661091555,1389.1760000000002,mp-13922,Ba2Ge,https://materialsproject.org/materials/mp-13922,3.772724087491613,-28.666361257820753,-5.681214376760821,-31.87177966442389
-7.445295251500001,-148.90590503,6.952282733725954,-2.8487771382500013,3.0000002,0.35440000000000005,14,20,241.1062910867897,1009.4548,mp-1210954,LiSm2RuO6,https://materialsproject.org/materials/mp-1210954,9.05638148090324,-82.73284563020965,50.257454656070394,-54.378463893657596
-7.9512314560714294,-222.63448077,8.424683324544263,-2.863431868125001,0.0,2.4925999999999995,36,28,398.7300849922318,2022.9423199999999,mp-23089,SrTa2Bi2O9,https://materialsproject.org/materials/mp-23089,-31.72389358231389,-67.28138628109888,-7.23491449206954,-58.60780531130664
-7.845158862941178,-133.36770067,5.95485379247787,-3.1469064945762746,0.0,2.2932999999999995,12,17,219.69830796031044,787.8594063999999,mp-1105287,Ti4Pb2O9F2,https://materialsproject.org/materials/mp-1105287,-21.339128888480477,-44.86909233491232,-16.831107727519857,-49.368726320798274
-6.2098124727499995,-248.39249891,6.097342957113242,-2.219232637437499,0.0,3.0040000000000004,2,40,640.4591507640233,2351.70568,mp-5572,Ho2Te5O13,https://materialsproject.org/materials/mp-5572,-32.08987287444275,-57.865847012046814,-24.177455135454608,-53.14287745463401
-9.28911404,-334.40810544,7.06179336289908,-2.992700331388889,13.999999725,2.6909,19,36,506.12077333094595,2152.3856,mp-17583,Gd2TeO6,https://materialsproject.org/materials/mp-17583,-29.184383532728035,-58.78448051967288,-11.179913448639407,-48.93042444529841
-8.637711567916666,-207.30507763,6.2066691757022365,-1.5082630182733336,0.6666666666666666,0.0,2,24,287.24345856529135,1073.6424000000004,mp-29595,CeBN2,https://materialsproject.org/materials/mp-29595,11.766777736227093,-60.38496734268065,-0.5829856641800311,-35.46394692871331
-7.155404131034484,-207.5067198,6.109398488091889,-2.3153608169755757,6.5106093000000005,0.0,8,29,602.2551048295795,2215.7964,mp-1227542,Ce7Ti4(Se2O)6,https://materialsproject.org/materials/mp-1227542,29.451028681576954,-19.676574574459146,15.394008120039945,-3.093211196045275
-5.032660394375,-80.52256631,4.7053620342087665,-1.3541651551562506,2.99999985,1.1902999999999997,2,16,360.1447199021999,1020.5187900000001,mp-550763,CoSb2Br2O3,https://materialsproject.org/materials/mp-550763,-21.795914072309106,-40.35045683012991,-7.963840158186045,1.2101726279618363
-7.762662001071429,-652.06360809,5.055581417915537,-3.3313261575793653,0.0,4.0127,62,84,1215.3271474957953,3700.1149600000003,mp-6446,Ba3La2(BO3)4,https://materialsproject.org/materials/mp-6446,-23.087823892642422,-25.530742501678628,-9.359652883735592,-19.303591963629533
-8.270011301785713,-231.56031645,6.400247021181976,-3.40539244235119,0.0,3.7855,173,28,391.95615506297406,1510.72402,mp-554773,La3BWO9,https://materialsproject.org/materials/mp-554773,-28.60547186437887,-58.067945117519294,-19.442728093140364,-52.94736554306542
-4.920087033333334,-44.280783299999996,3.707065452122423,-1.5648354527921464,0.0,1.6732999999999998,23,9,187.18450826607207,417.8795,mp-550679,Rb4CO4,https://materialsproject.org/materials/mp-550679,-0.43967537746031976,-32.807573581451614,-2.950872187100436,-34.1634790139206
-6.703735170000002,-221.22326061,3.0502834864610135,-3.015554998318182,0.0,3.9875,12,33,466.70464557776086,857.30081568,mp-1221321,Na2Sr(SiO3)2,https://materialsproject.org/materials/mp-1221321,-24.157735723823293,-34.51931357238168,-19.331253720238188,-28.22372982070047
-7.104961672380951,-298.40839024,3.9926755184941056,-3.1645133271995243,3.3e-06,4.0003,176,42,667.0275737583049,1603.8314064,mp-40674,Sr5V3O12F,https://materialsproject.org/materials/mp-40674,-22.692491301306912,-33.16139824490807,-7.250911606426571,-26.35090782911394
-6.9011737134782605,-634.90798164,5.854618078280426,-2.834735081195653,0.9678754,0.0,1,92,1233.8712134736438,4350.30104,mp-1223721,La12Ga23WO56,https://materialsproject.org/materials/mp-1223721,-7.985387301629333,-46.4386465389588,8.308151560907133,-35.49199604699537
-4.6275236300000016,-46.275236299999996,4.36401393677008,-0.2610772222514882,2.0000003,0.0,5,10,264.26885457153054,694.517224,mp-6543,VAg(PSe3)2,https://materialsproject.org/materials/mp-6543,7.680260860374948,0.3483102772186433,-0.6611127732861878,-21.21312608819332
-6.863229960000001,-41.17937976,7.220481511526464,-3.514004172336668,5e-08,5.1945000000000014,129,6,100.59684180709914,437.4228,mp-1178350,ErClO,https://materialsproject.org/materials/mp-1178350,0.7422335555588059,-51.736192375417716,4.220333605427704,-38.64081676052084
-5.303363033125,-84.85380853,3.6977616151419697,-2.116545520711206,0.0,3.5526,36,16,284.5244493067923,633.5916,mp-14363,Rb2LiAsO4,https://materialsproject.org/materials/mp-14363,-7.108175330172402,-29.45802912784676,-6.244156841676944,-28.755076210590953
-8.74102733875,-69.92821871,7.456179713928492,-2.753494514960937,4.797678299999999,0.0,139,8,154.37061390197968,693.15747,mp-1025436,YU2S3O2,https://materialsproject.org/materials/mp-1025436,-1.9985539995510788,-57.73853687884046,3.284873622634564,-51.43454666220261
-4.195178151875,-67.12285043,4.567831044855422,-2.2009022308946116,0.9999347,0.0,2,16,256.3338698892507,705.1263357999999,mp-1226365,Cs2Cu3NiF10,https://materialsproject.org/materials/mp-1226365,-58.8419079970611,-59.449641741296574,-6.2306166393524585,-27.783068561590113
-6.478767347857144,-272.10822861,3.589393430749358,-2.8553134602947634,0.0,3.9536,2,42,588.5926376329447,1272.2920064000002,mp-557482,Ca5As3O12F,https://materialsproject.org/materials/mp-557482,-48.329595580992994,-5.511048725526914,-8.00120981417478,-27.908469961312104
-6.16369134923077,-80.12798754,6.0275430939458206,-2.3324497131730784,0.0012109000000000002,0.0,123,13,225.33717318588398,817.94495,mvc-2092,Sr2YTlSn2O7,https://materialsproject.org/materials/mvc-2092,5.814989448281891,-67.99472009075697,23.95116560624727,-69.35953932449878
-7.2629168575,-87.15500229,5.598100760765684,-2.849567850416667,1e-06,3.7797,88,12,164.81972387614437,555.6493399999998,mp-1095309,LaAsO4,https://materialsproject.org/materials/mp-1095309,-20.779731177943763,-66.24966996636273,-10.111353011150662,-64.83838063447811
-6.922476768571428,-193.82934952,5.597846045226127,-2.580778565,2.375e-06,2.0055,2,28,492.193510763063,1659.2344,mp-1194285,LuMoBrO4,https://materialsproject.org/materials/mp-1194285,-31.85184462509863,-34.38685365118265,-37.419593897752144,-24.450141018679933
-4.461950451818182,-196.32581988,3.091143847947346,-0.4972101942667086,0.175108475,0.0,130,44,1122.1470531114896,2088.9108152,mp-1247417,Cs2Ca5N4,https://materialsproject.org/materials/mp-1247417,-5.578578323065426,-18.954200999282676,-24.544479262010693,-30.442148194056987
-5.868900172000001,-29.34450086,4.82073989947013,-0.6430732599999999,8.7e-06,0.0,44,5,124.71677206624264,362.06744,mp-1223125,La2Si3,https://materialsproject.org/materials/mp-1223125,23.726251555054866,-10.52542356337486,20.771686823354933,21.015214506056736
-6.439474006666668,-57.95526606,6.139457511120133,-1.5906062529070877,0.3413104,0.0,123,9,146.54278082564934,541.8079038,mp-1183855,Cs2Tc2O5,https://materialsproject.org/materials/mp-1183855,5.3101815328412405,-62.80660993204538,10.288171763687757,-46.89798463998023
-5.980713345000002,-143.53712028,5.777121868778777,-1.850899930703126,0.0,0.2875000000000005,173,24,481.46453198914674,1675.0459999999996,mp-1192184,Dy3GaFeS7,https://materialsproject.org/materials/mp-1192184,12.352655959860005,-13.000168465032225,1.9182894060363895,-5.294737764204472
-5.43707578,-543.707578,4.923147017644658,-1.2743349116979177,0.0,1.6559,57,100,1505.9734712862573,4464.8928,mp-558550,Ag4Mo2Se3O16,https://materialsproject.org/materials/mp-558550,-48.88759025818072,-48.5161085848526,-21.779327084005786,-55.506835426233174
-6.1824042850000005,-37.09442571,4.593166028485898,-0.6209223675000004,0.8063918000000001,0.0,139,6,153.24770312441302,423.893764,mp-1024951,LaScSi,https://materialsproject.org/materials/mp-1024951,31.33187256212275,-38.98075443532405,10.260784711117834,-19.69715653057359
-5.1188621869999995,-307.13173122,5.785431404427644,-1.2824538862173331,3.0002772,0.05440000000000023,62,60,939.4380743245453,3273.0664,mp-572778,Cu3BiTe2ClO8,https://materialsproject.org/materials/mp-572778,-22.425260421488886,-41.96215423749671,-9.035092330444193,-39.15526246329978
-6.830396418214287,-382.50219942,3.638357182139468,-2.5671140065545828,35.99752470000001,0.0042999999999999705,2,56,856.694831102812,1877.078296,mp-1198666,Rb7EuFe6(P4O17)2,https://materialsproject.org/materials/mp-1198666,-35.882723333703574,-22.269223495430218,-33.26028770569525,11.016038508869073
-7.015646957767857,-785.75245927,3.6264811002930863,-2.7862604619132654,0.999999875,2.4493,61,112,1501.5678203001355,3279.3009920000004,mp-15526,SrVZnP2O9,https://materialsproject.org/materials/mp-15526,-29.09873031902093,-27.913784505579912,-25.856515775258693,-7.87976107370053
-6.080562112999999,-121.61124226,6.220462208744036,-2.224837619747001,0.000537,0.0,121,20,457.83160937718606,1715.0600832000002,mp-1223105,La4Bi4S8O3F,https://materialsproject.org/materials/mp-1223105,5.111803450403377,-6.884811652741601,0.7648939672905033,-10.852595163901627
-6.36933943625,-254.77357745,5.445596116087064,-2.2781416179285707,0.0,3.4619000000000004,114,40,691.2337451548245,2266.8420960000003,mp-27144,TlPO3,https://materialsproject.org/materials/mp-27144,-33.01641583775305,-31.1277385465074,-43.94805138599933,-12.289792474036059
-5.789990634791668,-277.91955047,6.321491502142368,-2.2858977162083334,2.5e-07,2.3139,13,48,868.9435291325616,3307.97349712,mp-1204668,Na2Lu3Te4(IO4)3,https://materialsproject.org/materials/mp-1204668,-12.033205934466565,-45.572747943325936,-5.305750615316747,-50.21353523886725
-7.3250210325,-175.80050478,7.32178733576107,-2.3423901513888894,1.0,0.022700000000000387,12,24,337.3153055488508,1487.3188,mp-1213933,CeAg(WO4)2,https://materialsproject.org/materials/mp-1213933,-31.72591207114787,-55.10931292243816,-12.70372796841475,-50.86693766639307
-7.012220301538463,-91.15886392,4.972905908108565,-2.3288197147115395,16.999999,0.0,82,13,187.53081312197966,561.60865,mp-1105068,BaYFe4O7,https://materialsproject.org/materials/mp-1105068,-3.825348193475521,-43.83350401603716,9.132911699232368,-38.29660022022493
-7.324955586428572,-102.54937821,6.244910446761086,-2.9631427576785714,5.0,0.4387000000000008,6,14,186.8381828109949,702.6560000000001,mp-1227143,CaLa3(CoO4)2,https://materialsproject.org/materials/mp-1227143,20.220746275529805,-70.29174405837823,41.612306132342034,-42.46339423296091
-4.857757215714286,-34.00430051,7.614817358700836,-1.6011619614114292,0.4543434,0.0,139,7,119.4878860788262,547.9416064,mp-1147765,CuPb2(OF)2,https://materialsproject.org/materials/mp-1147765,-14.195611094978922,-56.01321559364065,-10.028022178232128,-61.8938798238871
-7.076699505714285,-594.44275848,3.9651026177915423,-3.422151530327908,0.0,5.1641,1,84,1249.8759310978112,2984.5045536,mp-720255,Sr20P12Cl(O16F)3,https://materialsproject.org/materials/mp-720255,-20.05851121090652,-32.49444882700669,-9.98293759651488,-33.65971588840805
-5.919210413684209,-112.46499786,4.058396692975182,-0.8089600841600001,2.001023,0.0,12,19,413.4615015451271,1010.5096900000001,mp-1247555,Sr9(MnN4)2,https://materialsproject.org/materials/mp-1247555,3.706856616996884,-33.56215279374013,-0.9882394833218894,-32.150085114358966
-4.1898239475,-67.03718316,4.6949154785407,-1.4413693651346982,4.0000002,1.4146999999999998,2,16,449.5137169121879,1270.9300152,mp-1205381,Cs4FeO3,https://materialsproject.org/materials/mp-1205381,-5.3459108758856155,-28.264467840937066,-6.529515949216214,-30.696290974087876
-6.1921375196875,-198.14840063,4.539486795855846,-2.741351807109375,0.0,2.8817000000000004,2,32,501.6906324683245,1371.4932,mp-30158,Sr3Ga4O9,https://materialsproject.org/materials/mp-30158,-7.1722925557554325,-43.88850610075154,-0.12057175277659248,-26.73283572063829
-4.120873696,-20.60436848,3.235439427432285,-0.9303032408571432,1.3500000000000001e-05,1.1496,164,5,127.2228823150891,247.88452400000003,mp-8278,Ba(MgP)2,https://materialsproject.org/materials/mp-8278,1.3837666831437818,-17.020798074659947,-2.8984779064389143,-7.6800542287149
-7.686163044895832,-737.87165231,4.709572363230179,-3.2999358863802084,0.0,3.4742,185,96,1339.900633362637,3800.187072,mp-14972,Ba3Sc(BO3)3,https://materialsproject.org/materials/mp-14972,-22.487582003646736,-25.748388644336305,-17.858140043431607,-8.653073304882312
-8.492869214583333,-407.65772230000005,6.2077921841364425,-3.4583054477604165,0.00017065,3.2814,165,48,622.8152816375566,2328.3450399999997,mp-769610,Ca5Ta4O15,https://materialsproject.org/materials/mp-769610,-32.460082533727174,-74.2504424784982,-25.925101522147497,-31.44632802774148
-4.09544197,-16.38176788,4.303044942218032,-0.4204865575000003,3.5e-07,0.0,63,4,127.66490596420198,330.825,mp-2499,BaSi,https://materialsproject.org/materials/mp-2499,1.5044401645073835,-26.100486086486487,-35.0471697518364,-13.180688177866054
-7.127246789791666,-342.10784591,4.488447708252611,-2.6100060208620683,0.0,3.6711,60,48,822.348024194191,2222.812,mp-1209294,RbSm(MoO4)2,https://materialsproject.org/materials/mp-1209294,-51.50597026997493,-52.62345783682866,-27.06820703012373,-56.22225921539346
-4.312602174705882,-293.25694788,6.185460402637327,-0.5967247839154415,0.001800975,0.3189000000000002,62,68,1480.4845016257113,5514.762400000001,mp-683991,Cu4Bi4S9,https://materialsproject.org/materials/mp-683991,4.4878700936336,-7.922841098864232,-20.287648187875334,-35.291736175947705
-5.7259308155833315,-687.11169787,4.995888386810462,-1.917973904243056,0.006739275,2.1495,96,120,2930.6203998086603,8817.047999999999,mp-1201452,Nd4InSbS9,https://materialsproject.org/materials/mp-1201452,9.437612656942347,-6.4442407317655395,-8.587744801852141,-18.39780116032388
-7.153950373958334,-343.38961795,5.081842237906343,-2.604899954291666,0.0002319,3.2946,15,48,660.5698010693818,2021.5794,mp-1211571,KLiDy2(MoO4)4,https://materialsproject.org/materials/mp-1211571,-51.13972750864443,-53.70831372161089,-23.88277145606214,-59.78045556313446
-8.55744465,-154.03400369999997,7.8069321263326845,-2.963863288611112,4.815e-05,3.0212,31,18,222.61292702322544,1046.60232,mvc-1666,Ta2ZnO6,https://materialsproject.org/materials/mvc-1666,-36.50909545098179,-78.01068508611905,4.314331466435531,-56.815735222935714
-5.202568555384615,-67.63339122,4.194738194154796,-0.4413870111538457,1e-06,0.0,164,13,276.77197381770907,699.1621044,mp-571302,Pr3(Al2Si3)2,https://materialsproject.org/materials/mp-571302,23.927437477717987,-6.288187153999004,19.622271481487232,19.134821971989496
-7.682600050166668,-460.95600301,5.5860801317629685,-3.4289040400833337,0.0,3.8849,14,60,997.6913844230832,3356.24992,mp-769915,La4Ga2O9,https://materialsproject.org/materials/mp-769915,-11.608715561418851,-60.17917324968271,-20.08361603933172,-58.15765915039551
-7.2108254875,-86.52990585,4.274655295960538,-2.5138800295425003,1.9672551999999999,0.0,123,12,186.29641188588363,479.57496,mp-1232351,SrNb2NiClO7,https://materialsproject.org/materials/mp-1232351,-29.455714043010968,-70.26928692401897,0.6726174993257307,-51.48984309623602
-5.927723885,-142.26537324,6.162649958556129,-2.0323572922916675,0.0,1.2944000000000004,69,24,393.3938306082667,1459.9768,mp-17380,Ba2Ca(PdO2)3,https://materialsproject.org/materials/mp-17380,11.895183739148765,-18.153237665249904,5.55751420023138,-22.27001044263434
-4.3546854433333335,-104.51245064,6.86010615626956,-1.0769851024566666,2.3125e-06,1.4854,5,24,428.7138332104143,1771.12512,mp-626647,TlHO,https://materialsproject.org/materials/mp-626647,0.9266285306150988,-33.173560940107954,-23.787436360179182,-50.54182581541294
-6.08669205625,-48.69353645,5.995376687789318,-0.6991787731250003,0.82518655,0.0,26,8,188.63258413898362,681.058,mp-1226607,CeNdSi2,https://materialsproject.org/materials/mp-1226607,32.27539013108009,-39.92961117067366,12.850575356836153,-18.5765605190667
-10.026810125416667,-240.64344301,9.745652816479119,-0.4052866270033325,0.0,0.1490999999999998,61,24,288.77765139499803,1694.8272,mp-755880,WN2,https://materialsproject.org/materials/mp-755880,-0.7470242676448695,-44.32141461673911,3.84801096269446,-47.023474518117844
-6.7049745875000015,-241.37908515,7.416280627941655,-0.458269097870371,2e-07,0.0,128,36,374.0001414201392,1670.3551900000002,mp-22573,Tb4CoB13,https://materialsproject.org/materials/mp-22573,8.9116453546035,-57.53602940422796,6.616520691765473,-49.38762908288954
-6.04061226625,-193.29959252,6.984904419249125,-2.081385199375,5.7000000000000005e-06,0.0,53,32,474.12380843233217,1994.3581,mp-1198573,Sr2YCu3(PbO4)2,https://materialsproject.org/materials/mp-1198573,11.545619084282293,-68.42264464906167,41.410155481976304,-50.35409087097589
-8.186995313333332,-49.12197188,8.85961893590983,-0.25649863958333324,3.88378735,0.0,141,6,109.89680129980582,586.342,mp-21298,NpSi2,https://materialsproject.org/materials/mp-21298,49.17310201243471,-15.169239898415412,21.522760324124828,23.27709210236096
-6.340720073333332,-76.08864088,6.55128175175242,-0.6146189404166668,0.0001193,0.0,38,12,201.706768523513,795.7885000000001,mp-1212851,Dy3Fe2Si7,https://materialsproject.org/materials/mp-1212851,52.68796978911002,-13.338979314545796,23.997345218144666,9.456142673034943
-6.003960896785713,-168.11090511,6.2750872448254205,-1.6851612581250006,4.0001106,0.0,11,28,404.38937968194267,1528.1655999999996,mp-1212794,FeAs2Pb2O9,https://materialsproject.org/materials/mp-1212794,-23.243276922844835,-45.61077522134429,-14.175275839071588,-46.46337095559386