energy_per_atom,energy,density,formation_energy_per_atom,total_magnetization,band_gap,sgr,num_sites,cell_volume,weight,mp_id,formula,URL,tsne_cry_0,tsne_cry_1,tsne_xrd_0,tsne_xrd_1
-5.4247010100000015,-292.93385454,6.5152021680758505,-1.6758440817592608,0.0,2.218,167,54,1132.7802486418125,4444.516,mp-27271,Tl8Ge5O14,https://materialsproject.org/materials/mp-27271,-3.1065387967932416,-30.051417098961416,-17.945704098989253,-48.91214240568842
-7.339181210555554,-264.21052358,3.9978153559880383,-2.6906306341666677,0.0,2.8228,62,36,474.34196668085883,1141.9976,mp-19038,SrV2O6,https://materialsproject.org/materials/mp-19038,-23.241676728778287,-33.39668662681994,-21.365322750847334,-15.07331992558892
-4.884803846666666,-29.30882308,5.717198054514817,0.1892739992066665,5e-08,0.0,129,6,152.98776883918237,526.7334000000002,mp-1245707,SbTeN,https://materialsproject.org/materials/mp-1245707,25.681047970376486,-20.290264418081666,-10.866076097536773,-5.623272540207934
-7.805099831209677,-967.83237907,6.391571130448487,-0.3807238758870967,0.001591875,0.0,92,124,1706.9859342209688,6570.349600000001,mp-569274,Ce10(B3C4)3,https://materialsproject.org/materials/mp-569274,10.051231021610645,-59.683113717294866,-1.0995423642191926,-32.73240813944166
-6.880924153611112,-495.42653906,4.620278446905051,-2.9166227126793984,7.000000000000001e-06,2.882000000000001,29,72,1122.2058778357937,3122.422,mp-1194952,Ba2In2Si3SO10,https://materialsproject.org/materials/mp-1194952,-30.711805644371896,-31.961069918387707,-21.501607992278366,-29.16876745454407
-6.863945802999999,-137.27891606,6.741324405100189,-0.6000357483333332,0.0,0.0,127,20,202.7174031187615,822.9760000000001,mp-2719,DyB4,https://materialsproject.org/materials/mp-2719,7.988434382879425,-59.348339956020205,4.481288368134047,-48.83753600875063
-6.915781199166666,-82.98937439,6.131778766876015,-2.8450722839439653,0.0,3.8301,63,12,266.63776117721824,984.5982075999999,mp-1178405,Cs2HfO3,https://materialsproject.org/materials/mp-1178405,-5.4690452817846085,-30.308555530854512,-23.114930748801136,-53.49198157245397
-6.422489450238095,-269.74455691,4.325327094664398,-2.8748073329138086,0.0,3.9034,176,42,670.9652134480033,1747.7120063999998,mp-17777,Sr5As3O12F,https://materialsproject.org/materials/mp-17777,-28.77743074722623,-33.021764477382376,-7.242721947404517,-26.33483356338347
-7.982800972564102,-311.32923793,6.449572576007975,-2.629613159198718,0.0,0.6094999999999997,5,39,614.4236946219149,2386.43604,mp-1173563,Nb8Pb6O25,https://materialsproject.org/materials/mp-1173563,-19.060854147869787,-76.22321287843077,-2.0324314339305034,-76.29928203616005
-5.746519104615384,-74.70474836,6.631719651984401,-0.8381960119999996,10.347043699999999,0.03180000000000005,44,13,225.4356433985564,900.32570784,mp-37950,Na3(W2O3)2,https://materialsproject.org/materials/mp-37950,20.11524233287657,-33.767728748657454,-12.779618017106992,-30.353198440786475
-6.3170797950000015,-113.70743631,4.8342524352568095,-2.1437797644791683,4.00000015,0.0,140,18,433.70158868267197,1262.6158799999996,mp-16531,BaLa2FeS5,https://materialsproject.org/materials/mp-16531,15.956308671162406,-16.799409402811108,4.2375723139871715,-0.6405153341898807
-6.743971497884616,-350.68651789,3.8847506750323695,-2.6435154462912087,3.0000009999999997,0.5402,14,52,712.4605239600239,1666.766896,mp-561012,Sr3Cu3(PO4)4,https://materialsproject.org/materials/mp-561012,-25.63292802077385,-32.82904153211501,-15.253045144902835,17.643906152297284
-6.9221265857638885,-996.78622835,5.257636617576447,-2.228175442111112,8.5,0.4755999999999996,1,144,2136.848123421029,6765.73731136,mp-1076208,K5Na3Nb4(WO5)4,https://materialsproject.org/materials/mp-1076208,-31.447573660804487,-74.69725970618147,-22.212736401576656,-24.21186577877805
-5.065889841538462,-131.71313588,4.812331477144905,-1.6601820291553853,0.0,0.0,4,26,473.78099032022635,1373.0427999999995,mp-554401,BaCu2Te2(ClO3)2,https://materialsproject.org/materials/mp-554401,-29.62058800927309,-30.554382026599093,-19.283240275983342,-10.209434005282114
-4.74754595,-265.8625732,4.156260395076272,-1.5604577418390804,0.0,1.0432,113,56,1956.200835447648,4896.2896151999985,mp-1203593,Cs4Zr6BBr17,https://materialsproject.org/materials/mp-1203593,8.081824998602555,-0.378506580723418,-2.5413363543186134,-22.031445385543112
-5.5614034420000005,-166.84210326,6.682960221276523,-1.9189210627500008,0.0,1.5876,147,30,692.9762119199817,2788.9332,mp-27228,Tl6Si2O7,https://materialsproject.org/materials/mp-27228,-3.5513840019156766,-28.546332465217656,-24.351895139316426,-64.21745190660694
-6.562696491666667,-78.7523579,4.2596425607450525,-2.7610024072705954,0.0,3.3618,63,12,196.28783501642468,503.52084236,mp-560791,CsNaTiO3,https://materialsproject.org/materials/mp-560791,-6.641541814572076,-34.208233661758584,-5.6628498647095,3.0200767887515374
-6.120320421060606,-403.94114779,4.018809115061357,-2.1438858875852267,0.0039348,2.7408,43,66,1042.987378592137,2524.2208,mp-1204879,Sr4V2(Se2O7)3,https://materialsproject.org/materials/mp-1204879,-29.628629097990245,-32.400654851238215,-25.88803135210871,-51.28522127526536
-5.002414639615385,-130.06278063,6.953827242834003,-1.4635095044230768,0.0,2.5072,12,26,540.9204909465914,2265.2088,mp-1193128,Te2Pb3(BrO3)2,https://materialsproject.org/materials/mp-1193128,-23.684356384570478,-46.021797298196596,-14.316045089767027,-50.3762083362839
-7.081798366666668,-42.4907902,5.316550240269132,-3.612845799836668,0.0,4.069,129,6,118.91044396121175,380.71574,mp-23025,LaClO,https://materialsproject.org/materials/mp-23025,0.5876452239688762,-51.307670506594235,3.6418026353258477,-38.23919631102872
-5.549823902499999,-66.59788683,5.798784732703211,-0.9584140485344824,6.99856165,0.07350000000000012,125,12,458.49385443390617,1601.1109038,mp-1104966,CsGdTe4,https://materialsproject.org/materials/mp-1104966,15.146157017988482,-23.358907105391552,14.45112802602351,-19.647682296142424
-7.709956851818182,-84.80952537,4.8651937782652475,-2.9109872835172736,2e-07,0.07220000000000004,119,11,154.2630737740349,451.9735632,mp-1232354,SrNb2CuO6F,https://materialsproject.org/materials/mp-1232354,-29.826349851259085,-69.78144284155019,1.2529971197513434,-52.07798180186856
-6.88567257892857,-192.79883221,4.936865748542923,-3.2382441244328577,1.355e-05,3.5681,176,28,588.203940349982,1748.75978,mp-1211290,La3Ta(Cl3O2)2,https://materialsproject.org/materials/mp-1211290,8.271090636160798,-10.3929004150998,-11.963528825217296,-21.96339057210132
-7.857083909090909,-259.283769,4.546483169852821,-3.072502408333333,8e-06,1.1984,1,33,426.6139383258113,1168.0502800000002,mp-766433,Sr3Li4Nb6O20,https://materialsproject.org/materials/mp-766433,-29.98400247706068,-70.70182989079456,-1.5849400701682383,-54.21607240976826
-4.771670043,-47.71670043,4.708149665853205,-0.48403303195200004,1.665e-05,0.0,59,10,275.3045295991669,780.5748,mp-1245616,Ba2SrN2,https://materialsproject.org/materials/mp-1245616,-3.380317916109812,-28.404144601243,-26.434935108770933,-58.17085974830226
-6.342737485892857,-355.19329921,6.428015915931808,-1.9046253850892865,0.983575225,1.6715,14,56,784.4702828973179,3036.7172,mp-1208082,VAs2Pb2O9,https://materialsproject.org/materials/mp-1208082,-23.36863026736907,-45.61337168683204,-13.995069840333409,-48.52813758265631
-7.14633442,-85.75601304,5.457883269393455,-2.9881626926041664,0.0,1.3376,64,12,229.97594562238018,755.8882,mp-774472,PrSO,https://materialsproject.org/materials/mp-774472,0.2512622375711985,-50.506449304843855,4.475233482125091,-59.29064648327715
-6.222706733478261,-143.12225487,4.503559624780494,-2.657382513555902,0.0,2.9525,150,23,321.7520954430592,872.6261240000001,mp-1190181,Sr3Zn3Te(PO7)2,https://materialsproject.org/materials/mp-1190181,-7.7119858977563265,-43.49493845004866,7.9204926238026845,-35.385333080322546
-5.118617302,-51.18617302,7.0663656102558585,-1.5364846394999994,0.0,1.8805999999999996,63,10,207.19841883675332,881.7256,mp-1206466,SbPbBrO2,https://materialsproject.org/materials/mp-1206466,-18.27429000290781,-55.66263578157335,14.994851477914462,-64.02366176024226
-4.90691869625,-274.78744699,4.520591171156964,-2.17641599408867,0.0,2.2692000000000005,14,56,1392.0141466442014,3789.5687543999998,mp-562441,Cs3AlO3,https://materialsproject.org/materials/mp-562441,-6.545136794435612,-28.70208305101111,-6.3331746601761525,-29.817447708998962
-6.4183435110000016,-128.36687022,5.676360766545592,-1.758331548442,4.99999895,2.664599999999999,62,20,269.7604685126244,922.14498,mp-1176417,MnTeO3,https://materialsproject.org/materials/mp-1176417,-4.4675592362118985,-45.64212705818698,12.615547550762427,-20.201041870878765
-4.6927797,-56.3133564,4.898613848404764,-1.3663747783666669,0.0,1.1375000000000002,12,12,359.74168469198617,1061.2431,mp-1227985,Ba6Br2N3Cl,https://materialsproject.org/materials/mp-1227985,0.0488236264405391,-27.209613278830613,3.741539983799835,-58.592171139502526
-3.91167517,-46.94010204,5.959760720614857,-0.7222499378645839,3e-07,0.9482000000000004,12,12,347.5411475353393,1247.3431999999998,mp-542623,Tl2SnS3,https://materialsproject.org/materials/mp-542623,-0.6053225617776227,-22.667437023558346,-13.24634666778591,-29.594202006294307
-4.36593803875,-34.92750431,5.117375898013044,-0.4543407892968756,0.0,1.2788,217,8,230.78904851263462,711.2355,mp-1120735,VIn3Se4,https://materialsproject.org/materials/mp-1120735,25.04499532497219,-40.681321539640976,12.393200473385516,-18.351286673657796
-5.995103811527778,-431.64747443,3.4455561502116456,-2.6388325318510533,0.0,3.4339999999999997,14,72,1428.571203258235,2964.2316,mp-16194,Rb2SiO3,https://materialsproject.org/materials/mp-16194,-4.773428011876731,-33.36949599272195,-1.6991684403795049,-30.075489115581338
-6.3195220532638885,-910.01117567,6.104654645825289,-1.821883911180556,16.0,0.5568000000000004,1,144,2122.955679840569,7804.641108480001,mp-1099972,K4Na4MoW7O20,https://materialsproject.org/materials/mp-1099972,-31.65647883714632,-74.64263605516672,-22.359061935230933,-24.327492415016614
-6.304592295,-88.26429213,6.94704516180112,-0.013015481734285572,0.0,0.2838000000000003,176,14,341.6006102304456,1429.1231999999998,mp-1245769,V(PbN)3,https://materialsproject.org/materials/mp-1245769,2.402581286084309,-53.61690821529337,-20.931837099895326,-52.406584145342634
-7.1506757625,-400.4378427,5.361755526212682,-2.228986142385,1.5e-07,1.4182000000000006,62,56,1342.3873515065457,4334.46768,mp-559994,La6S4BrN3,https://materialsproject.org/materials/mp-559994,10.511782945461622,-6.4851790069704505,-5.7623496377283665,-23.226310444413514
-6.8322058865,-683.22058865,5.077385582379377,-3.0440901316500004,0.00188345,3.5585000000000004,55,100,1771.6193303454334,5417.0328,mp-1194795,Ba7GeB3BrO13,https://materialsproject.org/materials/mp-1194795,-23.640218379729003,-25.471092519589163,-6.634745545329473,-25.149645326200208
-4.0650139175,-16.26005567,3.19823625686496,-1.3316531230357145,0.0,1.6319000000000004,1,4,123.58847294160566,238.03423199999997,mp-635393,Ca2PI,https://materialsproject.org/materials/mp-635393,-0.005125123574957644,-26.719591119201542,-14.02302069679195,-25.584548400553217
-6.667082042307693,-346.6882662,4.555001771727393,-2.4798057769969217,4.99999945,2.7135,14,52,885.7620862128076,2429.72178,mp-558651,Ba2Mn(AsO4)2,https://materialsproject.org/materials/mp-558651,-29.63631899069441,-32.15323576484176,-22.183708895385948,-32.271081460491274
-4.72262797375,-226.68614274,4.609239452201996,-1.8838431599479168,8.0225e-05,1.6852000000000005,14,48,1389.72828837879,3857.5368,mp-1195568,Ba4InAgS6,https://materialsproject.org/materials/mp-1195568,0.2635356231722833,-22.990852188531694,-14.00517344778356,-27.892077229348477
-5.651565234444443,-101.72817422,5.929437895175954,-2.217610978472222,1.0586209999999998,0.0,139,18,258.8953524269427,924.4612,mp-1189753,Sr5Ni2BiO10,https://materialsproject.org/materials/mp-1189753,10.161666372516118,-68.11186851827952,11.947682627761068,-47.46612234780314
-6.730457381818183,-148.0700624,3.456069290546144,-3.0204099101363653,0.0,4.1749,4,22,322.3706037406506,670.9478771199998,mp-556806,BaNa2(SiO3)2,https://materialsproject.org/materials/mp-556806,-26.811408129630124,-25.79155436125984,-8.698486331829988,-10.02231308613728
-7.758913983125,-248.28524746,6.060403048053745,-3.3400804223242195,0.0,2.6013,57,32,503.63824546820257,1838.1084,mp-18466,Nd2SiSeO4,https://materialsproject.org/materials/mp-18466,28.968639526317855,-17.574047536926983,16.10067804465505,0.1530783751116929
-6.488633947916666,-934.3632885,6.0966878568568434,-1.9137236916666656,14.499999975,0.6614,1,144,2122.424795210186,7792.50662848,mp-1099948,K4Na4NbW7O20,https://materialsproject.org/materials/mp-1099948,-31.65348522811872,-74.64665922017154,-22.34999029102318,-24.31230701548085
-7.160651110833334,-85.92781333,7.435729408206295,-1.0841535889285725,3.025e-06,0.0,62,12,262.6101691599671,1175.9423359999998,mp-1103645,ThP2,https://materialsproject.org/materials/mp-1103645,15.518754152208405,-9.250972565722105,1.2544159240627244,-10.111361157153024
-5.89788423875,-141.54922173,5.2673530673302755,-1.8528309000781256,0.99999235,0.0,173,24,507.0443761228965,1608.3823899999998,mp-1191739,Sm3GaCoS7,https://materialsproject.org/materials/mp-1191739,12.38397632392939,-13.423600756695551,1.4516232899682606,-4.893130032875363
-6.493810868666668,-194.81432606,7.500864796575992,-0.6734064302222227,3.75e-06,0.0,127,30,422.9055854016662,1910.318,mp-1212823,Dy5(SiB4)2,https://materialsproject.org/materials/mp-1212823,30.048942296396714,-40.257766111096274,13.40360911587641,-19.525827150891192
-9.178327281666666,-385.48974583,5.873528685441727,-3.3389969564370765,34.00000585,0.0,176,42,599.7721161740867,2121.466972,mp-1212818,Eu5P3O13,https://materialsproject.org/materials/mp-1212818,-19.176449350837096,-33.866726493933875,-10.640190293079641,-33.9232859832168
-5.906660705833333,-141.75985694,5.008926194080375,-1.8494207509114584,1.0000078000000001,0.0,173,24,521.0351643526947,1571.67439,mp-1192335,Nd3GaCoS7,https://materialsproject.org/materials/mp-1192335,12.324187227151413,-13.808109423063831,1.049120474515125,-4.29619850517879
-7.631947413472222,-549.50021377,5.15967003816575,-2.9798186372743065,0.0,3.9887,144,72,881.558300468993,2739.20085,mp-559590,PrGeBO5,https://materialsproject.org/materials/mp-559590,-23.42964878635395,-36.142391586646035,-18.094734693626762,-30.700608789637588
-7.502824967826087,-172.56497426,5.005620427746888,-2.9449911531521757,15.0000491,2.5105000000000004,150,23,345.2121312513463,1040.6264800000001,mp-1190340,Ba3TaFe3(SiO7)2,https://materialsproject.org/materials/mp-1190340,-31.157376433281325,-31.95670356941979,-8.952241529137076,-25.953210952069945
-7.071384815833333,-339.42647116,5.915514501583059,-2.4540208145833327,0.0012136,3.2538,60,48,776.4611550091906,2766.07,mp-1213125,ErTl(MoO4)2,https://materialsproject.org/materials/mp-1213125,-51.180262365268355,-52.114701619933,-27.700742601788317,-55.17413261074029
-6.9440165671428575,-194.43246388,5.044302597056041,-3.0806456060400005,3.00002765,0.044599999999999966,176,28,578.066962501053,1756.0229600000007,mp-1213823,Ce3Ta(Cl3O2)2,https://materialsproject.org/materials/mp-1213823,8.248719408355482,-10.391585988097765,-11.973212344886475,-21.989694090683752
-4.4520013645,-267.12008187,4.253407220542888,-2.483070542994483,2.00000007,0.16370000000000007,120,60,1045.6227216036534,2678.322597,mp-1202342,CsCoF4,https://materialsproject.org/materials/mp-1202342,-56.5817538110917,-59.37812765673007,-21.918662185751373,-12.230417946166767
-7.751498355546875,-992.19178951,6.176302359830212,-2.833506635585937,4.999821375,1.0219000000000005,19,128,1727.3005829525216,6424.6190000000015,mp-705132,La5(Mo2O7)3,https://materialsproject.org/materials/mp-705132,-6.20504363975718,-71.93845745718617,0.39360733821856014,-32.539694979689976
-4.2075144325,-100.98034638,5.41335041724621,-1.7831588695312497,7.5e-07,1.3556,62,24,701.1530348787335,2285.756,mp-18008,Ba2HgS3,https://materialsproject.org/materials/mp-18008,3.0206204365689158,-8.329863364484734,-20.161643919702524,-34.05758957118013
-7.701929404583333,-184.84630571,6.4241824786937265,-3.2226750133091677,3.0,2.172400000000001,11,24,305.31506191259615,1181.18251,mp-1222623,LiLa3MnO7,https://materialsproject.org/materials/mp-1222623,15.852781278704915,-69.53346206244106,38.38411791026711,-42.00093039313041
-8.183380055714286,-229.13464156,5.8509824677854025,-1.0216735594897952,20.987889675,0.0,64,28,702.1751688470633,2474.145144,mp-1194348,Eu3GaP3,https://materialsproject.org/materials/mp-1194348,23.38336602173273,-9.611319603713275,-1.7045747487770422,-7.2528390504300475
-3.7104076402941177,-126.15385977,4.936214344794161,-1.5376276308823529,4.5e-06,2.3958,127,34,1421.385491083006,4225.292680000001,mp-768611,Ba3(YI6)2,https://materialsproject.org/materials/mp-768611,2.6153696164786613,-29.05021852711505,-6.494913095554613,-31.07202366209395
-6.421038963250001,-256.84155853,4.990060725074686,-2.4851438514062494,2e-07,1.1964999999999997,62,40,882.189810055003,2651.0552399999997,mp-561076,La3GaS5O,https://materialsproject.org/materials/mp-561076,10.518140856502594,-6.7739808593578985,4.486957578173633,0.8915765210299346
-8.324793994935067,-641.00913761,4.233405888193135,-3.2933274957088754,0.0,2.3992,8,77,1133.3624859059196,2889.4132,mp-1173098,Ba6Ti2Nb10Si8O51,https://materialsproject.org/materials/mp-1173098,-34.3024720263148,-55.63148294759637,-11.249016531511216,-23.49794879730844
-4.716002058333333,-226.36809879999998,7.283593829692071,-1.2900755510416673,0.0,1.9408000000000003,50,48,1065.8041474482552,4674.9184,mp-543028,Tl2TeO3,https://materialsproject.org/materials/mp-543028,-25.64083915898564,-63.88379885279261,-16.505964113409206,-63.26879820592816
-7.157284004999998,-143.1456801,4.462035478059541,-0.6918283843389986,0.0,0.6576,176,20,441.32229092227277,1185.8774,mp-1105268,Ba3Rh(CN)3,https://materialsproject.org/materials/mp-1105268,-27.01475834518444,-18.926806009320856,-14.719708941831934,-25.64889280382102
-6.254723972058822,-212.66061505,4.819589278948988,-2.643467220735294,3e-07,2.6358,12,34,470.07768010548347,1364.365,mp-543034,Ba3Zn6Si4TeO20,https://materialsproject.org/materials/mp-543034,-7.417999396756157,-43.548746319507764,-0.0128664594611033,-26.473369754570953
-6.107857477222222,-439.76573836,4.340724788337907,-1.9674039769097234,1.000000025,0.0,29,72,1202.1882661684676,3142.5749600000004,mp-1199322,La(SeO3)2,https://materialsproject.org/materials/mp-1199322,-29.8698744677575,-52.897824214728544,-24.33314243233548,-50.530183586781654
-7.067809748703703,-763.32345286,5.875654535905737,-3.0747187208333333,15.000002800000003,2.3348000000000004,127,108,1333.2204141319146,4717.46968,mp-554531,Li11La12Fe3O28,https://materialsproject.org/materials/mp-554531,12.561920149019265,-62.61084660849706,7.303972060042084,-45.778972043568274
-6.742996637222222,-121.37393947,5.249411170840677,-2.1584281330902777,4.22372995,0.0,193,18,399.82638941859085,1263.9589099999996,mp-1188428,La3MnS5,https://materialsproject.org/materials/mp-1188428,10.42954208270338,-8.566051275439522,-8.48094677092422,-11.5617257214547
-4.856986595,-19.42794638,4.773051764666743,-0.8637649000000005,0.70608865,0.0,164,4,150.16030802251888,431.62064000000004,mp-1065933,YI,https://materialsproject.org/materials/mp-1065933,25.75136057515716,-20.305695984816133,-10.926447166586897,-5.411476059775997
-8.298207276,-82.98207276,7.877378482738293,-2.79054024125,0.0,1.1348000000000005,146,10,111.38149893711989,528.37916,mp-1222423,LiTa2CuO6,https://materialsproject.org/materials/mp-1222423,-35.84599374223823,-78.03317605824911,3.8535410822654734,-56.20265922418711
-6.9123866777777785,-124.42296019999999,7.3066930970512125,-2.2063958126388883,0.0,1.7084,55,18,239.9135399443688,1055.6660000000002,mvc-3993,Ca2W2O5,https://materialsproject.org/materials/mvc-3993,-0.9332991400552086,-78.19761896313248,-24.14715890012445,-10.183631859325088