energy_per_atom,energy,density,formation_energy_per_atom,total_magnetization,band_gap,sgr,num_sites,cell_volume,weight,mp_id,formula,URL,tsne_cry_0,tsne_cry_1,tsne_xrd_0,tsne_xrd_1
-7.6322869,-68.6905821,6.2289958558203775,-0.3975474472222231,2.8458476000000004,0.0,189,9,142.1362476240654,533.179935,mp-1079806,TiMnAs,https://materialsproject.org/materials/mp-1079806,47.792081876402214,44.6938539172666,72.52450283844955,-1.5945471284416006
-9.754591036666666,-117.05509244,8.562439475587988,0.009080343750001182,3.3e-06,0.0,160,12,216.0087116848518,1113.832,mp-1215625,Zr3GeMo8,https://materialsproject.org/materials/mp-1215625,80.96375271977182,12.780878026249782,61.91969486132865,27.50192327708675
-7.762359156666666,-46.57415494,7.120925084135117,-0.3140328550000007,2.3745671,0.0,123,6,65.18891066629169,279.551,mp-1225186,Fe2Si,https://materialsproject.org/materials/mp-1225186,42.368563081067535,59.74359422400324,91.75041014790216,-8.727414511285652
-7.21726277375,-173.21430657,10.587364348121124,-0.5279720568749996,4.8916666666666665e-05,0.0,194,24,432.01372439695626,2754.4590000000003,mp-1191108,SmRh3,https://materialsproject.org/materials/mp-1191108,72.93364669533709,15.53522220751262,58.95765603701222,20.40071135347512
-7.304824811666666,-131.48684661,5.108219627078489,-0.48922261666666605,5.233333333333333e-06,0.0,3,18,249.84045036228352,768.5696399999998,mp-1220458,NbVSi4,https://materialsproject.org/materials/mp-1220458,41.49706280751673,39.42013765988931,59.30027404143636,-10.890393767768504
-5.432896475714286,-38.03027533,7.019379739428122,-0.006088800625001056,2.1219172000000004,0.0,1,7,115.08012912925044,486.46319500000004,mp-676089,Fe2CoSe4,https://materialsproject.org/materials/mp-676089,21.616269158686247,34.79488906061075,65.08775050233271,-20.38644938964396
-5.520343560909091,-121.44755834,9.634171278832266,-0.5718790368181821,0.00017445,0.0,229,22,342.4377395100399,1986.7668,mp-1190853,Er3(GaNi3)2,https://materialsproject.org/materials/mp-1190853,71.04530920720838,23.408488634572862,60.83724609043767,13.213541169652084
-1.6463854252631578,-31.28132308,5.986765477190472,-0.16649479526315786,6.2e-06,0.0,160,19,319.99470195909544,1153.6815386,mp-1227383,Ca2AlZn16,https://materialsproject.org/materials/mp-1227383,50.527122247349475,50.42816233596673,66.88762482861524,-4.539421220479693
-6.6946008866666675,-40.16760532,8.681695803462048,0.036256251666666614,2.09996075,0.0,194,6,71.69457134854409,374.83639,mp-1206973,FeCoGe,https://materialsproject.org/materials/mp-1206973,46.55733634809528,56.43353738504782,84.88724388470284,-2.5440851309230497
-5.9645786125,-167.00820115,8.260547063979757,-0.4808059003571422,14.373572400000002,0.0,63,28,449.8060475201792,2237.61317,mp-866782,Gd2(Ga3Co)3,https://materialsproject.org/materials/mp-866782,68.67736699420821,18.30543652422816,64.80283567223285,6.293051145353652
-5.851166355,-35.10699813,6.864718677716392,-0.20979623000000086,0.0684768,0.0,44,6,84.29160314091855,348.4640399999999,mp-1215977,YMg(CoNi)2,https://materialsproject.org/materials/mp-1215977,66.27675016940248,49.630086599444034,74.04418974940808,21.094541931368106
-8.220029230625,-131.52046769,7.577731732904342,-0.20552442979166766,5.867562825,0.0,82,16,156.32672470675254,713.3839999999999,mp-1181327,Fe3B,https://materialsproject.org/materials/mp-1181327,39.27064631996194,55.138077126338814,76.89082639542093,-12.054054663815222
-8.1923671,-49.1542026,7.610054794004069,-0.6730211266666674,0.0004668,0.0,191,6,97.81766829460042,448.28685,mp-1024974,YSi2Ru3,https://materialsproject.org/materials/mp-1024974,65.29915638215314,12.42561257094812,52.040258744985294,-9.502080527966376
-8.692888904,-86.92888904,6.5050736964704665,-0.475721742750001,9.699999999999999e-06,0.0,63,10,121.2397765288248,474.9504,mp-1079313,V3GeC,https://materialsproject.org/materials/mp-1079313,51.54494649823748,48.71275255594168,73.34668309112948,-3.3191290955957693
-7.129705515,-85.55646618,5.022908026286301,-0.8404226616666671,8.975e-05,0.0,62,12,174.51960980793473,527.8984280000001,mp-1103034,ScCoSi,https://materialsproject.org/materials/mp-1103034,48.42374686480504,45.365669737492645,66.99287366868336,-4.855169827188028
-9.4773047475,-75.81843798,14.486354545329954,-0.5057886324999998,3.5e-07,0.0,65,8,111.4909015637773,972.6339999999999,mp-1079131,VIr,https://materialsproject.org/materials/mp-1079131,54.41799377735853,41.5283919159595,72.69170913097057,15.306855523777859
-1.983321548421053,-37.68310942,7.363941082246383,-0.21981089131578924,0.0184075,0.0,166,19,313.9321074927976,1392.1850000000004,mp-542458,Ce2Zn17,https://materialsproject.org/materials/mp-542458,71.27689202250745,17.481320370495354,66.49397752511268,4.30248959275752
-8.301036236875,-132.81657979,11.041873985407817,-0.21078218229166626,20.493706600000003,0.0,6,16,168.8078558823688,1122.5,mp-1225266,Fe9B4Ir3,https://materialsproject.org/materials/mp-1225266,46.06944505327946,41.80811017215971,61.4124616224826,-8.77374924228523
-6.906500031666668,-41.43900019,15.257237450983725,-0.6948658322222224,6.6068007,0.0,216,6,113.96429557269623,1047.118,mp-1077596,EuInPt4,https://materialsproject.org/materials/mp-1077596,82.53890504281095,11.740277277597794,61.567745534359496,25.939047333302536
-8.294207843863637,-364.94514513,8.240252440745419,-0.09193956778409272,35.03923425,0.0,194,44,533.3171700859031,2646.53104,mp-1208084,Tm2Fe17C3,https://materialsproject.org/materials/mp-1208084,75.89425668402339,33.80829489591344,89.3412343320817,-24.45857772137495
-5.9056617650000005,-141.73588236,7.59448629896373,-0.003887338333332953,0.0,0.0,64,24,351.8088268491008,1609.0,mp-640708,FeGe2,https://materialsproject.org/materials/mp-640708,21.95235990397732,35.89929558087073,72.7922716878903,-16.896118879174413
-1.8527129571052632,-70.40309237,7.7871141065106615,-0.22908433473684206,0.0,0.0,194,38,612.837187822927,2873.9060000000004,mp-570071,Dy2Zn17,https://materialsproject.org/materials/mp-570071,70.95899662514503,17.439346420547732,66.39336287868365,4.3398513832188685
-6.335135171999999,-63.35135172,8.274152800955996,0.1411748193333338,7.41206805,0.0,127,10,173.25568574005356,863.3004000000002,mp-1084761,Cr2InPd2,https://materialsproject.org/materials/mp-1084761,92.87050625617519,12.61786427685863,64.97330302122931,9.377495473135363
-7.3436507925,-88.12380951,9.005515846938682,-0.2793860911111115,5.72080575,0.0,35,12,150.32554399631925,815.2527799999998,mp-1225877,ErFe2Co2B,https://materialsproject.org/materials/mp-1225877,73.61559875721939,25.845212916873283,61.19687476350094,15.831161173340524
-4.882815072142857,-136.71882202,8.886053686977633,-0.7061754164285716,7e-07,0.0,63,28,473.1869098373403,2532.16828,mp-1212406,Ho2(Ga3Rh)3,https://materialsproject.org/materials/mp-1212406,69.36667777476626,15.822653050515662,64.88686741269842,5.361267744637561
-4.616200031785715,-129.25360089,8.465454702269763,-0.4864222696428574,3.245e-05,0.0,63,28,443.03767215688555,2258.61317,mp-1193482,Dy2(Ga3Co)3,https://materialsproject.org/materials/mp-1193482,68.58841501432538,18.450108687354348,64.78320355316863,6.3957717282760775
-6.891555345,-27.56622138,6.639928015890495,-0.4299012091666672,0.0,0.0,225,4,43.70105273411089,174.74557199999995,mp-866152,TiBeCo2,https://materialsproject.org/materials/mp-866152,40.935475417505714,60.245047094457576,62.58197148367975,-30.34943258283123
-1.8614909515789475,-70.73665616,7.71963154923736,-0.2355443513157893,0.0,0.0,194,38,615.1187004827982,2859.607400000001,mp-30880,Tb2Zn17,https://materialsproject.org/materials/mp-30880,71.0326275252597,17.456415155248525,66.42370423125418,4.350019330591229
-8.121520756818182,-178.67345665,4.624522421806531,-1.128878132748918,0.23614095,0.0,12,22,329.60277846926937,917.928096,mp-1191079,Ti7P4,https://materialsproject.org/materials/mp-1191079,51.62965099762614,46.802687122616035,72.33083866566747,-4.867858144898991
-4.874382177857143,-136.48270098,8.93009856044071,-0.6992640350000003,1.025e-05,0.0,63,28,472.5851246134562,2541.483,mp-1213067,Er2(Ga3Rh)3,https://materialsproject.org/materials/mp-1213067,69.36397634660014,15.828976987382651,64.89424292311557,5.3525376297553935
-6.307086791666666,-37.84252075,6.0985928914226735,-0.7196782983333337,0.0,0.09280000000000044,70,6,84.42553282873054,310.0661544,mp-10910,Al2Ru,https://materialsproject.org/materials/mp-10910,40.96802567508017,38.85441992379685,57.65254808853629,-10.63175379020814
-4.23552273909091,-46.59075013,5.201688855917217,-0.4861968386363639,0.0,0.0,217,11,202.36024537357216,633.8996,mp-11285,Ca3(GaNi)4,https://materialsproject.org/materials/mp-11285,31.59688500797171,19.55764322515948,25.45336451709243,-53.47724615543529
-7.480572103448275,-216.93659100000002,6.920942246493565,-0.6143688718965519,2.26e-05,0.0,225,29,342.3151747600192,1426.73162,mp-672677,Ti6Co16Si7,https://materialsproject.org/materials/mp-672677,46.58101708589629,53.11009304537246,72.30354293375144,-12.784799560986654
-8.905159854761905,-187.00835695,7.886437029600914,-0.04673932892857075,5.3708504999999995,0.0,12,21,260.710851503621,1238.2001650000002,mp-1227057,Ce2Mn17C2,https://materialsproject.org/materials/mp-1227057,77.03727297744064,34.865097962890694,87.24639805873268,-24.54517217413229
-9.090032615,-254.52091322,7.8593570395779775,0.07867726232142859,3.2635412999999995,0.0,227,28,288.7283753180152,1366.55588,mp-1193506,Mn6C,https://materialsproject.org/materials/mp-1193506,46.11127561527139,54.40484157690647,77.72988518420871,-9.913705153655672
-4.064415345,-422.69919588,8.893486442286251,0.01586071201923125,9.45e-06,0.0,216,104,1460.550638546258,7822.392,mp-1213530,Cu41Sn11,https://materialsproject.org/materials/mp-1213530,54.53791773529192,52.862170373342494,80.28316290955681,2.903531223664312
-4.7774608855555565,-85.99429594,8.53960463940164,-0.568467083888889,3.3333333333333334e-08,0.0,191,18,285.2929203155714,1467.1674,mp-542992,DyGa3Ni2,https://materialsproject.org/materials/mp-542992,76.45798637003695,15.401120083081846,63.089521295452684,0.6811062360987562
-4.209254374285714,-58.92956124,8.039446070283898,0.04676631714285711,0.0,0.0,72,14,193.15349487264115,935.1464,mp-504746,Cu5As2,https://materialsproject.org/materials/mp-504746,52.21649986152709,52.70683058905093,73.98888652919509,-6.696639252270183
-6.342894271538461,-82.45762553,8.120215939016951,-0.10074758346153836,13.010741000000001,0.0,191,13,223.36639977798225,1092.2859119999998,mp-1103938,Sc(FeSn)6,https://materialsproject.org/materials/mp-1103938,67.21816232818945,15.501882013213866,58.865581900436055,18.227022974105708
-7.892077925,-94.70493509999999,7.423403174576799,-0.5815764766666666,3.510602825,0.0,62,12,166.36167031842126,743.71618,mp-22565,MnSiRh,https://materialsproject.org/materials/mp-22565,47.477540769198896,44.26219449922914,65.82392663405828,-7.647666123072691
-1.853789366842105,-35.22199797,7.772478216036345,-0.2301607444736841,1e-07,0.0,166,19,306.99559250253446,1436.9530000000002,mp-30964,Dy2Zn17,https://materialsproject.org/materials/mp-30964,70.956631013412,17.443382055363582,66.44651571339001,4.283290301898668
-6.212475300833333,-74.54970361,7.3474068081963635,-0.5518652591666667,0.0,0.0,62,12,131.5089471398906,581.8892,mp-1118,SiNi2,https://materialsproject.org/materials/mp-1118,42.752377465691474,55.18558681720804,76.13413220850299,-13.79734405772206
-5.082424315,-40.65939452,9.242090840423504,-0.060767370833333174,0.6222161,0.0,194,8,104.53215102646469,581.7964,mp-22469,InNi3,https://materialsproject.org/materials/mp-22469,48.06042508322512,57.28509099886297,83.23470011080781,5.003149027442339
-7.456800533333332,-67.1112048,4.623131520671496,-2.1482488674537032,2.4541777999999996,0.0,123,9,83.2946938092187,231.90200000000002,mp-971724,Ti2Si2O5,https://materialsproject.org/materials/mp-971724,29.23571454314675,50.875935466491114,69.95379846638065,-1.3941651949437377
-8.735192785625,-139.76308457,8.049519382915355,0.0662057740624995,18.800027800000002,0.0,1,16,156.42547463613604,758.2777999999997,mp-1096767,Fe11MoC4,https://materialsproject.org/materials/mp-1096767,39.62354232451607,55.958381626619705,74.95970333570763,-6.578347871778048
-7.7484054825,-30.99362193,7.8490185111272925,0.3514972653515622,0.11752280000000001,0.0,139,4,49.70568281607977,234.9483,mp-984712,Cr3Se,https://materialsproject.org/materials/mp-984712,47.4760983083498,56.60864829881599,82.51582463609091,-1.9543453584184127
-6.1711015794444455,-111.07982843,5.90870082516462,-0.43684476092592606,0.05517040000000001,0.0,193,18,291.2776227955677,1036.454,mp-30675,Ti5Ga4,https://materialsproject.org/materials/mp-30675,65.24888055149226,35.53699264955282,70.61536265325165,5.276723569800471
-8.01237318985294,-544.84137691,8.101770865676839,-0.10819153377451084,30.8790167,0.0,136,68,910.4255610378414,4441.9668,mp-5759,Tb2Fe14B,https://materialsproject.org/materials/mp-5759,72.29712031682483,32.23782512525125,83.98939741913325,-6.7141117697008665
-2.0827854756363635,-114.55320116,7.320691732915327,-0.1541183280909089,27.5451207,0.0,148,55,894.5456193284767,3943.715,mp-1227723,Eu4Zn51,https://materialsproject.org/materials/mp-1227723,34.229650518703444,30.099230376960982,69.24608930291123,-10.367087696243527
-7.136662053333333,-85.63994464,6.847216543576554,-0.3196428087499991,15.155589,0.0,38,12,144.8956208375323,597.47568,mp-1221824,Mn4Si3Ni5,https://materialsproject.org/materials/mp-1221824,47.75151024614292,53.85776887804845,78.4027159014369,-4.535684314128878
-5.39540142,-21.58160568,5.350993561328195,0.4529508362500003,2.3407909,0.0,71,4,53.665306493113114,172.93342859999996,mp-1015811,AlCo2Si,https://materialsproject.org/materials/mp-1015811,43.009622782112075,50.15785667750504,69.3174646254181,-18.022585364313482
-6.271121397999999,-250.84485592,7.339751896533669,-0.4430249182499999,5e-08,0.0,223,40,730.8960552301271,3230.6351,mp-704462,Y3Ge13Ru4,https://materialsproject.org/materials/mp-704462,64.1495308085879,-23.904825361817284,45.92442745493885,-6.3476517468954645
-5.345806298333333,-128.29935116,3.66929446313649,-0.25334384166666624,0.0,0.0,60,24,349.2972711102057,771.8424632,mp-505229,Al3FeSi2,https://materialsproject.org/materials/mp-505229,42.806233166944274,43.86232102546686,66.28844974410684,-14.94770129448626
-7.305385086666668,-65.74846578,7.94159907304888,-0.17387177166666687,3.1142613666666663,0.0,189,9,116.58080341039944,557.5526849999999,mp-1206397,CrCoAs,https://materialsproject.org/materials/mp-1206397,45.18678504472375,50.89275851664235,74.4864696219731,-12.735898433530028
-5.5045929827272735,-121.10104562,9.685895003535162,-0.5804647109090908,1.9600000000000002e-05,0.0,229,22,342.3322618298941,1996.81806,mp-1192294,Tm3(GaNi3)2,https://materialsproject.org/materials/mp-1192294,71.03775942755576,23.4548485365785,60.8326008221422,13.215626281457464
-8.05666799875,-128.90668798,7.3458059505456825,-0.3593462592857133,5.674043599999999,0.0,82,16,179.49374176353336,794.0350480000001,mp-18708,Fe3P,https://materialsproject.org/materials/mp-18708,43.45618828538605,54.122732288136596,77.26433698741415,-12.503811425464644
-7.0767553894117645,-120.30484162,8.060093592258513,-0.9299794547058824,2.2e-06,0.0,229,17,275.2429235323827,1336.002148,mp-541558,Sc4Ge6Rh7,https://materialsproject.org/materials/mp-541558,45.7027681658092,42.437945962110525,64.62827565064134,-9.652231711498292
-7.587636813888888,-273.1549253,4.254735390710756,-0.7890917664814813,1.25e-07,0.0,92,36,549.0102996722687,1406.708,mp-505527,Ti5Si4,https://materialsproject.org/materials/mp-505527,51.90225858563818,46.38934574970806,72.08415966052434,-4.134531422770653
-5.005999138571427,-70.08398794,7.660770633447775,-0.31801711428571416,0.0,0.0,140,14,242.68898845874344,1119.6272,mp-18127,Sr(Ni2Sn)2,https://materialsproject.org/materials/mp-18127,33.36053757574612,30.61921094705022,68.65534767280056,-9.941051890885722
-6.847459898888888,-246.50855636,12.501574365685961,-0.33978894499999984,0.0,0.13349999999999973,116,36,601.4740399719481,4528.272,mp-541844,Ge5Ir4,https://materialsproject.org/materials/mp-541844,34.97093004190646,33.268432072207986,57.94296331279671,-11.26094253132999
-4.2198623634375,-135.03559563,7.858656678552323,0.016567275312501014,0.0,0.0,220,32,448.9032681122468,2124.4768,mp-1966,Cu3As,https://materialsproject.org/materials/mp-1966,46.697699705503986,56.39780647790665,74.91191830002846,-12.901967922533634
-8.165735275,-130.65176440000002,7.3325595930210925,-0.3372725874107134,20.9798944,0.0,1,16,179.2018294713673,791.3141830000002,mp-1221826,Mn3Fe9P4,https://materialsproject.org/materials/mp-1221826,43.45325308165902,54.131895647565315,77.3090432462009,-12.716349334127694
-4.6404563844444455,-83.52821492,9.325879855604132,0.02070885388888952,0.05736985,0.0,160,18,270.20195996486115,1517.50182,mp-1216918,U(GaCu3)2,https://materialsproject.org/materials/mp-1216918,69.33216176650582,24.222626847879358,58.47997626431342,-17.176886826185807
-6.3725781525,-25.49031261,5.659700620396046,-0.4312156624999997,1.9463881999999997,0.0,123,4,49.2420809252701,167.8343172,mp-1221642,MnAl2Co,https://materialsproject.org/materials/mp-1221642,45.898434670749,60.19529597012321,89.40248916138437,-5.269293075760157
-10.00688147,-60.04128882,12.94038156671644,-0.1046526928566654,0.0019789,0.0,71,6,59.24590096257768,461.6962,mp-1246933,CrW2N3,https://materialsproject.org/materials/mp-1246933,32.015018105543426,40.63464336340907,51.04739815861014,-9.03259796466257
-8.022877665789473,-152.43467565,7.6511869632185165,0.04999010789473489,40.1543287,0.0,166,19,267.203371615025,1231.1803,mp-880,Pr2Fe17,https://materialsproject.org/materials/mp-880,74.95549736978515,36.95123028242807,86.88343052321356,-23.20216743193441
-4.063609053495147,-418.55173251,8.767560837324044,0.016482380097087773,6e-07,0.0,160,103,1469.4927046870807,7758.846,mp-1227576,Cu81Sn22,https://materialsproject.org/materials/mp-1227576,54.55196071227107,52.84733644690657,80.2377870763475,2.9943758303779053
-5.405190921666668,-32.43114553,7.38852564176556,-0.3870648512500008,5.9e-06,0.0,187,6,91.13733196100205,405.5132086,mp-1222984,LaAlCuNi3,https://materialsproject.org/materials/mp-1222984,74.76151452006914,17.967486242294523,86.88811069604272,-11.22269388071956
-5.039579459285714,-70.55411243,7.469161316110343,-0.3288659039285723,4.34e-05,0.0,97,14,238.3452777979749,1072.0852,mp-1218470,SrCa(Ni2Sn)4,https://materialsproject.org/materials/mp-1218470,33.23893176576548,30.79676998328457,68.25000076882874,-10.060677723713065
-8.968731555,-89.68731555,7.7516236940409735,-0.5600990756666662,1.745e-05,0.0,127,10,112.79864378811766,526.55952,mp-1086660,Nb2FeB2,https://materialsproject.org/materials/mp-1086660,59.669500292898,28.753193319592217,65.81746122470777,13.077271658211037
-3.54669912,-329.84301816,4.8438657437479815,-0.14651500903225745,0.008059633333333333,0.04739999999999967,191,93,1709.3848849776623,4986.351231600001,mp-1215019,Ca10Al2Cu19,https://materialsproject.org/materials/mp-1215019,41.140215772823964,35.972192805548616,61.6047739541776,1.1584902070825562
-7.803990106666666,-93.64788128,6.328480067770583,-0.5991511583333325,0.0,0.0,62,12,144.79830057786162,551.84078,mp-21371,VCoSi,https://materialsproject.org/materials/mp-21371,44.24096770092353,52.93520958373571,75.00181397835118,-10.495515526647788
-7.237152248125,-115.79443597,11.941826753388755,-0.25440139250000016,7e-07,0.0,25,16,200.60666643163933,1442.67012,mp-1218103,Ta4(CuNi3)3,https://materialsproject.org/materials/mp-1218103,49.887981342040824,67.40264477857338,72.71706109051239,-16.49382882427442
-8.299944374318182,-365.19755247,8.185805983321108,-0.08956401414772844,35.0774473,0.0,194,44,535.5051310772135,2639.8302,mp-1212962,Er2Fe17C3,https://materialsproject.org/materials/mp-1212962,76.13957837497351,33.80527382503407,89.32555370955791,-24.4933575139437
-5.861755004772728,-257.91722021,10.98413987957668,-0.16566213295454446,0.0,0.02090000000000014,62,44,631.2132836758159,4175.352,mp-7353,Hf3Cu8,https://materialsproject.org/materials/mp-7353,61.165916859814956,45.49133832523176,62.114535122525005,8.640004355113089