energy_per_atom,energy,density,formation_energy_per_atom,total_magnetization,band_gap,sgr,num_sites,cell_volume,weight,mp_id,formula,URL,tsne_cry_0,tsne_cry_1,tsne_xrd_0,tsne_xrd_1
-4.589399320357144,-128.50318097,4.545181308287235,-0.8733191105612244,1.25e-07,0.7994000000000003,14,28,911.3234227541659,2494.449144,mp-540923,Ba3SnP3,https://materialsproject.org/materials/mp-540923,0.017539097844007145,-25.030454214068573,-13.603050279576145,-28.775163228130854
-5.3922709504999995,-323.53625703,3.46984905672378,-3.6511315863508047,0.0,6.8327,140,60,901.8169738714156,1884.4295140000002,mp-13997,RbAlF4,https://materialsproject.org/materials/mp-13997,-58.98919049036263,-60.23530227129319,-1.8848464283826647,-7.3160752293931175
-6.8161353425,-81.79362411,4.3918472942822095,-2.79013151375,0.0,1.9833000000000005,12,12,284.11598232299036,751.4391280000001,mp-559760,ScIO,https://materialsproject.org/materials/mp-559760,-2.081624607161336,-24.18764329812609,-6.099466608870785,-26.754300330951892
-8.309805036363636,-182.8157108,6.734270065011063,-2.6242311246590933,0.0,2.4449000000000005,36,22,305.3511480567607,1238.34312,mp-1101376,Ta2Ge2O7,https://materialsproject.org/materials/mp-1101376,-34.18946896006094,-71.08462680151715,-26.050509607363114,-31.728076796051134
-4.254218328421053,-80.83014824,6.727783651137563,-0.4695240286842103,0.0030393,0.0,44,19,417.9274053594902,1693.2605,mp-640566,Yb8Si11,https://materialsproject.org/materials/mp-640566,32.150595261597324,-39.845478791050375,12.685965362369847,-18.54223365937693
-7.162537107142858,-100.2755195,7.416709845641687,-2.442497068331072,2.5e-07,2.0801000000000003,12,14,297.64245683564,1329.4043,mp-1104046,Tb3Se2NO,https://materialsproject.org/materials/mp-1104046,29.11671798881617,-18.993477057105792,4.36777848705075,-21.258649867962955
-9.041579858833334,-542.49479153,7.368318909849269,-3.2975989863750024,0.0,0.8316999999999997,58,60,912.9682817417649,4051.11912,mp-14880,La2Ta3(SO4)2,https://materialsproject.org/materials/mp-14880,-30.61894391851127,-55.458744413277394,-12.559866176097096,-52.90590861370928
-7.6616835153125,-490.34774498,5.42340047622557,-3.2936098549023445,0.0,2.5813,141,64,1030.3948487961784,3365.3192,mp-14835,Nd4Si2S3O7,https://materialsproject.org/materials/mp-14835,-21.001192804455965,-33.785173167089354,-9.029660560084196,-19.24646720646248
-6.99068801375,-167.77651233,4.4941376359284915,-2.958686325520835,1.0000004999999998,0.11129999999999997,15,24,374.19496600982666,1012.7336,mp-560805,Ba2CuSi2O7,https://materialsproject.org/materials/mp-560805,-25.38139277554635,-26.60175951345005,-7.843662204500013,-25.676519628460067
-6.064525748333334,-291.09723592,5.021825108376905,-1.9850610026041675,7.75e-07,0.02159999999999984,62,48,690.0236974958972,2086.7792,mp-542101,BaCu2Ge2O7,https://materialsproject.org/materials/mp-542101,-29.59886296606973,-29.118963721952486,-30.127720606703548,9.714901581828935
-7.405097634,-74.05097634,6.230832566186776,-2.7528155242500008,1.0,0.05900000000000016,11,10,140.19995247117956,526.0716,mp-1078398,CeAsO3,https://materialsproject.org/materials/mp-1078398,19.132247717887644,-35.61905584618177,8.123785902296099,-22.682700170575472
-5.778413672,-28.89206836,5.263411626501829,-0.6171851439999998,3.3e-06,0.0,44,5,117.59485975268228,372.7405,mp-1220308,Nd2Si3,https://materialsproject.org/materials/mp-1220308,23.61400168607824,-10.016931404136452,20.63037974175352,21.21039782311403
-4.31772391625,-34.54179133,6.491119648555941,-0.5504676042968755,0.0,1.6016,217,8,250.6831539584788,979.9314,mp-1025549,Tl3VSe4,https://materialsproject.org/materials/mp-1025549,-0.018765185779185737,-24.36681146829661,30.74722312226977,-64.71022691434084
-7.973559622000001,-79.73559622,4.9594800493396365,-0.7947591349280003,0.0,0.4882,12,10,160.61959697638838,479.71752999999995,mp-989643,LaCoN3,https://materialsproject.org/materials/mp-989643,-26.44093879471919,-27.99173917336199,-10.572881607034818,-22.482408096293906
-5.49580055375,-351.73123544,3.9752295397074913,-2.255820441393828,0.0,3.4292,62,64,1167.3499363639896,2794.5648,mp-554805,Sr3Se3(ClO4)2,https://materialsproject.org/materials/mp-554805,-6.8538812849124096,-41.01231235311037,4.0567615015062835,-27.04710417200985
-5.716363295714286,-80.02908614,6.039480542679224,-1.5228966228571434,0.0,1.7915,2,14,225.2727045388012,819.3303999999998,mp-557871,CuAsPbO4,https://materialsproject.org/materials/mp-557871,-25.432799314840192,-46.765333190979106,-19.976236533584174,-33.854433589598024
-6.956379034285715,-389.55722592,5.819096145072925,-2.103901968456429,2.875e-06,1.2843,62,56,1273.4330227912926,4462.5444,mp-559019,Nd6S4BrN3,https://materialsproject.org/materials/mp-559019,10.538503066622443,-6.378899407496122,-5.7789631963558525,-23.244425875603124
-5.908500787916666,-141.80401891,5.21394752906708,-2.886372812291667,0.0,3.5116000000000005,15,24,441.99599063642637,1387.8288,mp-779511,Ba2MgO3,https://materialsproject.org/materials/mp-779511,-9.181693262298687,-32.13794212538725,0.2088408769896524,-32.621164177868536
-5.794560904444443,-52.15104814,4.9899392162542355,-1.9021818726388884,4.2000000000000004e-06,0.0,99,9,142.96501439456011,429.6115386,mvc-16096,BaAlCuSbO5,https://materialsproject.org/materials/mvc-16096,6.283355340656768,-40.911367626471744,-3.7824890568152334,-24.24362629483368
-6.746495256666668,-40.47897154,5.354985944222472,-2.569939616041668,0.0001955,0.0,123,6,87.90808219866558,283.4902,mp-1236187,BaLiZrO3,https://materialsproject.org/materials/mp-1236187,0.4673376132359649,-58.074202356225136,-13.522051936077066,-66.1672025083959
-5.444349343269232,-283.10616585,5.381114931396557,-1.315692517884616,0.947609125,0.0,14,52,752.1037549697969,2437.2548,mp-1198006,TlCu2(AsO4)2,https://materialsproject.org/materials/mp-1198006,-30.747458631027946,-29.719801784492788,-5.0598296041574375,-29.33340864403997
-6.288757727777778,-113.19763909999999,5.239825256770642,-2.0414991567013896,3.0605792000000003,0.0,140,18,403.62407592672895,1273.6343900000004,mp-22288,BaCe2CoS5,https://materialsproject.org/materials/mp-22288,15.986631753706744,-16.758345539601798,4.348766375953524,-0.8213089381594507
-8.583120681290323,-266.07674112,6.9047302555583325,-3.0985568285080647,0.0,2.8355,12,31,469.3289152332897,1951.52868,mp-6238,Ba2Ta6Te2O21,https://materialsproject.org/materials/mp-6238,-34.33646641615889,-70.04603859174064,-22.75356478121829,-24.427111412947326
-5.664090360208332,-271.87633729,5.591165682500305,-1.667522758605,0.0,3.3930000000000002,62,48,915.469178732067,3082.4568,mp-561268,As3Pb2ClO6,https://materialsproject.org/materials/mp-561268,-23.351218963871194,-45.723903724842245,-14.010412476104642,-48.14375535434461
-5.898599741923077,-153.36359329,4.706496097655441,-1.8039702634615389,2.00000015,0.0,14,26,382.63691873767976,1084.5148,mp-17262,BaCu2(AsO4)2,https://materialsproject.org/materials/mp-17262,-30.32319548957446,-29.37110463712029,-30.69561170320705,9.319715968239297
-8.104414643461539,-210.71478073,7.000291633490074,-3.6245232470984616,6.900000000000001e-06,4.0516000000000005,6,26,423.72926936633576,1786.3045600000007,mp-1223220,La2ThTa(ClO2)3,https://materialsproject.org/materials/mp-1223220,-1.8256103240313808,-60.155076647475006,-1.087261815400348,-50.24473041514123
-5.816032575,-255.9054333,5.516117613099712,-1.572273117840909,0.0,0.4525999999999999,14,44,641.3048064951864,2130.34,mp-21560,CuAs2PbO7,https://materialsproject.org/materials/mp-21560,-23.739971024924213,-43.32552980028432,-20.056472313500162,-33.612234263284336
-7.117814795,-341.65511016,4.24873853463514,-2.715137877604167,6.000047625,2.7397,15,48,661.8492691381283,1693.4407600000002,mp-19203,BaCo2Si2O7,https://materialsproject.org/materials/mp-19203,-28.827550006572608,-28.349244798141168,-5.878947325570247,-25.10533192026497
-8.095891633076924,-105.24659123,5.3111770184494915,-3.4242311617948724,0.0,2.2343,115,13,177.25660007078116,566.9491399999998,mp-1223056,La2Ti2ZnO8,https://materialsproject.org/materials/mp-1223056,12.287293318696312,-63.63014530443505,11.213041397757397,-44.11999957128457
-6.743711823541666,-323.69816753,4.448314032340492,-2.530485251145834,0.0,0.0,62,48,645.9306639119478,1730.3432,mp-22407,BaCu2Si2O7,https://materialsproject.org/materials/mp-22407,-29.1452964602112,-28.509898682030915,-21.901988725930945,-14.837766923092714
-7.548417393076923,-196.25885222,6.520890618677423,-3.2968183211369233,0.98099875,0.0,176,26,415.6022716718792,1632.0585600000004,mp-1209877,Nd3Ta(ClO2)3,https://materialsproject.org/materials/mp-1209877,-1.7552664210776543,-60.11578525921665,-0.8111778147083593,-49.67352817533244
-5.9215307457142865,-41.45071522,6.086077928655749,-0.7287457896428567,0.2982621,0.0,44,7,157.06869309645455,575.6759,mp-1220236,Nd3Si3Ni,https://materialsproject.org/materials/mp-1220236,33.08350860088272,-39.15837939876325,12.186967172655187,-18.728212402072817
-7.259455454285713,-203.26475272,5.880104793026785,-2.848086997053572,0.0,3.0791000000000004,2,28,361.3164293652896,1279.45108,mp-703350,La2(GeO3)3,https://materialsproject.org/materials/mp-703350,-8.950367833347737,-47.48245674546813,0.3804526363388622,-32.42774154037339
-6.8474255388888885,-184.88048955,3.729986171615536,-1.2675253147614811,9.666666666666668e-07,1.9081,221,27,454.76963976409576,1021.5264,mp-1218347,Sr3(BN2)2,https://materialsproject.org/materials/mp-1218347,-24.250752342125896,-30.796942814690627,35.86049931805308,-39.96193988191429
-5.782311818636364,-127.21086001,7.409088856547651,-1.8411463804790908,0.0,3.0500000000000003,63,22,428.6748122145446,1912.6860000000001,mp-558673,Pb3WCl2O5,https://materialsproject.org/materials/mp-558673,-23.879579626359032,-45.96605853425078,-14.172031301533087,-50.203262376860934
-8.9895809525,-575.33318096,6.595807895283168,-3.504643363033855,5.91e-05,0.0,8,64,870.961658537952,3459.53672,mp-773060,Ba6Ta9Ti7O42,https://materialsproject.org/materials/mp-773060,-33.926281306187285,-56.45369252900551,-5.8296474912728815,-54.70807296606758
-6.240064561538461,-81.12083929999999,6.5768502807842895,-2.2923373554807704,0.0027346000000000002,0.0,123,13,179.37200343475303,710.4336500000002,mp-1208525,Sr2YCu2PbO7,https://materialsproject.org/materials/mp-1208525,10.483805889860264,-67.83183334623153,39.698215388553706,-49.99053061971676
-6.883871444166666,-82.60645733,6.565144025490008,-1.999030117864584,7.0000000999999985,0.20120000000000005,63,12,246.19044229256252,973.3439999999999,mp-1212752,EuLuCuS3,https://materialsproject.org/materials/mp-1212752,14.433885316487064,-19.014733739758604,6.263287177368968,0.04232027097714729
-4.700376377,-47.00376377,6.050642851390847,-1.2892574723749999,1.9999997,0.0,107,10,218.20534896046985,795.0928,mp-1228075,BaBi2Br2O5,https://materialsproject.org/materials/mp-1228075,-26.32560724503648,-55.51384772052409,-11.38995200490834,-59.56545932185311
-6.78811517,-81.45738204,4.701084361555502,-2.1323409211774997,12.4241855,0.0,25,12,194.79067440443143,551.463935,mvc-1378,Ba2Mn3O7,https://materialsproject.org/materials/mvc-1378,6.8140273853008475,-40.13472757097284,0.3992322955961628,-35.73335735486748
-5.827153646923077,-75.75299741,6.824211275937125,-2.103788047019232,0.6143094,0.0,123,13,195.4522540833399,803.23765,mp-1214583,Ba2YCu2HgO7,https://materialsproject.org/materials/mp-1214583,8.736803383581837,-65.2567287455405,10.878309829526104,-47.796829715562936
-8.623094091428571,-181.08497592,4.575391429553631,-3.2122625238576203,0.0,1.8972,8,21,277.95328514827895,765.8628000000001,mp-755526,Ba2Ti6N2O11,https://materialsproject.org/materials/mp-755526,-11.307046128118902,-20.541242557792216,-6.723663014962256,0.4869216386624025
-6.0115392283333335,-108.20770611,4.988235392953132,-2.019978829479168,3.0000002,0.0,140,18,425.0356535300679,1276.80099,mp-16451,BaPr2CoS5,https://materialsproject.org/materials/mp-16451,15.973538796537325,-16.780009406311898,4.2823254331800165,-0.6991002679478119
-5.3145508273529405,-180.69472813,5.737033805625756,-1.2642656815900732,1.00000015,0.1166999999999998,39,34,517.7425439768757,1788.7604,mp-1202656,CuBi2Se3O11,https://materialsproject.org/materials/mp-1202656,-24.86363485916564,-55.767021623741385,-17.564422573525604,-60.91174151986332
-5.311643256,-106.23286512,5.6456364794417455,-0.5589374279519994,0.0,0.015699999999999825,64,20,495.75535075392264,1685.5096,mp-1247232,Ba2SnN2,https://materialsproject.org/materials/mp-1247232,-1.5747386442245763,-30.018504002526374,2.2352592328574823,-33.912898553095744
-4.518490614166667,-54.22188737,6.778808766456883,-1.2313476695312495,0.0001134,0.0,36,12,264.54781724928404,1079.962,mp-1215739,YbCuPbS3,https://materialsproject.org/materials/mp-1215739,14.443572909828935,-19.13574906205663,6.206999661079915,-0.11305102608990915
-6.654938603055554,-239.57778971,4.430702102988707,-2.352709145890417,7.999999925,1.2417000000000002,62,36,641.7340256410998,1712.2947599999998,mp-1201675,Sr2Mn2SeO4,https://materialsproject.org/materials/mp-1201675,7.330397742217939,-40.0583683612342,4.883807121857015,-33.99172157237782
-7.757767213055555,-1117.11847868,5.6417112192605146,-2.654659345791666,3.4288287000000004,0.0,1,144,2081.4104487793848,7071.62939136,mp-1100247,K5Na3Ta5Nb3O20,https://materialsproject.org/materials/mp-1100247,-31.62994799611473,-74.44739049921941,-22.418133464390273,-24.26956685904883
-8.843404379333332,-530.60426276,8.131022324584693,-3.1176121848125007,0.0,0.9594000000000004,58,60,912.6652363853799,4468.9713600000005,mp-1210064,Nd2Ta3(SeO4)2,https://materialsproject.org/materials/mp-1210064,-9.742221996373958,-47.72419337509029,7.1736428328588095,-45.8627862514964
-5.032636439,-50.32636439,6.384827925239089,-0.7104178670000003,0.00010105,0.0,127,10,213.4372353462948,820.67328,mp-1205678,Ho2MgSi2,https://materialsproject.org/materials/mp-1205678,30.592872138348646,-39.068987067545,19.996522876276426,5.85061493181298
-5.405645442058823,-367.58389006,6.02652187487168,-1.5289328136029412,0.002663025,3.1026,15,68,1125.5125548691003,4084.7736,mp-1203659,Te5PbO11,https://materialsproject.org/materials/mp-1203659,-30.867435660942412,-56.820726021563466,-27.110847270431808,-53.32327229666997
-8.266900444782609,-380.27742046,5.551302217043871,-3.130328625380435,4.9997988,1.8448,7,46,653.575748635904,2184.95104,mp-1228654,Ba2SmNb4FeO15,https://materialsproject.org/materials/mp-1228654,-28.60982851813021,-70.24723093663333,-3.865845484468793,-55.144541982857035
-7.484980505454545,-329.33914224,5.463067537566099,-3.059200340568184,1e-07,3.5549,2,44,650.5739974448036,2140.3469600000003,mp-21532,La2Ge2O7,https://materialsproject.org/materials/mp-21532,-29.252452725249,-54.86026041881252,-15.688848623571685,-52.676502827723816
-8.314600253333333,-349.21321064,5.884192186265862,-2.4090674021726195,34.01637795,0.0,59,42,686.9001766223414,2434.0605999999993,mp-1202464,Eu5V3S6O7,https://materialsproject.org/materials/mp-1202464,-0.17819099383714465,-49.90227562244688,-2.809146368362456,-26.947011218081972
-6.19252422,-30.9626211,4.546801685504065,-1.6923309025833337,0.4315549,0.014399999999999746,123,5,85.1642052386016,233.1922,mp-19990,BaTiO3,https://materialsproject.org/materials/mp-19990,-52.27593115054965,-63.177561399896,-1.5366582878518076,-36.28396019564768
-6.6095678175,-158.62962762,5.190252829486955,-2.8475138921875014,0.0,3.2345,35,24,351.73075501544486,1099.3849,mp-1218050,SrPrGa3O7,https://materialsproject.org/materials/mp-1218050,-7.487846142094371,-43.9371068397304,9.13333684311598,-36.018880603892875
-6.812611126896552,-197.56572268,5.964833502947623,-2.4676331590948277,2.78e-05,0.0,149,29,413.879297385948,1486.69862,mp-766360,La6Cu6O17,https://materialsproject.org/materials/mp-766360,-0.8202296052793643,-49.98495328166475,-2.1909667605809986,-49.92164879502752
-4.118208289375,-65.89133263,5.535808994901428,-0.6383033611979165,0.0,1.4887000000000006,40,16,374.25593900625574,1247.6727999999996,mp-861942,Ag2GePbS4,https://materialsproject.org/materials/mp-861942,-0.5345981642252114,-19.121354490824565,-18.062805771251703,-36.835593065551436
-5.5578060315,-111.15612063,4.1767951719487515,-1.7457224714687505,1.00000025,0.4113,15,20,322.09151367269845,810.1648,mp-9640,SrCu(SeO3)2,https://materialsproject.org/materials/mp-9640,-30.23195308953618,-29.476633947163144,-29.34113974950904,8.055399030146027
-6.258534368636364,-137.68775611,4.790134449160349,-0.8928949960818183,3e-07,0.13309999999999975,12,22,560.6603124892927,1617.3292,mp-29082,Ba5CrN5,https://materialsproject.org/materials/mp-29082,-1.8167676023691024,-27.748024059879995,-7.097411113016713,-31.758068899343805
-7.3138513635714295,-102.39391909,4.827670714730902,-1.7336109537500002,13.999999800000003,0.2491000000000003,11,14,347.2840846113285,1009.6560000000001,mp-1104543,Eu2GeS4,https://materialsproject.org/materials/mp-1104543,-2.0864926525110707,-11.570334337149289,-19.306590687562625,-8.09028834531534
-4.317740053888889,-77.71932097,7.531415169056668,-1.2470489577777777,0.0,0.9027999999999998,125,18,321.7253625132475,1459.1932,mp-1147526,BaCu2(HgO2)2,https://materialsproject.org/materials/mp-1147526,23.80039309885057,-23.04623601003546,6.011572775271171,-4.272763204301493
-5.246001211538461,-68.19801575,7.456748451121693,-1.6972247417307689,3.6e-05,0.0,139,13,273.69710834514143,1229.053,mp-561172,BaBi4(BrO3)2,https://materialsproject.org/materials/mp-561172,-20.873049361171027,-55.51748568219963,-11.324277285934146,-60.248888380278615
-10.32081206818182,-454.115731,6.581335691221674,-3.0787865051988645,20.9605366,1.7664999999999995,33,44,731.5475677678136,2899.3959200000004,mp-510057,Gd3NbS3O4,https://materialsproject.org/materials/mp-510057,0.13034090704705886,-58.269546293353045,-5.51636466724637,-24.146572974144487
-7.519307833043477,-172.94408016,4.1249888197171725,-3.1227608793226094,7.9999991999999995,1.6095000000000006,5,23,305.45011670440533,758.77669,mp-19122,BaSr2Mn2(Si2O7)2,https://materialsproject.org/materials/mp-19122,-22.1371041825886,-32.57296431936531,-3.2972931546920736,-25.764927790221343
-5.4087958774999985,-151.44628457,5.669189250284227,-1.4059753132142856,2.5e-08,0.0029000000000003467,15,28,476.67332155586024,1627.394,mp-541202,TlCuAsO4,https://materialsproject.org/materials/mp-541202,-31.206248823902182,-29.953057758625835,-13.876807084662644,-27.16345679576882
-9.570048094,-95.70048094,6.9999680181452755,-1.2213212509279998,0.0,1.7100999999999995,11,10,173.06006766394972,729.53114,mp-989646,LaWN3,https://materialsproject.org/materials/mp-989646,-32.199081883829805,-54.2699501753845,-24.300314745478765,-31.932779497369108
-7.873082300980393,-401.52719735,5.439361105944165,-1.4571626925181695,0.00020569999999999999,0.0,174,51,710.6494532657001,2327.8459,mp-693655,Ba4Sm7Si12BN27,https://materialsproject.org/materials/mp-693655,-24.83363731306255,-30.294390934391114,6.683581000309268,-1.2731311091606807
-6.6539029825,-159.69367158,5.111002178146416,-2.879939884062501,0.0,3.2716000000000003,35,24,355.8836578281291,1095.38054,mp-1218197,SrLaGa3O7,https://materialsproject.org/materials/mp-1218197,-7.483124118200152,-43.91969797180597,9.022860877432754,-35.988003455689274
-8.130139316666666,-97.5616718,6.499345551396173,-3.230487710104168,0.0,2.1666,139,12,147.0091814920245,575.39356,mp-6259,SrLi2Ta2O7,https://materialsproject.org/materials/mp-6259,-33.453953339693285,-70.51825371040647,-26.07944121538599,-31.66809397375361
-6.660013523333332,-79.92016228,4.841267369281809,-0.9135449045833326,0.0002061,0.0,8,12,296.446481172148,864.28361,mp-1216139,Y4C4I3Br,https://materialsproject.org/materials/mp-1216139,25.948987577379857,-20.0713003490417,8.165353145759457,0.1787774285841075
-3.7582522785714287,-26.30776595,6.378213768897513,-0.5951172981696432,0.0,1.2589,160,7,204.1802279134438,784.2665,mp-9791,Tl3AsS3,https://materialsproject.org/materials/mp-9791,-3.3122667221538986,-28.641800469469572,1.689806891977329,-50.718056375029505