energy_per_atom,energy,density,formation_energy_per_atom,total_magnetization,band_gap,sgr,num_sites,cell_volume,weight,mp_id,formula,URL,tsne_cry_0,tsne_cry_1,tsne_xrd_0,tsne_xrd_1
-8.908279282999999,-534.49675698,7.849007449609978,-3.1609542938125004,3.5075e-05,0.8836999999999993,58,60,936.4253159247631,4426.27912,mp-1211581,La2Ta3(SeO4)2,https://materialsproject.org/materials/mp-1211581,-9.767746589315664,-47.729287402119034,7.1407752411381935,-45.83904797253707
-5.809930174444443,-52.28937157,5.600907411883111,-0.6780448283333335,0.5202145,0.0,38,9,212.6911136475649,717.3955,mp-1220181,Nd4Si5,https://materialsproject.org/materials/mp-1220181,32.707224926141556,-39.402913599023535,12.177117032152944,-18.599771784734045
-8.668274791666667,-572.10613625,5.930844744310253,-3.4716541603661617,0.0,2.2708000000000004,36,66,860.7187705548074,3074.17608,mp-677212,Ba3LiTa3Ti5O21,https://materialsproject.org/materials/mp-677212,-33.902434102082076,-56.360520205730026,-5.787791124364268,-54.63031275622103
-9.995859498571429,-69.97101649,7.0587683932446925,-0.4739532067857145,14.181180300000001,0.019199999999999662,65,7,87.26511891922655,370.9544,mp-28702,Gd2B3C2,https://materialsproject.org/materials/mp-28702,8.78278391623435,-58.25900367597392,5.270201515771801,-49.02311491769224
-5.267387244782608,-121.14990663,6.646007696303022,-1.7669419441304353,1e-07,0.0,139,23,300.4538781071329,1202.5123999999996,mvc-10565,Ba2Mg3Tl2(CuO3)4,https://materialsproject.org/materials/mvc-10565,9.446304126748242,-63.98195687291532,10.557086546560738,-45.33136227711822
-7.875716724722222,-1134.10320836,6.220154944082061,-2.6758134146805554,1.5338118,0.0,1,144,2075.8787489965853,7775.96139136,mp-1100141,K5Na3Ta7NbO20,https://materialsproject.org/materials/mp-1100141,-31.92615376338469,-74.31966512409564,-22.458758374894355,-24.297226090557665
-5.899443651666666,-141.58664764,4.6094107607189985,-1.859198596770833,0.481137,0.0,8,24,367.64768719494316,1020.5356,mvc-832,Sr2Cu2MoO7,https://materialsproject.org/materials/mvc-832,-36.2978472251105,-45.59006765000157,-16.93105449506114,22.14368272667029
-6.248758205263157,-118.72640590000002,7.355104305742683,-2.002563177763157,6.0753362,0.0,1,19,333.0266202920545,1475.0905999999998,mvc-3104,Ba2Ca2Tl2W3O10,https://materialsproject.org/materials/mvc-3104,5.894586133518815,-67.56402482428358,2.408586970893531,-34.095585189231485
-8.331979835384615,-108.31573786,5.263416007075046,-3.3554603244871783,2.9999999,2.0948,115,13,176.82202060324974,560.4733349999999,mp-1223127,La2Ti2CoO8,https://materialsproject.org/materials/mp-1223127,12.29684113120198,-63.61792248144668,11.190451551005983,-44.103232189943924
-6.77058703234375,-433.31757007,5.511552888813212,-1.9486412039762493,1.0000054,0.02430000000000021,19,64,890.4319805669041,2955.46376,mp-1198408,Ba2HRu3O10,https://materialsproject.org/materials/mp-1198408,-33.84969614969016,-56.21193936127085,-17.239112494889607,-21.354779460718362
-6.219453994615384,-80.85290193,6.516384691677168,-2.351206158557693,0.0041309,0.0,123,13,233.7661789847987,917.35895,mvc-2582,Ba2YTlSn2O7,https://materialsproject.org/materials/mvc-2582,6.458951617539452,-66.39415147846107,16.01644275587439,-70.92265296217936
-8.337218708125,-133.39549933,5.405777654954133,-3.4248982713775153,0.0001001,1.5095,8,16,236.53481815489067,770.0238319,mp-1228954,CsNd2Ti2NbO10,https://materialsproject.org/materials/mp-1228954,-28.825577715129594,-68.30156842125378,-1.6651940918809909,-50.62453849921806
-7.482168912727272,-164.60771608,5.529193752275245,-3.0563887478409097,0.0,3.7163,1,22,321.39673933137226,1070.1734800000004,mp-621945,La2Ge2O7,https://materialsproject.org/materials/mp-621945,-29.208538833950534,-54.827605136090106,-15.672238083681039,-52.67562867761014
-6.560035737333332,-393.60214424,4.427240120256762,-2.7628267095833325,0.0,3.3372,2,60,937.3447893675257,2499.0984,mp-554869,SrGeO3,https://materialsproject.org/materials/mp-554869,-8.427772637055725,-42.96337240840681,-2.723760826554237,-30.771246960667124
-8.958596684166668,-537.51580105,7.994146402846592,-3.076907468645835,2.01781255,0.02729999999999944,58,60,921.435506443392,4435.96336,mp-1214188,Ce2Ta3(SeO4)2,https://materialsproject.org/materials/mp-1214188,-9.756946097861784,-47.72645353788935,7.168435284945277,-45.856283176220856
-4.369474885000002,-87.3894977,5.165767502214777,-1.4448864097500007,5e-08,0.3680000000000003,62,20,643.698902874745,2002.4816,mp-17833,Ba3GeO,https://materialsproject.org/materials/mp-17833,-3.216222453112941,-28.51812456872563,-2.881100317377704,-32.848363720766194
-6.0023300609523815,-252.09786256,7.45963496970515,-1.8708931627380951,29.3106159,0.0,38,42,609.8435266064163,2739.5984,mp-1218820,Sr4Fe6Bi7PbO24,https://materialsproject.org/materials/mp-1218820,9.139979955773278,-67.64846541024032,11.749747323594661,-47.68923946094547
-6.31794551,-82.13329163,6.821566771763644,-2.260990459326924,5.4348049000000005,0.0,123,13,194.20566531344875,797.80534,mvc-2983,Ba2YTlCo2O7,https://materialsproject.org/materials/mvc-2983,9.057922396761203,-65.91845958265407,10.797721376046743,-47.97540941564337
-5.450378104583333,-130.80907451,5.500415287947357,-1.832584110625,2.0000005,0.0,69,24,343.08940433764815,1136.4588,mp-18713,Ba2Li(CuO2)3,https://materialsproject.org/materials/mp-18713,11.693431418478966,-18.438359549927565,6.0584293087220376,-21.694482345625147
-5.439929015500001,-108.79858031,6.244457481663159,-1.6730461287500007,1.0103149,0.0,139,20,359.06217492501173,1350.2533999999996,mvc-10741,BaTl(SnO3)2,https://materialsproject.org/materials/mvc-10741,-24.491859402343987,-63.92366720382413,-6.363446434955827,-57.72531248388303
-4.155726943611111,-149.60616997,6.519442437612881,-0.6754023126157409,2.5e-08,2.134,14,36,1203.4743685446922,4724.9608,mp-540940,Ti(TlSe)4,https://materialsproject.org/materials/mp-540940,8.389502122181959,-24.923941183637034,-13.870505717601139,-28.429860775723338
-8.127058634574468,-763.94351165,5.244509883269043,-2.238486165089573,0.00031805,2.9445,1,94,1383.8300577716134,4370.575,mp-677195,Nd10Si10BrN17O9,https://materialsproject.org/materials/mp-677195,-23.77669817961761,-30.2591726736409,-18.208458871429443,-28.53349777787488
-8.859387537272726,-97.45326291,6.53101478331538,-1.5272949551618185,7e-07,0.0,139,11,153.2237535293679,602.63961,mp-31054,La3(VN3)2,https://materialsproject.org/materials/mp-31054,18.18505723046303,-70.21760588645702,41.84600134007236,-45.20889923756449
-6.315829071875,-101.05326515,7.167617123907723,-2.421726520859375,4.7799999999999996e-05,0.0,139,16,238.1441283606889,1027.9348400000001,mp-1214673,Ba2La2TlCu2O9,https://materialsproject.org/materials/mp-1214673,8.822282590264198,-66.30364810816015,11.224055406881034,-47.95924378123769
-7.465072680535713,-418.04407011,5.879072412861911,-2.1114980472064286,5.489550125,0.0,62,56,1232.472653370362,4363.5204,mp-680421,Ce6S4BrN3,https://materialsproject.org/materials/mp-680421,10.581842135030504,-6.2788190606783525,-5.795559426460357,-23.285186610052115
-8.105693571410255,-632.24409857,6.997574251508647,-3.6258021750471783,0.0002317333333333333,4.1456,6,78,1271.6814509987582,5358.91368,mp-706869,La2ThTa(ClO2)3,https://materialsproject.org/materials/mp-706869,-1.8254365056691253,-60.156680163726314,-0.8561035780432985,-50.30147183649002
-6.048044400625002,-483.84355205,4.452824738174211,-2.01195359195575,0.000736225,3.5309,29,80,1180.903379449692,3166.65592,mp-733581,PrH(SeO3)2,https://materialsproject.org/materials/mp-733581,-30.00025943260565,-53.05301409972114,-24.165946296870302,-50.49712786639123
-7.608672864230769,-197.82549447,5.317007212465875,-2.3394242466346165,24.00000065,1.5023,36,26,393.4774492330165,1259.9056,mp-1193020,BaGdFe4O7,https://materialsproject.org/materials/mp-1193020,-3.3461987073098123,-44.41205144204264,8.03727769569689,-38.63671373821993
-6.960019409166668,-167.04046582,4.5482734594108365,-3.1635565080208345,0.0,4.004,15,24,371.10144397549556,1016.4596,mp-558629,Ba2ZnSi2O7,https://materialsproject.org/materials/mp-558629,-25.36229515425437,-26.563417481430626,-7.7274258983889625,-25.498832858419576
-6.292247434017857,-704.73171261,3.9064606643622906,-2.039294104034598,3.000050625,2.4771,62,112,1718.754828780506,4043.4148,mp-1197632,Sr2V3Se5O18,https://materialsproject.org/materials/mp-1197632,-30.66261294298457,-30.758809292538835,-33.101453529151826,9.979035053072415
-8.8424482825,-530.54689695,7.9879195078556915,-3.1141779703125017,0.0,0.9477000000000002,58,60,923.4703551886322,4442.29656,mp-6105,Pr2Ta3(SeO4)2,https://materialsproject.org/materials/mp-6105,-9.757273940074302,-47.727824773853904,7.1807102418158095,-45.857295984639215
-6.20617011,-31.03085055,5.35030961050665,-0.5772505189999997,0.8997956,0.0,44,5,113.12380552566299,364.4885,mp-1226801,Ce2Si3,https://materialsproject.org/materials/mp-1226801,48.256776854389685,-15.565734637181265,6.426819704161649,-9.975815673180923
-4.2459499225,-16.98379969,6.419833501414687,-0.5565361170312508,1.07e-05,0.0,38,4,101.67573521801779,393.09,mp-1219470,SbPbS2,https://materialsproject.org/materials/mp-1219470,4.02300233168479,-6.032021835625328,0.15212711294948147,-9.4745984111802
-3.886898349,-38.86898349,6.8576746168526475,0.5166512430000004,0.06208705,0.0,227,10,337.0717801424206,1392.0350772,mp-1212928,Er4Al,https://materialsproject.org/materials/mp-1212928,0.6453588981225317,-26.231568125811464,-1.4454829845389428,-36.34998959796284
-6.58019297,-85.54250861,5.685914353936147,-2.2766805593269233,18.0000005,1.0989,5,13,188.58552247742023,645.7428,mp-1104197,BaYbFe4O7,https://materialsproject.org/materials/mp-1104197,-3.149623434447851,-44.30674377903479,7.784832852215677,-38.89031610203917
-6.58089551625,-157.94149239,5.519079360582439,-2.579756849118334,4.999999900000001,1.6203,15,24,454.42603882361703,1510.3609800000002,mp-27443,Ba2MnO3,https://materialsproject.org/materials/mp-27443,-8.918468601563971,-32.24237165521282,0.3548139411460381,-32.562360750681954
-6.9978199690625,-223.93023901,5.931354463465697,-0.8757072205357144,3.2375e-06,0.0,1,32,718.4777671334662,2566.363216,mp-866691,La2PC,https://materialsproject.org/materials/mp-866691,-1.4562914234722677,-27.770485734870967,20.233115779112147,-18.12266320667773
-6.836169761875,-437.51486476,5.409310863034395,-2.3306704838020837,1.87625e-05,2.7869,33,64,999.9349217576026,3257.3512,mp-1208295,TiTlAsO5,https://materialsproject.org/materials/mp-1208295,-32.69375516081089,-30.619443803380317,-20.17815955952234,-29.62449452814363
-6.351211536666668,-495.39449986,5.409611638478487,-2.3969613168212818,0.00066865,2.7019,5,78,1330.996684772385,4336.0468999999985,mp-1173622,Pr5Te7MoCl3O23,https://materialsproject.org/materials/mp-1173622,-31.417789109464106,-57.116059011311634,-21.292083079702767,-55.66576914882347
-5.485975533,-219.43902132,4.398243702625408,-1.93248448746875,2.57e-05,3.7711,14,40,689.6290330224826,1826.6096,mp-1205399,BaZn(SeO3)2,https://materialsproject.org/materials/mp-1205399,-30.469423622847447,-30.19813046357957,-30.865024463835802,9.514839623336854
-8.236252820625,-263.56009026,6.014497350100847,-3.3218309621679696,2.5e-07,0.03230000000000022,11,32,486.2465750529027,1761.1924,mp-18082,Sm3Ti3(SeO4)2,https://materialsproject.org/materials/mp-18082,13.624596097347501,-17.97344927440562,16.015354593492724,-0.19236922549903895
-7.0127671161538485,-91.16597251,6.3367479130531175,-2.588472139326924,6.2167913,0.0,123,13,205.42844643789826,783.93115,mvc-2970,Ba2YTlCr2O7,https://materialsproject.org/materials/mvc-2970,8.463128533068907,-66.0720896528811,10.280428286166227,-48.52138979209158
-8.210475759285714,-459.78664252,5.875576527278144,-1.7068920484667862,5e-08,2.358,2,56,827.3700529335147,2927.5289199999997,mp-1223370,La8Si5N14O,https://materialsproject.org/materials/mp-1223370,14.274533416417148,-65.81717214492457,0.23416825032181826,-31.8298124849002
-8.614514378095237,-180.90480194,4.556200352492059,-3.203682810524286,0.0,2.1394,8,21,279.12404641909967,765.8628000000001,mp-776466,Ba2Ti6N2O11,https://materialsproject.org/materials/mp-776466,-11.298079111331385,-20.55444978974873,-6.703689248280864,0.5206293485051606
-7.00397609375,-168.09542625,4.429748089567325,-2.9719744055208346,0.9999995,0.18049999999999988,113,24,379.6341565969279,1012.7336,mp-11613,Ba2CuSi2O7,https://materialsproject.org/materials/mp-11613,-25.39465955973157,-26.574541338865462,-8.7843091616715,-25.766530809710602
-6.884296424166667,-82.61155709,6.369281740156393,-2.007403522864584,6.99999995,0.2505999999999995,63,12,250.61543983141843,961.2784199999999,mp-12728,EuTmCuS3,https://materialsproject.org/materials/mp-12728,14.430993442799757,-18.993548095723575,6.2971636208423805,0.1004803642872918
-5.4078125965217385,-248.75937944,3.866449834324283,-0.6730324588608695,0.007942,0.014199999999999768,136,46,996.4291172555569,2320.116,mp-1246141,Sr11(SiN5)2,https://materialsproject.org/materials/mp-1246141,3.7140601061619543,-33.304924609950945,0.6064162231366452,-34.77557883842693
-6.691327368333333,-40.14796421,5.5442046461384376,-1.7632544022933334,6.99999925,0.3109000000000002,129,6,112.86992055662472,376.84988,mp-1070860,EuHCl,https://materialsproject.org/materials/mp-1070860,48.16698792830966,-15.552202471025133,5.828592357562621,-9.306761853488032
-4.7721579985,-95.44315997,4.766678016794439,-1.4895221872469997,0.0005591,1.0459,166,20,580.0328598596241,1665.0195,mp-1228725,Ba10BrN5Cl4,https://materialsproject.org/materials/mp-1228725,-0.003050855055733225,-27.06842435570098,3.811974935904938,-58.567305894698976
-6.0381047528571425,-84.53346654,8.673704625818058,-1.8188186555900003,7.45e-05,0.7254000000000005,99,14,226.17897730391627,1181.4294000000002,mp-1227566,Bi3PbWClO8,https://materialsproject.org/materials/mp-1227566,-18.80406808416648,-56.21593182722825,-9.658921770239962,-60.370256816738426
-6.009701817222222,-108.17463271,5.111104330039815,-2.0222716144791684,3.00000015,0.0,140,18,419.1511315874581,1290.13839,mp-6080,BaNd2CoS5,https://materialsproject.org/materials/mp-6080,15.977172714607182,-16.775594759939903,4.287843014695579,-0.7065445245703569
-6.808622609375,-326.81388525,5.296412212344563,-2.3118941693750004,0.0001671,1.5118999999999998,64,48,655.9403150924148,2092.1702,mp-1194912,YV(TeO4)2,https://materialsproject.org/materials/mp-1194912,-33.96981179952208,-58.381980436965826,-8.185555183930923,-49.83485130262248
-5.269976025714286,-36.88983218,7.01163574784273,-0.7485865860119054,0.320256,0.0,47,7,159.61190581364897,673.9622,mp-1233009,BaLiTi2Bi2O,https://materialsproject.org/materials/mp-1233009,3.9934142900248553,-31.796033730079394,-0.35363026319877416,-35.56022647977065
-5.7318891645454535,-126.10156162,6.179908544167159,-0.5967001722727274,0.00710625,0.0,12,22,447.2773236240023,1664.5998,mp-1217739,Tb4Si7,https://materialsproject.org/materials/mp-1217739,48.35849176471777,-15.520655399349772,6.383631879499049,-9.932751448035773
-6.108477333333332,-54.976296,7.356800827201334,-2.3074815234722226,3.04e-05,0.0,99,9,129.66228297973132,574.45177,mp-1218170,SrLaTlCuO5,https://materialsproject.org/materials/mp-1218170,9.4547128975795,-66.99661923291188,11.28115276658483,-47.87687997410911
-6.9013378663636376,-151.82943306,5.7312224073936235,-0.9444077222727274,1.4653817,0.0,2,22,491.5183295085184,1696.4376000000002,mp-569330,Ce4C4Br3,https://materialsproject.org/materials/mp-569330,26.71277360194541,-20.520688758061194,15.133535090803006,-24.133020429916503
-5.704103330714285,-79.85744663,6.468976829264798,-1.5345978557142854,0.030625599999999996,0.0,88,14,212.62604749942983,828.3292,mp-759541,Ba(PdO2)2,https://materialsproject.org/materials/mp-759541,5.870414156210655,-62.609434719588954,4.1376161885607035,-33.74355850592873
-6.447650197777778,-232.11540712,4.814460933367847,-2.2138805001215283,0.0,3.0672,14,36,563.1956741352943,1632.8936,mp-556779,BaMoSeO6,https://materialsproject.org/materials/mp-556779,-29.844724279567213,-32.11666541479941,-21.664975246000942,-12.927528562394233
-6.920047277708334,-332.16226933,5.414310275877348,-2.882739774886667,0.0,3.6757,13,48,809.2122645094428,2638.4963999999995,mp-556908,Nd5As4(ClO4)3,https://materialsproject.org/materials/mp-556908,-12.179540545300044,-45.54802770110326,-2.495148978483424,-50.84129420555618
-3.5055235425,-14.02209417,5.2292124062040815,-0.4936123978645837,1e-07,0.6263999999999998,1,4,121.72704787220871,383.3313,mp-632539,TlInS2,https://materialsproject.org/materials/mp-632539,-1.1165592642465296,-22.992797548809644,-9.219525088241449,-29.96429854650605
-6.7993788240322575,-421.56148709,5.365995801232539,-2.834079539045323,0.00011100000000000001,3.7732,2,62,1054.5531579933859,3407.7656,mp-1197266,Nd7Se4Cl3O17,https://materialsproject.org/materials/mp-1197266,-13.071401701170958,-59.34918717588653,-15.637988438710163,-52.89673647135422
-2.909126144285714,-40.72776602,6.753422037503247,0.031716176071429104,0.41876015,0.0,136,14,361.29806639644966,1469.40136,mp-1104704,Pt(I2O)2,https://materialsproject.org/materials/mp-1104704,8.883256726784518,-0.7715873169034672,-3.1804627639289973,-19.872324037626054
-3.5701432559375,-114.24458419,7.124289523771237,-0.5863370393359375,0.0,0.6965999999999992,130,32,962.5683693886763,4129.7528,mp-9622,Tl4SnS3,https://materialsproject.org/materials/mp-9622,-0.19358065960863366,-25.52925647855534,4.240506728886982,-34.199823835911864
-5.261268263333333,-63.13521916,6.2273891812725655,-1.3154889453645833,0.0,1.1677999999999995,11,12,317.94687470729735,1192.3712,mp-1102830,ZrTl2S3,https://materialsproject.org/materials/mp-1102830,-1.1341264292988769,-22.712647374406515,-15.855919316655116,-31.27374304726493
-4.918808725,-39.3504698,6.668227002324492,-0.8107911569140622,0.0,2.5102,42,8,253.04373389075275,1016.1477800000001,mp-1217825,TaTl3(SeS)2,https://materialsproject.org/materials/mp-1217825,-0.4940218811334796,-24.23658441916912,31.00447929942025,-64.60129663115211
-6.987425562916666,-167.69821351,3.926150130161985,-2.9955139246875007,0.9999998,0.15879999999999986,113,24,344.23595096167725,813.9056,mp-15748,Sr2CuSi2O7,https://materialsproject.org/materials/mp-15748,-22.410882402365466,-32.080270346824484,4.16319262075127,-33.63691415090388
-6.550662360769231,-85.15861069,5.737632075555007,-2.247149950096156,18.0000001,0.0,82,13,186.88565510628158,645.7428,mp-1104863,BaYbFe4O7,https://materialsproject.org/materials/mp-1104863,-3.149685222487931,-44.42799192270268,7.960740390902036,-38.99348023560568
-6.03200874125,-193.02427972,5.384485112328306,-1.7337925065429696,2.3e-06,2.4252,33,32,511.04689723174164,1657.1272,mp-1208048,TlVSeO5,https://materialsproject.org/materials/mp-1208048,-32.784982577502504,-31.20436889449204,-27.720682487636523,-51.33681658121826
-6.1953668760000005,-30.97683438,4.531152075125613,-1.6951735585833334,0.033835199999999996,0.0,38,5,85.45834381706403,233.1922,mp-995191,BaTiO3,https://materialsproject.org/materials/mp-995191,-52.26000244406056,-63.146083663089065,-1.5516065753162898,-36.265333460246595
-5.661171391,-56.61171391,4.961191251485278,-2.509447143152,0.0,2.8872,63,10,218.5888017570052,653.0776000000002,mp-545500,BaSbClO2,https://materialsproject.org/materials/mp-545500,-2.200368130567385,-23.978661169712762,-7.2758871250432735,-23.81018227801887
-7.619996781166665,-457.19980687,5.479197400117981,-3.3824113911446663,0.0,3.6846,59,60,1143.967598853258,3774.6925200000005,mp-559822,La2TaCl3O4,https://materialsproject.org/materials/mp-559822,-31.696493221674682,-34.37401242996015,-20.658059946901513,-29.374939073793374
-5.911481790000002,-41.38037253,5.95753388058201,-0.7107314557142855,0.0113089,0.0,44,7,157.66957773495673,565.6728499999998,mp-1219833,Pr3Si3Ni,https://materialsproject.org/materials/mp-1219833,33.08413540878906,-39.14425178650739,12.14670799330526,-18.65245989657247