energy_per_atom,energy,density,formation_energy_per_atom,total_magnetization,band_gap,sgr,num_sites,cell_volume,weight,mp_id,formula,URL,tsne_cry_0,tsne_cry_1,tsne_xrd_0,tsne_xrd_1
-10.070839576666666,-120.85007492,16.00445193912611,-0.2524643766666657,0.000100675,0.0,194,12,223.97470122500238,2158.692,mp-1102143,ErRe2,https://materialsproject.org/materials/mp-1102143,81.65329571756936,11.412807227523892,59.90140835366489,26.07190707446074
-8.791192370000001,-184.61503977,7.879544026371237,-0.04876937964285757,4.9999982,0.0,12,21,265.2565719759059,1258.688165,mp-1219352,Sm2Mn17C2,https://materialsproject.org/materials/mp-1219352,77.20437868630613,34.684819574584644,88.02386923745779,-25.370741523402337
-8.068717657777778,-72.61845892,6.909405279267457,-0.904991908368056,4.34e-05,0.0,12,9,165.00639389737032,686.5819,mp-1220382,Nb5(SeS)2,https://materialsproject.org/materials/mp-1220382,40.29088085526959,26.401770855605374,61.59556716553888,1.3437810561869337
-6.675995363999999,-100.13993046,7.24124670089908,-0.7621559480000002,3.91e-05,0.0,115,15,261.5011077429318,1140.3490000000004,mp-1215378,Zr4Ni3As8,https://materialsproject.org/materials/mp-1215378,61.20772553748333,35.32316693803345,69.43813233279329,-0.8656292926086298
-7.2806048145454545,-80.08665296,6.1532244569072985,-0.525501608961039,4.5314592000000005,0.0,187,11,125.73166915886637,465.906048,mp-758594,Li(Fe3P2)2,https://materialsproject.org/materials/mp-758594,39.56037153738974,48.993941495238104,69.84819648150904,-19.256562032921398
-7.3637167025,-88.36460043,11.279838245747671,0.037989474166667016,2.75e-07,0.0,62,12,193.80299502107783,1316.48,mp-1101810,Ge2W,https://materialsproject.org/materials/mp-1101810,35.46909168226497,33.11882083458593,58.764411727933606,-10.638047041225107
-5.3087148227586205,-153.95272986,9.75945480080955,-0.5407401737931037,0.000132,0.0,225,29,471.02698147800214,2768.3579999999997,mp-1193532,Ti6Ga16Pt7,https://materialsproject.org/materials/mp-1193532,44.44189825496735,41.05788156889268,60.25516331632521,-11.68811076492508
-5.504187558461538,-71.55443826,7.951348868086679,-0.35403830600961544,0.0049882,0.0,119,13,173.29131310730494,829.7905999999998,mp-1220083,Ni9(SnS)2,https://materialsproject.org/materials/mp-1220083,44.10457919181013,49.78457450604634,73.29650708192978,-14.913024077448911
-8.425305025,-67.4024402,7.591181223487082,-0.4997356133333337,0.01225475,0.0,26,8,75.96319911577477,347.267,mp-1216407,VB2Ru,https://materialsproject.org/materials/mp-1216407,57.417184119001405,27.624445317571414,67.12905213133921,11.944771168958907
-8.297919130980393,-423.19387568,8.232824431759134,-0.4455300053921569,5.3400000000000004e-05,0.0,164,51,869.8464134865169,4312.6314,mp-1204207,Nb10Ge7,https://materialsproject.org/materials/mp-1204207,65.17078853708585,32.96280075313857,70.25190775698458,5.2982082929903545
-6.4748645960000015,-32.37432298,6.95534735709748,-0.5188995070000004,0.0,0.003099999999999881,139,5,92.51235400419151,387.49800000000005,mp-19791,Ca(GeRu)2,https://materialsproject.org/materials/mp-19791,31.505438390481725,18.70744183495596,19.793023214705862,-55.173700209653866
-7.670430565833333,-184.09033358,7.919178622240072,-1.0237862770833328,7.4666666666666675e-06,0.0,194,24,406.1223492598429,1936.8141,mp-28352,YSiRh2,https://materialsproject.org/materials/mp-28352,66.36922871986663,13.063653434247403,57.68687851053366,17.115785634057758
-5.280849966666667,-95.05529940000001,5.766675133330909,-0.5389834416666667,0.0006727,0.0,156,18,305.8918834844494,1062.2930720000002,mp-1219410,Sc3(Ga2Ni)2,https://materialsproject.org/materials/mp-1219410,47.82224236626534,44.64637494572341,63.706270946912696,-8.725158089653196
-6.7880920200000014,-67.8809202,3.0779183671646906,-2.0862811970000013,0.0,5.1935,20,10,90.97481210564192,168.62779999999995,mp-546079,MgCO3,https://materialsproject.org/materials/mp-546079,-32.774542778210964,48.98660106271999,-6.118835620526383,51.41320928559814
-9.339353938333334,-112.07224726,16.533781290517183,-0.32641202166666616,2.2100000000000002e-05,0.0,194,12,218.1246410161501,2171.84,mp-1102508,DyOs2,https://materialsproject.org/materials/mp-1102508,80.97278989185638,11.396542996748753,60.46339271592859,26.747718664340052
-8.016833586764706,-545.1446839,7.736730465215527,-0.06207101340686282,60.92744445,0.0,65,68,926.3988635181507,4316.248,mp-1227197,CeNd3(Fe14B)2,https://materialsproject.org/materials/mp-1227197,71.82061476633534,32.460117326719306,84.30387762803879,-6.724155514249534
-3.9458914741666655,-94.70139538,2.5535110579237967,0.205764955833334,9.725e-06,0.0,2,24,418.66602259148056,643.808,mp-1073326,MgSi2,https://materialsproject.org/materials/mp-1073326,39.81502741100624,24.703000902271533,60.15568272487828,2.988571936518323
-9.4044878475,-37.61795139,7.536417657300709,0.3513248400000002,1.4e-06,0.0,139,4,54.84029041144422,248.89468,mp-999392,NbCr3,https://materialsproject.org/materials/mp-999392,56.060367340810004,51.646862173415755,80.76032983770062,2.438977353306338
-6.563215008095237,-137.82751517,9.173923315848516,-0.3589829440476197,2e-07,0.0,65,21,267.906338947133,1480.0929999999996,mp-28147,Er4Ni13C4,https://materialsproject.org/materials/mp-28147,56.113502286737344,30.244340127526485,61.206179002864744,8.623931224227407
-8.776911746309523,-737.26058669,10.463855754660745,-0.5980430775,0.003910325,0.0,62,84,1196.8591014805488,7541.98528,mp-1208764,U2Si7Ru12,https://materialsproject.org/materials/mp-1208764,61.8205217966104,21.027914281046353,61.855588932901895,9.613645399590476
-3.897718953181818,-85.74981697,2.4847240736225435,0.13815013727272688,0.007956699999999999,0.0,6,22,392.7173202881413,587.637,mp-1074174,Mg4Si7,https://materialsproject.org/materials/mp-1074174,38.86310806977973,24.535766078734568,58.63188431978673,2.182988486354059
-7.6178083975,-30.47123359,7.396410845853068,-0.4549191775000008,1.15e-06,0.0,63,4,67.31472890391716,299.8348,mp-556,ZrNi,https://materialsproject.org/materials/mp-556,66.47681852951511,33.50359756304774,66.81353033959014,-0.19580692297948746
-3.9922902091666663,-95.81496502,2.5654544679972515,0.1593662208333336,5.1125e-06,0.0,2,24,416.71693323752464,643.808,mp-1073672,MgSi2,https://materialsproject.org/materials/mp-1073672,38.96735611214071,25.05553564187021,60.12114148167874,2.53451798668842
-7.666547140689657,-222.32986708,8.154009848257308,0.018770261206895088,52.1491525,0.0,225,29,445.2933501110266,2186.5950000000007,mp-1193555,Sm6Fe23,https://materialsproject.org/materials/mp-1193555,70.88782891914725,28.53279393619761,62.406577728021816,11.756027105495793
-3.5975981595833333,-86.34235583,5.590301453921978,-0.24362531708333302,2.65e-06,0.0,15,24,403.28569036686446,1357.68478,mp-571626,Mg3Ga7Co2,https://materialsproject.org/materials/mp-571626,45.338279128152884,43.58872286007933,64.18015045358352,-11.157690469866171
-6.085166545,-36.51099927,14.85907308677698,-0.7913573130555551,0.00010640000000000001,0.0,216,6,115.782512652341,1036.06165,mp-1077228,PrInPt4,https://materialsproject.org/materials/mp-1077228,82.87909182596131,11.460013819950946,60.71786143010976,25.189368318243513
-8.197878605365856,-336.11302282,8.189925257182402,-0.06177335893292826,75.24583179999999,0.0,2,41,527.9301411860894,2603.7981,mp-1225867,Er4Fe34C3,https://materialsproject.org/materials/mp-1225867,75.50037542315623,34.301498663341576,87.83059720646706,-23.989336387590235
-7.562083478333334,-45.37250087,7.6153651374256075,0.006614022500000279,10.260172099999998,0.0,99,6,90.80385993133561,416.43377999999996,mp-1221724,Mn4SbAs,https://materialsproject.org/materials/mp-1221724,44.749039495445416,49.37687884751682,73.03122832503752,-15.354132213184705
-7.97941759264706,-542.6003962999999,7.7411988932129026,-0.059044068039216815,30.934418,0.0,136,68,927.6342305034873,4324.499999999999,mp-5182,Nd2Fe14B,https://materialsproject.org/materials/mp-5182,71.82814584114033,32.462312978411056,84.32415542812485,-6.723208059012915
-7.580283394999999,-45.48170037,8.069278973581422,-0.8116097836111109,3.1e-06,0.0,187,6,89.82916497174809,436.51885,mp-1215922,YSiBRh3,https://materialsproject.org/materials/mp-1215922,66.00397767048945,12.681843065931627,50.72189596987096,-9.444539751503036
-6.299760986470589,-107.09593677,7.5679465371346835,-0.4896138894117645,0.0,0.20690000000000008,204,17,316.71916553978576,1443.4552,mp-1021508,Ce(As3Ru)4,https://materialsproject.org/materials/mp-1021508,21.144111608879136,33.48019143057669,17.476578222807483,-50.23713978428458
-6.98356571,-27.93426284,8.703472271609861,-0.15792427125000064,5.5543628,0.0,225,4,47.00148261374305,246.35139,mp-22300,FeCo2Ge,https://materialsproject.org/materials/mp-22300,79.15730914669544,49.54499049402068,92.27023860862921,-5.268643270103415
-6.19850546,-30.9925273,3.025451609457662,-1.2048493889519996,0.0,4.0657000000000005,164,5,38.608089264546244,70.34276399999999,mp-11917,Mg(BeN)2,https://materialsproject.org/materials/mp-11917,29.68661659482625,53.11039499691656,90.80327383118772,6.2889853645337865
-7.993434228970589,-543.55352757,7.865787494156269,-0.07879558259803918,31.185640075,0.0,136,68,923.2736717905386,4373.444,mp-1196306,Sm2Fe14B,https://materialsproject.org/materials/mp-1196306,71.95146227054103,32.386814034387875,84.22925138222487,-6.7202157312479285
-8.604668797297297,-636.745491,8.944555605838245,-0.4768756845045054,1.682493,0.0,127,74,915.1571880939308,4929.528399999998,mp-1217553,Ti8Ni3(B4Ru9)2,https://materialsproject.org/materials/mp-1217553,58.83258807835159,39.94395142949739,71.49162658804191,11.752525609979573
-8.397045404,-167.94090808,14.022251047296296,-0.6519197953333347,2.95145505,0.0,127,20,268.00066508616936,2263.104038,mp-1208990,Sc2CoB2Ir5,https://materialsproject.org/materials/mp-1208990,53.47811799590119,21.408975618401517,68.78478361173185,12.936509513097722
-7.83349113,-47.00094678,8.063458535581322,0.002426112916666057,10.2273372,0.0,191,6,88.4660918575645,429.585,mp-1566,SmFe5,https://materialsproject.org/materials/mp-1566,77.51391644243358,17.096269584959305,85.99097477917731,-12.587956027132845
-3.564913845,-14.25965538,6.873682977175813,-0.013451479999999629,1.5e-06,0.0,225,4,47.730982658580686,197.579,mp-974058,LiCu3,https://materialsproject.org/materials/mp-974058,43.27750346432245,61.72299973244855,50.27847397871374,48.716309973755095
-9.0030581125,-72.02446490000001,7.988275488258081,-0.44551001083333297,1.9698494,0.0,6,8,80.23902858439182,386.002045,mp-1221732,MnB4Mo3,https://materialsproject.org/materials/mp-1221732,58.111622906373604,27.23846289782855,66.72953054408333,12.710434912479535
-8.439577514545455,-185.67070532,7.732734441279144,-0.2785235230518181,37.006178600000005,0.0,166,22,273.0689712050022,1271.6171,mp-5662,Ce2Fe17N3,https://materialsproject.org/materials/mp-5662,77.95325847484975,34.34129391202882,88.63569182498631,-25.957206553397164
-6.362156501666667,-76.34587802,4.790265842229926,-0.6679895833333339,7.829999999999999e-05,0.0,139,12,170.96655269078556,493.19842400000005,mp-15605,ScSi3Ni2,https://materialsproject.org/materials/mp-15605,34.26223243858036,45.7411467843765,59.8639069277101,-5.3283592324381575
-7.989832545,-543.30861306,7.96447103686325,-0.08108751318627416,31.3519,0.0,136,68,920.8249427827808,4416.567999999998,mp-1220643,NdErFe14B,https://materialsproject.org/materials/mp-1220643,72.14632936688605,32.30643830137691,84.11156522303469,-6.698526954090732
-7.59909415075,-303.96376603,6.792917905112992,-0.6374962037499998,0.0,0.5510999999999999,60,40,560.0804553358716,2291.172,mp-22192,Si3Ru2,https://materialsproject.org/materials/mp-22192,28.76493556547608,28.64675119359456,58.06579926568596,-10.853730493012169
-7.65325261,-38.26626305,8.406159763416964,0.06962011724999967,4.6314617,0.0,221,5,58.916942776639644,298.2557,mp-21850,Fe3SnC,https://materialsproject.org/materials/mp-21850,51.106933701348325,61.836022134291895,83.88558284147774,10.514458504145463
-4.067565735384616,-105.75670912,8.842897982809873,0.010981575000000222,2.5e-07,0.0,173,26,372.4059487906459,1983.18,mp-568495,Cu10Sn3,https://materialsproject.org/materials/mp-568495,54.68074961370633,52.820717980886094,81.0750631963542,5.239666983647608
-8.322715658,-41.61357829,7.546667611951483,-0.5882246549520005,1.2742639,0.0,164,5,52.17138478491304,237.10379,mp-1247441,Zr(CoN)2,https://materialsproject.org/materials/mp-1247441,23.40992019102003,50.740998062650824,44.44819609029132,26.550987013531643
-8.100934947999999,-40.50467474,16.976660595194865,-0.3891175973749995,4.5322237,0.0,65,5,100.19343371681019,1024.336,mp-27659,PuPt4,https://materialsproject.org/materials/mp-27659,67.9166679068947,15.802185702469295,58.82644588545264,14.039457138772294
-5.185187294444444,-186.6667426,8.945464447578743,-0.474194451527777,0.00011561666666666668,0.0,51,36,677.2057665048637,3648.1648200000004,mp-1211555,LaGa4Os,https://materialsproject.org/materials/mp-1211555,62.44544711760608,13.19946030631987,54.324365801119264,-8.907280237756426
-7.098802272222222,-63.88922045,7.336367536075058,-0.35725555293650835,3.071497433333333,0.0,189,9,128.60148762372268,568.169586,mp-1087537,CrPPd,https://materialsproject.org/materials/mp-1087537,47.39133674618179,44.083761530968715,62.93647172208593,-1.5328198735031695
-5.3793665658620675,-156.00163041,4.198369071581271,-0.6065159255172412,0.0113039,0.0,225,29,439.9345069819205,1112.2938896,mp-1194264,Sc6Al16Ni7,https://materialsproject.org/materials/mp-1194264,49.24437016740193,44.89262130490928,68.39603590261146,-3.6145058344147385
-4.678459933333333,-28.070759600000002,8.465576682689964,-0.2852945191666662,1e-07,0.0,187,6,98.37246829771759,501.51165,mp-1219996,PrCu4Pd,https://materialsproject.org/materials/mp-1219996,74.82622919160902,15.646524414168766,84.853838056001,-11.256276260795005
-6.141514716666666,-36.8490883,6.475093508138584,-0.394742117317777,0.0,0.0,38,6,66.29075652633499,258.49368,mp-1215287,ZrTi(NiH)2,https://materialsproject.org/materials/mp-1215287,66.85005148691702,28.671486699686927,63.63008537954114,-9.524995596041014
-6.8530252508333325,-82.23630301,8.159700381628326,-0.7283538266666673,2.2e-05,0.0,74,12,162.8973662689495,800.45917,mp-1103425,ErCo3Si2,https://materialsproject.org/materials/mp-1103425,67.17575294779911,12.128768163593204,56.94918260506184,16.405872084842255
-8.367037165,-66.93629732,7.892042572131693,-0.30209312333333216,0.4231468,0.0,26,8,73.51111128004783,349.3762,mp-1226273,CrB2Ru,https://materialsproject.org/materials/mp-1226273,57.40048396745925,27.691530527058074,67.04891283896868,11.893073805248346
-6.7299199925,-80.75903991,15.342764106641024,-0.7847636981944449,1.15e-06,0.0,191,12,202.47328855355926,1870.7779999999998,mp-1209829,NdBPt4,https://materialsproject.org/materials/mp-1209829,64.23641458128091,15.253291817688847,53.47065709781639,13.383662085487142
-9.72745826,-19.45491652,16.262585232211816,0.4707064350600003,1.6e-05,0.0,187,2,20.44340800959055,200.2137,mp-1009646,ReN,https://materialsproject.org/materials/mp-1009646,32.83530301856964,48.22151092548541,68.09320000691858,9.779109693224317
-7.542716215,-45.25629729,6.446781609801199,-0.4423977302380955,1e-06,0.0,8,6,92.65613944116366,359.72288599999996,mp-1221509,Mo2AsP3,https://materialsproject.org/materials/mp-1221509,34.49396292578849,34.329892856891696,43.117488518029155,-14.495942047301016
-5.71559278,-45.72474224,8.517244135257451,-0.19528482187500007,0.27367195,0.0,194,8,125.19688260759052,642.1604,mp-863718,PmNi3,https://materialsproject.org/materials/mp-863718,65.22080479545856,34.897027378858645,73.9391502297752,13.921044340952836
-5.96528299,-35.79169794,5.869139305729535,-0.3269094917622226,1.5e-07,0.0,63,6,60.868014450984624,215.13668,mp-1071458,TiNiH,https://materialsproject.org/materials/mp-1071458,52.4927730814245,64.48730057598534,69.5581204487653,-3.0281551097511548
-6.18626089,-37.11756534,7.424134646386544,-0.2677561033333333,0.0,0.2832999999999997,58,6,92.01160874245942,411.3764,mp-2008,FeAs2,https://materialsproject.org/materials/mp-2008,20.79261582694345,34.579060873537664,64.32845800548597,-24.65686895156362
-6.6408973225,-79.69076787,9.383200913650018,-0.3305103533333333,8.38030235,0.0,164,12,193.90394146478462,1095.69218,mp-1221536,Mn2SnPd3,https://materialsproject.org/materials/mp-1221536,96.7094734167785,10.523293080589873,61.609590146895755,62.630481607997204
-8.160434331000001,-163.20868662,13.95399518483276,-0.8232412913333335,0.0,0.003500000000000725,127,20,271.8795829654062,2284.683648,mp-1208983,Sc2GaB2Ir5,https://materialsproject.org/materials/mp-1208983,53.471552165857545,21.400572644674092,68.77274155682085,12.965969995615115
-7.059457705,-254.14047738,8.979449508057257,-0.9468842823809528,0.6409845166666667,0.0,59,36,459.040453722835,2482.284654,mp-1200073,LuCo3P2,https://materialsproject.org/materials/mp-1200073,56.785064819419965,33.46021083478341,62.483024059909674,-2.8651248825616262
-5.5220229725,-44.17618378,7.848329054008503,-0.7240215900000004,1e-07,0.0,123,8,101.36530103338524,479.0903544,mp-1228186,Al4Ni3Pt,https://materialsproject.org/materials/mp-1228186,84.98527322891893,36.0075275819638,71.25280220627165,14.179626633042169
-7.80823407,-31.23293628,8.581341558616693,0.09303943000000016,6.023863700000001,0.0,221,4,55.45374645342049,286.574135,mp-1636,Mn3Sb,https://materialsproject.org/materials/mp-1636,54.222749118171166,62.39846554240591,86.44010156463185,7.79910999714268
-4.075566101666666,-48.90679322,4.5074334987049065,-0.6860580676874998,0.0,0.4605999999999994,12,12,216.5207601312629,587.7326,mp-9868,KCu3S2,https://materialsproject.org/materials/mp-9868,13.26636602895624,25.538702163951665,26.199513846942846,-48.21308073313103
-8.841625445,-70.73300356,6.213883642030615,-0.4668302037499998,0.0001509,0.0,155,8,97.53479205308969,364.9838,mp-1216481,V3Cr3Si2,https://materialsproject.org/materials/mp-1216481,49.8879874079915,55.075016836231505,78.67212263151319,-6.488453039325824
-5.169838638888889,-93.0570955,8.570105804360244,-0.3581072488888889,0.00096025,0.01049999999999951,166,18,273.0136615696102,1409.0339999999999,mp-17587,Ce2Zn2Ni5,https://materialsproject.org/materials/mp-17587,71.95034751905484,22.389829676143613,62.34771387958183,17.571997083830322
-7.410071048888889,-66.69063944,5.483070073823301,-0.5018803307407403,6e-07,0.0,21,9,123.64089084086493,408.26,mp-1217229,Ti(Si3Mo)2,https://materialsproject.org/materials/mp-1217229,41.507220569021094,39.403938533079724,59.17029684950991,-10.859402004441636
-5.496657251111111,-49.46991526,6.020694213407401,-0.4784654077777775,4.333333333333333e-06,0.0,189,9,149.87966802220856,543.4257359999998,mp-1206354,ScCuGe,https://materialsproject.org/materials/mp-1206354,47.51756181291898,44.51949270271964,63.69368811566879,-8.898960982918346
-10.6946205725,-42.77848229,12.038056232413721,-0.2442590412500003,1.01e-05,0.0,225,4,65.38983490456063,474.04276,mp-1186210,Nb2TcOs,https://materialsproject.org/materials/mp-1186210,96.55488117808045,10.413693274076158,61.18327937418157,63.783075839389156
-4.0524359975,-48.62923197,2.5010546400111333,0.0992204325000004,2.485e-05,0.0,12,12,213.7235031097844,321.904,mp-1100461,MgSi2,https://materialsproject.org/materials/mp-1100461,36.61832563418371,23.58982237009779,60.125004978700794,-1.1879160557873572
-7.213524792499999,-173.12459502,8.554140135395311,-0.4073425741666661,1.9750033,0.0,191,24,281.55221149693716,1450.39473,mp-504616,Ce2Co7B3,https://materialsproject.org/materials/mp-504616,73.95611928464444,26.27096385362602,60.12039364560805,15.283907576451115
-8.68377915,-69.47023320000001,5.997468167942058,-0.04302630171875066,1.358929,0.0,200,8,95.72762812838906,345.7452,mp-1216452,V6SiC,https://materialsproject.org/materials/mp-1216452,49.89820360477974,55.22274815186768,78.53417169138588,-6.6141400678826265
-4.172820459642858,-116.83897287,8.072675015051804,0.03186121464285766,1.1037736,0.0,140,28,488.27531561225675,2373.74,mp-1215076,CeCu9Sn4,https://materialsproject.org/materials/mp-1215076,38.65690098600613,27.346376990108585,61.93630800851793,1.8469481996953123