energy_per_atom,energy,density,formation_energy_per_atom,total_magnetization,band_gap,sgr,num_sites,cell_volume,weight,mp_id,formula,URL,tsne_cry_0,tsne_cry_1,tsne_xrd_0,tsne_xrd_1
-8.543981007000001,-85.43981007,6.3547266476886595,-2.656576609125,0.0,1.7678000000000005,123,10,146.72729740947062,561.5115599999999,mp-1095131,SrTa2O7,https://materialsproject.org/materials/mp-1095131,-32.90048484220469,-70.23167040241601,-25.92499998314755,-31.713490359513806
-9.072617750740744,-244.96067927,7.236115522351732,-3.152645825709876,0.0,3.0034,5,27,420.0183556712692,1830.31008,mp-1218099,Ta6TiTl2O18,https://materialsproject.org/materials/mp-1218099,-32.436298523777914,-54.518651532795666,-16.680220886578546,-48.70488840864088
-6.34478932,-114.20620776,4.929723615348284,-2.1296641261458333,4.999999900000001,0.0,140,18,431.8816072929101,1282.1480900000001,mp-16456,BaNd2MnS5,https://materialsproject.org/materials/mp-16456,15.959584996271857,-16.796834326759587,4.2846949042900535,-0.7042640814287587
-7.63173131875,-183.16155165,5.159666871359302,-2.979602542552083,0.0,3.9977,144,24,293.852947178602,913.06695,mp-10080,PrGeBO5,https://materialsproject.org/materials/mp-10080,-23.439344623797087,-36.15718630643977,-18.08733035145139,-30.69383323017968
-5.299359468214286,-296.76413022,4.600370002662958,-2.15022484986248,0.0,2.4689000000000005,55,56,1321.179029682854,3660.2044456,mp-1019608,Cs3BO3,https://materialsproject.org/materials/mp-1019608,-6.6813541341170515,-28.67240755363328,-22.680604540411906,-51.5963352047165
-5.585132907857144,-78.19186071,4.676813966882435,-0.8166613760199998,0.00015375,0.3056000000000001,176,14,341.55322602661414,961.9652772,mp-1246710,Ba3AlN3,https://materialsproject.org/materials/mp-1246710,-3.638707499356838,-26.895777267658985,-4.971559457595271,-34.95398815029796
-7.962257824302325,-684.75417289,5.089292135550684,-1.4555088601683712,0.0,0.6159000000000008,65,86,1249.9448376959565,3830.8852,mp-567918,Ba2Nd7Si11N23,https://materialsproject.org/materials/mp-567918,-24.61637306362802,-30.225884005738944,3.257969102774228,1.0683278880122355
-6.6224284820833335,-158.93828357,4.982418215664689,-2.835403260729168,0.0,3.1992000000000003,35,24,336.93568391653497,1010.9696,mp-1227169,CaNdGa3O7,https://materialsproject.org/materials/mp-1227169,-7.528170001706897,-43.85685896352237,9.204952242281397,-36.04823072569664
-7.0711071966666665,-254.55985908,5.454747237279692,-1.2736815470566667,14.00203405,1.0272000000000006,227,36,890.865236409383,2926.4260400000007,mp-1200887,LiEu2CI3N2,https://materialsproject.org/materials/mp-1200887,1.751667758201655,-33.679235877493355,0.4835046600087496,-48.43231659364906
-7.073025409375,-339.50521965,5.798465980982968,-2.454773858958333,8.25e-06,3.2765,60,48,789.4673834733975,2756.75528,mp-1212243,HoTl(MoO4)2,https://materialsproject.org/materials/mp-1212243,-51.268725501616494,-52.010796937946175,-27.760211083519092,-55.17371552053561
-7.951581452142856,-111.32214033,4.7309644551628764,-1.6387351398785708,0.0,1.8751999999999995,65,14,257.8363294575426,734.5894800000002,mp-567756,La2CN3Cl,https://materialsproject.org/materials/mp-567756,-2.3967069666813434,-23.825164494110684,-23.880949207462372,-32.23028974991109
-7.0743105066666665,-339.56690432,5.788916674460263,-2.453777113333333,0.0008494999999999999,3.2912,60,48,787.9811470308753,2747.034,mp-1213009,DyTl(MoO4)2,https://materialsproject.org/materials/mp-1213009,-51.28003425385201,-52.05928308779873,-27.739250735445882,-55.17767492888765
-4.771960348,-23.85980174,4.196250257524991,-0.5324313969519998,0.0025811,0.0,164,5,134.7743856421909,340.5804,mp-1246150,BaSr2N2,https://materialsproject.org/materials/mp-1246150,-3.3332292991586585,-28.204665350030346,-13.798934832979086,-66.3254195161058
-5.401415171818181,-237.66226756,6.790500318824747,-1.4313696446590918,1.000000275,0.1459999999999999,57,44,624.0054278246248,2551.7672,mp-1203135,CuTe2PbO7,https://materialsproject.org/materials/mp-1203135,-14.672474871874806,-51.345605073373136,-6.145384286238928,-52.34634327303899
-5.099763729166667,-305.98582375,6.8558856746366486,-1.3424571174166675,11.99999845,1.7407000000000004,176,60,704.8067189420598,2909.9432,mp-1194532,Cd2Ni6Te3PbO18,https://materialsproject.org/materials/mp-1194532,4.302185142836897,-72.32208395040253,8.331944460188275,-35.655281773200066
-8.834224084,-44.17112042,9.448322504694424,-2.504916711226,0.0,0.9046000000000004,156,5,100.00220214219826,569.00382,mp-1217281,Th2AsNO,https://materialsproject.org/materials/mp-1217281,4.066901604557782,-5.909595813903732,-13.724465418381294,-66.1734170617643
-5.856342587916667,-281.10444422,5.229933405451586,-1.3767035319629173,1.0000001833333334,0.3826999999999998,176,48,657.1351771861682,2069.67324,mp-733590,TlCuHCO4,https://materialsproject.org/materials/mp-733590,-23.549642527546343,-30.03155261662798,-18.359430976175407,-36.98846268000278
-7.554482564861113,-1087.84548934,4.74719340121658,-2.596567861763889,1.665463125,0.0,1,144,2104.0559467248677,6015.13139136,mp-1076895,K5Na3Ta2Nb6O20,https://materialsproject.org/materials/mp-1076895,-30.997434930571337,-74.67732530812103,-22.140007950989126,-24.160664939233786
-7.180049024583332,-344.64235318,3.670099729978973,-3.396050495520834,0.0,4.5013000000000005,14,48,665.4857843573316,1470.8472000000004,mp-1246991,Sr2MgSi2O7,https://materialsproject.org/materials/mp-1246991,-21.676422870254196,-32.31999389614971,-0.4496671226592612,-25.7000973269637
-5.79560980974359,-226.02878258,4.895983447297882,-1.6452188284615392,0.9999995,0.3786000000000001,2,39,526.7179810012842,1552.9912,mp-560007,Ba2Cu7(AsO4)6,https://materialsproject.org/materials/mp-560007,-29.992191845920388,-29.384524467650703,-11.635269334988616,28.828277535415896
-5.4581075675,-87.32972108,6.209368622239755,-0.5624611927380956,0.459400825,0.0,15,16,331.533692873828,1239.726896,mp-675111,CeAgP2,https://materialsproject.org/materials/mp-675111,31.019321463833414,-17.131126269750258,16.170143258041907,1.0775305695594244
-2.901570678,-29.01570678,7.439905330610117,-0.3235957442916668,0.0,0.4139000000000004,14,10,214.46955942715744,960.9128,mp-9635,Ag2HgS2,https://materialsproject.org/materials/mp-9635,31.241410763265012,-17.244060555521585,21.180747322253467,-31.165964614369315
-6.2495971475,-24.99838859,5.321495747383914,-0.7969381287500008,4.48e-05,0.0,38,4,81.14766110704826,260.052262,mp-1217472,TbScSi2,https://materialsproject.org/materials/mp-1217472,36.86241621808856,-14.071249611198029,-15.93277348778131,-8.507286012179994
-6.887442577692307,-89.53675351,5.796454292753189,-2.3533893239423094,17.0000001,0.0,82,13,185.5411832149826,647.6698,mp-1103986,BaLuFe4O7,https://materialsproject.org/materials/mp-1103986,-3.1258096700368,-44.28648899908367,7.9323993066626075,-39.00405700359989
-7.0050258916666674,-42.03015535,5.924914515807132,-0.501306572499999,1.8481462,0.0,129,6,124.39733688412312,443.85803,mp-19737,LaMnSi,https://materialsproject.org/materials/mp-19737,41.571318345692546,-5.971176194779319,25.177760001218022,15.732735007697206
-6.291755060625,-100.66808097,7.741619416609932,-1.5452425200000013,3.972915275,0.0,141,16,303.00926301522463,1412.6632000000004,mp-1214266,BaWO2,https://materialsproject.org/materials/mp-1214266,23.468702896285528,-42.29657072477184,6.502328659297365,-55.323929597466034
-6.1204918445,-122.40983689,6.949844483455809,-0.4719029978333332,2.8775e-05,0.0,127,20,206.70852510862144,865.1360000000001,mp-1189298,YbB4,https://materialsproject.org/materials/mp-1189298,7.935129207095903,-59.376322595446304,4.462824364533768,-48.81419297333952
-7.921737491833331,-475.30424951,5.128816696733841,-3.650949434583333,0.0,4.486599999999998,14,60,830.9863891646309,2566.6225031999998,mp-780411,LaAlO3,https://materialsproject.org/materials/mp-780411,-21.80451775166429,-35.88307644104874,-18.56219153343461,-32.89731649663474
-6.826478524583332,-163.83548459,4.62343997514362,-2.8170319797556247,0.0,4.2704,14,24,337.4096124664477,939.4498127999999,mp-556169,YSeO3F,https://materialsproject.org/materials/mp-556169,-31.593166915141268,-57.06562166025602,-20.58329173784172,-58.396912111170884
-5.000546466923077,-65.00710407,4.4507717158538656,-1.3955173875721152,0.5627116,0.0,47,13,290.50770036724066,778.65285,mp-1096848,Ba2YCu3S7,https://materialsproject.org/materials/mp-1096848,9.740735415471935,-30.343230032384113,-3.5980371009382885,-30.73215286667603
-5.019514900000001,-35.136604299999995,5.730005117424594,-0.5472532328571427,1e-07,0.0,12,7,133.9197793551777,462.1156158,mp-3513,Dy2Al3Si2,https://materialsproject.org/materials/mp-3513,36.70382223404907,-13.576418187440641,6.195746697483647,-2.38413833677659
-3.64004877125,-145.60195085,5.407807482615037,-1.122002478562501,7.41e-05,0.0,140,40,1380.2513562558343,4495.0064,mp-605809,Ba11In6O3,https://materialsproject.org/materials/mp-605809,-3.2137149046836573,-28.411391738809492,-2.81114642187166,-33.147443541711624
-7.856070907575757,-259.25033995,4.547857905921943,-3.071489406818181,0.0026243000000000004,1.1596000000000002,38,33,426.48498056575386,1168.0502800000002,mp-1218571,Sr3Li4Nb6O20,https://materialsproject.org/materials/mp-1218571,-29.994303228723826,-70.70956352023707,-1.566454867883639,-54.20052893532637
-7.395884051666666,-133.12591293,5.561457900163777,-0.8878386659523806,21.000002399999996,0.08619999999999982,15,18,429.49693281936834,1438.466096,mp-1189104,Eu3(GaP2)2,https://materialsproject.org/materials/mp-1189104,14.460457787260351,-18.07195532420689,7.51624233591382,-3.124934915135894
-4.918191141333334,-147.54573424,4.781934145947159,-1.971341869899426,8.5e-06,2.9052999999999995,14,30,732.5005345313417,2109.4170228,mp-1178450,Cs6Ge2O7,https://materialsproject.org/materials/mp-1178450,-5.8819052816853565,-28.53324819489988,-6.328652521015524,-30.25853856886057
-7.083011105714285,-198.32431096,4.693357995773557,-3.2451231425,0.0,3.4597,62,28,442.54652355050865,1250.81628,mp-559969,CaLaGaO4,https://materialsproject.org/materials/mp-559969,-34.881961752259485,-51.02670327679638,-26.16457825912876,-35.50166078783574
-6.6257125470833325,-159.01710113,4.975143238302486,-2.838687325729167,0.0,3.2279,4,24,337.42837314287516,1010.9696,mp-1227170,CaNdGa3O7,https://materialsproject.org/materials/mp-1227170,-7.5327335202339825,-43.840089157041724,9.198135702995382,-36.04374213361953
-4.760364021428573,-66.6450963,4.537858849774142,-1.5111670890051023,0.0,1.0423999999999998,64,14,459.0628857422809,1254.5098480000001,mp-28164,Ba4P2O,https://materialsproject.org/materials/mp-28164,1.8948964819593803,-26.548131609193412,-7.36720479037954,-32.27038590798264
-7.971881691969697,-526.14419167,6.571496117034316,-2.9648656993560616,7.9999999000000015,0.0,185,66,935.7097712364456,3703.0223200000005,mp-559854,La8Ru4O21,https://materialsproject.org/materials/mp-559854,-6.037478186556503,-72.08682890668777,1.8330580182368619,-36.724242414518905
-5.504441565833332,-66.05329879,6.256732072726977,-1.6483556067708338,6.6842521999999995,0.0,25,12,188.14219066728074,708.89949,mvc-2976,Ba2TlCo2O7,https://materialsproject.org/materials/mvc-2976,7.184643205694673,-63.56870388136701,8.63214778192774,-47.850942316304646
-6.586568081111111,-118.55822546,4.983678006359824,-2.1116145189236115,6.40005505,0.0,140,18,421.7069039188109,1265.64409,mp-10502,BaCe2MnS5,https://materialsproject.org/materials/mp-10502,15.976848595709672,-16.783109200303333,4.293467328469095,-0.7147932351735
-6.854227463,-137.08454926,6.870159481750189,-0.5957938313333331,0.0,0.0,127,20,201.2655376654456,832.69728,mp-569281,HoB4,https://materialsproject.org/materials/mp-569281,7.96033178040182,-59.30118245738801,4.5517491949961695,-48.829186458778665
-3.9131328975,-15.65253159,4.476741565602056,-1.234195274978449,0.0,1.6621,71,4,110.46530884215332,297.8097038,mp-7896,Cs2O2,https://materialsproject.org/materials/mp-7896,-3.421023695405429,-27.145212724414648,5.167508998569021,-50.71275803233078
-5.2188423796875,-167.00295615,6.798490176232178,-1.3632236188281244,0.0,0.09370000000000013,61,32,729.9611691790487,2988.568,mp-561248,SmCuTeS,https://materialsproject.org/materials/mp-561248,31.291896476800343,-17.443700536260604,6.701806016780852,-22.767681082483058
-5.7497150040000005,-57.49715004,4.676711981809682,-1.9407211612500008,1e-07,0.0,71,10,160.46460392425087,451.929595,mp-1218895,Sr2CoSbO6,https://materialsproject.org/materials/mp-1218895,-22.352499973570023,-28.755253180367184,-15.996706241344864,-8.549631900183146
-5.377475346000001,-53.77475346,6.375239183182934,-1.4504222725833338,0.0,0.10780000000000013,148,10,144.62499758463645,555.2528,mp-545999,AgSbO3,https://materialsproject.org/materials/mp-545999,-5.356833529765492,-45.680415438940706,8.640532014247897,-21.155719846503146
-5.187805167021278,-243.82684285,7.554322536409762,-1.6097872172304255,6.670000000000001e-05,0.5838999999999999,8,47,961.4926050351653,4374.137,mp-1229189,Bi14Pb4Cl8O21,https://materialsproject.org/materials/mp-1229189,-19.65873397747199,-55.34872287013164,-12.07618180584038,-58.73013859228023
-5.557686692608695,-127.82679393,6.217420049136642,-1.7526545772826088,0.9999693000000001,0.0,150,23,350.78668606119436,1313.4217999999996,mp-1207481,Zn3SbAs2Pb3O14,https://materialsproject.org/materials/mp-1207481,-23.68486203934216,-45.03268366191424,-18.60309585982814,-42.21125685167371
-6.960804315999999,-69.60804316,5.296518895176902,-2.2519939768749984,2.99999995,0.39950000000000063,12,10,173.29080938617975,552.7349999999999,mp-546561,NdCrS2O,https://materialsproject.org/materials/mp-546561,-0.19373339535115366,-49.87042367174535,2.4854391732513563,-35.91034865359885
-6.8086341936363635,-299.57990452,3.74551380290006,-2.8666909918668835,0.0,4.4518,14,44,579.8406708111829,1307.8892959999996,mp-558616,SrZnP2O7,https://materialsproject.org/materials/mp-558616,-24.758948135919713,-32.55883901594442,-2.7671202175247522,-25.89091951496111
-5.90460426421875,-377.89467291,6.301230526218418,-1.8734645703125008,0.00014509999999999998,2.5763000000000003,33,64,1009.3690448872225,3830.2424,mp-1216957,TlGeSbO5,https://materialsproject.org/materials/mp-1216957,-31.918407455262173,-31.054947122342483,-24.49366369866543,-49.660016732095436
-6.284252523958332,-904.93236345,5.860139529636912,-1.8220944668750008,8.0000711125,0.4777999999999998,1,144,2111.906323179769,7453.04110848,mp-1099722,K2Na2MoW3O10,https://materialsproject.org/materials/mp-1099722,-31.616496192911328,-74.66310676498397,-22.366490240138287,-24.324442394696888
-5.05163332984127,-636.50579956,5.556050459467316,-1.6478769003217468,1.0000001,0.9239,148,126,1807.175601281294,6046.6864,mp-1227896,Cd15As9Cl2O37,https://materialsproject.org/materials/mp-1227896,-6.984028413869939,-46.79603737423278,10.344461000744172,-34.32858168434816
-8.1766504075,-163.53300815,8.008387139168441,-3.7556082500833337,0.0,2.3173,62,20,223.02996840653407,1075.6208,mp-754225,YbTiO3,https://materialsproject.org/materials/mp-754225,9.150736772143038,-79.13200811624574,52.70346063322441,-52.50972106426963
-5.8055908625,-69.66709035,4.158362484834607,-1.9368474741666664,7e-07,0.0,122,12,179.10343370727824,448.5152,mp-1208652,SrGeO4,https://materialsproject.org/materials/mp-1208652,-47.511970335178106,-54.31932822303517,1.4790909385302742,-55.514196942363135
-7.367952107692307,-191.5667548,6.552238416934763,-3.0962875009446167,2.9999998,0.0,176,26,408.8058821830477,1613.0868000000007,mp-1213830,Ce3W(ClO2)3,https://materialsproject.org/materials/mp-1213830,-1.593246975137653,-59.915203586084736,-0.8459205555941354,-49.621988580421544
-5.85412129673913,-269.28957965,4.93144654051126,-0.6738517620130438,0.000742,0.3765000000000001,136,46,1127.8153229781185,3349.3708,mp-1246400,Ba11(CN5)2,https://materialsproject.org/materials/mp-1246400,-3.549560042626375,-26.430278608509088,-27.156532877220464,-59.775866350166005
-6.860152202199999,-686.01522022,4.966444596088173,-3.0870429994804,0.001427175,3.5835,55,100,1751.7448938713367,5239.2288,mp-1194658,Ba7GeB3ClO13,https://materialsproject.org/materials/mp-1194658,-23.63541593197989,-25.464855318742384,-6.693589168696585,-25.10533689963695
-5.639858263333332,-33.83914958,6.508711698894037,-0.5005097549999995,0.00018419999999999998,0.0,141,6,114.00542991333994,446.86,mp-1077267,ErSi2,https://materialsproject.org/materials/mp-1077267,49.05787757077408,-15.700673713760395,21.479360873520406,22.670470448212185
-7.477449190952381,-314.05286602,5.003795020389932,-2.991676422123016,0.0,1.3379000000000003,11,42,840.0493572746519,2531.36764,mp-554286,La6Ti2S8O5,https://materialsproject.org/materials/mp-554286,9.802576960313623,-9.540721322516477,4.500682357264748,1.376882479187114
-7.504114148499999,-300.16456594,7.240716762362711,-2.4722473657500004,0.0002618375,0.7667000000000002,9,40,633.4886709107967,2762.30304,mp-1101462,NbTlO3,https://materialsproject.org/materials/mp-1101462,-19.074949657677852,-75.8933367499629,-2.6919032242419214,-77.09495873725618
-6.24328787875,-99.89260606,6.8617315640836845,-2.439882338984376,3.0000009,0.0,42,16,222.35338507975158,918.81564,mp-1218757,Sr2La2TlNi2O9,https://materialsproject.org/materials/mp-1218757,10.49173365111857,-67.80830356779572,39.09237169204643,-49.64835917341088
-6.281732793333332,-113.07119028,6.1899894602104775,-1.7739553666388888,4.00000005,0.0,46,18,282.1438222208706,1051.7472,mp-1076391,K2W2O5,https://materialsproject.org/materials/mp-1076391,-31.71755181637199,-74.73930200031664,-21.58774134484713,-24.68493160514132
-7.16219012625,-171.89256303,5.689495497976361,-3.0102136930208325,2.31625e-05,1.356,57,24,449.0131470608402,1538.4512,mp-1209906,NdSO,https://materialsproject.org/materials/mp-1209906,0.20286801001667265,-50.4689427728044,4.537443717488398,-59.32888219475266
-7.911909975555554,-142.41437956,6.499342742376096,-2.6826145444166656,0.00466595,0.0,46,18,265.75877617215184,1040.17872,mp-1099764,K2Ta2O5,https://materialsproject.org/materials/mp-1099764,-35.30119542752418,-84.06067024668101,30.80456857701744,-64.79708366100527
-7.179802801818181,-315.91132328,4.115119582737786,-2.7706992443668828,15.9999994,4.002599999999998,1,44,620.7508928281087,1538.334296,mp-1228512,Ba3Fe4P8PbO28,https://materialsproject.org/materials/mp-1228512,-26.953683403733894,-26.148788935641466,-20.533735132556245,-30.015349234607115
-8.35124871952381,-526.12866933,4.494637932908733,-3.48541161837963,0.0,2.315,12,63,823.0185805033601,2227.6926,mp-775484,Ba6Li2Ti16O39,https://materialsproject.org/materials/mp-775484,-11.329836278435286,-20.526682584343586,-6.7227124143203305,0.4928699551948161
-7.110289387500001,-142.20578775,5.797512496679933,-2.705568242416668,0.0,0.5219000000000003,11,20,266.3550320423173,929.93696,mvc-4204,Ca2TaAgO6,https://materialsproject.org/materials/mvc-4204,-31.61113171825297,-76.85670765818072,-3.8816256860757847,-45.112272379086896
-4.240700675,-144.18382295,4.6942964355362,-2.5565929695133884,6.00000135,4.9551,64,34,635.0867419170639,1795.3720792,mp-17733,Cs4Ni3F10,https://materialsproject.org/materials/mp-17733,-53.61612931770246,-62.11344674180118,-22.473685345373937,-13.788853841828132
-6.819079820000002,-136.3815964,4.657477246479024,-2.1756849212708347,0.002151575,0.0,62,20,403.5476770951478,1131.86988,mp-1211414,LaTiS3,https://materialsproject.org/materials/mp-1211414,13.539084026812516,-16.260000427877678,4.985374775095781,-0.3408968216088294
-7.128627660208332,-342.17412769,4.689098079192236,-2.6229108348204018,3.75e-07,3.6192,60,48,807.7980842691526,2281.09328,mp-1209629,RbHo(MoO4)2,https://materialsproject.org/materials/mp-1209629,-50.65726304252001,-53.22905170810588,-24.620518959724983,-56.68852635826679
-5.8713551155555574,-105.68439208,5.339738757016825,-1.7883569274999995,0.0,3.1895,113,18,268.65191484656594,863.8948,mp-555560,CdTeMoO6,https://materialsproject.org/materials/mp-555560,-33.31677953568261,-58.730125582846476,1.2856741050454588,-49.722488073133476