energy_per_atom,energy,density,formation_energy_per_atom,total_magnetization,band_gap,sgr,num_sites,cell_volume,weight,mp_id,formula,URL,tsne_cry_0,tsne_cry_1,tsne_xrd_0,tsne_xrd_1
-6.942366826029412,-472.08094417,8.750750987556813,-0.14171931921568662,18.947445925,0.0,136,68,864.5774541048502,4556.172320000001,mp-1217550,TbNdCo14B,https://materialsproject.org/materials/mp-1217550,74.51953310259162,40.227354639549326,83.39534844705891,-7.469003185275263
-7.3260413758333325,-175.82499302,8.178554551334036,-0.23177348833333275,3.2634011000000003,0.0,141,24,299.89752463905927,1477.06751,mp-1192337,EuCo9Si2,https://materialsproject.org/materials/mp-1192337,74.01517540075106,41.85754590882308,66.3892069752326,-19.24931825982048
-5.573324031052632,-211.78631318,9.469044545490943,-0.3607274884210528,0.00012209999999999999,0.0,194,38,484.2917143604892,2761.6212,mp-1200461,Lu2Ga3Ni14,https://materialsproject.org/materials/mp-1200461,71.68192104056108,42.186014255315754,85.67363311072833,-18.723930678459002
-7.016516062232142,-785.84979897,8.544300033572847,-0.1202431784821434,30.8494971,0.0,220,112,1303.1823462653458,6705.52194,mp-1210590,Nd2Co23B3,https://materialsproject.org/materials/mp-1210590,73.3366059020674,40.69986603692737,70.4538918550725,-6.285241120929077
-7.050454234117646,-479.43088792,8.165059994313483,-0.1415761708333329,19.020912525,0.0,136,68,869.6349521041417,4276.094319999998,mp-1220235,NdYCo14B,https://materialsproject.org/materials/mp-1220235,74.12172034555397,40.20524055746784,71.26902875772933,-6.183418940713668
-6.077662659230769,-158.01922914,8.536986524823554,-0.4422269807692312,5e-08,0.0,129,26,312.00768645172246,1604.0607,mp-21601,Tb(SiNi5)2,https://materialsproject.org/materials/mp-21601,71.76698067725599,42.391678993855884,72.67439176037944,-7.887713832463637
-6.9187947250000015,-166.0510734,8.347719745378393,-0.21479326250000005,22.4145985,0.0,12,24,296.88427230087893,1492.4712049999996,mp-1220564,Nd2Co19Si3,https://materialsproject.org/materials/mp-1220564,74.02991327261608,41.89429277157007,66.43034389799766,-19.200954645698744
-5.855287463157895,-222.5009236,9.574317838349033,-0.2088612631578952,6.9323025,0.0,194,38,467.4891102936219,2695.4436,mp-1202260,Lu2Ni17,https://materialsproject.org/materials/mp-1202260,71.73683836233174,42.30045371228464,85.65129271812434,-18.57633761227548
-6.509036287368421,-123.67168946,8.595541969739031,-0.07527610078947371,21.077105399999997,0.0,166,19,253.44621023295787,1311.927925,mp-1190065,Nd2Ga2Co15,https://materialsproject.org/materials/mp-1190065,73.46362821676044,39.976120521059904,85.63175697397435,-20.952090882361848
-6.214334134166666,-149.14401922,8.19026408422723,-0.4818953108333339,7.95e-06,0.0,141,24,293.78939506344864,1449.0552,mp-1191823,CeSi2Ni9,https://materialsproject.org/materials/mp-1191823,74.00041796968563,41.910529966229156,66.40396286412118,-19.242281228741966
-6.668892117,-200.06676351,8.193716747882423,0.01886413300000148,34.837841,0.0,65,30,418.27859020935125,2063.9420136,mp-1220652,Pr4AlCo25,https://materialsproject.org/materials/mp-1220652,79.6255846880785,20.90045005650833,86.33851248584179,-14.877717044505765
-6.107452890416668,-146.57886937,8.245250892073782,-0.4765119106250009,6e-07,0.0,141,24,295.95628883923246,1469.5432,mp-1191393,SmSi2Ni9,https://materialsproject.org/materials/mp-1191393,74.0279901005873,41.90805008498011,66.36268736832221,-19.29637863862413
-6.49023628,-155.76567072,8.207669406182154,-0.3947717875000005,6.62284235,0.0,141,24,297.9604492798906,1472.7512,mp-1190872,EuSi2Ni9,https://materialsproject.org/materials/mp-1190872,74.03093473563634,41.89915351877127,66.36750918771632,-19.29172621322729
-6.753201044615384,-87.79161358,8.60431823684041,-0.3903850692307698,6.372146,0.0,71,13,154.45973600428212,800.355,mp-1225143,Gd(SiNi5)2,https://materialsproject.org/materials/mp-1225143,71.8868440448067,42.38208278536647,82.66662779706915,-19.47061682254052
-5.879116453611112,-423.29638466,8.273816625284573,-0.22450552868055634,4.18631345,0.0,129,72,902.0080195326108,4494.3532,mp-1199358,Nd3Si4Ni29,https://materialsproject.org/materials/mp-1199358,72.59838248061716,42.40290405839794,66.671394356059,-18.930353185110928
-8.815363448461538,-114.59972483,8.641308734036484,-0.01619657230769178,0.3319844,0.0,139,13,159.14754526997243,828.1907500000002,mp-980811,TmMn12,https://materialsproject.org/materials/mp-980811,70.86993495380786,40.64464664787585,83.2524560946815,-19.48122577076014
-6.661206838181817,-146.54655044,8.004879191813163,-0.1373940170845458,23.9607932,0.0,166,22,245.34027329576932,1182.699835,mp-1191845,Y2Co17H3,https://materialsproject.org/materials/mp-1191845,72.68687557817745,40.539542885232684,81.81031231031001,-19.795047259768094
-6.077194132307692,-158.00704744,8.602708481440763,-0.4434523607692317,5e-08,0.0,129,26,311.0040416236813,1611.21,mp-542389,Dy(SiNi5)2,https://materialsproject.org/materials/mp-542389,71.7592243289717,42.40520638308771,72.67516674738505,-7.885826240248022
-7.173592256911764,-487.80427347,7.821114034626997,-0.1645795714215686,18.263106399999998,0.0,136,68,860.8837791750955,4054.7497200000003,mp-1200125,Y2Co14B,https://materialsproject.org/materials/mp-1200125,72.47164861191895,40.022770222075536,71.37473258789346,-6.142313723803724
-6.202787331111113,-669.90103176,9.005681624377512,-0.1304100394907403,0.180964225,0.0,64,108,1222.232053045809,6628.59016,mp-1205259,Ho2Ni22C3,https://materialsproject.org/materials/mp-1205259,72.63142243182382,39.95810207335153,71.11370390531441,-6.221650757045122
-7.623829263846153,-99.10978043,8.222872849677438,0.026268812307692384,21.8906504,0.0,139,13,167.88075843752847,831.33374,mp-1226889,Ce(MnCo2)4,https://materialsproject.org/materials/mp-1226889,72.67121604489931,39.16812533487597,82.94366875450949,-20.343436512088
-8.765458289230768,-113.95095776,8.067644113278838,0.05577914865384715,3.0235115,0.0,139,13,165.38169947989215,803.49854,mp-20642,NdMn12,https://materialsproject.org/materials/mp-20642,72.58854961652752,39.097652218646004,83.00344939446241,-20.077544014786703
-6.922366877205883,-470.72094765,8.524599014112066,-0.11362343612745128,18.36287685,0.0,136,68,876.0732199030394,4497.4389200000005,mp-4164,Nd2Co14B,https://materialsproject.org/materials/mp-4164,74.50081349678794,40.164391312039406,83.42928850378426,-7.4799036857324195
-6.839101679736843,-259.88586383,7.44463004908525,-0.1506337976315788,19.629855600000003,0.0,194,38,497.75049117371583,2231.5454044,mp-1200452,Y2Al2Co15,https://materialsproject.org/materials/mp-1200452,71.94602233168463,39.87684143173189,82.53054540626493,-19.85708190041472
-6.203429820925924,-669.97042066,8.992749800791596,-0.12902422449073994,0.629953425,0.0,64,108,1220.3995278458915,6609.147599999998,mp-1197710,Dy2Ni22C3,https://materialsproject.org/materials/mp-1197710,72.63067132065625,39.93726999407252,71.11810899853556,-6.216675063230197
-6.910143164558824,-469.88973519,8.44931796982776,-0.0992131490686277,18.545698975,0.0,136,68,878.6364043111728,4470.764119999999,mp-1197003,Pr2Co14B,https://materialsproject.org/materials/mp-1197003,74.48696066995286,40.14982432493997,83.41830604732158,-7.484862988606769
-7.108106320263157,-270.10804017,9.394604506767324,-0.10037813789473583,21.5297419,0.0,164,38,502.7398116542795,2844.28224,mp-1219372,Sm2HfCo16,https://materialsproject.org/materials/mp-1219372,71.29665952596868,41.58006050683671,83.93428654937544,-18.812883710977623
-7.0141720576190485,-147.29761321,8.757703080905548,-0.051907944750476116,0.7258654,0.0,12,21,252.29325907493882,1330.597715,mp-1219357,Sm2Co17N2,https://materialsproject.org/materials/mp-1219357,74.33427290498344,39.92791230578192,85.70873067766364,-20.8646665644077
-6.940213138970589,-471.93449345,8.625388172445351,-0.13720457612745082,18.307419175,0.0,136,68,875.2587336957935,4546.382919999999,mp-1195895,Sm2Co14B,https://materialsproject.org/materials/mp-1195895,74.53723688128547,40.1684766748382,83.41909071683888,-7.437564963448707
-6.71678726763158,-255.23791617,7.263766061282501,-0.2052610255263164,16.77948025,0.0,194,38,495.5355510463025,2167.6420916,mp-1204905,Y2Al3Co14,https://materialsproject.org/materials/mp-1204905,72.0895706184447,39.09853914798507,82.75839244301163,-20.025187445101377
-6.915660530882352,-470.26491610000005,8.467512552017586,-0.10582380259803953,18.853348525,0.0,136,68,879.3639912005971,4484.101519999998,mp-1219868,PrNdCo14B,https://materialsproject.org/materials/mp-1219868,74.50039710252155,40.14345771726972,83.41589936184486,-7.477667137300223
-6.4973475647368435,-123.44960373,8.513283066845643,-0.06163096947368424,21.097508899999998,0.0,166,19,254.59436546560462,1305.259225,mp-1190263,Pr2Ga2Co15,https://materialsproject.org/materials/mp-1190263,73.474483006424,39.90455455233098,85.61073702945588,-20.96973471484532
-6.18693117625,-148.48634823,7.8732446779043945,-0.469198157708334,1.1e-06,0.0,119,24,299.1634598176263,1418.4473,mp-1227485,Ce2Si5Ni17,https://materialsproject.org/materials/mp-1227485,74.00557572675605,41.89637785184408,66.38296453839854,-19.26445765197272
-6.2065412454629625,-670.30645451,8.903604111601929,-0.13050447939814774,0.312067525,0.0,64,108,1227.2851203759988,6580.550399999999,mp-1202495,Tb2Ni22C3,https://materialsproject.org/materials/mp-1202495,72.63068829926475,39.910459804202404,71.13692765376946,-6.202998170377039
-5.527826871111111,-99.50088368,7.4289241892259845,-0.5505783894444447,1e-07,0.0,191,18,271.2001863040426,1213.29615,mp-30659,YGa2Ni3,https://materialsproject.org/materials/mp-30659,80.31246478361847,20.267946282628447,70.20019643977592,-6.5068453513087805
-6.026137627368421,-228.99322984,8.282517743548544,-0.17534139263157936,0.1756832,0.0,194,38,471.3853747370575,2351.199,mp-1196175,Y2Ni17,https://materialsproject.org/materials/mp-1196175,72.59857154769901,41.30152911888393,81.6241644483747,-19.691215552413425
-6.484736768636364,-142.66420891,8.667242341531527,-0.12010895140272736,24.1023414,0.0,166,22,250.1387631358184,1305.608135,mp-1191788,Sm2Co17H3,https://materialsproject.org/materials/mp-1191788,74.3570791107697,39.871488342089464,85.71623985499916,-20.57085417360629
-6.721066818157895,-255.40053909,8.036575900665555,-0.10811836026315734,21.359677899999998,0.0,194,38,496.4133698200759,2402.51125,mp-1197924,Y2Ga2Co15,https://materialsproject.org/materials/mp-1197924,72.23059290270817,40.036714349138244,81.8601467306802,-20.16998920956016
-8.736769686923077,-113.57800593,7.577636386621486,0.0002073676923074048,3.8940449999999998,0.0,139,13,164.7449059180037,751.79021,mp-982188,Y(Mn2Fe)4,https://materialsproject.org/materials/mp-982188,72.13139171740298,39.627267923774426,81.72392795130915,-20.000882914390125
-6.010734207222222,-108.19321573,7.4812440200398465,-0.3676167955555556,0.6685068000000001,0.0,191,18,269.7825815308477,1215.454305,mp-30557,YGa2Co3,https://materialsproject.org/materials/mp-30557,80.31522963872395,20.260916379672693,70.15664381001855,-6.510100367186418
-6.0782413734615375,-158.03427571,8.645682532060796,-0.4466059184615388,9.800000000000001e-06,0.0,129,26,310.3917335810538,1616.0706400000001,mp-542390,Ho(SiNi5)2,https://materialsproject.org/materials/mp-542390,71.72577117875234,42.41994830729008,72.66481405783819,-7.869293865834384
-6.10213628125,-146.45127075,8.133726747474816,-0.4671330960416664,1.005e-05,0.0,141,24,297.5162030891155,1457.3072,mp-1190833,NdSi2Ni9,https://materialsproject.org/materials/mp-1190833,74.0609178962187,41.920123844315384,66.35809260470802,-19.303569430631853
-7.108489092999999,-213.25467279,8.61605524103333,-0.10733331366666618,29.338779,0.0,65,30,409.54648541832495,2125.017875,mp-1227615,Ce4ZrCo25,https://materialsproject.org/materials/mp-1227615,79.08166283953695,20.229333521089686,87.34415459762657,-15.582829368634881
-6.74279191,-40.45675146,7.752281023097825,-0.1838118883333332,4.7008184,0.0,191,6,82.05837872014494,383.092235,mp-1215948,YCo3Ni2,https://materialsproject.org/materials/mp-1215948,79.79800922168991,20.311204568417487,86.18954030534533,-16.23241191320188
-6.357470958333334,-76.2896515,8.313691859788657,-0.16636683354166712,7.48128,0.0,47,12,165.212986573025,827.15903,mp-1219012,SmY(Co2Ni3)2,https://materialsproject.org/materials/mp-1219012,79.33400097247636,20.31168158100837,86.71702167251776,-15.699753347595177
-6.8289666816666665,-40.97380009,7.8008122115555585,-0.2406153958333329,3.9389429,0.0,65,6,84.56769077141584,397.27863,mp-1215928,YCo4Ge,https://materialsproject.org/materials/mp-1215928,79.88053607456699,20.228008570485226,86.05843751253954,-15.988394905784139
-6.0804510534615375,-158.09172739,8.69608046077791,-0.4496348746153842,1.5e-07,0.0,129,26,309.4822005568668,1620.7279999999998,mp-21548,Er(SiNi5)2,https://materialsproject.org/materials/mp-21548,71.72908168570281,42.42967710412231,72.6546717606213,-7.860103261815333
-6.065124598333332,-72.78149518,8.17920107229415,-0.3004128914583326,2.3801067000000002,0.0,47,12,165.40935961338562,814.74532,mp-1222838,LaYNi10,https://materialsproject.org/materials/mp-1222838,79.60524900753269,20.24911121719148,86.63328097146768,-15.760604849303627
-6.935202515,-83.22243018,8.371091363666027,-0.07822946020833399,13.629722899999999,0.0,47,12,164.36554513431366,828.5978,mp-1219018,SmYCo10,https://materialsproject.org/materials/mp-1219018,79.14687270257828,20.309760149175784,87.0631962444995,-15.643743423215358
-7.761111211428571,-108.65555696,6.484083658096013,-0.4529195028571432,3.964257,0.0,136,14,188.71964528603382,736.9137,mp-1104575,Y(Fe2Si)2,https://materialsproject.org/materials/mp-1104575,74.45875542457522,40.875122826974724,70.02309746671622,-6.2689992029900345
-6.192768670263157,-235.32520947,10.010375820134547,-0.24275983342105326,0.00510585,0.01909999999999989,194,38,484.9932018426075,2923.72784,mp-30810,Th2Ni17,https://materialsproject.org/materials/mp-30810,70.5432620074251,41.99579201609416,87.7963874171975,-18.428381024329497
-6.270947259333334,-188.12841778,7.89087476060697,-0.3084982406666673,0.8131614,0.0,65,30,402.8165065740314,1914.1824,mp-1216356,Y4ZrNi25,https://materialsproject.org/materials/mp-1216356,79.83311794180669,20.303329802150124,86.15785617255976,-16.283336423811008
-6.9280981275,-471.11067267,8.361713775107024,-0.10035516171568637,18.486266925,0.0,136,68,884.6608451813103,4454.746679999998,mp-1197631,La2Co14B,https://materialsproject.org/materials/mp-1197631,74.50151824129203,40.1142188070681,83.44216563529079,-7.509452076616959
-6.549123119285714,-91.68772367,10.054435313317653,-0.4972749449999999,0.0020535999999999996,0.0,136,14,185.99966998662416,1126.2136,mp-1104089,Hf(Ni2As)2,https://materialsproject.org/materials/mp-1104089,69.10416214551968,11.73500088045144,64.83608288417341,-0.7992273884336993
-6.212885150000001,-37.277310899999996,7.806281083866797,-0.3197740583333347,1.5072875,0.0,191,6,81.33771234209098,382.37285,mp-2152,YNi5,https://materialsproject.org/materials/mp-2152,79.82188125179832,20.29661605044313,86.18791028195282,-16.207476296718323
-6.616000005833333,-79.39200007,7.703073049914146,-0.1679981391666665,8.599456800000002,0.0,47,12,165.11345888531946,765.944675,mp-1216167,Y2(CoNi)5,https://materialsproject.org/materials/mp-1216167,79.81248773413161,20.252534061788413,86.1742791204998,-16.195423695994993
-7.257942815,-275.80182697,8.346694593468339,-0.0039042439473686687,58.531045400000004,0.0,8,38,510.00990594373155,2563.56329,mp-1220144,Pr3ErMn6(FeCo13)2,https://materialsproject.org/materials/mp-1220144,74.1688800482101,39.18562457816053,86.07099169203173,-21.38581698671561
-8.95036292076923,-116.35471797,7.69706313358426,0.001819792307693127,2.6528917,0.0,139,13,161.4060889580081,748.1623900000002,mp-22508,YMn12,https://materialsproject.org/materials/mp-22508,72.15684647218164,39.66675181024353,81.66936408545399,-19.90875130137375
-6.146021995000001,-36.87613197,8.791109883092261,-0.3417543900000008,0.011354399999999999,0.0,191,6,81.89881689057758,433.583,mp-1910,CeNi5,https://materialsproject.org/materials/mp-1910,79.08362521217708,20.23402741329816,87.26279608980623,-15.63616342717587
-6.074994807692307,-157.949865,8.755750596562171,-0.4510427,7.5e-07,0.0,129,26,308.0085014630724,1624.0784199999998,mp-542391,Tm(SiNi5)2,https://materialsproject.org/materials/mp-542391,71.70048422383573,42.44744629367312,72.70141181621601,-7.874486065500472
-7.00797943263158,-133.15160922,8.24642764091859,-0.08638891377193066,21.421426999999998,0.0,160,19,255.45302309753188,1268.60906,mp-1223096,La2TiCo16,https://materialsproject.org/materials/mp-1223096,74.14335467315428,39.358172882096135,85.88892688591419,-21.14884076059288
-6.204559391018519,-670.09241423,8.696850685202591,-0.12193859402777806,0.5570161,0.0,64,108,1243.3783734790666,6512.0275999999985,mp-1199812,Sm2Ni22C3,https://materialsproject.org/materials/mp-1199812,72.60427402530614,39.8478852527321,71.15706926081339,-6.180043571067102
-7.967962806052633,-302.78258663,6.930399678434969,-0.11714128881579045,57.790424699999996,0.0,2,38,506.8918570718906,2115.5559,mp-1216484,Y4Fe29Si5,https://materialsproject.org/materials/mp-1216484,71.88088435598208,39.50297910362771,82.54827887933453,-20.0041859709718
-8.30364086857143,-116.25097216,7.253342273699143,-0.7027217063265313,5.28519455,0.0,136,14,172.41114029342782,753.1030480000001,mp-1105063,Zr(Fe2P)2,https://materialsproject.org/materials/mp-1105063,57.21444830520615,36.56713466640753,70.67618824891694,-4.604064617883445
-6.2633316866666675,-37.57999012,9.210911219687775,-0.2329612183333332,3.5522378,0.0,65,6,81.64355497023547,452.87194000000005,mp-1217588,TbCo2Ni3,https://materialsproject.org/materials/mp-1217588,78.29724933167873,20.69505222745475,87.63854774851255,-15.381111300855515
-6.09533577125,-146.28805851,8.019115236026915,-0.4587837625000013,1.52e-05,0.0,141,24,300.3874855613753,1450.6385,mp-1190679,PrSi2Ni9,https://materialsproject.org/materials/mp-1190679,74.09420398037156,41.93038999266353,66.36431102531715,-19.28535556235187
-7.479034236666667,-44.87420542,9.192616631017836,-0.31658574500000114,5.4932857,0.038399999999999324,191,6,81.41677223504652,450.717,mp-21305,GdNi5,https://materialsproject.org/materials/mp-21305,78.72800670912173,20.390364141424136,87.74901874154496,-15.448210934976972
-5.913560726666668,-35.48136436,9.360104408114443,-0.3307730100000003,1.511744,0.0,191,6,80.89129901107644,455.967,mp-1179,DyNi5,https://materialsproject.org/materials/mp-1179,78.35383674537839,20.711569272427152,87.83113901793264,-15.499823117017446
-6.195927824444445,-669.16020504,8.584196132567849,-0.108319446157409,0.267641125,0.0,64,108,1245.0680209006828,6436.408799999998,mp-1198597,Pr2Ni22C3,https://materialsproject.org/materials/mp-1198597,72.58562166820846,39.83550943093738,71.1815856637873,-6.174796453674767
-6.692186001666666,-40.15311601,6.8382844737780895,-0.24960855333333265,4.2942812,0.0,187,6,85.38384436193165,351.6201686,mp-1215955,YAlCo4,https://materialsproject.org/materials/mp-1215955,79.79462736881737,20.83966397683972,87.23962700010813,-12.232412071550382
-5.906923918333334,-35.44154351,9.25116278474122,-0.3204660700000008,0.0317336,0.0,191,6,81.20224192913253,452.39235,mp-30808,TbNi5,https://materialsproject.org/materials/mp-30808,78.49943365574225,20.563848473173486,87.77658500611628,-15.444063077016475
-6.036585606666668,-72.43902728,8.655814399954227,-0.3162956431250012,1.7633254,0.0,47,12,166.1256582447231,865.9554699999999,mp-1223428,LaCeNi10,https://materialsproject.org/materials/mp-1223428,78.96169898384312,19.82867130207413,87.1212818713931,-14.954326399937495
-8.085636453076923,-105.11327389,7.0850594704278755,-0.2459189776923081,20.5123182,0.0,71,13,164.88694343206024,703.5268500000002,mp-1216179,Y(Fe5Si)2,https://materialsproject.org/materials/mp-1216179,71.93111345175731,39.14589691837729,81.79128044026935,-19.97504296879923