energy_per_atom,energy,density,formation_energy_per_atom,total_magnetization,band_gap,sgr,num_sites,cell_volume,weight,mp_id,formula,URL,tsne_cry_0,tsne_cry_1,tsne_xrd_0,tsne_xrd_1
-7.123285531578947,-270.68485019999997,6.795483786559952,-2.4929870509868435,0.0,3.4151,2,38,547.0499903015696,2238.7124,mp-554313,Nd2Te2W2O13,https://materialsproject.org/materials/mp-554313,-52.25475897458596,-49.321839257413814,-21.42430247333799,-60.8579824234722
-6.2094042435,-248.37616974,6.055314587620318,-2.2160861966875,0.0,2.9826,2,40,642.2385610190564,2341.9844,mp-555940,Dy2Te5O13,https://materialsproject.org/materials/mp-555940,-32.11120082046753,-57.86958793088576,-24.200559283979164,-53.157921001429926
-5.119144151923077,-133.09774795,4.3171160123354655,-1.3609206953846162,12.0002205,2.4346,64,26,611.3239627527549,1589.3372000000004,mp-1194355,Fe3Sb2(BrO)4,https://materialsproject.org/materials/mp-1194355,-21.811082335924016,-40.386001467739426,-7.927095875206955,1.1338768792074956
-6.521299408571429,-182.59638344,6.104118912453682,-1.8395830104516069,0.000433725,0.9781,62,28,732.9838344162323,2694.4386,mp-1209746,Pr3Se3N,https://materialsproject.org/materials/mp-1209746,28.31553935012144,-19.38385613511763,16.81240286749838,1.774033678759169
-9.583221475,-95.83221475,8.586445152892528,-0.7435412512613325,0.0002079,0.0,161,10,106.78808834159271,552.1881999999998,mp-996940,TiReN3,https://materialsproject.org/materials/mp-996940,-41.16478659725693,-63.809157531727,1.8268353858872632,-54.8530965007555
-4.871051134166667,-175.35784083,7.668750017914318,-0.21647560938305568,4.145e-05,0.9213000000000005,62,36,831.6001146214506,3840.52,mp-1245548,Bi4S3N2,https://materialsproject.org/materials/mp-1245548,-19.79299630781055,-54.093307127270926,-13.362744699718704,-48.10394227252049
-7.7873567524,-389.36783762,4.112684729771828,-3.5158366201000018,0.0,3.6439,36,50,953.1668147098812,2360.7241440000003,mp-770836,Ba5Sc6O14,https://materialsproject.org/materials/mp-770836,-33.11069327299632,-27.480471293545126,-21.084634650246716,-30.33134132118053
-5.047515534615385,-131.23540390000002,6.141723689804434,-1.4527379060784615,0.0,1.3994000000000004,14,26,509.8762288800891,1885.8448,mp-1193732,Te2PdPb2(ClO3)2,https://materialsproject.org/materials/mp-1193732,-25.19371558235701,-46.56736653163339,-17.524162207792596,-52.487622594908025
-8.7050383195,-174.10076639,6.792892615056332,-3.98159301375,3.25e-07,4.4572,62,20,249.78550372742177,1021.816448,mp-31120,DyScO3,https://materialsproject.org/materials/mp-31120,10.73777790815007,-82.69812688363912,50.13274667056678,-56.007239500871286
-6.6471129721153845,-345.64987455,4.685266363967662,-2.1295044790384616,0.0,0.15920000000000026,122,52,700.7497411674186,1977.1888,mp-557454,BaV2(CuO4)2,https://materialsproject.org/materials/mp-557454,-21.57207488329843,22.22419625625201,-5.305340377954238,25.174216753735447
-6.9143306708333325,-331.8878722,6.454808886210098,-0.4579028743229176,0.0099441,0.0,225,48,1116.2016694002778,4338.87327,mp-607917,La21Fe8Sn7C12,https://materialsproject.org/materials/mp-607917,28.082137189606858,-42.06931432398709,18.13137950009765,-27.690910819952546
-6.252211970416668,-450.15926187,4.219454617462016,-1.6377937595311107,0.0,2.7508,214,72,1647.836313965252,4187.1768,mp-568923,Ba2BN2Cl,https://materialsproject.org/materials/mp-568923,-23.70312663632084,-25.2844751405792,-14.34797948008257,-25.658158160686625
-5.46250464,-87.40007424,3.1251352907216656,-1.9097530276249997,0.0,3.8448,57,16,310.3478465587404,584.0748,mp-30298,KAsO2,https://materialsproject.org/materials/mp-30298,-53.83156465426539,-3.8004427915281984,-34.22054618453986,10.434162934113065
-6.470023768478263,-297.62109335,4.9741799363297154,-2.484089265739131,12.971594699999999,0.0,164,46,912.6991402343408,2734.009645,mp-1228797,Ba12MnRu5(ClO6)4,https://materialsproject.org/materials/mp-1228797,-15.846755590697338,-79.95744368200558,12.279438463424098,-71.38127910769047
-7.343615414999999,-176.24676996,8.796124839984092,-2.520806980833333,2e-06,2.9166000000000003,15,24,328.09819021008974,1737.9854199999993,mp-1207739,TmTl(WO4)2,https://materialsproject.org/materials/mp-1207739,-47.06471764095942,-56.552097186124506,-19.917992866450547,-61.687069877223635
-7.2194824450000015,-173.26757868,3.223700795244583,-3.4089637963541684,0.0,4.4607,4,24,329.8410653453062,640.3396,mp-1218410,SrCaMgSi2O7,https://materialsproject.org/materials/mp-1218410,-22.069055988672897,-32.240087316873215,4.834161035800505,-21.50274368339393
-5.958105372666666,-89.37158059,6.322713064727143,-2.039836903499999,4.7e-06,0.0,65,15,211.99377667478757,807.1931999999998,mp-1214577,Ba2Sm(CuO2)4,https://materialsproject.org/materials/mp-1214577,24.0020758210056,-77.71128348227332,42.739118159442526,-48.20038166096138
-6.747637898148148,-364.37244649999997,5.877152347216017,-2.7705525480092605,20.000001,2.3459000000000003,9,54,890.4671833580092,3151.634,mp-1228695,Ba6Nd2Fe4O15,https://materialsproject.org/materials/mp-1228695,15.001768615950956,-66.27713712215855,1.5586874222319405,-32.69266818923633
-7.878804979583332,-189.09131951,5.503684790748682,-2.5809759237787357,6.99999995,3.1017,15,24,339.4844274879474,1125.1860000000001,mp-1209311,RbGd(MoO4)2,https://materialsproject.org/materials/mp-1209311,-48.204694938271,-55.1457504011309,-20.802182416500173,-58.91625830543291
-7.601778632830189,-402.89426754,6.658104650469224,-3.192718963443397,5.9993691,0.8101000000000003,1,53,729.7120448858425,2925.85663,mp-766205,SrLiLa15(CoO8)4,https://materialsproject.org/materials/mp-766205,16.51306627329035,-69.63317285991376,38.99362624421989,-41.74164969776388
-6.2700172346875,-401.28110302,3.817247152860821,-2.3767347656121123,0.0,2.2707,33,64,1168.5365109514667,2686.2317368,mp-699401,CsScAsO4F,https://materialsproject.org/materials/mp-699401,-30.70472405333045,-26.988790117879446,-31.95723786132111,7.7745753920777725
-4.685830490625,-74.97328785,5.9131395262344535,-0.23463315187500025,0.00011255,0.0,139,16,289.01796158186545,1029.1860000000001,mp-1189414,YbSi3,https://materialsproject.org/materials/mp-1189414,36.615811779766005,4.280618467650991,9.609590340926164,7.72722415540639
-5.848880623076923,-76.0354481,5.179420705455699,-1.8546466715384609,8e-05,1.3594999999999997,1,13,204.97453717616108,639.3402,mvc-10706,Mg(SbO2)4,https://materialsproject.org/materials/mvc-10706,-40.11616599748104,-41.99979145877534,-19.24772898265007,17.235623891541234
-8.0735687175,-96.88282461,9.010073139866906,-0.5758431669444436,0.13521685,0.0,65,12,136.8310142592978,742.44412,mp-5557,ThB4Mo,https://materialsproject.org/materials/mp-5557,49.394544034378576,-1.4069066262525214,24.00553967806051,13.935093901980432
-5.864846537777778,-105.56723768,7.938834913545993,-1.8271298648611112,4.95793925,0.0,123,18,268.3284416781924,1282.8456,mp-1208668,SrFeBi2O5,https://materialsproject.org/materials/mp-1208668,9.11618528974675,-67.57947401622513,11.604948956783733,-47.60962289455076
-7.104967061666668,-213.14901185,6.608952471186407,-2.8874748405416666,0.0,3.0853,12,30,415.2479463618069,1652.6886,mp-768610,Sr7W4O19,https://materialsproject.org/materials/mp-768610,-19.533678539155677,-80.44554560897177,-11.524222677318404,-45.753957674055755
-5.898685277,-117.97370554,4.9074029547160585,-2.3975424642500003,9.5e-07,3.6077,14,20,356.265096770573,1052.8728,mp-972117,SrTeO3,https://materialsproject.org/materials/mp-972117,-49.24054948154863,-48.30894368241294,-26.683406082809228,-54.375757878128965
-7.764452579999999,-38.8222629,5.944982668384914,-3.4675302143124997,0.0,2.8871,164,5,96.6101636804431,345.8791,mp-3236,Pr2SO2,https://materialsproject.org/materials/mp-3236,0.9476657499618698,-58.11193891667608,-13.730027643184659,-66.20688034623134
-3.7258102516666662,-44.70972302,5.586796982384136,-1.0853413018678155,3e-07,1.5476,63,12,469.982885787978,1581.2329037999998,mp-12487,CsDyCdTe3,https://materialsproject.org/materials/mp-12487,18.60952639722939,-10.616090765311373,3.203184727275625,2.3345208996180773
-8.093716987142857,-226.62407564,5.1243619686715345,-3.510369038482143,0.0,4.4651000000000005,2,28,327.9767429465544,1012.12408,mp-756325,La2(SiO3)3,https://materialsproject.org/materials/mp-756325,-22.350923296954484,-35.8015487740279,-18.006378749367453,-32.24917153707844
-4.487501512272726,-98.72503327,3.983423524710272,-0.6050820093874553,5.0006322999999995,0.9726,14,22,714.0488076765766,1712.9129456,mp-867332,Cs2Mn(PSe3)2,https://materialsproject.org/materials/mp-867332,-7.3627016127592135,-5.836868778310933,-27.617315935769412,-57.64654043053354
-7.470670209756098,-306.29747860000003,4.870694903690781,-3.4647682873170735,0.0,4.5047,148,41,670.3438486169067,1966.2533,mp-1019533,Ba9Y2(SiO4)6,https://materialsproject.org/materials/mp-1019533,-10.137438461469864,-31.699241426128772,13.395897866266115,-71.01731194207728
-8.299630810434783,-381.78301728,4.825636184681706,-3.0293356558804354,0.0,1.9643,127,46,630.0151009763863,1830.86551712,mp-1210526,Na2HoNb5O15,https://materialsproject.org/materials/mp-1210526,-30.243867020173273,-69.87582212103807,-2.889054164108989,-56.249365063325065
-8.0548705540625,-515.51171546,4.826887361727246,-3.380909360647422,7.000000000000001e-06,1.7633,12,64,979.9537402088092,2848.5487,mp-690978,La5Ti6S3(ClO5)3,https://materialsproject.org/materials/mp-690978,5.933444137355846,-41.713915115105785,3.8076268912647695,-23.392898750366808
-5.5241018657500005,-220.96407463,5.661426232721808,-1.5478659089375002,4.0000005,2.3474000000000004,148,40,603.8833995392221,2058.8744,mp-561036,FeTe6O13,https://materialsproject.org/materials/mp-561036,-45.253357328028905,-47.76033647082684,-23.232032111487964,-55.73923085641866
-5.4408221519230775,-141.46137595,4.192451431202804,-2.0985688454775,3.0000002,2.8927,14,26,442.81205109594833,1117.9911900000004,mp-561998,Sr2CoSe2(ClO3)2,https://materialsproject.org/materials/mp-561998,14.199113778415265,-42.0619622518604,1.1615673879875723,-28.786304066154262
-6.055278776071428,-169.54780573,4.153030633009668,-2.3155083369581275,0.0,3.8666,33,28,449.1568377601801,1123.3473356,mp-9113,CsBeAsO4,https://materialsproject.org/materials/mp-9113,-7.798143553136658,-28.442356509189764,-31.941429344006444,-8.100987898352946
-6.711275876818181,-147.64806929,3.8875950461873408,-2.293259310075757,0.0,0.0,140,22,283.90179369120574,664.6608,mp-558472,SrCu2(BO3)2,https://materialsproject.org/materials/mp-558472,-21.984970427775124,28.79708960093616,-17.972139155758267,-21.646994921522495
-4.300459120238095,-361.2385661,6.5805448252867755,-0.6308865932390878,1.995e-05,0.0,11,84,1973.071321680312,7819.077999999998,mp-651706,Cu6AgBi12PbS22,https://materialsproject.org/materials/mp-651706,5.219627039281323,-7.854258093052532,-3.9360830779576097,-10.059224269761016
-2.99215875125,-47.87454002,7.8502761641255905,-0.4505582621484372,1.73e-05,0.7098000000000004,140,16,552.8198882399862,2613.48194,mp-23488,Tl5Se2I,https://materialsproject.org/materials/mp-23488,39.54487377656911,-44.04335750807196,3.971393975955583,-33.03341599084727
-5.3158409575,-63.79009149,5.528191034952117,-1.0957112327011491,6.9999999000000015,0.7719999999999998,63,12,471.81135595381164,1570.7329037999998,mp-1104011,CsGdCdTe3,https://materialsproject.org/materials/mp-1104011,18.54203297743534,-10.639759409037373,3.1727703849421074,2.428774240109977
-7.842289516428571,-109.79205323,6.46377768655432,-3.615592124285714,3.0299999999999998e-05,2.516,65,14,184.3353232755087,717.5396186,mp-1222363,LiLa4AlO8,https://materialsproject.org/materials/mp-1222363,17.016562754064413,-69.96184670101525,38.802125669451215,-41.72784609184188
-7.368702071249999,-176.84884971,7.5992116452746865,-2.6560830284339065,0.0,3.4111,15,24,344.16318992836665,1575.0120037999998,mp-1213324,CsTb(WO4)2,https://materialsproject.org/materials/mp-1213324,-47.49633991821002,-56.37613930033569,-20.97211304395416,-61.35334772364062
-9.462495831944443,-340.64984995,5.8491300564669775,-3.254117971111111,6.982303975,0.0,14,36,492.584202936492,1735.0926399999996,mp-1201130,EuNb2O6,https://materialsproject.org/materials/mp-1201130,-32.863879965140896,-60.316628901510704,-7.541043443141413,-51.20971876485608
-8.785976514782607,-404.15491968,8.184094885981128,-3.0116704719384053,0.0,2.5922,127,46,620.6257674921798,3058.80202,mp-1207743,TmTa5Ag2O15,https://materialsproject.org/materials/mp-1207743,-31.126271603352045,-67.10040607168466,-3.445829241605108,-57.23367434996544
-3.515340972,-35.15340972,10.062907749578716,0.2579793020000004,0.0057071000000000005,0.0,227,10,340.8857899249692,2065.7763379999997,mp-1214182,Bi4Au,https://materialsproject.org/materials/mp-1214182,24.98001068407387,-9.447255234328187,6.854385541071672,2.415638924090268
-7.48272117031746,-471.41143373,7.686852162336402,-2.438559405575398,0.0003409,1.9348,38,63,962.1332251407947,4453.840399999999,mp-1101724,Nb10Pb14O39,https://materialsproject.org/materials/mp-1101724,-19.0981657685092,-75.99611784582521,-2.9114776040633243,-76.7878811480808
-5.217295312083333,-250.43017498,4.642079573584037,-3.2534249050889588,1.9999998333333333,0.5734,145,48,684.3542581981377,1913.1299214,mp-561318,Ba2AlCu2F11,https://materialsproject.org/materials/mp-561318,-15.804060711948823,-20.730698228268086,-12.879398371386568,-16.79988043453408
-4.89518388375,-156.64588428,5.937552946774981,-0.1291965712499996,3.004877525,0.17140000000000022,14,32,972.785799081624,3478.3688,mp-540922,CrTe3,https://materialsproject.org/materials/mp-540922,15.871269786246488,2.659884321552506,-2.8732095757636036,-21.960164817031078
-3.5422921745,-70.84584349,3.4026709508812814,-1.9611178535689653,0.00136995,4.2996,62,20,712.998518305067,1461.0312,mp-998536,RbCaBr3,https://materialsproject.org/materials/mp-998536,-1.9335887330094257,-27.179730553442806,-5.848534134469245,-25.972605450996124
-5.8179422975,-46.54353838,7.702055569855079,-0.8215781174999996,0.000743325,0.0,62,8,168.46264769568953,781.3779999999998,mp-1079295,ErSi,https://materialsproject.org/materials/mp-1079295,30.992612778315827,-41.27610093225152,13.614982367281465,-17.863257212365635
-8.89689137296875,-569.40104787,6.050789284276731,-3.49635333954427,0.0,2.3303000000000003,15,64,831.0432022240518,3028.21384,mp-1218665,Sr3Ta4Ti4O21,https://materialsproject.org/materials/mp-1218665,-33.96524431699679,-56.388659208231275,-5.946616355657811,-54.50204597764261
-5.399578355340909,-475.16289527,5.374214842098154,-1.6647916994545455,0.0,2.9729,205,88,1357.5620298629685,4393.6516,mp-559730,KGa(Te3O7)2,https://materialsproject.org/materials/mp-559730,-47.263531355444,-48.88500580394528,-25.665253726694317,-56.415036906413256
-6.242428012857142,-87.39399218,7.935343208904802,-0.7512828771428569,0.0003559,0.0,12,14,268.6372297018127,1283.7569999999996,mp-12837,Er3FeSi3,https://materialsproject.org/materials/mp-12837,54.37139525280928,-10.060273958231964,29.999941359510306,4.1576474663255505
-3.2453037875,-51.9248606,6.908857604261272,-0.18838235812500012,2.35e-06,0.05220000000000002,140,16,560.2429534262772,2330.9532,mp-28843,Tl2SnTe5,https://materialsproject.org/materials/mp-28843,7.012639305348915,-30.634753476042327,4.1751756968841836,-32.71785833504426
-8.198028144642857,-229.54478805,7.981172112366946,-3.402226635029762,0.0,3.7847,173,28,343.77081516598946,1652.2912,mp-556997,Dy3BWO9,https://materialsproject.org/materials/mp-556997,-28.357706795404223,-59.08631107248769,-11.317297290281589,-53.0896338559761
-7.1512790072916665,-343.26139235,5.124869302183352,-2.604510430541667,0.00011939999999999999,3.2659,15,48,658.1736786305014,2031.30068,mp-1211688,KLiHo2(MoO4)4,https://materialsproject.org/materials/mp-1211688,-51.10174122764336,-53.75551414636497,-23.792173537005272,-59.812613903667604
-4.824002692571429,-337.68018848,4.316618629909129,-1.9689595654434533,0.0028106999999999997,2.0588,148,70,2089.941276587223,5432.861999999999,mp-1229044,Ba12In4S19,https://materialsproject.org/materials/mp-1229044,1.8413871738404464,-20.76734222613381,-14.061508044579618,-27.56192756987119
-4.37482765125,-34.99862121,6.288228007266446,-0.7918824182812507,5e-08,1.2228999999999997,11,8,252.73184938363198,957.06,mp-1087486,PbS,https://materialsproject.org/materials/mp-1087486,5.178944228352366,-6.305953471591789,-21.069402882517494,-36.27514238431982
-6.183357141538462,-80.38364284,3.9235714831582382,-2.5395979047645887,0.0,3.6203,164,13,245.64377198398543,580.4144772000002,mp-556275,Rb2Al2Sb2O7,https://materialsproject.org/materials/mp-556275,-38.256859803440754,-20.53062766968185,-30.157549632236066,-8.318819203601237
-6.632374459166668,-79.58849351,4.222206394091304,-2.7557357136566103,0.0,3.5443,36,12,243.96208398588038,620.3156,mp-756156,Rb2ZrO3,https://materialsproject.org/materials/mp-756156,-4.35157180414381,-30.530475704291,-0.16212754487070308,-34.65070274219605
-4.438766979166666,-53.26520375,5.004225606645245,-0.7059520868750001,0.47203815,0.0,11,12,200.42019638003373,603.9893400000001,mp-1095489,Cu2IO3,https://materialsproject.org/materials/mp-1095489,-35.10982875688248,17.536502574205116,-18.99842275569947,20.250936024073464
-8.593145806276597,-807.75570579,4.477076539620151,-3.5473269558333334,0.0,2.5853,64,94,1225.1215690291147,3303.1220000000003,mp-29298,Ba4Ti13O30,https://materialsproject.org/materials/mp-29298,-11.303823086030484,-20.540674673602165,-6.758010092877182,0.5447100339540325
-4.538066638,-22.69033319,5.516552026344807,-0.4042934279519997,5.400000000000001e-06,0.39700000000000013,139,5,124.94287819078652,415.0784,mp-1247299,Ba2CdN2,https://materialsproject.org/materials/mp-1247299,-0.6259216117897264,-30.878963367861942,-26.849574300716853,-89.79808867924679
-5.3784091995,-430.27273596,5.106894346261963,-1.1053240074999997,0.000457425,0.1257999999999999,134,80,2838.5256965642047,8729.725999999999,mp-28840,Y4RuI5,https://materialsproject.org/materials/mp-28840,19.356369154574985,-13.336573302046135,4.367340721610713,4.724887439646273
-3.5599368042857145,-49.83911526,5.107395595909796,-1.5305166482142858,0.0,2.1847,9,14,559.8953492311955,1722.0956399999998,mp-772160,SrLaI5,https://materialsproject.org/materials/mp-772160,3.88091407393274,-28.24919824902982,-4.01137648521099,-28.474123249097193
-5.624997465769232,-292.49986822,7.707384675777342,-1.7406373774953858,4.05e-06,2.5488,73,52,1013.3769804110301,4703.5848128,mp-760319,Bi5O7F,https://materialsproject.org/materials/mp-760319,-22.906141864417144,-55.920997896558355,-13.237300985427348,-60.686932088275135
-7.436360478636362,-327.19986106,3.520694072041404,-2.9170648191396107,4.0000052,3.0006,7,44,591.5625206367431,1254.237696,mp-1179211,SrCrP2O7,https://materialsproject.org/materials/mp-1179211,-24.357317767668327,-32.56911027552022,-3.348647900198288,-25.71903862114391
-7.397645338333334,-44.38587203,4.936660405130227,-0.0024461783333341227,15.0843437,0.0,12,6,220.814747617602,656.466,mp-1183959,Eu2Mg,https://materialsproject.org/materials/mp-1183959,0.7078217037870499,-34.06585028203781,-28.648295620351142,-58.53492598966286
-5.345531123333334,-192.43912044,4.043666940097701,-0.6171422749466665,0.876434,0.0,62,36,862.7248621448528,2100.8672,mp-1246043,Sr4SnN4,https://materialsproject.org/materials/mp-1246043,3.4443820936676284,-33.30072982412528,-11.592122158480079,-54.50361885965937
-6.0457763,-199.5106179,8.690230901069746,-1.8274620455050503,0.0,2.313,197,33,549.4766475663139,2875.6198,mp-23494,Ti(Bi3O5)4,https://materialsproject.org/materials/mp-23494,-20.888250425277445,-60.249572492774284,-17.759632005314177,-91.9178771194888
-7.4695516714285715,-52.2868617,5.858854079334985,-3.5089035978571435,0.0,3.111,6,7,137.7824283729987,486.1356,mp-1094076,SrEr2O4,https://materialsproject.org/materials/mp-1094076,-32.39698781424594,-51.52300409510334,-24.12900787359803,-33.46857252338763
-5.1844697725,-62.21363727,3.5908398949702827,-1.106544539252873,1.0000002000000001,1.7561,121,12,201.80527603419785,436.3947,mp-1209300,Rb3CrO8,https://materialsproject.org/materials/mp-1209300,-30.097527461717423,-21.23103227477572,-6.137821574521498,-3.9093806240648865