energy_per_atom,energy,density,formation_energy_per_atom,total_magnetization,band_gap,sgr,num_sites,cell_volume,weight,mp_id,formula,URL,tsne_cry_0,tsne_cry_1,tsne_xrd_0,tsne_xrd_1
-4.5512320385714276,-63.71724854,6.865851451763057,-0.4788033185714288,1.1e-06,0.0,12,14,244.02242255659726,1008.96255,mp-1216128,Y3Ga7Cu4,https://materialsproject.org/materials/mp-1216128,68.79984591450476,3.4988012092595553,46.11860582702758,21.01071160191666
-8.3397372475,-100.07684697,12.876451406702357,-0.2265141066666677,5e-07,0.0,38,12,147.48972053152212,1143.6914,mp-1219259,SiNi3W2,https://materialsproject.org/materials/mp-1219259,69.07108649098795,50.29017627249143,72.18284434884609,18.13428708127377
-11.2444661225,-44.97786449,16.29305905224848,-0.3851950650000013,1.6e-06,0.0,225,4,66.25140083137336,650.0527599999999,mp-1186766,Ta2MoIr,https://materialsproject.org/materials/mp-1186766,96.9090974590976,10.736807141206489,62.27672708072621,63.59513351233539
-8.474444747777778,-76.27000273,7.568511438460617,-0.0709870647088893,19.430979,0.0,139,9,101.09267851454659,460.7667,mp-555,Fe8N,https://materialsproject.org/materials/mp-555,51.83055566357026,53.69850945380219,83.36684190125172,-0.08101706475847023
-4.326023282,-21.63011641,5.377118526153545,-0.31503668495199977,0.0,0.1640999999999999,164,5,56.555409810278775,183.1364,mp-1245625,Mg(ZnN)2,https://materialsproject.org/materials/mp-1245625,23.531987186997963,47.0309829074934,60.803960795467034,-18.29593966893805
-6.57085267,-52.56682136,8.928761700593073,-0.5391829224999993,2e-07,0.0,129,8,128.3397535392991,690.0862000000002,mp-1079332,HfCuSiAs,https://materialsproject.org/materials/mp-1079332,31.399489833736023,30.84078132605729,61.40388028396525,-6.932708381102066
-4.543861051,-136.31583153,8.770390590763935,-0.4663664123333338,2e-06,0.0,127,30,509.8858494387853,2693.04,mp-644533,Yb2Ga10Ru3,https://materialsproject.org/materials/mp-644533,62.20580424713649,20.492979176187973,62.24813974862332,8.549624801706969
-6.736708778333334,-40.42025267,10.756086673722997,-0.5112866833333326,2.4e-06,0.0,139,6,97.16020311133775,629.352,mp-1077453,HfCuGe,https://materialsproject.org/materials/mp-1077453,34.41077630004093,29.142428703582592,57.109880395965405,11.333700619528727
-7.802705393333333,-23.40811618,5.748721610267061,-0.1288684266666659,0.0,0.007200000000000095,139,3,37.83223834871895,130.9737386,mp-1699,AlCr2,https://materialsproject.org/materials/mp-1699,44.04875030774849,45.538251375306224,87.5800379084519,-3.100704176166132
-9.044112118333333,-54.26467271,7.868040050026293,-0.12168297325333315,5e-07,0.0,127,6,52.32038945710454,247.9068,mp-1080193,MoN2,https://materialsproject.org/materials/mp-1080193,31.43382580808873,40.353071913279344,66.73546376661783,14.299487337721029
-5.394249762272729,-237.34698954,6.1664047668788875,-0.4759511436363633,2.98363085,0.0,62,44,716.1938723762137,2659.582944,mp-30701,Sc3(Ga3Fe)2,https://materialsproject.org/materials/mp-30701,51.76547927294156,44.11493923078714,66.84515910238309,-5.025718014847737
-6.728735065,-80.74482078,15.209502912036402,-0.7804811236111107,0.0,0.0,191,12,203.5192264585736,1864.1093,mp-13483,PrBPt4,https://materialsproject.org/materials/mp-13483,64.23649379675571,15.25780965330982,53.47409698859777,13.379165500779926
-7.849632239999999,-47.09779344,7.319025651745412,-0.1604741366666668,0.0780217,0.0,216,6,77.49885699737361,341.58553860000006,mp-1215319,ZrAlFe4,https://materialsproject.org/materials/mp-1215319,64.05538882043625,47.96713032375594,80.3830197764425,-3.368334536525324
-5.8703606725,-23.48144269,11.365077526103153,-0.7472178012500006,5.6e-06,0.0,225,4,65.19189428657795,446.18699999999995,mp-865566,LuZnRh2,https://materialsproject.org/materials/mp-865566,95.55896447224652,10.375345461794453,60.827958416755706,62.92095884929101
-5.0662206825,-40.52976546,10.211593402682952,-0.23364362550781334,0.0,0.0,166,8,128.84569075215168,792.345,mp-1219468,SbPd6S,https://materialsproject.org/materials/mp-1219468,65.51384049782638,36.59132809547175,62.52545743449117,61.290662551353066
-6.962309742916666,-167.09543383,8.995109159265885,-0.2866229450000001,0.00158765,0.0,194,24,339.6353006824362,1839.79812,mp-1191126,Ce3Co8Si,https://materialsproject.org/materials/mp-1191126,73.89630141609562,23.663469160878854,62.33566093975208,17.415048839401223
-4.263313466818182,-187.58579254,5.670957043818223,-0.3948843728409092,1.075e-06,0.0,62,44,671.227115118866,2292.328,mp-624299,Cu7S4,https://materialsproject.org/materials/mp-624299,15.312385014245605,26.431015027898912,20.31607534736433,-48.71231100368031
-11.33823067,-45.35292268,15.710657984114134,-0.3365280337499996,2.08e-05,0.0,225,4,63.74123413471382,603.0672599999999,mp-864670,Ta2VOs,https://materialsproject.org/materials/mp-864670,92.68298351589479,15.201299903421585,58.07902252533671,61.77838660386711
-6.622921766363636,-72.85213943,6.6338126151974635,-0.6316964580519482,2e-07,0.0,187,11,125.60758647622242,501.799218,mp-10924,Mg(Co3P2)2,https://materialsproject.org/materials/mp-10924,39.55797150480547,49.061007179281724,69.91743479778485,-19.247668921326788
-6.96348079,-27.85392316,9.926418392721104,-0.3122349308333332,4.2719345,0.0,123,4,62.82666271827162,375.567045,mp-1221572,MnInRh2,https://materialsproject.org/materials/mp-1221572,65.49155237989514,36.68744943854137,62.576788672256534,60.80466689877158
-6.080600615000002,-145.93441476,5.640656710859287,-0.3496636672222226,0.0032008,0.0,58,24,465.62735161551,1581.6816,mp-672228,TiAs2,https://materialsproject.org/materials/mp-672228,32.65001086200982,28.41285934280986,56.03060344615941,-3.091864788732358
-6.686866250294116,-227.35345251,11.40177912321362,-0.17671816970588214,4.15e-06,0.0,64,34,549.0254454645882,3769.78,mp-1200988,Hf7Cu10,https://materialsproject.org/materials/mp-1200988,67.71782648304475,15.547705571029965,66.08860530582416,0.5948883808833394
-8.759119654761902,-183.94151275,7.629524606445293,-0.010284059880951818,4.9993672,0.0,12,21,269.83448523644716,1239.783465,mp-1220018,Pr2Mn17C2,https://materialsproject.org/materials/mp-1220018,77.75101459549717,34.495066528159825,88.1588974724025,-25.816093855873
-3.8344447372727273,-84.35778422,2.5097546479745643,0.20142435318181773,0.0017283,0.0,6,22,388.8006266413215,587.637,mp-1074201,Mg4Si7,https://materialsproject.org/materials/mp-1074201,39.20500930600275,24.691588878221182,59.96895649437489,1.7831841948885732
-7.907247207999999,-39.53623604,8.274118965792503,-0.2052258584759997,8.2912968,0.0,221,5,57.79124603497506,287.9617,mp-16334,Fe3PdN,https://materialsproject.org/materials/mp-16334,50.805539555333745,62.162755523874296,85.40944584205918,9.580228329289934
-4.620988397045455,-203.32348947,3.4691964879045263,-0.420342132045454,1.575e-06,0.0,55,44,715.6746682347075,1495.1867952,mp-17871,Ca(Al4Co)2,https://materialsproject.org/materials/mp-17871,45.28048570028177,43.417125734306815,64.33143146822681,-10.775549122228258
-10.3052380035,-206.10476007,15.792529364460394,-0.6483063251666664,1.1e-06,0.0,128,20,241.31170697369882,2294.99104,mp-1189186,Ta2B2Os,https://materialsproject.org/materials/mp-1189186,60.14484076544172,28.90111417684502,65.37971568636682,12.87400132825886
-4.693963165,-18.77585266,5.466501465067209,-0.3908159675000009,1.6e-06,0.0,225,4,45.96268115310746,151.3093386,mp-867812,LiAlNi2,https://materialsproject.org/materials/mp-867812,45.997894461129455,60.29149235444846,61.268402896557724,-30.56758206658409
-4.0807305825,-16.32292233,7.865650309794107,-0.026385724999999915,0.0,0.0,194,4,76.95312945641541,364.51199999999994,mp-10598,CuSn,https://materialsproject.org/materials/mp-10598,26.552916544042176,23.698030569551722,59.51651661085757,-22.993038335338802
-7.674439372666668,-115.11659059,5.4223511877705945,-0.9178235381666668,3.6444322000000002,0.0,148,15,271.9423584257864,888.005,mp-1103998,Fe(Mo3S4)2,https://materialsproject.org/materials/mp-1103998,28.174966212915123,33.91935499233398,32.548538007020305,-46.890551872640295
-4.874825390208334,-233.99161873,3.9847988692353296,-0.3972275752083328,2.85e-06,0.0,71,48,699.0761951947095,1677.5745496,mp-1228742,Al9Co2Ni,https://materialsproject.org/materials/mp-1228742,43.197754418149394,43.85736789937884,66.8504891962681,-14.317844681464903
-6.9929234103636375,-384.61078757,9.73255734612522,-0.9498823672857146,0.027547199999999997,0.0,143,55,804.2722441028593,4713.906478,mp-1215876,Yb6P19Rh30,https://materialsproject.org/materials/mp-1215876,67.16215837276954,7.076309431838332,51.84718521062963,10.154245950081227
-8.224123604761905,-172.70659569999998,8.005172484025099,-0.05498873547619117,36.2629279,0.0,8,21,267.79746118261073,1291.0054,mp-1219129,SmErFe17C2,https://materialsproject.org/materials/mp-1219129,76.40441685777623,34.39593296966141,87.87193476115992,-24.539450607230677
-7.682087108333333,-368.7401812,10.739441399688088,-0.5656522733333323,4.166666666666666e-08,0.0,55,48,788.2682677787195,5098.08,mp-1204281,HfGe2Ru,https://materialsproject.org/materials/mp-1204281,65.24836227092534,19.876898613456113,57.17799484048831,21.375442649253124
-8.6032246125,-137.6515938,7.313213642798733,-0.38133908053571375,0.717606025,0.0,82,16,177.82247991517963,783.1515880000002,mp-19884,Mn3P,https://materialsproject.org/materials/mp-19884,43.36554048416472,54.21902531310971,77.27514266317318,-12.81724263713242
-5.22074283,-20.88297132,8.564297877437214,-0.2679414800000002,0.0,0.0,194,4,69.97652811450396,360.9068,mp-810,NiSb,https://materialsproject.org/materials/mp-810,25.884467596143445,23.773320106442362,60.03030262521777,-23.07421466092727
-9.16050943857143,-192.37069821,8.87574857581234,-0.5978284073015873,0.00026619999999999997,0.0,175,21,251.30539283101547,1343.2526599999999,mp-1191941,Nb7(B4Ru3)2,https://materialsproject.org/materials/mp-1191941,63.56977442500183,40.308296815883736,72.00874512077723,5.881004104816184
-8.452681965,-50.71609179,8.409620205008705,-0.2381202983333341,7.2999999999999996e-06,0.0,166,6,89.88001086727269,455.187585,mp-1215528,Zr2Co3Mo,https://materialsproject.org/materials/mp-1215528,69.46623112004117,46.28181648523285,76.1996486477507,24.555385090839696
-11.193303005,-44.77321202,12.534411091879607,0.06441859062499944,3.4e-06,0.0,65,4,62.798350376750214,474.027,mp-1219493,ReMo3,https://materialsproject.org/materials/mp-1219493,95.61094513384971,17.84528422488593,62.20398750303586,61.039454988642575
-6.645468626666666,-19.93640588,7.16490758534288,-0.059220956197915335,3.9983656,0.0,216,3,44.69056974393424,192.83124,mp-1008873,MnCoSe,https://materialsproject.org/materials/mp-1008873,41.594944579422815,60.86860158136154,62.48030246221264,-30.46537014191414
-7.927170524,-79.27170524,6.610578740527434,-0.5379031712857156,8.15e-06,0.0,12,10,145.15070275124702,577.842572,mp-11690,Tc2P3,https://materialsproject.org/materials/mp-11690,28.44032449294548,28.889382488671178,54.97708641106183,-14.401278148605918
-7.073342594791666,-339.52044455,7.712725931850105,-0.5101312847916665,0.5722331083333333,0.0,55,48,755.3079397781894,3508.188,mp-1201558,ZrFeGe2,https://materialsproject.org/materials/mp-1201558,63.351217701989746,35.21313379094986,71.87967259374956,4.548396146461839
-7.3813533885,-147.62706777,6.877803546779155,-0.42147949849999977,0.00010295,0.0,118,20,346.6396460390169,1435.7502772,mp-1215365,Zr5AlNi4,https://materialsproject.org/materials/mp-1215365,69.55019070356154,18.071515094695645,60.576193180492325,5.557638542927611
-7.6960804691666675,-92.35296563,7.999100000426226,-0.3407749008333336,0.088526125,0.0,38,12,151.72300222759503,730.8756,mp-1219282,SiNiMo,https://materialsproject.org/materials/mp-1219282,65.3671110177238,47.006891082744,72.43181882841255,17.580968074962854
-8.278661585,-182.13055487,7.819448174702701,-0.05474141460227341,34.41559,0.0,166,22,273.1199960466241,1286.1171,mp-972662,Sm2Fe17C3,https://materialsproject.org/materials/mp-972662,77.9128965486225,34.32365233788042,88.68159289094177,-25.90416572716056
-7.686520862857143,-107.61129208,5.062400830919652,-1.0515632451785717,2.8999999999999998e-06,0.0,148,14,272.9602442948737,832.16,mp-2164,Mo3S4,https://materialsproject.org/materials/mp-2164,28.146204234463823,34.097437123962656,32.7064568769643,-46.574818919509795
-9.33938307,-224.14519368,9.390367184586502,-0.20978495039666592,0.053312325,0.0,198,24,294.51052971745906,1665.4604,mp-1225097,FeNiMo3N,https://materialsproject.org/materials/mp-1225097,63.04450461495963,41.723883530438755,74.74909511646726,5.669597770682689
-9.1368673875,-109.64240865,14.969046136703408,-0.06451295249999944,0.001481025,0.0,194,12,231.3444234486721,2085.4706,mp-567339,PrOs2,https://materialsproject.org/materials/mp-567339,82.92673753546106,11.069759217043496,59.91759709763241,25.822748176737555
-8.2621708075,-165.24341615,7.730567640791932,-0.016608565937501398,35.8517653,0.0,12,20,266.6994396809132,1241.6077,mp-1227149,Ce2Fe17C,https://materialsproject.org/materials/mp-1227149,76.8454943702913,34.878930986079595,87.21199091335475,-23.98623268759391
-8.01627138095238,-168.341699,7.832334156542274,-0.20022705005381106,31.8301514,0.0,2,21,263.92442327559144,1244.8634,mp-1225737,Dy2Fe15Si2CN,https://materialsproject.org/materials/mp-1225737,74.93495815918982,34.76893310543385,88.60308305438275,-22.73296681965984
-6.849663345714285,-47.94764342,7.858763993200963,-0.4006586861904761,1.0000046,0.0,160,7,107.75203800662143,509.953585,mp-1217124,Ti2Co3Sn2,https://materialsproject.org/materials/mp-1217124,85.56288171619268,39.87107495816724,51.106791845832205,52.07279134757944
-4.072308927272728,-89.5907964,8.074061336832765,-0.01387794136363593,0.0,0.0,15,22,400.97209141144,1949.652,mp-1233,Cu6Sn5,https://materialsproject.org/materials/mp-1233,34.50834299726537,29.073359610719443,67.57868428370341,-0.5145072499967179
-6.484288285,-25.93715314,11.546562941528325,-0.9216849575,8.499999999999999e-05,0.0,225,4,64.78763436767126,450.501,mp-865609,LuGaRh2,https://materialsproject.org/materials/mp-865609,95.64053530273372,10.65941943528948,60.76429124677922,62.64858471458636
-5.969740886666667,-232.81989458,8.074447939945719,-0.6993146948717952,0.112844,0.0,174,39,613.1112066192508,2981.28162,mp-1212204,La6Ni20As13,https://materialsproject.org/materials/mp-1212204,66.98557028468325,8.522897312509631,51.84389470654335,8.741946183332036
-5.87683542,-23.50734168,11.411417681235795,0.4302215687500004,3.4121229,0.0,139,4,56.13699750877407,385.779985,mp-985280,Co3Bi,https://materialsproject.org/materials/mp-985280,53.56031263178653,58.36488802998743,87.51917016713465,2.4023555838994817
-6.405603613333334,-57.65043252,6.883905853970934,-0.5288959144444445,0.0,0.0,189,9,140.87927035705428,584.0269999999999,mp-7930,Zr3(Cu2Si)2,https://materialsproject.org/materials/mp-7930,62.6083936356721,27.022677018577053,59.56257671160356,8.518995154454608
-3.758240166,-75.16480332,2.435021310188359,0.13868411699999966,1.1075e-05,0.0,2,20,362.42805668274553,531.466,mp-1073065,Mg2Si3,https://materialsproject.org/materials/mp-1073065,38.63337313227598,24.983166251404523,58.188495991920355,-0.6104526406990053
-7.866262343333332,-94.39514812,6.784636376480187,-0.9764681972222226,3.81e-05,0.0,62,12,175.10190679984615,715.432,mp-672645,TiSiRh,https://materialsproject.org/materials/mp-672645,47.3803038625296,44.14493468000291,60.07746693076765,-8.01331196846177
-7.66571974,-183.97727376,6.600697926958627,-0.2958120491666681,0.00069905,0.0,227,24,300.1703682781948,1193.1871999999996,mp-504625,V3SiNi2,https://materialsproject.org/materials/mp-504625,47.210526226336356,53.45717743438739,77.66663555545695,-9.452899994171402
-6.988539762916666,-167.72495431,9.36836784003581,-0.42504837125,3.7161915,0.0,191,24,277.51388161088624,1565.6675699999998,mp-1190854,Tm2Co7B3,https://materialsproject.org/materials/mp-1190854,73.46785594069385,25.88689675235123,60.08544182128106,15.285011320033494
-6.427519534500001,-128.55039069,7.236620006630485,-0.40699433383333455,0.0,0.0,136,20,300.99973724297155,1311.7551999999996,mp-20339,Ti2InNi2,https://materialsproject.org/materials/mp-20339,47.99476850045947,44.44219142521707,65.4224362175668,10.789370726871365
-4.460380761666666,-26.76228457,8.139130237914188,-0.23335393499999965,0.6557445,0.0,65,6,94.66961265327816,464.023,mp-1226702,CeGaCu4,https://materialsproject.org/materials/mp-1226702,75.25277710667972,15.652687622716046,84.88170082860594,-11.609835053955658
-9.633891267241381,-279.38284675,7.155909116130708,-0.08226953387930999,1e-07,0.0,225,29,294.2353130545293,1267.9745,mp-723,Cr23C6,https://materialsproject.org/materials/mp-723,39.58337954479768,55.214762389180024,79.15421971715945,-11.003306710003743
-10.381106785,-20.76221357,11.960398730218884,0.08622445499999998,0.3327067,0.0,65,2,32.19469326540991,231.88938,mp-1217812,TaV,https://materialsproject.org/materials/mp-1217812,91.25306362110454,17.20865579734119,61.90879811658989,24.54637184561554
-7.426838320714286,-103.97573649,5.935553618805637,-0.7847147386160722,2.5e-07,0.0,1,14,285.28393295692825,1019.74,mp-1221501,Mo3(SeS)2,https://materialsproject.org/materials/mp-1221501,28.11134704958032,33.77595222771673,32.65000385185417,-46.760953636704684
-4.349823180833334,-104.39575634,7.406188430522271,0.040325111666666885,0.809863025,0.0,19,24,460.0872045867336,2052.04,mp-655580,CeCu4Sn,https://materialsproject.org/materials/mp-655580,28.02431564220823,22.187345042949094,41.00557174053077,-10.345959341730596
-8.457208406666666,-152.22975132,8.176276857737665,-0.5558238446296302,1.49e-05,0.0,193,18,281.59274214012964,1386.5258,mp-1105818,Nb5Ge3B,https://materialsproject.org/materials/mp-1105818,65.08304859554842,32.97433383854211,70.28387890219477,5.430600412353488
-7.857719265,-31.43087706,9.36452820481789,-0.6097388862500006,0.0,0.0,225,4,65.4063534878013,368.855912,mp-862561,ScSbRu2,https://materialsproject.org/materials/mp-862561,95.55028094104256,10.378840041271511,61.02214228945101,63.3549626439583
-8.020036197500001,-160.40072395,8.483494100184924,-0.7064633008333331,4.0788976,0.0,127,20,266.2309043610586,1360.141648,mp-1219428,Sc2FeB2RuRh4,https://materialsproject.org/materials/mp-1219428,58.492556898357144,39.77873063826655,70.0487482414995,12.395833398305431
-10.121322915,-40.48529166,14.970807360834275,-0.6384399725000005,4e-07,0.0,225,4,67.00973457711717,604.135045,mp-865138,Hf2MnIr,https://materialsproject.org/materials/mp-865138,94.95472260801444,9.097955913486665,61.51071322356578,64.73684517237247
-8.986148514166667,-107.83378217,10.755333182441614,-1.0448641715476203,3.7000000000000006e-06,0.0,62,12,163.84636328116287,1061.235048,mp-22434,HfFeP,https://materialsproject.org/materials/mp-22434,60.6520510202478,24.131285940415374,57.85305608636922,11.88959674711836
-8.273339551904764,-173.74013059,9.383290787135124,-0.9305475245238108,14.092846599999998,0.0,147,21,312.5571597318852,1766.182334,mp-1225969,Gd2P7Rh12,https://materialsproject.org/materials/mp-1225969,67.18273909803186,7.074490891980556,52.208068600673116,10.122445358622448
-4.1710081825000005,-100.10419638,8.16036329976675,0.06542145624999958,0.0,0.0,165,24,324.22974349148524,1593.3575999999996,mp-7634,Cu3As,https://materialsproject.org/materials/mp-7634,52.689439083736595,53.132926913699826,77.6086045212989,-0.999851044320468
-7.235390522,-108.53085783,7.023061077061838,-0.5029117883611112,0.0585905,0.08090000000000064,148,15,296.777572219614,1255.187,mp-1104333,Ti(Mo3Se4)2,https://materialsproject.org/materials/mp-1104333,31.591342324087197,32.928265844986704,35.60473837204441,-49.21000362433414
-7.329130831290323,-227.20305577,5.635071021650282,-0.9395601827419358,1.47e-05,0.0,1,31,546.617809203449,1854.958,mp-675781,Cu3(Mo3S4)4,https://materialsproject.org/materials/mp-675781,28.07992423692032,33.79901645059759,32.51105123523043,-46.948266659140394
-10.7833754975,-43.13350199,15.719306201192017,-0.3698888700000005,2.8999999999999998e-06,0.0,225,4,63.91606647194907,605.05426,mp-1187195,Ta2VIr,https://materialsproject.org/materials/mp-1187195,92.65424887274106,15.161423017218327,58.03789743865789,61.85852541424666