energy_per_atom,energy,density,formation_energy_per_atom,total_magnetization,band_gap,sgr,num_sites,cell_volume,weight,mp_id,formula,URL,tsne_cry_0,tsne_cry_1,tsne_xrd_0,tsne_xrd_1
-4.848341780769231,-189.08532945,7.266812412563605,-0.2438068744070512,1e-07,0.0,2,39,615.6914418141685,2694.3746,mp-685124,Ni19Se20,https://materialsproject.org/materials/mp-685124,20.905310115181717,36.46245514671869,62.81800816647323,-22.623489047088512
-7.983722089166666,-95.80466507,7.95181075290938,-0.7653238975000001,0.314787775,0.0,62,12,185.4289893295829,887.9624000000001,mp-1207418,ZrFeAs,https://materialsproject.org/materials/mp-1207418,62.304390502740574,35.63186939442265,71.4135508200558,2.7976037717216213
-8.2042945525,-32.81717821,7.394992394527758,-0.3282375112500002,3.0000001,0.0,225,4,43.72275532407013,194.71354499999998,mp-5529,MnFe2Si,https://materialsproject.org/materials/mp-5529,42.21488140172221,60.150558769214236,91.64527690112014,-8.745806303414367
-7.182915208421052,-136.47538896,7.042835443112887,-0.1090777218421064,24.6644853,0.0,160,19,267.51999859998267,1134.6311544000002,mp-1219212,Sm2Al4Fe13,https://materialsproject.org/materials/mp-1219212,73.02777664588838,35.31453371019352,88.52576082950182,-22.792431514017764
-7.561482859375,-241.9674515,5.971298075258612,-0.8828376091666668,0.005939975,0.0,62,32,516.2400715176594,1856.3992,mp-1201836,Ti5As3,https://materialsproject.org/materials/mp-1201836,35.9773942674745,29.38297654199749,68.81762160859915,-1.7959656339613013
-8.624855024166667,-103.49826029,11.452940273174551,-0.09855876416666713,2.00470235,0.0,164,12,148.64770064929738,1025.2413199999999,mp-1218042,TaCo4Mo,https://materialsproject.org/materials/mp-1218042,64.61907360177214,46.82628633495376,72.30966162516069,17.47402198523266
-5.566302664166668,-267.18252788,9.406653364799741,-0.42572970625,4.5e-07,0.0,64,48,771.0634848023467,4367.9352,mp-568709,Dy2Ni7Sn3,https://materialsproject.org/materials/mp-568709,68.95366766449021,14.946633564063553,62.874387327666454,0.6454840075921721
-8.93376784875,-71.47014279,6.636242430075746,-0.34991066249999925,5e-08,0.0,223,8,92.11891649885463,368.1476,mp-729,Cr3Si,https://materialsproject.org/materials/mp-729,49.725218182110645,55.2505347911349,78.96842706607424,-6.531345601379496
-7.135707363333334,-64.22136627,6.854206714108045,-0.4153065166666663,3.173333333333333e-05,0.0,153,9,140.73107634766035,580.8956400000001,mp-1220385,NbSiGe,https://materialsproject.org/materials/mp-1220385,54.0787403649553,42.45194606369679,71.03813650885489,18.152458294209254
-8.182431712413793,-237.29051966,8.39849398803184,0.039206946896552484,13.1810459,0.0,225,29,438.36742272570564,2217.127135,mp-1192517,Tb6Mn23,https://materialsproject.org/materials/mp-1192517,71.06659432091273,28.45835493886516,62.444487504551496,11.939816447309392
-9.267636971,-92.67636971,7.426654518705293,-0.6236298936666671,0.0001035,0.0,127,10,116.01322510041194,518.86172,mp-1079560,Nb2CrB2,https://materialsproject.org/materials/mp-1079560,59.73472679688431,28.58392537490433,64.7198624204635,14.968084034931168
-6.355236962272728,-139.81521317,5.6870817749128735,-0.7704148924999992,3.5000000000000004e-06,0.0,71,22,373.5035584225025,1279.190208,mp-637866,Sc9Ni5Ge8,https://materialsproject.org/materials/mp-637866,43.807774716429684,26.60907508463325,65.30852365659152,-5.080048184089383
-7.6216187828571424,-160.05399444,9.395515166000743,-0.6799385464285714,1.4363958000000001,0.0,174,21,247.44518997001012,1400.072494,mp-1187852,U2Co12P7,https://materialsproject.org/materials/mp-1187852,54.95937775942188,33.477251130831235,62.3998428764923,-4.815833399919863
-7.494831904137932,-217.35012522,8.211510495087536,-0.27039527034482824,12.1785371,0.0,225,29,282.37204303190236,1396.3544,mp-1193521,V3(Co10B3)2,https://materialsproject.org/materials/mp-1193521,39.20640131022632,53.739170553030654,79.1766820980698,-12.07094196341824
-5.2261167375,-20.90446695,5.969889192515152,-0.50366604375,4e-07,0.0,225,4,42.39412603881251,152.4133,mp-10181,LiSiNi2,https://materialsproject.org/materials/mp-10181,40.152347764113,59.06927409609949,62.63395196285109,-30.11392843814939
-6.5033256038095235,-273.13967536,8.968534464853322,-0.0968034338095238,4.240533433333334,0.0,185,42,493.8096686487542,2667.05505,mp-16316,Co5As2,https://materialsproject.org/materials/mp-16316,42.636227236095216,55.213340345110886,76.20139709264727,-13.853775465617929
-8.622386437000001,-86.22386437,7.034563204846848,-0.07072016374999919,0.2781915,0.0,63,10,113.60775144396744,481.27799999999985,mp-29804,Cr3GeC,https://materialsproject.org/materials/mp-29804,51.59149670727191,49.116076443257896,73.72499755715597,-2.5659272480818607
-5.437649694827586,-157.69184115,7.1901247181695975,-0.681977757931034,8.26e-05,0.0,225,29,486.29207918088747,2105.641972000001,mp-1193571,Sc6Ga16Rh7,https://materialsproject.org/materials/mp-1193571,51.146789510027524,43.78023887808667,66.56051948209847,-10.275430783772528
-6.291420577,-251.65682308,10.24247350928063,-0.5100307145000003,0.0,0.0,107,40,610.9910957581043,3768.69195,mp-21660,HfGa2Co,https://materialsproject.org/materials/mp-21660,59.58661088232788,21.948806853102678,61.68505026359775,8.685708298187656
-8.017341943125,-128.27747109,4.7531995778934215,-0.7516239137500005,4.31e-05,0.0,193,16,230.3909037885542,659.4810000000001,mp-1217138,Ti3V2Si3,https://materialsproject.org/materials/mp-1217138,50.65751766309227,47.10645699044952,69.36806874957698,4.7975734400602486
-3.7647654865,-75.29530973,2.4823251201995284,0.1321587964999999,0.000111775,0.0,8,20,355.5215367444307,531.466,mp-1072993,Mg2Si3,https://materialsproject.org/materials/mp-1072993,39.72677137824913,23.44780732628501,58.62744092380992,2.5355309973171116
-6.3908473717241385,-185.33457378,9.218122297885305,-0.4149403948275862,7.9e-06,0.0,225,29,304.50927861271947,1690.41721,mp-1208343,Ta6Be15Ni8,https://materialsproject.org/materials/mp-1208343,40.037598053126935,40.211923609030315,56.286194300406116,-12.620629862423424
-8.349323936666666,-100.19188724,6.707820998134388,-0.8198360572222233,7.5e-08,0.0,62,12,175.28957453703998,708.0899999999998,mp-505822,TiSiRu,https://materialsproject.org/materials/mp-505822,47.433788415849314,44.119964936516226,60.02807237447754,-8.210985837816535
-6.803643788076924,-176.89473849,8.231863717034589,-0.1059485732692309,25.8927574,0.0,187,26,447.2631742559849,2217.2375399999996,mp-1216500,Zr2Mn12GaSn11,https://materialsproject.org/materials/mp-1216500,66.8077085731,15.885860497609867,58.92089429616409,18.7584150455709
-6.161498046666666,-36.96898828,7.353357674808838,-0.5008880050000002,5e-08,0.0,194,6,65.70126031435612,290.9446,mp-507,SiNi2,https://materialsproject.org/materials/mp-507,46.28460517567142,57.3530204803034,75.66524755867191,-14.92370306742941
-6.079653780666666,-182.38961342,9.3774042701586,-0.2973953673333322,5.11349485,0.0,186,30,507.7929967732518,2867.61112,mp-1213577,Dy3(Co2Sn)4,https://materialsproject.org/materials/mp-1213577,68.67111474143664,13.912971871185364,49.31100071797186,-10.053646600862272
-9.468902055,-37.87560822,14.484499016983076,-0.4973859399999992,2.4e-06,0.0,123,4,55.75259202053378,486.31699999999995,mp-1281,VIr,https://materialsproject.org/materials/mp-1281,53.930254446411276,58.536077959051745,87.35013812261974,2.469672144056471
-8.16415549,-48.98493294,15.1276748702819,-0.6603770783333331,0.0,0.0,227,6,115.3317117988483,1050.6833,mp-946,PrIr2,https://materialsproject.org/materials/mp-946,82.85496877591457,11.244750476821775,60.67892614686865,25.31310790991294
-5.7945696375,-69.53483565,7.677925117891594,0.07861728499999998,7.485555199999999,0.0,194,12,161.40739193633334,746.30818,mp-1222088,Mn2Cu3Ge,https://materialsproject.org/materials/mp-1222088,63.37620751883414,49.63643794532965,79.23267167862636,-3.6792762462324378
-8.43443782,-16.86887564,6.886199275949767,-0.29060770749999953,4e-07,0.0,187,2,29.90752611891482,124.0255,mp-972845,SiMo,https://materialsproject.org/materials/mp-972845,35.01779383685091,34.14191320320519,45.724394058613704,-1.571508715539394
-6.4181912725,-25.67276509,10.556009904937985,-0.35254149583333305,7e-07,0.0,123,4,64.60535326003924,410.6948,mp-1224529,HfInNi2,https://materialsproject.org/materials/mp-1224529,91.80800590513384,12.16965651284352,54.41261461275589,26.929459391428704
-6.57576629375,-52.60613035,8.644159629446651,-0.0807969862500002,6.806289100000001,0.0,160,8,93.9165402849665,488.89519999999993,mp-1225085,Fe3Ni3Ge2,https://materialsproject.org/materials/mp-1225085,79.26477655839773,49.63206778594242,92.3765530687594,-5.308329209761692
-6.001674117777778,-108.03013412,7.5782068185331335,-0.00971994777777733,11.73656885,0.0,187,18,243.6675625918748,1112.02636,mp-1222076,Mn4Ga3Cu2,https://materialsproject.org/materials/mp-1222076,52.95413508905947,53.69308367758253,84.22130448792944,-1.0910932688788006
-7.677547568333334,-276.39171246,4.096844169129678,-0.7472211761111112,1.017643975,0.0,55,36,335.23967139705434,827.0956959999999,mp-510306,Sc2CrB6,https://materialsproject.org/materials/mp-510306,33.93066281240694,44.85743016605487,56.68389989953924,-5.749154346522162
-7.7979502714285704,-54.585651899999995,7.36712046751584,-0.3984591123809521,2e-07,0.0,71,7,57.93881201268788,257.05039,mp-10055,Co2B4Mo,https://materialsproject.org/materials/mp-10055,57.708515252492475,27.966528125775923,68.04405100643724,7.9269373120752284
-8.1278513865,-162.55702773,14.078357485283579,-0.6837959848333327,5e-07,0.0,127,20,268.0207613848251,2272.329648,mp-1209000,Sc2CuB2Ir5,https://materialsproject.org/materials/mp-1209000,53.47047148280775,21.4068995721658,68.7933422220285,12.954515482704569
-7.3001332916666675,-43.80079975,10.28785247324182,-0.1401540300000003,6.044453,0.0,191,6,85.01410910759549,526.704035,mp-809,ThCo5,https://materialsproject.org/materials/mp-809,75.18349926916405,20.16820056851854,89.85847586348842,-13.224482073873768
-7.295203376551724,-211.56089792,8.37110169055823,-0.1331502999999994,18.5476461,0.0,225,29,280.1595824668435,1412.3391849999996,mp-1194187,Mn2(Co7B2)3,https://materialsproject.org/materials/mp-1194187,39.19301131095453,53.73891922194968,79.01383650056978,-12.205070450868568
-6.1729698048837225,-265.43770161,7.607029607272513,-0.4932080174418604,0.0,0.0,150,43,470.74721148343366,2156.5214,mp-27276,Si12Ni31,https://materialsproject.org/materials/mp-27276,42.62764971522984,55.23720779732246,76.4046284271822,-13.509765826815945
-4.3413979042857145,-30.38978533,6.430499580948378,-0.4465212207142858,5.2e-06,0.0,123,7,116.78758967650559,452.264312,mp-1025191,ScGa5Ni,https://materialsproject.org/materials/mp-1025191,57.57528888814539,43.90794572538212,74.78337405729144,13.672547844855712
-7.718385306911764,-524.85020087,7.429547071504028,0.2019882176960784,31.47147655,0.0,136,68,966.5462792506793,4324.499999999999,mp-616958,Nd2Fe14B,https://materialsproject.org/materials/mp-616958,70.85951089886017,32.79459337669677,63.20191996357831,4.960725936535266
-7.020068026666666,-21.06020408,6.061800751704861,-0.13081305333333285,4.4858454000000005,0.0,191,3,37.986979944433905,138.6715386,mp-985579,AlFe2,https://materialsproject.org/materials/mp-985579,49.35299180544178,57.484436399899074,85.96474497300801,-0.2552850159391631
-6.088701470454546,-133.95143235,8.063068061782044,-0.4467095784415589,2.3e-06,0.0,2,22,240.25472184420246,1166.60321,mp-1210211,Ni16GeP5,https://materialsproject.org/materials/mp-1210211,42.840730569474076,54.88232756007394,76.99484356969481,-13.354087311142528
-6.316860955555557,-56.8517486,3.4534357945933696,-1.934448588194445,0.0,0.4219999999999997,123,9,74.14136394044026,154.192364,mp-1183429,Be2Si2O5,https://materialsproject.org/materials/mp-1183429,29.576177576434695,52.74277347883116,8.260295659585518,49.20513637042389
-6.329221708333333,-37.97533025,9.009410258977516,-0.8244312762500007,1.6e-06,0.0,191,6,108.20345120227492,587.0679700000002,mp-1071252,LaGa2Rh3,https://materialsproject.org/materials/mp-1071252,63.29672224176876,-32.33907989033842,51.48919115607573,-10.44788053701148
-5.946994191875,-95.15190707,6.604100446146727,-0.5706176315773801,4.5625e-05,0.0,141,16,207.11943660127116,823.7310480000001,mp-569532,TiCu2P,https://materialsproject.org/materials/mp-569532,46.739552998603756,53.83861365322679,76.86792592328399,-9.911599946325444
-7.761638793333333,-46.56983276,7.709827890896263,-0.5558790988888885,0.0,0.0,191,6,62.38372742717946,289.645585,mp-10059,ZrCo3B2,https://materialsproject.org/materials/mp-10059,55.14714683702662,26.780416237337388,72.16247691113313,-1.1451160744612323
-6.442149318999999,-128.84298638,8.376195398258707,-0.6498334278333339,1.5e-07,0.0,127,20,260.65235652296644,1314.799,mp-505693,Mg2GeB2Rh5,https://materialsproject.org/materials/mp-505693,58.06627448303957,39.67005468860796,70.17106534234158,12.446457272895465
-5.617385291666667,-202.2258705,7.354855996895492,-0.4658449396031751,3.981241725,0.0,62,36,512.0328025643124,2267.894604,mp-1195405,HoMnCu4P3,https://materialsproject.org/materials/mp-1195405,64.78099819129216,9.765922067139496,61.02872798912882,-2.3060035154346195
-4.629064301428572,-97.21035033,5.999766663162119,-0.2847210555952381,1e-07,0.0,174,21,323.1647140450874,1167.6406464000002,mp-1210228,Na5Ni9As7,https://materialsproject.org/materials/mp-1210228,40.96399870378971,44.820936314860276,67.78001035791675,-15.434054404883796
-8.2808178935,-165.61635787,13.995750435586455,-0.6688660708333329,0.8121470000000001,0.0,127,20,268.45121639274316,2262.624448,mp-1209056,Sc2NiB2Ir5,https://materialsproject.org/materials/mp-1209056,53.473741230211104,21.408151726148557,68.8270662356188,12.924516511987967
-6.84057543875,-54.72460351,9.815873708385876,-0.14389276875000068,5e-08,0.0,62,8,150.7834861270014,891.3199999999998,mp-7565,SbRu,https://materialsproject.org/materials/mp-7565,34.91343563678372,28.53331388789536,68.62504405695145,-1.491077801257154
-3.945757900714285,-55.24061061,7.286029672787848,-0.21718399642857125,7.55e-06,0.0,140,14,264.0187065109598,1158.448,mp-1104488,Sr(Cu2Sn)2,https://materialsproject.org/materials/mp-1104488,32.98515830166043,29.92759042264029,61.3364969073923,-7.030296104603732
-7.878183922000001,-39.39091961,7.299654693323696,0.10873616904800087,0.564663,0.0,12,5,45.18622244855578,198.636595,mp-1246435,Fe2CoN2,https://materialsproject.org/materials/mp-1246435,30.295162247815977,55.7546646331179,74.14750208806277,-1.8555946129386127
-6.292181151666667,-37.75308691,6.892427941619792,-0.17753086666666582,1.9999997999999999,0.0,10,6,98.18242995871857,407.5275,mp-1226236,CrFeAs4,https://materialsproject.org/materials/mp-1226236,21.286536844784962,34.72498837309314,63.812446298307115,-24.27779458304047
-6.81876059,-40.91256354,10.607000021152556,-0.3445088883333334,0.4416017,0.0,216,6,73.88545508988531,471.957,mp-569516,HfNi5,https://materialsproject.org/materials/mp-569516,64.39293725967438,47.558440265405686,80.58674599325609,-3.3947753611238443
-8.199779566551724,-237.79360743,8.596972041170226,0.011637802068966313,14.6690891,0.0,225,29,435.2061480609088,2253.156955,mp-669648,Ho6Mn23,https://materialsproject.org/materials/mp-669648,71.27542824888053,28.40722578641345,62.4461888733899,12.047857459722447
-8.084353371029412,-549.73602923,7.658410622274077,0.0048400893382349475,30.269141025,0.004599999999999938,136,68,929.4457940525614,4286.60656,mp-14127,La2Fe14C,https://materialsproject.org/materials/mp-14127,71.75593344791297,32.448178040832516,84.33157005916583,-6.738388384505308
-4.392592643333333,-13.17777793,5.946366207408802,-0.005643336666667054,9e-06,0.0,139,3,39.567822993262965,141.6918,mp-1061691,MgNi2,https://materialsproject.org/materials/mp-1061691,44.08863286557342,45.466149336878004,87.44691768494425,-3.030546233597413
-8.22616814125,-65.80934513,7.278950513797213,-0.2626838012499997,5.0735582,0.0,160,8,88.63267455530665,388.520135,mp-1221761,Mn3Fe3Si2,https://materialsproject.org/materials/mp-1221761,42.280614475937426,60.20432338239213,91.61749697541124,-8.764590453425663
-8.298635291818181,-182.56997642,8.086818805394564,-0.08479741301136362,34.639540000000004,0.0,166,22,269.0755901444506,1310.3971,mp-1190738,Dy2Fe17C3,https://materialsproject.org/materials/mp-1190738,77.00709508761547,34.13134200130951,88.88665006423967,-25.11537935334936
-3.889720317727273,-85.57384699,2.4603822058570124,0.14614877272727192,1.39e-05,0.0,12,22,396.6026812930011,587.637,mp-1074149,Mg4Si7,https://materialsproject.org/materials/mp-1074149,38.67960085612282,24.865129832571693,59.556533179918794,-0.7164750329297417
-5.6581775766666675,-16.97453273,6.4675994590040276,0.30453258000000005,3.8e-06,0.0,216,3,46.049666026826,179.3579,mp-961690,VGaNi,https://materialsproject.org/materials/mp-961690,37.29286289600221,49.88314732918358,61.414611258110206,-30.58188330214246
-5.512934403448276,-159.8750977,10.061523210563903,-0.5314496134482758,8e-07,0.0,225,29,483.80188027783737,2931.448,mp-1192479,Hf6Ga16Pd7,https://materialsproject.org/materials/mp-1192479,69.12809913719197,16.988298999745552,54.048949262366904,21.777719545052555
-6.35469626,-38.12817756,7.341900719127174,-0.16891758124999967,4.1210133,0.0,187,6,90.83551572270927,401.61978860000005,mp-1222930,LaAlCo4,https://materialsproject.org/materials/mp-1222930,74.80261869579866,18.06328061088967,87.09263710694698,-11.288469383977695
-9.926707438928572,-277.94780829,14.405208111742613,-0.007516730178571558,3.7478830999999997,0.0,227,28,341.36191055364367,2961.32114,mp-1192636,Co3W3C,https://materialsproject.org/materials/mp-1192636,60.81999035164526,31.06774329361484,66.5549044579119,16.63177705173156
-8.56817174,-102.81806088,7.9525271664480375,-0.31900804166666674,0.722840675,0.0,38,12,150.23248893985232,719.482,mp-1224916,FeSiMo,https://materialsproject.org/materials/mp-1224916,65.34810772836785,47.05380640210273,72.42568732871455,17.59917685687636
-5.809763031818182,-63.90739335,4.985339293065305,-0.619213131363636,2.6e-06,0.0,71,11,167.0064611645575,501.39373600000005,mp-1104960,Sc3(CuSi)4,https://materialsproject.org/materials/mp-1104960,43.87658669088608,26.485638287495064,65.67745564169847,-5.094922631678197
-5.188106068333333,-31.12863641,8.72319852507078,-0.3257121983333337,8e-07,0.0,194,6,71.23605562194194,374.2196,mp-570904,GaNi2,https://materialsproject.org/materials/mp-570904,46.52284767302017,56.42802377341579,84.91476970973925,-2.5786720286585707
-6.955017670344827,-201.69551244,7.679282499930119,-0.2820743634482763,18.1436717,0.0,225,29,286.39936621566017,1324.4745158,mp-505537,Al3(Co10B3)2,https://materialsproject.org/materials/mp-505537,39.15839253784016,53.510199281714755,79.32211601793179,-11.85170110896456
-10.060958795,-120.73150554,7.71682427562091,-0.8268537224599998,2.825e-06,0.0,129,12,136.77901052536552,635.63672,mp-20133,NbCrN,https://materialsproject.org/materials/mp-20133,25.879470912024768,58.684703431797196,44.82689788416265,27.12279026840259
-5.63351119,-33.80106714,9.476440954481212,0.038354489999999686,0.81634685,0.0,194,6,83.89453140890285,478.77319000000006,mp-1025009,CoNiSb,https://materialsproject.org/materials/mp-1025009,54.86565181246813,53.34794558803723,81.70092937775695,4.8361833368137495
-5.818963896153847,-75.64653065,4.348807450783592,-0.4222957442307693,4.895720799999999,0.0,139,13,184.88136171714578,484.18822080000007,mp-3701,Sc(Al2Fe)4,https://materialsproject.org/materials/mp-3701,42.204452331255716,43.88002217907313,67.77246302382285,-16.3226469666397
-9.128882081666667,-109.54658498,11.114623189573694,-0.2127886183333345,4.0486309,0.0,156,12,151.87913685946734,1016.5851786,mp-1218090,Ta3AlFe8,https://materialsproject.org/materials/mp-1218090,65.08934965301279,48.512737770044545,72.1303050106632,18.20996516599605
-8.642957716666666,-103.7154926,8.13142967425952,-0.16244374583333376,5.0597317,0.0,156,12,153.66182614055202,752.4606785999998,mp-1220667,Nb3AlFe8,https://materialsproject.org/materials/mp-1220667,64.56317160080424,47.072970442411226,78.57301071028947,-2.9508600235549887