energy_per_atom,energy,density,formation_energy_per_atom,total_magnetization,band_gap,sgr,num_sites,cell_volume,weight,mp_id,formula,URL,tsne_cry_0,tsne_cry_1,tsne_xrd_0,tsne_xrd_1
-6.550068484285713,-366.80383512,4.115624726085083,-2.258157646428572,9.9999574375,1.8882,14,56,849.8977986160828,2106.4608,mp-21926,Sr(FeO2)2,https://materialsproject.org/materials/mp-21926,-5.706840268285334,-43.14045481448928,0.6697916943947024,-28.095139422840013
-7.654319614659091,-673.58012609,3.6379626445237863,-3.150058986818182,8.000003900000001,2.8387999999999995,6,88,1142.731620650855,2503.5334000000007,mp-778499,BaSr7V8(Si2O7)8,https://materialsproject.org/materials/mp-778499,-24.061936047900772,-28.692391389761593,4.404988169784239,3.4309096590104984
-5.953339108888889,-53.58005198,5.423098965594746,-1.9377769526388893,3.8030347,0.0,99,9,112.30854780316635,366.78473360000004,mvc-7687,BaAlCoCuO5,https://materialsproject.org/materials/mvc-7687,10.11952428748165,-62.82481304109375,34.088650259769146,-37.63477628517123
-5.249222574210528,-99.73522891,3.91675188853502,-0.5324036078442103,2.0574876,0.0,12,19,442.26964127978925,1043.1916449999999,mp-1247367,Sr10MnN8,https://materialsproject.org/materials/mp-1247367,3.774560885487464,-33.29452575611519,-1.146220524470167,-32.20506814826802
-5.894637282000001,-29.47318641,5.496412473694909,-0.5218120749519997,1.008386,0.0,139,5,109.24433123576708,361.600595,mp-1247530,Ba2CoN2,https://materialsproject.org/materials/mp-1247530,0.5644604638996266,-31.90217155605007,20.529633437670192,-70.95467828092076
-7.104856288333332,-170.51655092,5.367691224288696,-2.5876155194037347,2.5e-07,3.2641,15,24,343.8225067677588,1111.406,mp-1209152,RbSm(MoO4)2,https://materialsproject.org/materials/mp-1209152,-48.17722450066867,-55.05588758255424,-21.175191754124178,-58.76084100533134
-6.388703999722222,-229.99334399,4.816508020921548,-0.8185286619444435,0.422470025,0.0,62,36,755.6169024137195,2191.718944,mp-1208915,Sm2Sc3Si4,https://materialsproject.org/materials/mp-1208915,36.97574561644841,-14.393179328964626,14.345570048673842,-2.8837709004167467
-4.149981602,-82.99963204,5.429670766999341,-0.5984945176979167,2.015e-05,1.4741999999999995,2,20,507.4399385598162,1659.2394,mp-677611,TlAgAs2PbS5,https://materialsproject.org/materials/mp-677611,-0.4070756106408733,-19.86020101142451,-14.484977746992977,-28.629119430027913
-6.8927581164285705,-192.99722726,4.598780018242423,-0.9074509351326522,0.042204525,0.0,12,28,645.3564093698839,1787.2823755200004,mp-1193394,NaEu2AlP3,https://materialsproject.org/materials/mp-1193394,32.63065984438969,-24.291303655501647,3.2013005300433464,0.5605574116788372
-5.331560845416667,-127.95746029,6.2075812576969875,-1.47812562203125,0.00144,1.4915000000000005,62,24,541.2593258539611,2023.38588,mp-1223219,LaCuPbS3,https://materialsproject.org/materials/mp-1223219,14.412654525532945,-19.078334127567565,5.6958748956862735,0.4283326914154986
-5.9150877614583335,-283.92421255,4.290522066834484,-2.0303374462656247,0.0,3.3969,14,48,735.925598829362,1901.494,mp-1211681,KSm(SeO4)2,https://materialsproject.org/materials/mp-1211681,-29.85959436289649,-52.885578901657475,-27.6724318326681,-52.06028699429677
-8.802132902391303,-404.89811351,8.140925574014178,-3.022293571286231,0.0,2.5972,127,46,621.2919661362001,3045.9336,mp-1212958,DyTa5Ag2O15,https://materialsproject.org/materials/mp-1212958,-31.136269254443633,-67.10579124534489,-3.4473259406389016,-57.22476347438993
-4.64802793,-37.18422344,4.337598538775136,-1.40984717953125,3.395e-05,0.0,63,8,202.89928783560586,530.006,mp-1147719,BaCuS2,https://materialsproject.org/materials/mp-1147719,0.4662915644055411,-22.377228016499892,-14.708165570642647,-25.635711525560808
-2.84057800375,-22.72462403,4.423021678451226,-1.0950547069683907,0.0,1.796,129,8,300.7814657243829,801.1633038,mp-571100,CsAgBr2,https://materialsproject.org/materials/mp-571100,12.558699570763382,0.3004243697902009,-1.6131649456164177,-14.050213456694806
-4.714060806111111,-254.55928353,4.38966312761527,0.03484094111111136,0.0,0.8865999999999996,161,54,1176.027632163534,3108.849,mp-31135,Si19Te8,https://materialsproject.org/materials/mp-31135,6.851111681161936,-34.9546637203127,-3.586383705047932,-41.70026269987401
-2.977337758333333,-35.728053100000004,5.421378382977427,-0.7206163162499996,0.96092395,0.0,14,12,255.22232123130246,833.2576,mp-1102017,CdBrO,https://materialsproject.org/materials/mp-1102017,21.436176588287967,-2.198013029555516,20.784975449398857,-34.62292147970674
-6.349401463333333,-38.09640878,6.220297289771406,-1.0278202493099995,14.0000011,0.04380000000000006,164,6,103.27306912123812,386.85582,mp-1018691,Eu2H3Br,https://materialsproject.org/materials/mp-1018691,33.2073749516408,-37.65538829022996,31.265021619672886,-7.492691514725706
-3.5831002075,-14.33240083,3.9563266061239513,-0.7280385354999996,4.9000000000000005e-06,0.0,123,4,56.6167558433185,134.89256928,mp-1147647,NaBrO2,https://materialsproject.org/materials/mp-1147647,-33.983789105692985,-80.05573981938208,-7.596306805141005,21.369521421252173
-6.568542395,-144.50793269,4.964664727375638,-2.4008538817588634,4.0000001,0.0,186,22,519.7852907486626,1554.0494000000006,mp-1191097,Ce4S3NCl3,https://materialsproject.org/materials/mp-1191097,8.87426817371679,-9.930838854728957,-9.006634339220547,-11.370527819542337
-5.76651813,-23.06607252,7.890330227849264,-0.8147704124999997,2.135e-05,0.0,63,4,82.9265469649817,394.03942,mp-1066975,TmSi,https://materialsproject.org/materials/mp-1066975,30.92831304435416,-41.2959310658911,13.727208924799768,-17.680546424428172
-5.84531450625,-46.76251605,7.319245798807651,-0.8299339737500002,5.45e-06,0.0,62,8,172.9547944732096,762.342,mp-1182,DySi,https://materialsproject.org/materials/mp-1182,31.0666586579166,-41.226979211420336,13.404080741168704,-18.1159135750047
-4.41924706,-17.67698824,7.310283522507789,-0.8363018270312503,0.0,1.2165000000000008,63,4,108.69862220317916,478.53,mp-1018115,PbS,https://materialsproject.org/materials/mp-1018115,4.843586836645841,-5.911211420495684,-0.04209580750135322,-9.437342117359037
-7.286566885,-102.01193639,6.152773453457186,-3.1501416701785723,4.0000027000000005,0.9491999999999994,38,14,187.6015649735845,695.11761,mp-766044,SrLiLa3FeO8,https://materialsproject.org/materials/mp-766044,17.09499553389176,-69.91587416525057,38.94902205504445,-41.81465439103138
-7.072460913076923,-183.88398374,5.714081908966227,-0.5776786920512824,4.16e-05,0.0,55,26,259.8211736507341,894.0708000000002,mp-21169,Ce2NiB10,https://materialsproject.org/materials/mp-21169,31.71712950164893,2.3742685206025027,16.970170587797618,11.712405110024974
-7.963910414,-39.81955207,5.7001350799092005,-3.6098240173124987,0.0,3.079699999999999,164,5,99.59349113686136,341.8747400000001,mp-4511,La2SO2,https://materialsproject.org/materials/mp-4511,0.9345455109438918,-58.038132716195456,-13.795159141211565,-66.24336092773974
-7.491754795892858,-419.53826857,6.6256287244229926,-3.216681931116073,5.0010752,0.8319000000000001,5,56,738.5075088725075,2946.67963,mp-766206,SrLi4La15(CoO8)4,https://materialsproject.org/materials/mp-766206,17.170038850219964,-69.86391082024711,38.99494742773124,-41.71297004346493
-8.3377837068,-416.88918534,6.970034716405825,-3.1493367855699987,8.47e-05,0.0,2,50,631.0062079385795,2648.61895424,mp-1221175,Na4SrTa5O15,https://materialsproject.org/materials/mp-1221175,-35.906030641166744,-82.84372267752381,32.51781183278767,-63.95538904459868
-7.186799269,-143.73598538,5.592853129120432,-2.6423704005833333,0.41204645,0.0,1,20,316.7610832699391,1066.8814,mvc-10813,BaTi2TlO6,https://materialsproject.org/materials/mvc-10813,18.150517962779528,-46.996348606449594,11.71064692467615,-41.50928801855606
-5.539794789999998,-265.91014992,4.544764549978387,-3.433836624255625,5.9999998,3.0809,145,48,688.8956362708113,1885.4530914000002,mp-1254792,Ba2AlCo2F11,https://materialsproject.org/materials/mp-1254792,-15.795247806670828,-20.90674983605448,-12.928944051077735,-16.6955503287056
-8.51561482625,-544.99934888,5.6234022155351555,-3.6774699026562487,0.0,2.4173000000000004,11,64,861.5475774890658,2917.6240000000003,mp-6285,BaNd2Ti3O10,https://materialsproject.org/materials/mp-6285,6.612972096552242,-91.00727649391413,2.285789347046092,-37.45797184896811
-5.5745928375,-89.1934854,5.994364558254137,-0.5619141678124997,0.26519955,0.0,193,16,446.2553305405603,1610.9329999999998,mp-1188498,Nd5Si3,https://materialsproject.org/materials/mp-1188498,32.65603060570928,-40.979215527743335,22.92753655589489,-20.58510149676986
-6.528334775,-156.6800346,6.677800396755012,-2.8013073346875013,1.99999545,0.0,113,24,272.9055709963389,1097.480328,mp-1207637,Yb2Be2GeO7,https://materialsproject.org/materials/mp-1207637,-16.475124817245632,-35.94544857416106,-14.895999186655828,-34.543688973281405
-4.608251886111111,-165.8970679,3.7395594809637203,-1.8000404812356992,0.999999825,0.1059000000000001,62,36,1150.879350881454,2591.7980152,mp-572902,Cs2CeAsS3Cl2,https://materialsproject.org/materials/mp-572902,1.1734171094642492,-21.28250499658497,-14.717902836486454,-28.53656648038377
-7.680008751153847,-199.68022753,4.60060758805587,-2.4826467889423087,10.99984175,0.0,186,26,391.25409353874505,1083.9893,mvc-1316,BaYV4O7,https://materialsproject.org/materials/mvc-1316,-3.676194481027704,-44.226965465421685,8.456285960531012,-38.43708109415685
-7.1155250245,-142.31050049,6.6894257450093315,-3.042297011875,0.0,2.1699,62,20,402.26662831479706,1620.5176,mp-8323,Dy2S2O,https://materialsproject.org/materials/mp-8323,12.544782493541524,-3.257970628622395,7.045651138927264,-45.79098021891915
-7.746099788076923,-201.39859449,6.808777265738502,-3.2265857880769233,0.99997815,0.8837999999999999,141,26,362.18947181744727,1485.10055,mp-778224,La4CoO8,https://materialsproject.org/materials/mp-778224,16.23327241409024,-69.54786742583718,39.049804006239654,-41.58689940390488
-5.510031329285715,-77.14043861,6.532427052321773,-1.711852567857143,0.00747635,0.0,139,14,215.63430098509338,848.2879999999999,mvc-11183,SrCuBiO4,https://materialsproject.org/materials/mvc-11183,7.057799520460341,-62.14880868302435,7.288078820832322,-33.59721019513764
-6.586694278333334,-197.60082835,4.901344422231482,-2.810475347289666,0.0,3.7154,82,30,426.02001058091406,1257.4656495999998,mp-1192544,Na5Nd4Ge4O16F,https://materialsproject.org/materials/mp-1192544,-21.988466284378315,-38.05701656119636,-19.21774721726317,-28.19265843255411
-4.503858819444444,-81.06945875,7.836009434307741,-0.1409502567460308,0.0,0.4986000000000006,162,18,384.70550654894475,1815.408073,mp-570238,P10Au7I,https://materialsproject.org/materials/mp-570238,13.04974693597829,-24.69764754039346,5.0698434109466595,-35.302038077080525
-6.824585807142857,-95.5442013,5.8184069007960595,-1.2300134684821429,13.99998325,0.0,11,14,395.21832529485374,1384.8159999999998,mp-505740,Eu2GeSe4,https://materialsproject.org/materials/mp-505740,30.199465310797414,-22.239191968204626,21.081624448486046,-0.2972575432567102
-4.7185341633333335,-198.17843486,5.307991224215637,-0.9930703612301596,0.0,1.9923000000000008,15,42,652.7580248125803,2086.5717600000007,mp-1203404,Ag2Mo(I2O7)2,https://materialsproject.org/materials/mp-1203404,-49.328464791591166,-48.065492915948106,-26.20557606712306,-51.063368425422055
-3.621710872446808,-340.44082201,5.123165403534796,-1.6624926698404254,0.0016698000000000001,2.0466,2,94,3966.1829612799265,12236.635720000002,mp-851110,Ba9La5I33,https://materialsproject.org/materials/mp-851110,3.5571934454291347,-28.74883972160003,-3.9180523775430007,-29.260752704246226
-3.426200293888889,-61.67160529,5.52237247932824,-0.2899909488888892,1.41197905,0.0,193,18,529.7749697307535,1761.8463899999995,mp-1214169,Ca5CoPb3,https://materialsproject.org/materials/mp-1214169,18.189472022567877,-30.90215795129699,9.984004788691884,-17.327264862121318
-7.4371784879545455,-327.23585347,3.5115477618123085,-2.917882828457792,3.9999997000000005,2.9690000000000003,14,44,593.1033267714307,1254.237696,mp-18207,SrCrP2O7,https://materialsproject.org/materials/mp-18207,-24.35595642532011,-32.58144248116659,-3.3608852697169147,-25.738755207355922
-6.6647922034615386,-173.28459729,4.274304614177547,-2.5431270045776917,0.0,1.0268000000000002,100,26,456.50442783390565,1175.0636,mp-1214680,Ba2V2CuClO7,https://materialsproject.org/materials/mp-1214680,-28.866379645362073,-26.33516312700907,-31.1160878252139,-6.431586614464419
-3.48439894875,-139.37595795,2.8766733415232038,-0.5049622957839993,0.0,3.1138,15,40,483.21485877155783,837.1084744,mp-697977,Sr2AlH7,https://materialsproject.org/materials/mp-697977,-24.50787902900944,-17.655710158332056,-12.661451376640999,-28.015006446666067
-7.5653950114285715,-105.91553016,6.049907922309959,-3.5919958951785715,1.3e-06,2.9178,38,14,187.6350249921476,683.6181485999998,mp-1218241,SrLa3MgAlO8,https://materialsproject.org/materials/mp-1218241,16.993001711928393,-70.02764503616655,38.957743498344655,-41.85672462608416
-7.032347542499998,-590.71719357,4.0692753429332145,-3.3708516093820746,5e-08,4.8553,11,84,1260.8719332125854,3089.8611504,mp-534901,Sr10P6BrO24F,https://materialsproject.org/materials/mp-534901,-20.20810200375552,-32.34575171660454,-9.611040611604848,-33.48836523625882
-7.397525765833333,-266.31092757,3.0509134612356585,-3.300216171354425,0.0,4.7797,87,36,552.1418060466386,1014.4518303999997,mp-1195951,Rb2ScSi4O10F,https://materialsproject.org/materials/mp-1195951,-34.25696494813061,-20.80524297271576,-22.018413204287185,-12.223943409759846
-4.947534203333333,-74.21301305,4.547650414944508,-0.9602885736458328,1.0,0.029000000000000026,12,15,237.1194323258971,649.3893,mp-1105161,TlCu2(SeO5)2,https://materialsproject.org/materials/mp-1105161,-30.96794261251473,-26.597755824640693,-30.586944420425855,7.384937900628184
-7.1307174225,-114.09147876,5.1196164411984775,-1.3170036224399997,0.0,2.864,64,16,250.94947013018552,773.7036,mp-3777,BaSiN2,https://materialsproject.org/materials/mp-3777,-6.705780462543781,-33.199558769672386,14.235221616184194,-23.480559619082168
-7.086643831463416,-290.55239709,3.9435999091588574,-3.3257247384614548,0.0,3.544,147,41,622.3834753528403,1478.093172,mp-17447,Sr10P6SO24,https://materialsproject.org/materials/mp-17447,-20.11663148279197,-32.46490661226831,-9.938912746619703,-33.61654222318548
-5.25002672296875,-336.00171027,4.38620364989859,-2.06474446261125,0.046743375,1.2984,63,64,1261.406542344832,3331.9216512000007,mp-531195,Sr2NF,https://materialsproject.org/materials/mp-531195,6.895348510979741,-39.117186456500775,6.174664690317568,-53.954409666195716
-7.049742915357142,-394.78560326,5.9396564755859895,-2.2188645866964287,1.00000005,1.6854,2,56,795.3369602420645,2844.8764,mp-1101267,V3Pb2O9,https://materialsproject.org/materials/mp-1101267,-26.021034985031772,-42.47822387278344,-20.034650988178534,-44.00110252623313
-4.921591614,-24.60795807,3.38790398891085,-0.6665224359519997,0.0011972999999999999,0.0,164,5,119.26586192537123,243.3314,mp-1245917,Sr2CaN2,https://materialsproject.org/materials/mp-1245917,6.94204817953722,-39.312878766993705,6.902801966919184,-57.16667352412835
-7.047083644545454,-232.55376027,5.6913281406642815,-2.8072968847727275,0.3294844,0.0,25,33,490.03240737460686,1679.53608,mp-1228428,Ba4La4Cu4(BO6)3,https://materialsproject.org/materials/mp-1228428,16.368061675307573,-81.23693920243032,45.748056565312595,-55.04472785334951
-3.87825163,-62.05202608,4.836107844875147,-1.5809697971874996,0.0,1.6794,62,16,559.1803560378437,1628.54136,mp-1182139,BaI2O,https://materialsproject.org/materials/mp-1182139,-0.3922630241553828,-29.50743165908753,-23.58657687249845,-57.234310504505046
-4.3194386763235295,-293.72182999,4.6998943530433115,-0.7131124469726169,1.0,0.13809999999999967,14,68,2548.955609588508,7214.4176,mp-505639,Rb3Ti3Te11,https://materialsproject.org/materials/mp-505639,13.902668577731793,0.3086560802427127,-15.152709880659636,-6.021869079927522
-7.0004915710416675,-336.02359541,6.494332600861597,-0.5268629115104156,3.4523764999999997,0.0,225,48,1114.8675942453103,4360.22327,mp-582023,La21Fe8Sb7C12,https://materialsproject.org/materials/mp-582023,28.05812928659153,-42.00347468992464,18.119152017370094,-27.707152466268195
-6.2162961875,-24.86518475,3.7043304174496425,-2.125912365781251,2.08e-05,0.0,139,4,163.5511956196159,364.85,mp-1879,SmS,https://materialsproject.org/materials/mp-1879,6.109995671984907,-0.5323894924180497,17.129607123772026,-39.89002696175128
-4.6062190225,-18.42487609,4.470819050910461,-1.3680382720312507,5.2e-06,0.0,123,4,98.4266690747652,265.003,mp-1096843,BaCuS2,https://materialsproject.org/materials/mp-1096843,-53.49412900906779,-65.59881931702884,-59.835019185166956,-65.13418945843739
-7.078512115652172,-325.61155732,4.6535853488743095,-3.1439882183695653,2.0000002,0.2730999999999999,128,46,730.0518501954841,2045.9372,mp-1199927,Ba5(Si2O7)2,https://materialsproject.org/materials/mp-1199927,-10.705839140792863,-31.487475604149317,-9.804190154835554,-19.850423113560158
-7.06349121892857,-197.77775413,4.450847447624802,-2.605765105267857,4.0000001,0.2705,11,28,430.07353422244057,1152.7532,mp-1214659,Ba2V2FeO9,https://materialsproject.org/materials/mp-1214659,-28.63444668685245,-26.23581030279409,-21.009772379674253,-12.266229454825107
-6.401132473076923,-83.21472215,6.8805400567171215,-1.8572254865161533,5.0000012,0.0,156,13,165.06190134614755,683.943585,mp-1223416,La2MnPbO9,https://materialsproject.org/materials/mp-1223416,35.49060655856601,-78.72409874201307,37.91652701244874,-41.58916639478513
-8.793424703913043,-404.49753638,8.168970466702774,-3.015238968677536,0.0,2.5844000000000005,127,46,621.0937702995943,3055.4516,mp-1213131,ErTa5Ag2O15,https://materialsproject.org/materials/mp-1213131,-31.13010992970365,-67.10503471721354,-3.4469137441796733,-57.231497348410855
-7.9561028225,-127.29764516,5.2877814348375365,-1.22891697869,0.0,0.1548999999999996,64,16,271.6788074705363,865.1275999999998,mp-1245629,BaVN2,https://materialsproject.org/materials/mp-1245629,-6.574790561172343,-33.07353735116007,0.7366724164138388,-30.94446913144619
-7.505084789333334,-225.15254368,6.805624194189472,-2.776228423875001,1.0558163,0.0,12,30,405.55808639127787,1662.1566000000007,mp-30165,Sr7Re4O19,https://materialsproject.org/materials/mp-30165,-19.62715567705729,-80.48660273935613,-11.510118388930865,-45.73738425368236
-7.1021447941666676,-170.45147506,5.2138617378977825,-2.5808418198204017,0.0,3.3091,15,24,350.06963904123825,1099.1699999999996,mp-1209247,RbNd(MoO4)2,https://materialsproject.org/materials/mp-1209247,-48.126053817169904,-54.87451676282653,-21.32426550148343,-58.665690698540544
-7.433138168333333,-222.99414505,3.460389825147036,-3.1502128010737542,0.0,3.1411999999999995,176,30,429.05577656696784,894.1074000000001,mp-17037,Rb2Ti(SiO3)3,https://materialsproject.org/materials/mp-17037,-35.02035147859658,-22.467749004402084,11.538051211409476,-19.806051355011558
-4.423299795,-35.38639836,7.20543255010844,-0.8403545620312505,7.5e-08,1.2145,62,8,220.560734219694,957.06,mp-1078500,PbS,https://materialsproject.org/materials/mp-1078500,5.033101755645302,-6.055571412207601,-0.3787914336752416,-9.43508726236857
-5.0566706980000005,-126.41676745,5.476867173148596,-1.7103667279215995,0.9999998999999999,0.19959999999999975,2,25,418.68392059394137,1380.9227999999996,mp-1191603,Yb2Cu3Te4(ClO3)4,https://materialsproject.org/materials/mp-1191603,-11.927990804944525,-45.39873146780576,-6.907043865466124,-36.14653155223115
-4.63888791375,-111.33330993,4.335935369330587,-0.4272810587578923,2.5e-08,0.609,141,24,670.2623028655734,1750.1630228,mp-1247247,Cs3BN2,https://materialsproject.org/materials/mp-1247247,-5.732196602824776,-23.431690801716304,-28.92791239296855,-58.189731756157684
-5.004366680370372,-135.11790037,8.290526613909151,-1.3116106117592594,0.0,0.0,150,27,379.97469805710944,1897.089,mp-18191,Tl2TeO6,https://materialsproject.org/materials/mp-18191,-37.071465055948046,-61.997454051911184,-5.185266394433178,-58.56327905361164