energy_per_atom,energy,density,formation_energy_per_atom,total_magnetization,band_gap,sgr,num_sites,cell_volume,weight,mp_id,formula,URL,tsne_cry_0,tsne_cry_1,tsne_xrd_0,tsne_xrd_1
-7.949486408333333,-381.57534760000004,10.56724234184512,-0.4260943394444444,0.6404362375,0.0,70,48,730.2963356318387,4647.417600000002,mp-1199653,Hf2TiNi3,https://materialsproject.org/materials/mp-1199653,59.56599512816797,18.310620225199663,63.379589899179784,4.9495734505732365
-8.104620506666668,-48.62772304,8.635985122139749,-0.35277348333333336,3e-07,0.0,166,6,103.77715817618812,539.7151,mp-1216057,Y2NiRu3,https://materialsproject.org/materials/mp-1216057,80.68451922537938,13.172155800574133,62.29694574913248,27.618532059401232
-8.5383166875,-68.3065335,4.6348796673675885,-1.417279981536459,0.0,0.0,194,8,100.17928476341416,279.6194,mp-3732,Ti2CS,https://materialsproject.org/materials/mp-3732,25.23120796290586,57.184255239157565,41.29516317045443,27.993965196029862
-4.88877167375,-39.11017339,5.881060076569713,0.4629552765625,9.9661612,0.0,194,8,103.64323180345372,367.0688,mp-1184320,Fe3O,https://materialsproject.org/materials/mp-1184320,52.52781201926157,64.2725825538635,75.35056903660353,-18.356613436802032
-6.660334341666666,-239.7720363,8.945983222664507,-0.08226116444444405,8.72094555,0.0,194,36,529.5710344970076,2853.00946,mp-540547,Sm2Co7,https://materialsproject.org/materials/mp-540547,73.61277062027206,23.407747119260645,62.33858349791392,17.40200120429513
-11.616762010689655,-336.88609831,16.753684841899908,-0.2265806956896552,0.0,0.0,217,29,465.2201077456143,4693.74756,mp-11558,Sc5Re24,https://materialsproject.org/materials/mp-11558,60.44859267436578,33.159233910693935,70.34218724412615,16.322164201627952
-7.278303123333332,-43.66981874,7.850712305144207,0.16432886500000166,6.123165599999999,0.0,194,6,96.69851898591033,457.17217999999997,mp-22514,Mn2Sn,https://materialsproject.org/materials/mp-22514,58.401697100665466,20.808569159528343,65.46073752786616,9.325883985313755
-8.064412867777778,-290.31886324,8.16229473849667,-0.3914483488888894,0.0,0.0,62,36,614.4642500222733,3020.3676,mp-21681,Nb5Ge4,https://materialsproject.org/materials/mp-21681,64.29745197161533,33.960149934753126,70.45377039119262,6.150693476791506
-6.440904706153847,-83.73176118,8.460904031055447,-0.16916617461538516,13.367713,0.0,191,13,218.40790769661305,1112.84848,mp-6072,TmMn6(GaSn2)2,https://materialsproject.org/materials/mp-6072,66.64758670768789,15.909022243062859,58.434647651305724,18.90427927445837
-7.898499698499999,-157.96999397,7.570265501187854,-0.07818623968750131,31.0459417,0.0,12,20,264.6628067126559,1206.5767,mp-1219255,Sm2Fe15Si2C,https://materialsproject.org/materials/mp-1219255,74.90020596418749,34.940314262419754,88.53286944377352,-22.762951525328873
-9.102526592439023,-373.20359029,8.049976350543599,-0.03803136015244075,74.2124743,0.0,2,41,528.8496351961211,2563.7621,mp-1225869,Gd4Fe34C3,https://materialsproject.org/materials/mp-1225869,76.4993653439462,34.66790549772538,87.6874917058555,-24.25952570819167
-8.310203411363636,-182.82447505,7.7770453910793425,-0.2576585916881813,38.186309,0.0,160,22,274.58137082957364,1285.9871,mp-1220094,NdSmFe17N3,https://materialsproject.org/materials/mp-1220094,77.9765620615076,34.3217035204918,88.6562380510405,-25.98276704520816
-8.154693345,-179.40325359,7.870508606612558,-0.053485586420455374,33.36142460000001,0.0,8,22,272.6512222450182,1292.2934899999998,mp-1219242,Sm2Fe15Co2C3,https://materialsproject.org/materials/mp-1219242,77.88527042854544,34.32595549594615,88.38946188380562,-25.95472137294666
-7.372912286458334,-353.89978975,10.323537582530227,-0.458024513958333,0.001968258333333333,0.0,55,48,732.7319992359849,4555.38,mp-1203443,HfFeGe2,https://materialsproject.org/materials/mp-1203443,62.3445453797427,20.492724162026715,61.735099630751094,9.537343196231806
-9.253327660833332,-111.03993193,8.043992601382719,-0.4246034328571421,0.0,0.0,124,12,190.550323518364,923.064954,mp-21447,Nb4CoP,https://materialsproject.org/materials/mp-21447,68.71066864172828,22.394856217944284,62.916021361973094,19.842631638525308
-4.2789317275,-17.11572691,9.439590810858652,-0.3520738624999997,6e-06,0.0,225,4,64.33974249768491,365.74921,mp-1187604,TmGaCu2,https://materialsproject.org/materials/mp-1187604,92.41674521545148,13.608599393956876,57.44058909958489,62.72766047650468
-5.53940548,-22.15762192,12.334198847732782,-0.3784028525000007,0.6977346999999999,0.0,123,4,51.45431280788943,382.1938,mp-1224791,GaNi2Pt,https://materialsproject.org/materials/mp-1224791,52.93054194066905,59.27734526841621,88.101731055766,3.12663487189247
-8.40848123375,-134.53569974,7.696186515551221,-0.07560805942708447,11.61568495,0.0,26,16,154.4383413112755,715.7833999999998,mp-1225026,Fe6BC,https://materialsproject.org/materials/mp-1225026,39.47095656580942,55.63500470798122,79.17594355537477,-13.832753166037124
-5.89481039,-23.57924156,11.973384714376635,-0.1975216924999996,4.4920042,0.0,225,4,64.45350196173901,464.74461399999996,mp-1185995,MnPd2Au,https://materialsproject.org/materials/mp-1185995,91.90440926516548,17.010967765750262,57.20435660771646,60.99531110725772
-8.646158332,-43.23079166,6.84914904473308,-0.10950357895199972,1.710545,0.0,164,5,46.969876394626894,193.73449,mp-1245879,Mn2FeN2,https://materialsproject.org/materials/mp-1245879,28.92330501144932,54.162929289111794,73.3073761612922,4.265207696749954
-8.232890848571428,-172.89070782,8.151253020998242,-0.06983391892857158,36.1618031,0.0,12,21,265.492014922071,1303.2470400000002,mp-1224177,Ho2Fe17C2,https://materialsproject.org/materials/mp-1224177,76.02413976270748,34.236515337428735,87.91557631739155,-24.369723097786842
-6.8624455835714295,-192.14847634,7.125388362263143,-0.5100790066071426,2.10289735,0.0,140,28,349.94029991191337,1501.59706,mp-1211348,LaCo8Si5,https://materialsproject.org/materials/mp-1211348,22.024342093668565,38.983956135948205,66.22838154226639,-22.610366500419563
-6.5595885816666675,-39.35753149,8.519311921533582,-0.3197878550000001,0.3841124,0.0,216,6,74.98192691149275,384.691,mp-2439,ZrNi5,https://materialsproject.org/materials/mp-2439,64.60894900080328,46.654818798117425,78.92286617119936,-1.3048519965982381
-9.799352837619047,-205.78640959,13.076915843297035,-0.6558991496825399,0.0114251,0.0,175,21,248.82762546895557,1959.54316,mp-1191981,Ta7(B4Ru3)2,https://materialsproject.org/materials/mp-1191981,60.766480664372025,30.062912376159865,65.20123453220468,15.708382733728616
-7.07655257,-198.14347196,5.870265874044912,-0.9776447694642858,0.000121225,0.0,15,28,428.91811227711815,1516.29278,mp-1192773,Co(MoS2)2,https://materialsproject.org/materials/mp-1192773,27.009011505183796,30.33950964673977,54.475262995239156,-14.180456347654813
-3.7517424125,-75.03484825,2.444397552142405,0.1451818705000001,0.00020835,0.0,12,20,361.03785190717065,531.466,mp-1073013,Mg2Si3,https://materialsproject.org/materials/mp-1073013,37.388066583360526,23.948415915805978,58.02008691383972,-0.6597927190949145
-9.636366394166666,-115.63639673,10.793922085106333,-0.6690479448809512,1.289549725,0.0,62,12,162.40462381856466,1055.670968,mp-1095419,TaCrP,https://materialsproject.org/materials/mp-1095419,60.68342961642671,24.158664215525732,57.739666753606556,12.153275637465804
-4.327731814285714,-60.588245400000005,9.659319621639463,-0.6000069053571424,0.0,0.0,146,14,209.7410252441256,1220.0590000000002,mp-30662,Zn3Ga4Pd7,https://materialsproject.org/materials/mp-30662,65.69709329449577,37.656389632152575,76.59526173424895,2.1545840925859427
-4.374509143333333,-26.24705486,8.4983369463171,-0.17237406708333286,0.0,0.02099999999999991,191,6,91.4628031512034,468.09,mp-227,SmCu5,https://materialsproject.org/materials/mp-227,76.40939162109693,16.40842140879676,85.01917065914623,-12.383437995184755
-5.180144035,-41.44115228,14.26982061789909,-0.6363952599999996,1.75e-07,0.0,198,8,123.25939430905592,1059.228,mp-1025551,GaPt,https://materialsproject.org/materials/mp-1025551,89.17418621768225,31.971459857526217,69.83878131298526,20.04048155597378
-6.043440195,-24.17376078,9.421295974159506,-0.6799289449999995,1.6800000000000002e-05,0.0,225,4,50.15234052617671,284.546182,mp-862291,BeGaRh2,https://materialsproject.org/materials/mp-862291,85.1416520020693,37.36727760765165,51.52798227154563,49.3684336044663
-5.136802249761905,-215.74569449,7.183384185241496,-0.5448952057312924,3.2166666666666666e-06,0.0,58,42,631.1287329448409,2730.2219640000008,mp-1211723,La(Cu2P)2,https://materialsproject.org/materials/mp-1211723,65.21441791033297,9.547770679755578,60.909020540942485,-0.6071065789378121
-9.975123921071429,-279.30346979,8.968700322939254,-0.07651670089285696,1.28814475,0.0,227,28,344.11268543712447,1858.5793399999998,mp-15812,Mn3Mo3C,https://materialsproject.org/materials/mp-15812,63.91990985377903,41.030503254327115,74.44781587002878,2.321848717156473
-6.88387086,-27.53548344,9.67092565768094,-0.06488445000000098,3.28033335,0.0,123,4,55.72318035794158,324.53,mp-2831,FePd,https://materialsproject.org/materials/mp-2831,54.57683914358417,62.48044953014239,86.31436023041428,7.976326994318796
-7.609519577777778,-68.4856762,11.542731057578644,-0.8322414511111107,7.2000000000000005e-06,0.0,189,9,151.53588193500212,1053.3555,mp-1079842,HfGaRh,https://materialsproject.org/materials/mp-1079842,59.52334768085307,21.441473339712537,60.0788621825642,9.572371176475789
-6.4966427435,-129.93285487,9.441700258493675,-0.3579175014999997,12.591594699999998,0.0,166,20,328.6480750490707,1868.66827,mp-1222087,Mn3Sn2Pd5,https://materialsproject.org/materials/mp-1222087,96.60434283073755,10.19374582609132,61.76054236570646,63.41955206218069
-4.1905482030000005,-41.90548203,7.157045712559508,0.1830188045,8e-08,0.0,12,10,160.6325185066311,692.3380000000001,mp-1246684,CuAs,https://materialsproject.org/materials/mp-1246684,52.47641608432912,51.322915139909924,79.88193633300676,2.634494076912905
-7.4344879575,-59.47590366,6.6247521318365585,-0.569440898571429,0.0,0.0,194,8,108.57495419125084,433.161848,mp-10208,NiMoP2,https://materialsproject.org/materials/mp-10208,21.81966977632012,34.758236013031095,60.7895916149932,-20.020012301771157
-1.453367249090909,-79.93519870000002,6.59167801219276,-0.15063303972727266,8.68e-05,0.0,148,55,928.642117053025,3686.339,mp-1218673,Sr4Zn51,https://materialsproject.org/materials/mp-1218673,50.84947273811746,51.385575641627035,69.24319702234835,-10.820431530516837
-7.38923273375,-59.11386187,8.688584775035034,0.2658079937500002,5.59614715,0.0,194,8,111.77081183819662,584.82827,mp-1185988,Mn3Te,https://materialsproject.org/materials/mp-1185988,54.97823105099518,52.820055346833584,81.76463027338113,5.555420354524696
-8.024821691666666,-48.14893015,7.5469789190729974,-0.05612792416666679,0.0218632,0.0,216,6,75.40093850135952,342.6895,mp-1215254,ZrFe4Si,https://materialsproject.org/materials/mp-1215254,64.04684865484523,47.82508154013442,80.47287020951563,-3.374240111646266
-7.931971690999999,-158.63943382,6.589532512096825,-0.5427043382857151,0.0,0.0,2,20,291.2285956609336,1155.685144,mp-9895,Tc2P3,https://materialsproject.org/materials/mp-9895,28.38525238249441,28.88381708816084,54.983105290689075,-14.39387422518244
-7.73132386625,-123.70118186,7.846803749653124,-0.2230077641666668,10.28825975,0.0,4,16,154.88731863962866,731.9131699999998,mp-1225207,Fe3Co3B2,https://materialsproject.org/materials/mp-1225207,39.3725977745248,55.45702977620017,79.1051972679432,-13.773150365278545
-7.617014092857143,-106.6381973,6.830087167915205,-0.11839399642857172,6.7453080000000005,0.0,12,14,210.421016148791,865.4984,mp-28704,Cr4As3,https://materialsproject.org/materials/mp-28704,23.076736719405673,35.708446180141635,63.46296202439315,-21.715025927104293
-7.4162565083333325,-88.9950781,7.864488557784106,-0.037718550833332636,11.063941699999999,0.009199999999999877,194,12,151.73464914788195,718.6313499999999,mp-22702,Mn2Co3Ge,https://materialsproject.org/materials/mp-22702,47.96975829238463,54.2634657899088,78.68171450370397,-4.263963413144778
-7.05910573,-14.11821146,15.752011605827454,1.3490438088100012,5.7100000000000006e-05,0.0,187,2,21.739604654465943,206.2237,mp-1009015,IrN,https://materialsproject.org/materials/mp-1009015,33.03069827010211,48.13076639277868,66.70668491932842,14.167279058380172
-9.86637973,-39.46551892,11.152262134638274,-0.7705313791666679,3e-07,0.0,123,4,63.801943357562465,428.497,mp-1224169,HfTiRu2,https://materialsproject.org/materials/mp-1224169,67.04383931801078,27.92893978583066,62.52277392498,61.2647350576704
-11.661059054137931,-338.17071257,16.618016998041533,0.18223320336206708,0.44359160000000003,0.0,225,29,390.18855393250396,3904.8525,mp-1193149,Cr3(W10C3)2,https://materialsproject.org/materials/mp-1193149,60.45573640638071,32.12717314158582,66.77550785930659,16.671831271636677
-7.746012675999999,-38.73006338,5.338729221018808,-0.4702998586666653,6.709999999999999e-05,0.0,65,5,47.46282697487688,152.5957386,mp-7692,Al(CrB)2,https://materialsproject.org/materials/mp-7692,35.432226961451285,54.95645758215363,74.0149806232561,-2.9742104578223287
-4.148449659285714,-116.15659046,8.081791302888105,-0.0157488205357141,5.75e-06,0.0,140,28,487.2270921861413,2371.3189399999997,mp-1212245,LaCu9Sn4,https://materialsproject.org/materials/mp-1212245,38.6712737431294,27.336438928533425,61.97020550735798,1.8647014167380755
-5.938206987999999,-29.69103494,7.253862377114228,-0.8034844500000006,4.2000000000000004e-06,0.0,139,5,101.47340496106808,443.2742,mp-569006,Sr(AsRh)2,https://materialsproject.org/materials/mp-569006,31.18008652122334,18.94113868735461,26.340553330332217,-44.356611814326136
-8.665889415,-34.66355766,7.185416540866194,-0.32075952874999913,0.0846552,0.0,225,4,43.89893869050388,189.95769,mp-1185616,Mn2CrSi,https://materialsproject.org/materials/mp-1185616,42.23648907617158,60.171279409637286,91.64100556865213,-8.73737706283805
-8.389361304545455,-184.5659487,7.655719855714643,-0.05471621392045475,33.4644886,0.0,166,22,274.5171675974136,1265.6291,mp-1191404,Ce2Fe17C3,https://materialsproject.org/materials/mp-1191404,78.01786179175986,34.31713740814435,88.63477199566209,-25.982737182612674
-4.817484968571429,-33.72239478,7.240492275057203,-0.4159336042857151,0.0,0.0,123,7,114.3887280588873,498.772195,mp-1025355,ZrGa5Co,https://materialsproject.org/materials/mp-1025355,57.73091948783418,43.877586723555936,75.11230806734447,13.470211877733322
-7.246657688666668,-108.69986533,7.002294831406672,-0.4353737559166661,1.9206458,0.0,148,15,298.3867994114763,1258.2615,mp-1105074,V(Mo3Se4)2,https://materialsproject.org/materials/mp-1105074,31.597582803763427,32.941986898693926,35.69275110557665,-49.09434735233318
-5.529296321666667,-33.17577793,7.574774354202418,0.07854434166666735,7.466980199999999,0.0,166,6,81.16322853365416,370.23709,mp-1221894,Mn2GaCu3,https://materialsproject.org/materials/mp-1221894,63.38631121406095,49.65751005890464,79.94134916936271,-3.506840416045089
-4.179580586666667,-25.07748352,8.81996689926336,-0.3584763691666666,1.9699999999999998e-05,0.0,65,6,93.63498493851436,497.343,mp-1225514,ErGa2Cu3,https://materialsproject.org/materials/mp-1225514,75.18860706833576,15.674361080103552,84.93675803746405,-11.445555922210936
-10.388185140833334,-124.65822169,10.962425184784351,-0.7582035182933341,0.033878899999999997,0.0,99,12,130.09489153824975,858.85094,mp-1218060,Ta3Cr5N4,https://materialsproject.org/materials/mp-1218060,50.85125572059175,17.845494076860877,52.84076160774635,29.229786254588696
-7.077837490357143,-198.17944973,5.870414234598428,-0.9789296898214284,0.00073155,0.0,12,28,428.9072724068794,1516.29278,mp-7923,Co(MoS2)2,https://materialsproject.org/materials/mp-7923,27.01329753320734,30.334278198617948,54.485726903144204,-14.172843343972506
-8.176319751538461,-106.29215677,7.743901532649826,-0.8441736621978027,0.0,0.0,87,13,176.52040666323467,823.200548,mp-10430,Nb5(NiP)4,https://materialsproject.org/materials/mp-10430,62.50780818908802,28.702353313300442,72.81543448460664,1.2975925052681765
-3.844849497272728,-84.58668894,2.5290059129927367,0.1910195931818176,0.0001131,0.0,1,22,385.84100370637685,587.637,mp-1074213,Mg4Si7,https://materialsproject.org/materials/mp-1074213,41.208961937241114,24.442665517268214,58.70047985217434,2.603961390722243
-3.998723791666667,-71.97702825,4.394504599606428,-0.7245873762430561,0.0,0.3664999999999994,12,18,299.541762762142,792.71707712,mp-17625,Na2Cu4S3,https://materialsproject.org/materials/mp-17625,13.210021247148495,25.55590360251814,26.32940537545899,-48.230225370448416
-3.5221715326315786,-133.84251824,12.36491062978226,-0.4868176273684212,1.3e-06,0.0,55,38,577.5994134179558,4300.992,mp-30857,Zn12Pt7,https://materialsproject.org/materials/mp-30857,53.99734443337001,41.643642193090045,80.21892153264487,8.620608399978384
-11.014357656086958,-1013.32090436,12.711753468292056,-0.3492621947282605,9.5e-07,0.0,167,92,1716.7106227843142,13141.758000000002,mp-574458,Zr21Re25,https://materialsproject.org/materials/mp-574458,81.78480673503834,13.871255926090136,69.12686663636855,16.46255814485082
-8.736615718,-43.68307859,8.464913246958346,0.2037175899999994,7.4408281,0.0,139,5,62.64013709098903,319.32,mp-1225226,Fe4Mo,https://materialsproject.org/materials/mp-1225226,48.85639905635697,55.68811271154605,86.19874376124315,5.1055539067033875
-7.577427323499999,-151.54854647,6.782601234888857,-0.6158293764999996,0.0,0.3774000000000015,116,20,280.46618263392736,1145.586,mp-20191,Si3Ru2,https://materialsproject.org/materials/mp-20191,28.72963770996909,28.66830471038684,57.97651371942021,-10.733480948671248
-6.984695230833334,-167.63268554,9.179432733900917,-0.3999929008333337,3.49642655,0.0,191,24,278.5700565806119,1539.93073,mp-569158,Dy2Co7B3,https://materialsproject.org/materials/mp-569158,73.59008672629983,26.03901976779056,60.104078216555465,15.28629077244704
-8.290504528,-41.45252264,8.264553333360674,-0.15472398447599858,8.9242679,0.0,221,5,57.151991325660504,284.4472,mp-580234,Fe3RhN,https://materialsproject.org/materials/mp-580234,50.739773622688,62.17800606216885,85.56047050345485,9.434882266650211
-6.931348983333333,-20.79404695,7.642843700433509,0.2206300266666676,4.4631011,0.0,216,3,49.043945873344995,225.73104500000002,mp-1206997,MnGaRu,https://materialsproject.org/materials/mp-1206997,82.02187899421966,37.31924675727035,50.165974671172066,49.11828248843965
-6.434496578888888,-57.91046921,7.662899528183742,-0.6490142155555563,3.733333333333333e-06,0.0,189,9,142.7872534227245,658.9212,mp-1078832,ZrGaNi,https://materialsproject.org/materials/mp-1078832,62.59145944437363,35.86195117850608,72.136137353848,3.4711352884510687
-3.38816424,-13.55265696,11.388376769517455,-0.2175873987500001,3e-06,0.0,139,4,56.639013610812476,388.44400000000013,mp-865362,Zn3Ir,https://materialsproject.org/materials/mp-865362,55.0398298281004,57.471478088310526,81.26008407411629,8.968777488086422
-8.649105211666667,-103.78926254,7.259567973071082,-0.2684430794444441,6.03789485,0.0,164,12,165.82178129622602,724.942,mp-1215291,ZrTiFe4,https://materialsproject.org/materials/mp-1215291,67.17981141389927,48.08933273873418,78.90220981231269,-0.7047757354042322
-7.018672264444443,-126.33610076,7.018832429040562,-0.7393014305555552,1.5e-07,0.0,11,18,261.2114638809772,1104.0990000000004,mp-568792,Si5Rh4,https://materialsproject.org/materials/mp-568792,29.45641262402817,28.275178593734218,52.76548456267869,-5.114799650885678
-7.437176225625,-118.99481961,5.783692091084035,-0.9093062501562504,6.75e-05,0.0,2,16,272.621624193611,949.5468,mp-685980,NiMo3S4,https://materialsproject.org/materials/mp-685980,28.018020518175405,33.676668331617385,32.271708019788015,-47.305709737240896
-5.0926716207142855,-142.59480538,4.210080724781613,-0.38144258499999895,7.725e-06,0.0,38,28,393.5458751313677,997.7843720000001,mp-1228374,Al5FeNi,https://materialsproject.org/materials/mp-1228374,43.92655369132905,43.92757864413072,66.98663584480467,-13.377422484977874