energy_per_atom,energy,density,formation_energy_per_atom,total_magnetization,band_gap,sgr,num_sites,cell_volume,weight,mp_id,formula,URL,tsne_cry_0,tsne_cry_1,tsne_xrd_0,tsne_xrd_1
-6.295179402777778,-113.31322925,6.545930260849266,-1.7874019760833335,2.9781292,0.0,2,18,266.80200005432107,1051.7472,mp-1097805,K2W2O5,https://materialsproject.org/materials/mp-1097805,-35.25490380747056,-83.95331647532402,30.710245835122915,-64.73046128419475
-6.579862520444443,-592.18762684,4.183201302193571,-2.4574513451848663,0.0,3.0729,165,90,1383.1085508036585,3484.3032,mp-555252,Rb2Ti(GeO3)3,https://materialsproject.org/materials/mp-555252,-6.96629781660854,-42.69244535830107,9.337604232248808,-36.83928969476261
-5.283547484482758,-153.22287705,4.909950286180899,-1.5189291887931031,0.00029319999999999997,0.0,2,29,898.1474146044737,2655.6793,mp-862839,Pr10C4Br15,https://materialsproject.org/materials/mp-862839,26.879836077464127,-6.985163074192175,6.567011084405365,7.2634204544436916
-5.9532354000000005,-59.532354000000005,4.753663834745208,-2.33456767096875,0.0,3.9034,11,10,184.63901005643163,528.5704,mp-6989,BaSeO3,https://materialsproject.org/materials/mp-6989,-29.455483809759087,-32.386159953598884,-21.23237557225729,-11.668756847830029
-5.12406779,-61.48881348,6.076692218816608,-1.8302735857031245,3.0000001,0.01949999999999985,8,12,265.49012234941773,971.553045,mp-1216027,Yb4MnS7,https://materialsproject.org/materials/mp-1216027,8.723865672558645,-5.239689982643737,-6.066350002149467,-16.69173699562542
-8.721414173333333,-209.31394016,6.234219509344653,-2.7819289966666667,7.000000175,3.0307000000000004,14,24,315.54905521590547,1184.6768,mp-754079,GdAsO4,https://materialsproject.org/materials/mp-754079,-28.999874789681183,-54.19832258568139,-15.347008681143414,-51.01454305740877
-8.7082178545,-174.16435709,7.0162112337779154,-3.99237908975,2.75e-07,4.4528,62,20,246.34037761900692,1040.852448,mp-1212985,ErScO3,https://materialsproject.org/materials/mp-1212985,10.5422559569174,-82.64726412027723,50.29729252050495,-55.59725180166957
-7.277742149583332,-174.66581159,7.266966813778852,-2.3335883020833332,1.0000001,0.0,12,24,383.9683305054203,1680.349,mp-1213946,CeTl(WO4)2,https://materialsproject.org/materials/mp-1213946,-49.00210835337713,-43.061523531091225,-24.16941901788277,-51.21294156338364
-7.48828330888889,-134.78909956,5.786157233196257,-3.2253892169866667,0.0,3.2722,12,18,301.28478302078634,1049.82845,mp-1105528,Pr5As2ClO10,https://materialsproject.org/materials/mp-1105528,-12.795869430535886,-59.66618537004731,-11.900834634184307,-59.08133614695302
-8.08747850342857,-283.06174762,3.9869165644861857,-3.4902141298809526,0.0,1.9373,12,35,439.04779680272566,1054.1438,mp-558553,Sr4Ti5(Si2O11)2,https://materialsproject.org/materials/mp-558553,-22.989140351222467,-33.801403752571204,5.142784208344082,-22.12851522280889
-7.1139523012499986,-170.73485523,5.339343936272606,-2.6226800909339065,0.0,3.5306999999999995,49,24,390.4597627310665,1255.4953038,mp-1213334,CsLu(MoO4)2,https://materialsproject.org/materials/mp-1213334,-49.31127912362781,-51.910033437886575,-29.751686445064696,-55.040498458104246
-6.473877557142857,-45.3171429,6.651616362411247,-0.3047381910714283,2.8300000000000003e-05,0.0,35,7,139.0440766397445,556.9684500000002,mp-1237751,Tb3(SiC)2,https://materialsproject.org/materials/mp-1237751,32.25702584487921,-42.143111142990044,5.511350009180356,-32.866327218800066
-7.882880565714286,-110.36032792,7.020421312139902,-2.7888178171428573,6.9597117,0.0,123,14,181.77910438969556,768.5250799999999,mp-1209256,Sr2GdTa(CuO4)2,https://materialsproject.org/materials/mp-1209256,20.72145125110934,-77.1699891466061,40.335878383687856,-50.064172244717206
-5.546135511111111,-199.6608784,6.414452197491796,-1.5604425898338894,0.0,2.0202,173,36,745.6689495721054,2880.4248,mp-649619,As3Pb5ClO9,https://materialsproject.org/materials/mp-649619,-25.08901169527733,-46.215265849380934,-22.85984968240236,-40.61343135756607
-6.941267477999999,-138.82534956,5.98733837939008,-2.7295480621875,0.0,2.1536,14,20,501.1347731436463,1806.92136,mp-753822,La2Se2O,https://materialsproject.org/materials/mp-753822,28.336151383778926,-19.313904401709387,15.535596331203175,3.0345423466781933
-4.44739305,-13.34217915,4.011993264038123,-0.5936866474599997,2.3e-06,0.0,160,3,98.90144910240244,238.9537,mp-1227306,BaSrN,https://materialsproject.org/materials/mp-1227306,-2.9975408674078463,-28.45424206409311,-25.088200694891967,-69.93384563776705
-7.824760906363636,-86.07236997,4.387435365820863,-2.554077917942728,1e-07,0.0,123,11,165.66726555405756,437.72197000000006,mp-1205881,LaNb2HO7,https://materialsproject.org/materials/mp-1205881,-29.311546261765084,-68.68168588973616,1.7616788495782278,-52.12455416526925
-5.430184337142856,-76.02258072,5.344515274957747,-1.9211558823214283,0.0,1.3794,122,14,307.2129812382472,988.778,mp-675067,Sm2ZnS4,https://materialsproject.org/materials/mp-675067,9.93272271502096,-5.3100500482300745,-0.24722725550912225,-13.919922654195457
-5.237656083333333,-62.851873,6.691475812945336,-1.4377454653645831,0.0,1.6400999999999994,36,12,262.76937239340265,1058.882,mp-1225327,DyCuPbS3,https://materialsproject.org/materials/mp-1225327,14.41090114908654,-19.21666044791646,6.220102649918761,-0.07885493290555141
-8.037114475789473,-152.70517504,6.9257254136287045,-3.191954618421053,0.0009861000000000002,2.0987,139,19,247.28423975783352,1031.36554,mp-1211253,La2Ti3(BiO6)2,https://materialsproject.org/materials/mp-1211253,-15.501833962141433,-58.275614897915474,-8.53273232963197,-55.708744762526095
-5.4928051303125,-175.76976417,3.870590026102671,-1.7783789129296883,0.0,3.0276999999999994,60,32,449.98810539003824,1048.888,mp-16771,MgSe2O5,https://materialsproject.org/materials/mp-16771,-41.842237370252704,8.661458557393745,-31.68760196608264,12.574378474864464
-7.405088291666666,-177.722119,7.009848419853173,-2.6675420119755753,0.0,3.6108,15,24,363.6143299372065,1534.9722438,mp-1213173,CsLa(WO4)2,https://materialsproject.org/materials/mp-1213173,-47.57378743266607,-56.238889482852365,-21.215254945539595,-60.99208944896132
-9.116809758214286,-255.27067323,5.3232328339583255,-3.370438587666667,6.98612295,2.2356000000000003,57,28,364.47829660934485,1168.4174771199996,mp-541513,NaGdTiO4,https://materialsproject.org/materials/mp-541513,12.484978900904556,-64.05894165127496,11.71921259921524,-43.894005363426245
-6.4715237555555545,-116.48742759999999,4.715070094917272,-2.2205105705902795,5.00000015,0.5769000000000002,140,18,444.02540169037337,1260.80197,mp-6770,BaLa2MnS5,https://materialsproject.org/materials/mp-6770,15.93053159554062,-16.8179925436233,4.1803798130786225,-0.5632603770907261
-4.568370003571427,-127.9143601,5.748288895266088,-1.79523028046875,0.0,1.6761000000000004,2,28,666.6001208965723,2307.57,mp-685109,Yb5S9,https://materialsproject.org/materials/mp-685109,8.39233356436181,-6.271135413893759,-5.465600274412774,-10.493247136033048
-5.858528310689657,-339.79464202,7.026553980420176,-1.828157934612069,0.0,2.4158,9,58,1206.2594175880413,5104.2744,mp-1229254,B3Pb10Br3O13,https://materialsproject.org/materials/mp-1229254,-20.388033483169348,-54.78961842171856,-12.795975567802888,-58.07291795964135
-5.39188471625,-129.40523319,3.5979465728442865,-3.6507453521008038,0.0,6.9452,59,24,347.883851277038,753.7718055999999,mp-4693,RbAlF4,https://materialsproject.org/materials/mp-4693,1.1252852837983078,-56.62379690019186,9.711126617637968,-39.82676136251121
-7.0952513012499985,-170.28603123,5.473274956592818,-2.5840435282255734,0.0,3.2498,15,24,362.2618739627237,1194.0453037999996,mp-1213307,CsNd(MoO4)2,https://materialsproject.org/materials/mp-1213307,-47.65000168105895,-54.40082312996872,-21.815494805603933,-58.289081005870685
-6.046114655,-108.83006379,5.5918743738130265,-2.1068644376388885,6.0533175,0.0,46,18,280.63347662042486,945.03478,mp-1076439,Ba2Co2O5,https://materialsproject.org/materials/mp-1076439,15.055189528659046,-66.50099394927535,21.582122863700658,-73.44252078557213
-4.648113305769232,-241.70189190000002,7.099290010532832,-1.2621074311538465,0.0,0.9885,14,52,822.9691058936241,3518.4336,mp-8975,Hg3(AsO4)2,https://materialsproject.org/materials/mp-8975,-26.317340044883785,-45.7846637378904,-19.83482826219216,-42.78775507603519
-4.419422315694444,-318.19840673,5.548515179202502,-0.9987141112847228,8.4875e-06,1.9189000000000005,61,72,1709.8755806684742,5713.368,mp-557672,Ga2Pb2S5,https://materialsproject.org/materials/mp-557672,-0.3228067761765926,-18.38459626462025,-20.64577325888424,-35.75897763931797
-6.8457301897222225,-246.44628683,4.322561730301409,-2.475937757222221,0.0,2.6711,14,36,551.9349340552926,1436.746,mp-17264,BaVAsO6,https://materialsproject.org/materials/mp-17264,-30.045725173336088,-26.580455828733026,-20.913661522953745,-12.339361019978584
-6.020641736666667,-144.49540168,5.160131728307531,-1.863102020494792,3.9999998999999997,0.0528000000000004,173,24,515.5925765474332,1602.206,mp-1191750,Sm3GaFeS7,https://materialsproject.org/materials/mp-1191750,12.250998132144339,-13.578181066810556,1.0928318363807996,-4.3896652637935984
-5.327903147142857,-149.18128812,4.5570483117139196,-2.2089317349815274,2e-07,2.6355,14,28,780.6970946515818,2142.4816228,mp-770815,Cs3YO3,https://materialsproject.org/materials/mp-770815,-5.353802312498141,-27.63666319685595,-26.290076469569307,-54.783252821772756
-7.1591570814814816,-193.29724119999997,4.756349379707069,-1.1892235129096291,6.9999991999999995,0.3463000000000003,221,27,517.9294680455904,1483.5264,mp-1228663,Ba8Eu(BN2)6,https://materialsproject.org/materials/mp-1228663,-25.43822398445148,-19.71159854064497,31.951913519697325,-65.62244938959708
-6.567862371666667,-315.25739384,5.440978425332893,-2.0816536095977014,0.0,2.9624,15,48,702.013134914407,2300.24,mp-650024,RbLiBi2(MoO4)4,https://materialsproject.org/materials/mp-650024,-51.96634896126666,-51.71519326507889,-24.841520889236964,-59.22660321000897
-9.038758895555556,-406.7441503,7.6924322591784335,-3.33521093427778,1.9999997999999999,2.3844,44,45,625.4652544107223,2897.4622,mp-1228660,Ba4Ta10NiO30,https://materialsproject.org/materials/mp-1228660,-32.61436801942973,-67.3966543826985,-4.96609770621789,-56.601255100415955
-3.4479276566666663,-31.03134891,4.972152619236138,-1.7936902766666665,0.0,3.0499,189,9,391.88046791102613,1173.40782,mp-568536,BaI2,https://materialsproject.org/materials/mp-568536,2.9851843567524883,-29.02422640943332,-5.5031099384642195,-31.672138845642408
-6.743874220952383,-283.24271728,4.093532336065824,-2.7710689443423813,3.00001455,1.0206,176,42,653.1600757561027,1610.1590064000002,mp-1197942,Sr5Cr3O12F,https://materialsproject.org/materials/mp-1197942,-22.607737964927825,-33.10000677311103,-7.0960678462844315,-26.416837014453076
-6.709250205,-120.76650369,5.508057597674258,-2.8977988409722224,1.0000004,1.1376000000000004,140,18,327.35279518788946,1085.839,mp-1214496,Ba3VO5,https://materialsproject.org/materials/mp-1214496,-9.058793773505052,-32.10882928988263,-2.275516561684164,-33.89523873919277
-6.500121808809523,-546.01023194,5.4507731482328445,-2.8747511959523813,2.475e-06,4.176399999999999,33,84,1503.5645183923675,4935.4992,mp-780263,Ba2GeO4,https://materialsproject.org/materials/mp-780263,-9.200700893137167,-31.720964720093576,-6.309367691444918,-25.94384901525159
-4.302297462,-21.51148731,2.8774249359890653,-0.2961186519999998,0.0,0.0,164,5,114.12230477418154,197.75407719999998,mp-6931,Sr(AlSi)2,https://materialsproject.org/materials/mp-6931,23.879816760000782,-6.78618075061666,12.543296398297501,16.870885372765535
-7.1320909690625,-684.68073303,4.847678047737278,-2.340433348020833,0.0,1.4635999999999996,61,96,1431.3554961811728,4178.6133599999985,mp-1212602,LaCu(MoO4)2,https://materialsproject.org/materials/mp-1212602,-49.776048684531574,-47.78788856706648,-25.10338113624669,-50.399186884084294
-6.206175539583334,-893.6892777,4.7984767001603625,-1.8859378225000003,8.0000966875,0.4965000000000002,1,144,2092.473142813085,6046.64110848,mp-1076891,K2Na2Mo3WO10,https://materialsproject.org/materials/mp-1076891,-31.31829250230468,-74.72214168838377,-22.294257630379963,-24.306109920528144
-6.0187077685000006,-361.12246611,4.867445129275403,-1.8803694609375008,3.999999975,0.0,41,60,1419.9186328590392,4162.128,mp-1195104,Ce4GaSbS9,https://materialsproject.org/materials/mp-1195104,9.45953864585704,-6.259882028563776,-8.570560993440825,-18.431564778456266
-7.261449685,-43.56869811,4.692907521250531,-3.1538449779166675,0.0,3.6598,166,6,130.78586065823185,369.6185,mp-754031,YBrO,https://materialsproject.org/materials/mp-754031,21.431668608865756,-2.2446389322916387,20.914407208705093,-34.67917651394533
-4.916681301111111,-44.25013171,3.7044084111788,-1.5614297205699237,0.0,1.4375,5,9,187.31876908379775,417.8795,mp-551176,Rb4CO4,https://materialsproject.org/materials/mp-551176,-0.5451130331295602,-32.831425379130444,-2.641125248901837,-34.02481134139252
-8.134585456,-162.69170912,7.292422061509365,-3.7351078709166683,6.8e-06,3.2333000000000003,14,20,228.93090527025413,1005.3728,mp-1212787,Er2MgTiO6,https://materialsproject.org/materials/mp-1212787,9.23145881555005,-81.42906799110155,50.82336551372839,-53.21836962956303
-7.324328438333333,-175.78388252,5.511663135120712,-2.7430241483333333,1.000000075,0.14950000000000066,14,24,336.267897202727,1116.1408,mp-10772,CeAsO4,https://materialsproject.org/materials/mp-10772,-29.20766108955883,-53.638807459104854,-15.755226154393942,-51.193595393229714
-5.1926231577272715,-228.47541894,5.158992376762321,-1.1437197963257582,0.30493915,0.0,14,44,614.8740206057889,1910.3016,mp-1182976,Ag2As2O7,https://materialsproject.org/materials/mp-1182976,-27.500690996554948,-33.23312878578043,-17.49655211731912,19.51884281920845
-8.217401874,-164.34803748,7.908990159254026,-3.2433297482499994,3.000000225,2.5125,62,20,224.44561405836396,1069.0132,mp-19063,ErCrO3,https://materialsproject.org/materials/mp-19063,9.20459309687288,-80.90435859039884,51.992418928763094,-52.416639330257276
-4.5549474283333335,-136.64842285,6.091242001872543,-1.8647611627708336,1.1666666666666668e-07,0.0,36,30,723.4139477862439,2653.65,mp-1194071,Yb2S3,https://materialsproject.org/materials/mp-1194071,8.637110225925921,-5.919414917515483,-6.549049866530626,-10.861034511994404
-4.891244792857143,-34.23871355,3.8736651398652313,-0.5207262210199995,1.0803504,0.0,12,7,168.25453820114652,392.5001,mp-1218446,Sr4N3,https://materialsproject.org/materials/mp-1218446,6.786595649231571,-39.102511831991094,0.29478889735417796,-35.173645226433486
-8.952848606739131,-411.83103591,7.248319090178563,-3.3037886760978257,0.0,2.6740000000000004,127,46,621.1353406294694,2711.28051712,mp-1210516,Na2HoTa5O15,https://materialsproject.org/materials/mp-1210516,-33.10462117559783,-69.50048944891243,-2.7621541978246174,-56.52786376134158
-6.06070647826087,-557.584996,3.9828783838846498,-2.189006087413045,0.0,1.5519,130,92,1260.3523062473062,3023.01230848,mp-561448,Na4Ce(As2O7)2,https://materialsproject.org/materials/mp-561448,-31.8487058849409,-35.07361886021393,-24.901467121084064,-33.229265206959205
-8.24240697,-222.54498819,6.263830634694675,-2.766157923611112,1.6333333333333333e-06,2.639,146,27,388.90840850641257,1467.0274799999993,mp-1192537,Nb2PbO6,https://materialsproject.org/materials/mp-1192537,-48.72539281182284,-55.04445627694165,-19.81646282108812,-55.80302915883535
-6.995836374166667,-167.90007298,3.2415284981212937,-3.039936465104168,0.0,0.16720000000000024,113,24,325.85088652721754,636.0916,mp-1214106,Ca2GaSi2O7,https://materialsproject.org/materials/mp-1214106,-18.0304912883419,32.1726063182837,-1.4668495154671115,31.50103800808102
-5.9570944675,-142.97026722,4.813822530097217,-1.805955857230904,4.00000035,0.0,173,24,564.2321948907666,1635.6819,mp-1190927,Pr3InFeS7,https://materialsproject.org/materials/mp-1190927,9.276242698510233,-7.715894232848308,-8.823334806542274,-10.415059372113358
-3.98596570375,-31.88772563,5.909104684742294,-0.8895718351041668,3.1e-06,0.5365999999999997,129,8,230.977253760068,821.9431999999998,mp-559470,AgPbBrO,https://materialsproject.org/materials/mp-559470,-3.56643785412134,-26.49514603881281,-5.855475738700582,-20.20453161234708
-9.371086141086957,-431.06996249,7.171549218524902,-3.3087502641413047,7.0000004,2.2267,127,46,624.2277739802723,2695.91987712,mp-1210527,Na2GdTa5O15,https://materialsproject.org/materials/mp-1210527,-33.18423020261042,-69.51250583298632,-2.775677752558853,-56.52955389914058
-6.790434868257576,-1792.67480522,4.791681893567022,-3.278755005757576,0.0006468416666666666,3.8281,198,264,4673.719773257455,13486.5714528,mp-1196869,Ba3Al2O6,https://materialsproject.org/materials/mp-1196869,-10.055270096869123,-31.89288663580253,13.354236939409287,-70.94587440180044
-7.9343128946666654,-238.02938684,5.05118799191683,-3.663524837416667,3.3333333333333334e-08,4.270499999999998,2,30,421.87866243806,1283.3112515999999,mp-780421,LaAlO3,https://materialsproject.org/materials/mp-780421,-21.674407287114395,-35.88193224100132,-18.275409123465884,-32.039243640801054
-6.027200773181818,-132.59841701,8.356326756647086,-1.7172426387500004,0.0,1.9785,13,22,350.0809595189472,1761.7116,mp-754961,Hg2W2O7,https://materialsproject.org/materials/mp-754961,-24.786072731774897,-47.90810112885972,-20.808072958727838,-46.443671316564476
-5.492327558088236,-373.47827395,7.579145676552183,-1.4528970541176471,3.715e-05,1.1042999999999998,14,68,1345.5457953599428,6141.432,mp-667343,Re2(HgO2)5,https://materialsproject.org/materials/mp-667343,-2.5401108583689984,-21.97490358464624,-20.059298523070012,-34.11081747626229
-4.19832403625,-33.58659229,5.882471309373822,-1.9713940627975,7.5e-07,0.9570000000000004,129,8,194.01965626681152,687.3160063999999,mp-1095151,BaCdAsF,https://materialsproject.org/materials/mp-1095151,21.061929187872764,-7.804964611914295,0.22394571165186689,-14.161888224865725
-7.113917514166666,-170.73402034,5.158405324936664,-2.626619516350574,0.0,3.5794999999999995,13,24,400.27168665573373,1243.4297238,mp-1213346,CsTm(MoO4)2,https://materialsproject.org/materials/mp-1213346,-49.328401881181364,-51.85650625007304,-29.80702461983481,-54.968191768515254
-6.927593864107143,-387.94525639,5.367637993269199,-2.093948834582143,2.5e-08,1.1682,62,56,1300.776072989256,4204.7159999999985,mp-556087,Pr6S4N3Cl,https://materialsproject.org/materials/mp-556087,10.518488954573076,-6.327531581650868,-5.76794711433852,-23.170065905708874
-8.209493614500001,-164.18987229,7.510001107742252,-3.2234107897500004,2.9999999,2.4876000000000005,62,20,228.9992669134993,1035.6786,mp-756124,TbCrO3,https://materialsproject.org/materials/mp-756124,9.648314152669412,-80.93981994642796,51.83982148283622,-53.146168070430775
-5.612361373841464,-920.42726531,3.0591443512210343,-2.1895885817336,0.0010379000000000002,1.4054,14,164,3798.36542487088,6997.576,mp-680306,Rb14Si10O17,https://materialsproject.org/materials/mp-680306,-5.007514642072044,-32.677290959221466,-6.991212276073758,-30.45552093773795
-6.540325445714287,-91.56455624,5.11005566808318,-0.8625630581628566,8.605e-05,0.5240999999999998,176,14,355.4408330540466,1093.81496,mp-1245926,Ba3NbN3,https://materialsproject.org/materials/mp-1245926,-1.2201779156785872,-29.995015667977,-4.110273284414174,-34.123393803660704
-4.219472825416667,-202.53469562,5.082491954761957,-0.4980185968650795,3.425e-05,0.3087,62,48,1311.591453076609,4014.45124,mp-642642,Ba2(InP)5,https://materialsproject.org/materials/mp-642642,3.2463639324275566,-4.5346244327812775,-2.2952769527525736,-14.32817135195584
-6.507967404791668,-312.38243543,3.858491562182764,-2.9990277935416665,0.0,4.3898,185,48,628.2186035597422,1459.7526,mp-558310,BaLi2SiO4,https://materialsproject.org/materials/mp-558310,-24.21136316647486,-29.48836541465477,-15.303318416381607,-25.68014237444758