energy_per_atom,energy,density,formation_energy_per_atom,total_magnetization,band_gap,sgr,num_sites,cell_volume,weight,mp_id,formula,URL,tsne_cry_0,tsne_cry_1,tsne_xrd_0,tsne_xrd_1
-6.2019335475,-24.80773419,8.147209531730232,-0.2853368100000013,2.5300000000000002e-05,0.0,225,4,48.51887945599492,238.0513,mp-30658,VGaNi2,https://materialsproject.org/materials/mp-30658,80.36565587041835,48.14685661072055,90.67222252953528,-4.053180090015865
-7.477138560666666,-224.31415682,5.4020954126264105,-0.9600895276666668,3.5582248999999995,0.0,148,30,548.8639332209458,1785.5739999999996,mp-1216285,ZnFe(Mo3S4)4,https://materialsproject.org/materials/mp-1216285,28.158446231495983,33.86180647121041,32.567922629397984,-46.87138372197482
-7.1565755475,-28.62630219,4.958444114617974,-0.8847636095312508,0.93228355,0.0,194,4,55.59628409137756,166.01299999999995,mp-1214,VS,https://materialsproject.org/materials/mp-1214,15.396279680716352,39.06796270593606,62.24879144608205,-22.89819181240611
-3.778504082500001,-75.57008165,2.480336476700259,0.1184202004999996,3.2725e-05,0.0,1,20,355.80658097110665,531.466,mp-1073037,Mg2Si3,https://materialsproject.org/materials/mp-1073037,40.46386781112526,22.630101605380087,58.56743036186981,2.9104442156385537
-5.046048364931507,-368.36153064,3.8007729006807898,-0.22424690828767066,0.00013209999999999999,0.0,147,73,1091.3721589002148,2498.0187916000004,mp-706448,Mn14Al56Ge3,https://materialsproject.org/materials/mp-706448,44.84953816807704,44.01021231092445,66.73288845568844,-13.249820053048769
-8.698875510499999,-173.97751021,13.621225850841755,-0.7568288018333333,1.16999675,0.0,127,20,273.94241931342066,2247.120648,mp-20524,Sc2VB2Ir5,https://materialsproject.org/materials/mp-20524,53.50517750620984,21.413905549783703,68.60542608167562,13.049841674738419
-9.25402836625,-148.06445386,13.208237339156636,-0.9293567374999993,0.0,0.0,55,16,264.01128263852473,2099.995,mp-17045,Hf3Rh5,https://materialsproject.org/materials/mp-17045,65.08621102336966,36.57796520478297,72.5597137304329,6.23935022051193
-8.266213046111114,-297.58366966,6.316183164759614,0.053196488525556,5.112796425,0.0,62,36,306.4573164306687,1165.6699999999996,mp-1246069,Fe4CN4,https://materialsproject.org/materials/mp-1246069,27.9717172883056,54.76908143825282,60.13635542243653,-4.02096316009169
-8.61703562,-34.46814248,12.735226848745727,-0.3321971908333339,1.3e-06,0.0,225,4,64.92166663422918,497.90588,mp-867958,TaInRu2,https://materialsproject.org/materials/mp-867958,96.95565806396077,10.718881678655036,61.56096708193451,62.66165648345213
-11.908322525,-23.81664505,14.423729587218881,0.002662064999999103,2.7300000000000003e-05,0.0,65,2,32.20981160260225,279.78,mp-1221387,MoW,https://materialsproject.org/materials/mp-1221387,67.16724342688676,27.70290603811423,62.265613666586326,61.39109949883204
-7.355783601333332,-110.33675402,10.31843769234732,-0.477362516333334,6.760691166666668,0.0,221,15,268.74341551604147,1669.947,mp-1212456,GdGa3Os,https://materialsproject.org/materials/mp-1212456,62.8492511228653,19.06551658681638,54.88555435310389,27.201659919669986
-8.763757116666667,-184.03889945,7.532337149650393,-0.0013110382142853961,5.0342718,0.0,12,21,272.43329764706607,1235.779105,mp-1223491,La2Mn17C2,https://materialsproject.org/materials/mp-1223491,77.90354713125573,34.43482922353563,88.20492916825407,-25.897932157230464
-6.913511865833333,-82.96214239,4.065149085249669,-0.9747581967187504,0.00024485,1.3651,164,12,338.16566645549483,827.8599999999999,mp-1026916,MoSeS,https://materialsproject.org/materials/mp-1026916,51.920943317406724,-80.65414267388212,50.77328678588246,-76.31802235996244
-6.84106916,-41.04641496,7.954035022363273,-0.3742742549999996,6.833524099999999,0.0,216,6,86.91562104325995,416.3286,mp-977381,GdMgNi4,https://materialsproject.org/materials/mp-977381,66.76303858325234,50.077607980736545,73.60617569851381,20.784387024342877
-6.90997577,-41.45985462,3.8369759948630304,-0.9712221008854176,0.0,0.6430999999999998,38,6,179.13766615882525,413.93,mp-1018806,MoSeS,https://materialsproject.org/materials/mp-1018806,51.89887561863149,-80.6641200655125,50.69148565043351,-76.17721354906179
-9.27780555625,-74.22244445,18.874389750452565,-0.2207594237499979,0.0545072,0.0,194,8,110.61476060784992,1257.2942,mp-1183749,CrIr3,https://materialsproject.org/materials/mp-1183749,54.93680850816517,60.158308313092725,82.91968092582215,7.066632287989182
-11.8376340275,-47.35053611,16.315491613485552,-0.39014696125000015,1.73e-05,0.0,225,4,65.95807962524336,648.06576,mp-864770,Ta2MoOs,https://materialsproject.org/materials/mp-864770,96.91715513768362,10.776497077629594,62.21894249556725,63.488230741419926
-8.040703107777778,-144.73265594,4.4578702985969,-0.8199184585648156,2.045e-05,0.0,193,18,250.0209820753601,671.2044,mp-995201,Ti5Si3C,https://materialsproject.org/materials/mp-995201,67.64993988319294,31.32169187100465,69.39261339507713,5.149427062556026
-3.88189109,-11.64567327,7.007266246495723,0.014136893802083604,0.0,0.08890000000000065,225,3,48.82894102121353,206.05200000000002,mp-16366,Cu2Se,https://materialsproject.org/materials/mp-16366,81.84415956704481,37.73093895338969,50.150591613617934,49.05786526847636
-5.277012977857143,-295.51272676,8.669094265549807,-0.25683894142857205,0.0057985375,0.0,6,56,905.4865171563004,4727.2288,mp-1221030,Ni4Sn3,https://materialsproject.org/materials/mp-1221030,34.189531347466925,30.525454107753593,71.71274847537613,-15.373120963339176
-6.717415070697673,-288.84884804,7.652120266577741,-0.9237904909302328,6.2e-06,0.0,6,43,730.1223497340308,3364.5604799999996,mp-1223533,La4Zr8Ni15As16,https://materialsproject.org/materials/mp-1223533,66.85408894892754,8.846921911258086,51.84619406571964,8.937062110863836
-6.913347796666668,-41.48008678,3.256774519240037,-0.9745941275520842,0.00021415,0.6783,156,6,211.05143164396625,413.93,mp-1023953,MoSeS,https://materialsproject.org/materials/mp-1023953,51.91656778359367,-80.65635927855533,50.75467011938801,-76.24863640644979
-8.008571085,-64.06856868,9.187626364590301,-0.1477905374999997,0.0467077,0.0,194,8,97.4914012457982,539.41193,mp-977426,NbCo3,https://materialsproject.org/materials/mp-977426,54.82142664514486,67.77802688936698,77.72674741798163,-20.54632615165827
-9.47548163,-75.80385304,8.586720984212414,0.06855104499999952,1.3e-06,0.0,223,8,99.422199344977,514.1166,mp-1272,Cr3Ru,https://materialsproject.org/materials/mp-1272,48.928704997109186,55.306432356618174,78.43381205511812,-6.160129364955164
-6.902931638333333,-41.41758983,8.442734007065651,0.2070627016666672,1.7892087,0.0,227,6,69.54681099809649,353.59917,mp-1072089,Co,https://materialsproject.org/materials/mp-1072089,47.63394382560988,54.63972135012774,79.26037655375286,-6.5920932846633145
-8.17415338,-57.21907366,7.146060178891701,-0.38899464095238095,1.3865072,0.0,71,7,58.29590861150141,250.87400000000002,mp-15722,Fe2B4Mo,https://materialsproject.org/materials/mp-15722,57.69286286246047,27.929803784541658,68.03722184335666,7.915890219722341
-6.389121102564102,-249.175723,8.308580613885658,-0.9199692232783894,0.0002504,0.0,174,39,515.650659224684,2580.080906,mp-1213358,Er6Ni20P13,https://materialsproject.org/materials/mp-1213358,57.19245753535,33.27855051142757,62.231517181075716,-2.316992044918073
-8.328536007777778,-74.95682407,4.843843800952471,-1.3920062292261912,0.0022517,0.0,12,9,125.17828167720108,365.148924,mp-1217052,Ti6P2O,https://materialsproject.org/materials/mp-1217052,52.402355677910464,47.41349739536701,72.5808594889025,3.4159115478603965
-6.5462101203125,-209.47872385,5.523060586259528,-0.3431481583008331,1.0005283999999999,0.0,227,32,373.8600310238134,1243.4827199999995,mp-644259,Ti2NiH,https://materialsproject.org/materials/mp-644259,54.628266201609286,47.684637510576756,76.3337425022179,3.692936715657528
-7.221783779375,-115.54854047,7.850403972422187,-0.21286937479166654,7.14223665,0.0,4,16,154.51195418499194,730.4744,mp-1224887,Fe3Ni3B2,https://materialsproject.org/materials/mp-1224887,39.40760341156562,55.54466231755188,79.10494517490784,-13.782353442700794
-4.273774667142857,-29.91642267,7.038498367549534,-0.3284252057142858,0.0,0.0,166,7,127.7175523279883,541.3542,mp-16052,Ba(Cu2As)2,https://materialsproject.org/materials/mp-16052,30.774353815916637,21.667096149576,55.62728217776443,-5.723951716161758
-1.36799587,-8.20797522,4.851072017754942,0.0153336666666668,8.55e-06,0.0,63,6,106.19829866847893,310.2460000000001,mp-567626,MgZn2,https://materialsproject.org/materials/mp-567626,41.30133978054163,16.477984855790393,49.87737809649967,2.201622053721021
-5.8931449625,-23.57257985,9.803219816394757,0.22495457499999996,2.9966803,0.0,139,4,51.56136495143792,304.399585,mp-1183699,Co3Te,https://materialsproject.org/materials/mp-1183699,54.074015969766556,64.96778972727327,88.32770918179216,5.478111433235762
-7.5032581920000005,-75.03258192,5.701634441386312,-1.0796698464375,0.00359845,0.0,11,10,167.79742330576005,576.15,mp-1627,Mo2S3,https://materialsproject.org/materials/mp-1627,26.979990761299852,30.40794111702441,32.22519861565301,-50.566087147388046
-10.76113426,-43.04453704,11.748820772794476,-0.14815336500000065,5.6999999999999996e-05,0.0,225,4,66.53038080268823,470.72275999999994,mp-982725,Nb2RuW,https://materialsproject.org/materials/mp-982725,96.52090734443199,10.028873934776172,61.61358814412032,64.21228217827746
-11.425997633333333,-68.5559858,13.322492943256796,-0.04547200111111257,1.7100000000000002e-05,0.0,216,6,108.99311639733331,874.451,mp-1215175,ZrTiW4,https://materialsproject.org/materials/mp-1215175,82.61659230751353,14.46710181526011,62.667347395460936,25.278483024406015
-6.9132886266666675,-82.95946352,4.064991725607931,-0.974534957552084,0.000167025,1.3908,156,12,338.17875716556597,827.8599999999999,mp-1027580,MoSeS,https://materialsproject.org/materials/mp-1027580,51.91125296945407,-80.65916349554253,50.81521444257007,-76.36141529893142
-7.2356582975,-28.94263319,6.431513766636419,-0.39796638083333397,1.2e-06,0.0,63,4,55.02521202269208,213.1208,mp-1067248,TiNi,https://materialsproject.org/materials/mp-1067248,82.17235453323255,45.20668699369272,80.8710607053943,-7.969142713127939
-9.189689974583333,-220.55255939,13.978607061437044,-0.414163446646666,2e-07,0.0,213,24,328.81222278379386,2767.978800000001,mp-570666,Mo3Pt2N,https://materialsproject.org/materials/mp-570666,60.45945915668086,33.258712051882426,70.09216359797772,16.203891993449506
-7.7284386925,-30.91375477,9.129830140580825,-0.5099455075000003,7.209999999999999e-05,0.0,225,4,66.5330010071973,365.80591200000003,mp-867748,ScSnRu2,https://materialsproject.org/materials/mp-867748,95.60544738879926,9.299880161453574,61.843467830852745,64.69827200426069
-4.83437595375,-77.35001526,9.143518387026552,-0.34541774375000056,1.4e-06,0.0,136,16,291.58015323954066,1605.544,mp-1189634,Ga3Ir,https://materialsproject.org/materials/mp-1189634,43.03723235870355,40.661672389450494,62.37071478536669,-12.095718121156983
-5.756119890625,-184.1958365,6.9046037891617615,-0.35885651241071503,0.0001295375,0.0,61,32,425.2004283159515,1768.0044959999998,mp-1179970,Ni2GeP,https://materialsproject.org/materials/mp-1179970,18.961344295064094,37.468662139885076,67.97425006449826,-23.13150606495332
-7.9402390625,-31.76095625,11.535918673903645,-0.08115868500000012,8.3379337,0.0,221,4,52.197230508214105,362.619,mp-1649,Fe3Pt,https://materialsproject.org/materials/mp-1649,52.95429089828337,58.9297413804475,88.0899914815603,2.9701920806393782
-3.958023681666667,-94.99256836,2.5248017751001424,0.1936327483333334,2.5875e-06,0.0,2,24,423.4266344421897,643.808,mp-1073630,MgSi2,https://materialsproject.org/materials/mp-1073630,37.921741933406466,24.20269048522266,59.885313400421296,1.5156843684496353
-3.9373247391666655,-47.24789687,2.4385841032749305,0.21433169083333384,3.095e-05,0.0,11,12,219.1985744573254,321.904,mp-1073484,MgSi2,https://materialsproject.org/materials/mp-1073484,37.54742658351579,23.77163491369975,61.2970574812536,1.4969347686929764
-7.176751471111111,-129.18152648,6.650037424948065,-0.5112319059027778,6.18e-05,0.0,139,18,197.2148817498593,789.7955499999998,mp-1217435,TbY2Ni6(B2C)3,https://materialsproject.org/materials/mp-1217435,51.68640184871909,2.4073101453267043,47.4526896677599,-3.938318487239755
-8.40084937,-84.0084937,6.543359243606052,-0.756697998476001,1.7e-06,0.0,63,10,120.06294307004649,473.1084,mp-1078963,V3GaN,https://materialsproject.org/materials/mp-1078963,51.775688388357295,48.779400162880535,73.68552516574576,-2.9396285993375533
-7.339132798333334,-44.03479679,7.2709792565304365,-0.4800627388888887,0.022412900000000003,0.0,191,6,65.61955497975572,287.32743500000004,mp-5019,YCo3B2,https://materialsproject.org/materials/mp-5019,55.16860436497018,26.684216820026787,71.35841647804028,3.832396604191632
-7.526879673333332,-45.16127804,9.966253423459287,-0.476499463333333,0.0,0.0,12,6,110.2302899765324,661.5821599999998,mp-12561,TaAs2,https://materialsproject.org/materials/mp-12561,35.73143151230765,33.52028425573358,57.31661359603878,-8.391423934171089
-6.9772136272413805,-202.33919519,8.261537174875517,-0.4350218424137932,0.0,0.007600000000000051,2,29,394.42592365092565,1962.3534,mp-30260,Zr8Ni21,https://materialsproject.org/materials/mp-30260,53.13400905067832,52.33014493662633,80.00249821405983,1.5134948670705783
-4.410311808571429,-123.48873064,9.19977026311842,-0.2554660114285713,7.5e-08,0.0,62,28,434.18427430112826,2405.48128,mp-1211942,HoCu5Sn,https://materialsproject.org/materials/mp-1211942,70.42191163402097,21.852244347990254,60.37928408725054,19.595078401974398
-8.279983128000001,-41.39991564,6.3796948689132975,-0.44431849847599947,2.7967457000000002,0.0,221,5,53.56727600761837,205.8023736,mp-1207055,Mn3AlN,https://materialsproject.org/materials/mp-1207055,52.81719030124543,62.923027543526565,87.06434045349718,7.415377483798588
-4.9668093225000005,-59.60171187,7.492423777984054,-0.4753252629166672,0.0018867,0.0,38,12,203.87503226644486,919.89294,mp-1223634,La2(GaNi)5,https://materialsproject.org/materials/mp-1223634,61.755347269115774,-32.790512775123474,43.640002112519646,-14.302602906074949
-5.950665491666666,-107.11197885,7.8871116683250095,-0.7673873468253976,7e-07,0.0,63,18,235.5621545752927,1118.8565720000001,mp-1207542,YbNi5P3,https://materialsproject.org/materials/mp-1207542,22.934222023729593,39.64826215107236,65.60131150690096,-23.900709460553976
-6.7117318425,-26.84692737,8.494139110366001,0.3403097033333333,7.7967921,0.0,221,4,53.83921306196064,275.4032,mp-1184230,Fe3Ag,https://materialsproject.org/materials/mp-1184230,53.94315222990848,63.0192918413615,86.77748165172987,7.593933450516282
-3.9311177225,-47.17341267,2.6004182084365235,0.22053870750000054,5.400000000000001e-06,0.0,1,12,205.55699748524043,321.904,mp-1073451,MgSi2,https://materialsproject.org/materials/mp-1073451,39.66094825186749,25.43553982217882,61.22167064122608,3.3633436912788905
-7.889701254545455,-433.93356900000003,9.253129164106113,-0.8908282041948051,0.057947000000000005,0.0,143,55,823.2502192161447,4587.450478,mp-1229174,Eu6P19Rh30,https://materialsproject.org/materials/mp-1229174,67.17333818420519,7.049504817796258,51.75360657637723,10.082309438108359
-3.9921541883333336,-47.90585026,2.6387232649194803,-0.3604179639599998,0.0,0.9539,62,12,154.30717468875142,245.20587712,mp-1245772,NaMgN,https://materialsproject.org/materials/mp-1245772,31.591417244018217,52.73321882469546,71.67515638601859,-1.7435224821481554
-4.183930175714286,-29.28751123,7.802929353871224,0.06492036142857162,2.84e-05,0.0,166,7,98.53301831176472,463.01,mp-1225722,Cu5Ge2,https://materialsproject.org/materials/mp-1225722,82.20950230096601,46.16223214305736,87.7570027064958,-3.6849481391258414
-1.8408799617475728,-189.61063606,8.34097222528693,-0.04899045529126194,0.0075271999999999995,0.0,216,103,1592.4686306508625,7999.051090000001,mp-1197200,Zn89(Cr2Au5)2,https://materialsproject.org/materials/mp-1197200,51.353002425165826,43.73854187787371,67.45684963430622,-3.396516008150692
-8.264955146206898,-239.68369924,7.508579577096473,-0.17366998862069027,48.5925596,0.0,225,29,298.400911145095,1349.3010000000002,mp-542758,Fe23B6,https://materialsproject.org/materials/mp-542758,39.77362774025275,54.94285471183032,79.2101020955173,-10.747599329069075
-7.883692984166667,-94.60431581,6.601247659211143,-0.8560818291666669,2.84e-05,0.0,62,12,179.34728034589904,712.97078,mp-1102565,ZrCoSi,https://materialsproject.org/materials/mp-1102565,63.09538364686039,26.86129016618536,60.78431533695568,7.943384461014391
-6.725885448333332,-80.71062538,12.355003594170642,-0.1786701972222211,0.0,0.0,43,12,143.31247439144897,1066.296,mp-28896,CuBIr,https://materialsproject.org/materials/mp-28896,53.926708801220805,39.101505231263054,49.57992720056636,7.240154544009736
-8.276090771666668,-49.65654463,14.96894776037173,-0.7246756674999991,2.3e-06,0.0,227,6,116.11044877964459,1046.67894,mp-1463,LaIr2,https://materialsproject.org/materials/mp-1463,82.98781541733445,11.113994571110515,60.602753187112576,25.211100792908287
-7.831821392916668,-187.96371343,5.723119729704345,-0.6924700054166676,1.08276025,0.0,71,24,352.23647539025035,1213.9982699999998,mp-18059,ZrMnSi2,https://materialsproject.org/materials/mp-18059,64.50677505517875,27.60437338773037,62.94187728997304,9.891319280784796
-8.025880220416667,-192.62112529,6.9905297935318895,-0.06416103041666688,5.729015866666668,0.0,194,24,365.4916483753125,1538.6451000000004,mp-1192321,YFe3,https://materialsproject.org/materials/mp-1192321,72.73162288362964,22.646550647349333,65.2140048988893,20.64900767089036
-6.421852394615384,-83.48408113,9.411463833259766,-0.4614163998717953,4e-07,0.0,189,13,217.47825414426217,1232.605,mp-30060,Sn5(BRh3)2,https://materialsproject.org/materials/mp-30060,52.066633206307316,20.153579032465107,70.87114836456688,13.309643779236538
-10.1305672175,-40.52226887,11.830443341535961,-0.4807159124999991,0.000106,0.0,225,4,66.46628728523925,473.53638,mp-1184582,HfNbRu2,https://materialsproject.org/materials/mp-1184582,96.40336314521922,9.466254110562037,62.01820946092093,64.15782977191343
-7.336839712692307,-381.51566506,7.652208954809615,0.22056181647435946,5.976275769230769,0.0,160,52,788.8468593483199,3635.2177549999997,mp-1225318,Mn3In,https://materialsproject.org/materials/mp-1225318,53.56624329448038,44.17730923846359,67.57846743676862,-3.2186041196045707
-6.373407901666668,-38.24044741,9.097247458816481,-0.09249627333333403,4.6700000000000003e-05,0.0,194,6,69.54703593511364,381.01277999999996,mp-1667,Co2Ge,https://materialsproject.org/materials/mp-1667,46.47039385333535,56.40253187495984,85.0069031341553,-2.7291085804046933
-7.283621063333332,-43.70172638,5.574909984101655,-0.3915699855555547,5.9e-06,0.0,38,6,66.57787158283018,223.52117719999998,mp-1228929,Al2CrB2Mo,https://materialsproject.org/materials/mp-1228929,57.06802603299508,27.230492891515517,60.36672534605354,-14.625106035192461
-6.126735747142857,-42.88715023,4.715618560217266,-0.5214262108928581,3.5797199999999996,0.0,160,7,104.16006703353241,295.795,mp-10188,Fe3S4,https://materialsproject.org/materials/mp-10188,14.049855594579284,39.408109203728976,-0.6372629231054853,49.87736085197415
-8.8668013375,-35.46720535,12.794993265121029,-0.2675781312500014,0.0057404,0.0,225,4,65.12351766535714,501.79788,mp-867475,TaSnRu2,https://materialsproject.org/materials/mp-867475,96.9436579134467,10.854542108843482,61.69602232357492,62.81047783194615
-5.43127254,-21.72509016,5.43949207456465,-0.24258556749999996,2.1977994,0.0,123,4,52.64373489719058,172.4471222,mp-1221660,MnAl2Cu,https://materialsproject.org/materials/mp-1221660,46.92535344107693,60.03792423162568,79.8527885813341,-4.3808924414869335
-10.078858075833333,-120.94629691,9.184702200374254,-0.3240328491666678,3.25e-07,0.0,194,12,207.7135022213461,1148.896,mp-1095545,ZrTc2,https://materialsproject.org/materials/mp-1095545,80.64914178423706,13.11454726187011,60.78127659629613,27.023080991975288