energy_per_atom,energy,density,formation_energy_per_atom,total_magnetization,band_gap,sgr,num_sites,cell_volume,weight,mp_id,formula,URL,tsne_cry_0,tsne_cry_1,tsne_xrd_0,tsne_xrd_1
-5.468214864,-54.68214864,7.4766356451662235,-0.138954883948,6.670008599999999,0.0,65,10,97.63507794560999,439.60538499999996,mp-1206545,PrCo5H4,https://materialsproject.org/materials/mp-1206545,72.27013771005602,13.141235362123526,64.49173541190521,2.253491027187008
-5.629107126363636,-61.92017839,8.509980525610446,-0.2710362009090904,1.74e-05,0.0,187,11,136.86576539036238,701.4138,mp-1219818,Ni7Ge4,https://materialsproject.org/materials/mp-1219818,42.80131167002007,49.85605704016231,75.59600281361779,-15.07469808525311
-1.884224710526316,-35.8002695,7.522030257663977,-0.24892185578947365,5e-07,0.0,166,19,311.8571166160697,1412.6730000000002,mp-30712,Sm2Zn17,https://materialsproject.org/materials/mp-30712,71.21704263993587,17.456213744849105,66.45937849449967,4.290433045959239
-6.7238969427777775,-121.03014497,9.772589244917686,-0.1789210794444445,8.99448815,0.0,166,18,253.87464157953517,1494.10073,mp-569509,Er2Co7,https://materialsproject.org/materials/mp-569509,74.1320049004503,23.860348024591488,62.56810660892639,17.2740197207941
-6.031521747999999,-30.15760874,4.698413518427786,-0.6169381869999995,0.000188,0.0,139,5,75.67383389421221,214.11539,mp-1070152,Ca(CoSi)2,https://materialsproject.org/materials/mp-1070152,33.722949543066846,45.825268624844924,59.88893151966058,-6.1240114169166215
-8.619093738333332,-103.42912486,9.627540223360096,-0.0990774408333337,5.4265109,0.0,164,12,149.16360404625826,864.8267599999999,mp-1217941,TaFe4Si,https://materialsproject.org/materials/mp-1217941,64.08643561127086,48.214011632875206,72.17913220537494,17.484546922956373
-7.24721199125,-115.95539186,7.5447780613619395,-0.3878822486607145,14.233777800000002,0.0,1,16,177.89464215169662,808.2770479999998,mp-1225022,Fe7Ni5P4,https://materialsproject.org/materials/mp-1225022,43.35936751781175,54.232346920974514,77.35464413179102,-12.839854835265884
-4.236521266111111,-610.05906232,5.871411317810002,-0.34885357413194384,0.0,0.3475000000000001,14,144,2160.5959945277928,7639.536,mp-581212,Cu2S,https://materialsproject.org/materials/mp-581212,15.375225218887772,26.43668205851221,20.262539216924964,-49.06080822466807
-12.4325385475,-149.19046257,16.186314911622222,-0.2602750808333336,6.805467299999999,0.01019999999999932,194,12,220.6526814963377,2150.84,mp-510184,GdOs2,https://materialsproject.org/materials/mp-510184,81.44458319603245,11.767562789777301,60.410439615669404,26.69392075532743
-5.093109648571429,-142.60707016,8.92040674205023,-0.5195073807142866,0.00034810000000000006,0.0,63,28,472.2958664103782,2537.17084,mp-1208027,Tm2(Ga3Ru)3,https://materialsproject.org/materials/mp-1208027,69.37139164812311,15.766026045763766,64.84528191518964,5.344854345461412
-8.888509785,-71.10807828,5.394854986199579,-0.6900901327232134,0.0,0.0,194,8,89.18055328348251,289.73492400000003,mp-8044,V2PC,https://materialsproject.org/materials/mp-8044,25.32528028341736,57.20200474339296,71.0966386970873,-0.018904881598346468
-6.307510574545455,-69.38261632,8.541589817297671,-0.10197010181818073,3.0829465,0.0,187,11,136.68559902561543,703.0923650000001,mp-1226096,Co7Ge4,https://materialsproject.org/materials/mp-1226096,42.79412175407341,49.89333070319004,75.60682639138705,-15.070478551968026
-7.605353321052631,-144.50171310000002,7.314148273530048,-0.028456883157894863,30.3219256,0.0,166,19,266.4103968895895,1173.4533772,mp-1190010,Pr2Al2Fe15,https://materialsproject.org/materials/mp-1190010,74.47091630293244,35.813986118694906,88.43548906276007,-22.83760702193163
-8.9498972625,-107.39876715,11.705374011006098,-0.8248153198809524,1.425e-06,0.0,62,12,153.69522770940603,1083.419348,mp-1095553,TaCoP,https://materialsproject.org/materials/mp-1095553,60.28596549056925,24.39638258370654,58.55700701304023,11.2772459046596
-9.4771987859375,-303.27036115,14.501654553790596,-0.5056826709374995,0.00312679375,0.0,63,32,445.4930911891536,3890.5359999999996,mp-1204410,VIr,https://materialsproject.org/materials/mp-1204410,54.425187819590924,41.5370806641319,72.57637839239831,15.337225201955334
-6.644820650833334,-79.73784781,10.944322189827409,-0.3710799641666671,0.0,0.0,62,12,198.8042473301557,1310.2839999999999,mp-21359,SbRh2,https://materialsproject.org/materials/mp-21359,64.12725025511591,36.657821438776885,72.48679811398462,6.21791795386642
-4.602505548928572,-128.87015537,8.660027213332388,-0.4781610303571426,0.0002313,0.0,63,28,436.7336583406913,2277.64917,mp-866685,Er2(Ga3Co)3,https://materialsproject.org/materials/mp-866685,68.50917465503244,18.570250822895318,64.78056816421733,6.466451106367983
-8.887137875,-17.77427575,5.4081213672166415,-2.8253666027083355,0.0,0.0,187,2,19.609887305254272,63.8664,mp-755264,TiO,https://materialsproject.org/materials/mp-755264,30.578044774875487,54.48197148528187,75.86216644477433,-4.122884357188407
-8.892434703500001,-177.84869407,6.773648777745667,-0.2858381114519986,4.1471408,0.0,59,20,189.5289687894289,773.1240499999999,mp-1247514,Mn5FeN4,https://materialsproject.org/materials/mp-1247514,27.75808158998591,53.25359658877756,70.0990785708677,-0.4136728960279751
-3.927877745,-15.71151098,11.974621669992134,-0.0350031349999993,0.0,0.0,221,4,53.74971641231786,387.604569,mp-2258,Cu3Au,https://materialsproject.org/materials/mp-2258,53.1983556515242,58.96793677823944,87.71020753680516,2.7268927154871427
-5.910301917857143,-165.48845369999998,10.14988549068277,-0.5925332721428569,13.830975199999997,0.030999999999999694,63,28,493.45102089599686,3016.172,mp-542930,Eu2(Ga3Ir)3,https://materialsproject.org/materials/mp-542930,62.40090276085443,13.262172509361436,54.41329913508636,-9.033750345619683
-8.29606593875,-66.36852751,7.243746992921205,-0.4300143875000009,3.9988980000000005,0.0,166,8,88.35516588395822,385.430545,mp-1221563,MnV(Fe2Si)2,https://materialsproject.org/materials/mp-1221563,42.316150350961664,60.11724066056377,91.62866787575126,-8.738299711145718
-4.6251355525,-129.50379547,8.094361430940559,-0.4795141892857145,1.805e-05,0.0,63,28,453.3871634682266,2210.05317,mp-1005789,Sm2(Ga3Co)3,https://materialsproject.org/materials/mp-1005789,68.69908954841482,18.25756329483823,64.8062011336949,6.289713882005619
-9.24617308357143,-129.44642317,7.697624150804585,-0.06800258892857057,2.11475565,0.0,15,14,128.87673009145135,597.42325,mp-22749,Mn5C2,https://materialsproject.org/materials/mp-22749,39.50858443384949,55.869897735760574,79.30221488292392,-13.96731857108404
-6.873558697777778,-123.72405656,8.440190036794629,-0.1343363794444446,2.1916428,0.0,25,18,223.9313907181601,1138.19877,mp-675526,FeCoAs,https://materialsproject.org/materials/mp-675526,42.547356079011,54.91002032442736,75.08227856747146,-12.879622267461555
-6.1492884108823525,-209.07580597,7.674659919213518,-0.4644570436764711,1.6e-06,0.0,147,34,372.1729308133808,1720.1045,mp-1209041,Si9Ni25,https://materialsproject.org/materials/mp-1209041,42.651954669909856,55.22391532666021,76.32114712514286,-13.539054602127882
-7.836575546617646,-532.88713717,7.565305444878467,0.2336183890441181,30.690926075,0.0,136,68,950.2550459600957,4329.2988,mp-568729,Nd2Fe14C,https://materialsproject.org/materials/mp-568729,70.89339675697605,32.83879614104639,63.23521230317952,4.981642858066832
-3.8891599866666655,-11.66747996,6.604912546897053,0.006867997135416933,0.0,0.17569999999999994,44,3,51.8034701959564,206.05200000000002,mp-1225805,Cu2Se,https://materialsproject.org/materials/mp-1225805,17.06191751278613,23.920379494478073,67.21724347855347,-16.153896460069294
-6.1036032810344825,-177.00449515,10.213990344314906,-0.5986160155172415,0.0019202000000000002,0.0,225,29,472.5804444512739,2906.8465,mp-1193089,Hf6Ga16Rh7,https://materialsproject.org/materials/mp-1193089,69.04615280966176,17.146675948481526,54.137336927452594,21.713747229664847
-4.506844497142857,-157.7395574,8.24109229796903,-0.5111764385714285,0.0013424,0.0,12,35,544.2616182339151,2701.117,mp-1185142,Dy4Ga21Ni10,https://materialsproject.org/materials/mp-1185142,68.30167516871282,19.01306515714617,63.60766112318115,6.447323597075792
-8.192467706666667,-49.15480624,15.396640671370466,-0.6948845891666671,5e-08,0.0,227,6,114.03619221216759,1057.3519999999999,mp-890,NdIr2,https://materialsproject.org/materials/mp-890,82.61501067826998,11.450694260397356,61.44363730297739,26.047201118328573
-8.720642365555555,-156.97156258,13.408458732604506,-0.1836310074074087,0.1589741,0.0,38,18,206.3889129778169,1666.5414999999996,mp-1217275,Ti2FeB6(Os2Rh)3,https://materialsproject.org/materials/mp-1217275,54.0728259383514,39.21818104103211,61.43084647508274,-8.447606661414731
-4.9548788655000005,-198.19515462,9.202125264882708,-0.0845418285000001,0.033027375,0.0,2,40,545.1862707858926,3021.2312,mp-1213091,In3Ni7,https://materialsproject.org/materials/mp-1213091,53.27628549312779,52.21095031627828,79.83308609404115,2.005004760288602
-8.238065694137932,-238.90390513,9.240551032066302,-0.03744686999999952,13.0132065,0.0,225,29,415.7168622873728,2313.3770350000004,mp-1193176,Lu6Mn23,https://materialsproject.org/materials/mp-1193176,71.6132330701844,28.234143446008698,62.69848637107288,12.585914912704418
-6.828523515833332,-81.94228219,7.743091787034767,-0.3351208408333335,0.83476455,0.0,62,12,156.3585171333767,729.0996,mp-1095536,VNiGe,https://materialsproject.org/materials/mp-1095536,45.169071228074905,50.894865917765244,74.39815021683246,-12.506905361572542
-8.359422351071428,-234.06382583,7.959346306267027,-0.5885535060714295,4.575e-06,0.0,63,28,497.69384134389406,2385.56128,mp-540660,Nb4As3,https://materialsproject.org/materials/mp-540660,35.804253847317646,29.388713313489642,69.14150489675286,-8.037470252285582
-6.51685098,-26.06740392,6.845279240866297,-0.4008846300000002,4.0953275,0.0,225,4,48.348068682605245,199.30638359999998,mp-4922,MnAlNi2,https://materialsproject.org/materials/mp-4922,82.42909639606913,43.680992986275676,89.26932654593008,-3.9331062552119502
-5.498664115729167,-527.87175511,8.067794130815624,-0.3560850805803568,1.445e-05,0.0,2,96,1486.550081529389,7222.461944,mp-683937,Ni13Sn8P3,https://materialsproject.org/materials/mp-683937,34.44074623649496,31.61299042697721,69.22058530336308,-9.284275866410258
-8.9523304325,-143.23728692,6.5873636345447215,-0.42494304749999934,3.55e-06,0.0,140,16,147.422871883586,584.827,mp-15617,Cr5B3,https://materialsproject.org/materials/mp-15617,35.734284765169875,54.937001941328724,76.9389549659432,-10.472791577167856
-7.692914197499999,-92.31497037,6.7047757431241966,-0.6013217155555554,3.105e-05,0.0,194,12,148.90571912819055,601.23817,mp-1217162,Ti2Co3Si,https://materialsproject.org/materials/mp-1217162,47.88321133744331,53.99108705566157,78.70431538811683,-4.541419546092238
-6.545606031363636,-144.00333269,6.625102125655,-0.6435764259090914,5e-07,0.0,229,22,338.39331503895386,1350.0979,mp-1207795,Y3(SiNi3)2,https://materialsproject.org/materials/mp-1207795,55.751506906181476,44.64445919516665,69.23189593605875,5.4263560866655585
-8.829574161875,-282.54637318,5.9006833890355725,-0.6677215699107144,0.0,0.0,86,32,413.78826066454246,1470.3860960000002,mp-18350,V3P,https://materialsproject.org/materials/mp-18350,50.96300715323325,47.42847368856543,73.28863826923894,-4.525160843086944
-7.3346982657142865,-154.02866358,7.097584300093519,-0.7164722075396823,5.3495117,0.0,174,21,238.57870686268856,1019.748674,mp-867373,Ti2Co12P7,https://materialsproject.org/materials/mp-867373,43.75067542021719,52.90718811266082,75.26523343142767,-11.122316987662694
-7.368490035625,-117.89584057,7.441100372318562,-0.3415618936607148,4.181540425,0.0,82,16,179.7376257567783,805.4286480000001,mp-1224713,Fe2NiP,https://materialsproject.org/materials/mp-1224713,43.39610881508601,54.18994180170285,77.21646128264952,-12.52878655141292
-5.542314046923077,-72.05008261,3.962501156642008,-0.2635357950000001,7.1190967,0.0,139,13,199.3411010045353,475.6824888,mp-10878,Ca(MnAl2)4,https://materialsproject.org/materials/mp-10878,41.8901766812385,44.216336995372245,66.61703629687045,-12.13586160102404
-7.713434628965517,-223.68960424,8.606807749848354,-0.0510631320689656,51.5037466,0.0,225,29,435.92004549055997,2259.435,mp-1194186,Dy6Fe23,https://materialsproject.org/materials/mp-1194186,71.35417868452362,28.443619054251904,62.521493686107924,12.019036416687618
-6.33000067125,-50.64000537,9.779435573395789,-0.4989736637499984,2e-07,0.0,129,8,132.306618277697,779.1952,mp-1080723,HfCuGeAs,https://materialsproject.org/materials/mp-1080723,59.023612925557345,21.512997392600077,63.07560776824453,-1.8007287312341964
-5.85261518,-23.41046072,7.917748050446402,-0.20955633124999995,0.0012396,0.0,123,4,41.8437636434228,199.518572,mp-1227299,BeCo2Ge,https://materialsproject.org/materials/mp-1227299,41.726340003190174,60.12790879288538,73.13946300841238,-13.869606085823008
-8.362723110263158,-317.78347819,9.407323689411443,-0.00852585184210553,27.67069765,0.0,194,38,515.0769395120215,2918.02564,mp-1204045,U2Fe15Ge2,https://materialsproject.org/materials/mp-1204045,69.36522872914182,24.267197582442463,88.89133678142983,-19.80535803508349
-6.09678603,-42.67750221,8.568621717927941,-0.3488841599999993,1e-07,0.0,139,7,108.381650722489,559.265,mp-1025167,Hf(VGa2)2,https://materialsproject.org/materials/mp-1025167,69.26294577015238,17.53292730606763,64.12779667012829,1.7448931407072792
-4.5095730505714275,-157.83505677,8.186704725311179,-0.5113883302857143,5.7799999999999995e-05,0.0,12,35,544.9771301505867,2686.8184,mp-1203178,Tb4Ga21Ni10,https://materialsproject.org/materials/mp-1203178,68.30223526785079,19.01545751470081,63.58351249895246,6.451393963372603
-5.161074409285715,-144.51008346,10.711893976245163,-0.6593871171428571,1.65e-05,0.0,63,28,475.6017648151907,3068.03728,mp-1212420,Ho2(Ga3Ir)3,https://materialsproject.org/materials/mp-1212420,62.3711663487808,13.317902311389028,54.71465906037635,-9.3683165842504
-8.395395822500001,-100.74474987,9.59740011533084,-0.4147849598809532,0.0,0.0,62,12,161.33306850213552,932.455048,mp-21911,PRu2,https://materialsproject.org/materials/mp-21911,62.373893511075366,28.98967099774856,72.35882324139193,1.0535184113619025
-7.727729056666668,-69.54956151,7.7366989511549615,-0.3321030716666671,1.4567233,0.0,189,9,117.00082781010114,545.1243,mp-1095040,VFeAs,https://materialsproject.org/materials/mp-1095040,45.19346751330621,50.875281882696626,74.41633578980006,-12.71583501329042
-5.5064215414545465,-302.85318478,7.9695918291024315,-0.11856305190909056,0.09012739999999998,0.0,89,55,770.4973532342418,3697.92535,mp-1220212,Pr3(Ni9Ge4)4,https://materialsproject.org/materials/mp-1220212,22.383563027124577,37.815823826493634,65.2180734397771,-21.96295381624116
-2.20939253,-53.02542072,7.330574993453126,-0.18508200208333334,6.9414436,0.0,141,24,394.8116852246682,1742.9260000000002,mp-1191536,EuZn11,https://materialsproject.org/materials/mp-1191536,71.39841999344746,17.89617003937928,68.1386194783489,3.5349618870581163
-5.498071925,-54.98071925,7.399610613038702,-0.15452093719800006,6.3003864,0.0,65,10,98.20208710052867,437.60320500000006,mp-1206119,LaCo5H4,https://materialsproject.org/materials/mp-1206119,72.27484627345605,13.138465584144676,64.5484641987961,2.2458617140634667
-5.1943118083333335,-31.16587085,7.4642340678123,-0.288057823333333,0.4230894,0.0,38,6,91.56178275983092,411.57633860000004,mp-1226667,CeAl(CuNi)2,https://materialsproject.org/materials/mp-1226667,74.66193959728314,17.81759462229195,86.66189404216644,-11.12145598553434
-5.152166485,-144.26066158,10.83267905111773,-0.6520007057142857,0.00010055,0.0,63,28,471.7266256766664,3077.3520000000003,mp-1212874,Er2(Ga3Ir)3,https://materialsproject.org/materials/mp-1212874,62.36807891382658,13.321982111544154,54.76441152191303,-9.360015381881887
-6.197984195,-24.79193678,7.9058230426841245,-0.3322247554166671,2e-07,0.0,123,4,59.64375540673126,283.9638,mp-1216749,TiNi2Sn,https://materialsproject.org/materials/mp-1216749,65.75858235202521,35.59450696125828,69.4573764010799,3.2041013874807165
-6.03426648375,-48.27413187,7.161699689526737,-0.05960134304687514,2.148826275,0.0,62,8,125.02560844016205,539.22,mp-1078945,FeSe,https://materialsproject.org/materials/mp-1078945,23.105105904415716,35.48149015747456,62.71054432289178,-23.13092248205591
-4.273477505,-25.64086503,7.823037334178633,-0.13297438875000012,1e-06,0.0,187,6,87.7825524932698,413.556182,mp-1219080,SmBeCu4,https://materialsproject.org/materials/mp-1219080,74.94628895877854,18.536648351538094,87.53015825323178,-11.627336370201721
-4.037253388571428,-113.04309488,7.984587917224943,-0.13616241928571424,5e-07,0.0,140,28,471.82705794931815,2268.748,mp-1192662,SrCu9Sn4,https://materialsproject.org/materials/mp-1192662,33.794724827170526,30.399690863517595,69.15054612578435,-10.634472052722858
-7.887091230952381,-331.2578317,7.141366032009152,-0.2964818219727896,8.596779816666666,0.0,8,42,471.95527114905497,2029.705572,mp-1225379,Fe5SiP,https://materialsproject.org/materials/mp-1225379,43.10135551116226,54.71425985818025,76.41330109766695,-13.479574824833376
-4.6197724575,-129.35362881,7.906462957497202,-0.4671873135714288,5.3e-06,0.0,63,28,459.0223058507463,2185.58117,mp-1193443,Nd2(Ga3Co)3,https://materialsproject.org/materials/mp-1193443,68.74429493520964,18.232527507345786,64.81774646684002,6.22884402019509
-8.137793528636363,-179.03145763,7.914736474501219,-0.28352056668818193,34.0048547,0.0,166,22,270.02922803180684,1287.058075,mp-1191482,Ce2Fe12Co5N3,https://materialsproject.org/materials/mp-1191482,77.77823332145513,34.44777132347341,88.78574719911653,-25.56708452694284
-7.08090657625,-113.29450522,7.610637866044322,-0.3891752330357141,6.3819774,0.0,5,16,176.97668663895473,811.1254479999999,mp-1224865,Fe3Ni3P2,https://materialsproject.org/materials/mp-1224865,43.32204028840442,54.25702971907636,77.34311447978344,-12.88736625047621
-7.695926798333333,-46.17556079,7.832505551113384,-0.27980953055555585,2.90501145,0.0,69,6,53.25135359017476,251.17839,mp-1224984,FeCoB,https://materialsproject.org/materials/mp-1224984,36.55658631321301,55.59532609038955,79.8156857976265,-7.884142279136232
-8.1950181764,-819.50181764,7.965581742240317,0.2648126935999994,1.0366109799999998,0.0,1,100,1164.168615545698,5584.5,mp-1245108,Fe,https://materialsproject.org/materials/mp-1245108,45.300580910002346,55.000395790442006,76.96782779163529,-13.403586528410699
-1.8367937773684209,-34.89908177,7.877341871414442,-0.21716859763157897,1.4e-06,0.0,166,19,304.91523726347486,1446.4710000000002,mp-30963,Er2Zn17,https://materialsproject.org/materials/mp-30963,70.84121260170832,17.394254398560914,66.45114888956246,4.2884515759445545
-8.15982522375,-65.27860179,10.4654944382201,0.4593207645833335,0.30295059999999996,0.0,194,8,99.65016616425119,628.0419999999998,mp-1183231,BRu3,https://materialsproject.org/materials/mp-1183231,52.10237411955396,59.50904710450211,72.35726859662445,-15.442339183538705
-1.4792354420833334,-35.50165061,6.671607795985828,-0.17213973916666644,0.0,0.0,141,24,401.77799727141115,1614.2379999999998,mp-18026,SrZn11,https://materialsproject.org/materials/mp-18026,67.65783697113278,32.05802663910657,68.24657455771846,-3.033806333693997
-9.4794242403125,-303.34157569,14.488800663197225,-0.5079081253125004,0.0200385375,0.0,12,32,445.888315030475,3890.5359999999996,mp-1178810,VIr,https://materialsproject.org/materials/mp-1178810,54.445070965362746,41.515687309171774,72.59296144709826,15.332138693266886
-8.284675667058824,-563.35794536,8.039854767349766,-0.10859056156862787,30.212871500000002,0.0,136,68,919.9923485779257,4454.339639999998,mp-1216311,YThFe14B,https://materialsproject.org/materials/mp-1216311,72.94757419835861,31.803549629872588,83.48773238119145,-6.235720927754972
-5.49008987625,-43.92071901,8.558331677646434,-0.22074868687499996,2.3994254,0.0,146,8,100.41657216508207,517.54178,mp-1224805,Ga3Co4Ge,https://materialsproject.org/materials/mp-1224805,79.23859940103564,47.31756218559675,83.56284044965987,-1.583246668336695