energy_per_atom,energy,density,formation_energy_per_atom,total_magnetization,band_gap,sgr,num_sites,cell_volume,weight,mp_id,formula,URL,tsne_cry_0,tsne_cry_1,tsne_xrd_0,tsne_xrd_1
-8.52581442171875,-545.65212299,5.0949866683527825,-3.3726719999609367,2.00089295,0.0,193,64,813.4512582067314,2495.89032,mp-1208814,Sr3Ta2Ti6O21,https://materialsproject.org/materials/mp-1208814,-33.939206906949295,-56.3844995827239,-6.079344123801905,-54.65357246010395
-7.939547476666667,-95.27456972,5.95797326811388,-3.1728355914375013,0.0,2.0809,139,12,178.29223564523426,639.7081599999999,mp-7148,K2SrTa2O7,https://materialsproject.org/materials/mp-7148,-32.590797645338235,-69.04827458639774,13.232688306161856,-65.97890635580573
-5.378666868913044,-247.41867597,4.749358398595463,-0.5288457182086957,0.494613,0.0,136,46,1193.536437754027,3413.67,mp-1245390,Ba11(SiN5)2,https://materialsproject.org/materials/mp-1245390,-3.7061240060459855,-26.067071174394744,-26.122656785112074,-54.07226619947397
-5.878269364827586,-340.93962316,4.085273386650038,-1.9638455120366376,10.0000007,2.408,167,58,923.7419404472304,2272.5984,mp-556960,Sr3Fe2(SeO3)6,https://materialsproject.org/materials/mp-556960,-29.45306190629466,-33.26430768935059,-7.1905088264934625,-34.118071503664105
-7.330496837999999,-183.26242095,7.229273427806111,-2.5538688057166667,5.0000005,1.943,35,25,350.30659869003034,1525.0844,mp-1217456,Ti4FeBiPb4O15,https://materialsproject.org/materials/mp-1217456,-2.4082603523181083,-79.64621983783083,1.2565974873645878,-47.348940292967704
-5.6607793256666685,-169.82337977,4.353505118621328,-1.9615394486354167,2.0000003,3.3752000000000004,2,30,469.0072290199228,1229.616,mp-1194096,Sr2Ni(SeO3)3,https://materialsproject.org/materials/mp-1194096,-29.323800625683145,-33.233421889256185,-2.887812835647849,-30.441681610970416
-6.39590458625,-51.16723669,6.2026896706121075,-2.8675755840517247,0.0,2.9251,194,8,165.52477960709084,618.2925038,mp-553308,CsNdO2,https://materialsproject.org/materials/mp-553308,3.6646636926862697,-59.215962479022856,5.596825706627522,-55.34484513387068
-5.723910547916668,-137.37385315,4.950945783326397,-1.831355228619792,0.0,1.7721999999999998,173,24,556.3815542940706,1658.8678999999993,mp-560014,Pr3CuSnS7,https://materialsproject.org/materials/mp-560014,10.53783379683885,-16.300518530622348,1.2258435975781834,-1.5108769053622084
-9.038279941,-90.38279941,5.568506067261811,-1.109009709928,3.855e-05,0.8109999999999999,40,10,165.12367312295038,553.73114,mp-989603,LaMoN3,https://materialsproject.org/materials/mp-989603,-29.401893710095013,-58.479131932456504,-4.165076066615351,-30.72307304216703
-7.219643819318183,-317.66432805,4.983072809611661,-2.900998959204547,0.0,3.2804,14,44,564.0522551474487,1692.6512344000002,mp-1211910,LaAlGe2O7,https://materialsproject.org/materials/mp-1211910,-22.21306137188013,-43.50867312966707,-8.711958703012426,-37.73325609102093
-6.5548759727777774,-235.97553502,6.077955438368983,-2.263634659236112,5.95527095,0.3415999999999997,15,36,581.8040341647524,2129.5368,mp-867790,Ba5Ru2O11,https://materialsproject.org/materials/mp-867790,-14.870900004070547,-81.13712716748987,15.639778204584177,-70.69467241162361
-7.2661110489473675,-276.11221986,7.756212935797684,-2.5291982018421053,7.5e-07,1.6477000000000004,41,38,501.62291153270064,2343.0308,mp-622198,Ti3(BiO3)4,https://materialsproject.org/materials/mp-622198,-15.545643561715783,-57.21251141118581,-8.736836684584807,-55.61585178647625
-6.724386739500001,-134.48773479,5.241225885895141,-1.7751250244374999,2.999999875,0.0,62,20,378.3509948076008,1194.2044,mp-15932,SmCrS3,https://materialsproject.org/materials/mp-15932,13.620922872063911,-16.105403462431628,5.415244249358076,-0.6830788280143946
-5.0769532828571435,-71.07734596,5.323504871142059,-2.2421541392672415,0.0,2.2669,12,14,384.0735887796212,1231.2975314,mp-754971,Cs3TmO3,https://materialsproject.org/materials/mp-754971,-5.447581046500754,-27.194074531765214,-25.699349057611084,-49.862063618079354
-7.0598761073076925,-183.55677879,3.929893922141104,-2.7918055100732606,1.99622545,0.0,2,26,330.2903194863803,781.677448,mvc-2665,SrTiZn(PO4)2,https://materialsproject.org/materials/mvc-2665,-25.15793494215774,-33.320435632216984,0.19915454155868506,-25.901638784459497
-7.135108867857142,-199.7830483,6.300183208909949,-2.5995737871428566,9.35e-06,2.7063,2,28,516.8518367407366,1960.9664,mp-1192384,DyWBrO4,https://materialsproject.org/materials/mp-1192384,-32.030845560943305,-34.069561804446884,-37.34805924395265,-24.19117826487291
-6.881416037999999,-34.40708019,7.089661835821327,-2.1258314692500013,0.9999988000000001,1.3521,99,5,71.70397337928817,306.13969999999995,mp-20032,VPbO3,https://materialsproject.org/materials/mp-20032,-2.2428334636389917,-79.29005772286544,1.6397864498629835,-47.59783715491147
-8.318302522857143,-174.68435298,3.9276628701343874,-3.348815544497127,0.0,2.631,12,21,281.6266505504697,666.1298,mp-540784,Rb2Ti6O13,https://materialsproject.org/materials/mp-540784,-12.7464382998316,35.528306450035416,-2.4930208177423454,34.02032245825269
-6.34772740375,-152.34545769,4.81953287623924,-1.0990006610119043,0.0,0.5579999999999998,9,24,553.6208531448218,1606.8239520000004,mp-2804,LaP2,https://materialsproject.org/materials/mp-2804,16.342924997221072,-8.290772345288314,7.102231776694793,5.109394255050266
-6.94172311,-124.95101598,4.27697241572536,-2.8483848837500005,3.00000015,0.6448,5,18,239.15647098939704,615.98409,mvc-6196,Ca2YCoO5,https://materialsproject.org/materials/mvc-6196,13.339107689002864,-70.41983135949243,11.120321609561806,-34.510469224662124
-6.263344197391304,-144.05691654,6.4648153357354206,-2.197217077468945,0.0,3.5375000000000005,150,23,330.7318347093751,1287.606124,mp-1190321,Zn3P2Pb3WO14,https://materialsproject.org/materials/mp-1190321,-23.397652147470414,-44.953188556143935,-18.93125436715945,-41.76024452132037
-3.7750380833928565,-211.40213267,5.9419606621850125,-0.5129621594196426,0.0,1.4505999999999997,14,56,1429.7025027754587,5115.950800000001,mp-583184,Tl3Ag3(AsS3)2,https://materialsproject.org/materials/mp-583184,9.045090914730109,-24.665424311628684,-14.189208523587999,-29.21229680423872
-2.9668470115625,-94.93910437,4.35737289748727,-0.3161997705280175,0.0,0.31499999999999995,2,32,1314.2339078358182,3448.6435266000003,mp-1203378,Cs7(InAs2)3,https://materialsproject.org/materials/mp-1203378,-3.2410651830664086,-25.462245711523884,-7.641998414521898,-31.08645405466923
-8.211804512,-164.23609024,7.642118524963852,-3.23012584525,3.00000005,2.4945,62,20,228.14722462291755,1049.9772,mp-19381,DyCrO3,https://materialsproject.org/materials/mp-19381,9.469083854586312,-80.91982393659909,51.85676076496011,-53.028210455253976
-7.701536798125,-246.44917754,4.026607609192686,-3.351983002421874,0.0,4.4178,148,32,435.64505386366113,1056.3869,mp-17025,Sr3Y(BO3)3,https://materialsproject.org/materials/mp-17025,-18.201185346285442,-32.46901804457961,-0.5814281471194793,-27.76023229136682
-7.422279940526316,-282.04663774,6.5844724168074285,-2.5375633915394733,0.000143,1.8541000000000003,1,38,518.3251872117709,2055.29518784,mp-1221291,Na3Nb6Bi5O24,https://materialsproject.org/materials/mp-1221291,-16.938159873678188,-57.095328813809736,-10.830693176783726,-56.01628791103777
-8.1309745595,-162.61949119,6.89347459284653,-3.719486275416666,0.0,3.2275,14,20,234.1500440353132,972.0382,mp-1208534,Tb2MgTiO6,https://materialsproject.org/materials/mp-1208534,9.566451313758053,-81.61790671996951,50.694246496134426,-53.465196022554885
-7.0343255088,-351.71627544,4.933111644755118,-2.9611686192452003,2.0000001,0.6690999999999998,4,50,837.3575277169232,2487.6128,mp-1256464,Ba7SiB3NO13,https://materialsproject.org/materials/mp-1256464,-23.50073281054201,-25.333590804943857,-4.962308690639933,-8.318345355385018
-4.0219034625,-64.3504554,5.569978467007567,-0.6661203470312507,0.0,1.4834,2,16,465.3978860121518,1561.0931999999998,mp-28230,TlSbS2,https://materialsproject.org/materials/mp-28230,-0.7381293161259977,-22.135599933033514,-13.484613919116526,-28.371194328272395
-5.0767432549999985,-71.07440557,5.269468879565941,-2.229196550695813,0.0,2.2385,12,14,386.9562880316111,1227.9471114,mp-757032,Cs3ErO3,https://materialsproject.org/materials/mp-757032,-5.4409705995347455,-27.17920813769033,-25.70268146912003,-49.86026663630372
-8.009328402647059,-544.63433138,6.087703114455838,-3.2528802053676484,2.000000125,1.7542,86,68,1007.6049615851256,3693.98112,mp-14748,La4Mo2O11,https://materialsproject.org/materials/mp-14748,-6.124524139380692,-71.96566717190036,-15.66969329708934,-31.334367672893585
-5.75963734,-46.07709872,7.3855120412728175,-0.8335677825000003,0.005350100000000001,0.0,25,8,178.20562049279286,792.5979,mp-1217620,Tb4Si3Ge,https://materialsproject.org/materials/mp-1217620,31.226402140266533,-41.10030287551244,13.694404725594756,-17.649091629380983
-6.569239403103447,-190.50794269,5.505498057471218,-2.403389709555172,19.000168399999996,0.38729999999999976,38,29,438.25336110445113,1453.0239699999993,mp-1228260,Ba6Mn4Co2ClO16,https://materialsproject.org/materials/mp-1228260,-9.461159503076646,-82.66142144151952,19.41214279452113,-75.2433206564951
-8.3268539925,-66.61483194,9.722843680723448,-0.4189557999479163,0.0,0.0,10,8,128.73411289489314,753.76828,mp-3182,Th3B2C3,https://materialsproject.org/materials/mp-3182,9.113861451588779,-60.69204187366501,8.470932917352705,-48.140045273781205
-3.2666103495,-65.33220699,3.124001790576438,-1.5606376341088972,0.0,0.6579000000000002,62,20,654.5534975459851,1231.4232,mp-756979,Rb3ClO,https://materialsproject.org/materials/mp-756979,-3.855166649887332,-27.90273734727695,-27.353957202844782,-58.66268417505417
-7.0083281485714295,-49.05829704,7.524537427351813,-0.5519696722023814,2.13e-05,0.0,71,7,82.33809569246338,373.1054,mp-1025379,Tb2B4C,https://materialsproject.org/materials/mp-1025379,8.789826154423134,-56.82045993185393,13.793021978511579,-16.338787753208887
-7.117747645833332,-170.8259435,5.185449526822227,-2.6230135709339084,0.0,3.5660000000000003,49,24,397.11120241447014,1240.0793038,mp-1213277,CsEr(MoO4)2,https://materialsproject.org/materials/mp-1213277,-49.34728844679367,-51.831239297505114,-29.78598210723852,-54.98564521718294
-6.651384814375,-319.26647109,5.111556731602363,-2.3587182313749997,2.00110085,0.0,15,48,670.4258647662332,2063.7394,mp-1211614,KLiYb2(MoO4)4,https://materialsproject.org/materials/mp-1211614,-51.2020545578721,-53.65864467320342,-23.898665118398426,-59.74864032806186
-5.942297701363636,-130.73054943,7.951094872028018,-1.829339279659092,0.0,1.6441,46,22,321.5847034879466,1539.8316,mp-633099,Sb2Pb2O7,https://materialsproject.org/materials/mp-633099,-21.539826599237625,-62.82906444796782,-12.327832935573234,-62.319588887577886
-6.6059710907692315,-85.87762418,7.02925684857383,-0.3893326936538459,0.0033842,0.0,166,13,212.081522115258,897.7659999999997,mp-8793,Nd5(FeB3)2,https://materialsproject.org/materials/mp-8793,28.805048075218547,-45.29455184440605,43.102734907996904,-50.31515191168334
-9.098727145714284,-254.76436008,5.198880718377271,-3.384937004238094,6.9999066999999995,2.1472,57,28,393.77672295690917,1232.8516,mp-1211763,KGdTiO4,https://materialsproject.org/materials/mp-1211763,12.565949275101485,-64.08025446862439,15.041007056498538,-42.728571706407365
-5.966636112000001,-89.49954168,6.645829307185367,-2.0642456986666664,1.3e-06,0.0,65,15,206.32775217114673,825.7674099999999,mp-6710,Ba2Tm(CuO2)4,https://materialsproject.org/materials/mp-6710,24.089641328837907,-77.58702398992445,42.67836799343859,-48.32461004686723
-6.530806968611111,-235.10905087,4.05832485522267,-0.997827287446666,6.665e-05,0.7283,52,36,812.9336904097448,1986.794,mp-1246531,Sr3Y2N4,https://materialsproject.org/materials/mp-1246531,3.7205982939803284,-32.913697714073024,-2.219975586639776,-27.3853811104248
-7.5220760875,-180.5298261,4.306098710054947,-3.3315788557577783,8.355e-05,4.0585,11,24,398.4517855597664,1033.2625,mp-866310,Ba2YB2ClO6,https://materialsproject.org/materials/mp-866310,-23.38378771483081,-26.232177456494504,-16.347253173107735,-28.173101475569894
-7.448427461363636,-327.73080830000004,3.5046597282454366,-2.9423413246814287,5.0000002,3.9272,14,44,599.8446870059616,1266.0054759999996,mp-1208769,SrMnP2O7,https://materialsproject.org/materials/mp-1208769,-24.545541315314807,-32.67690546829471,-2.9504149361160747,-26.097007354773368
-3.437620323125,-110.00385034,4.383756598095056,-0.4453919930280175,0.00023845,1.1015,2,32,1319.9492125335216,3484.6130866,mp-631378,Cs7NbIn3As5,https://materialsproject.org/materials/mp-631378,-3.2512078191626297,-25.43880950775845,-7.680673654938871,-31.070201914956165
-5.287621466,-105.75242932,5.030527952248481,-1.2564692875833336,0.0,0.5656999999999999,15,20,304.7254583227015,923.1519999999999,mp-775767,AgAsO3,https://materialsproject.org/materials/mp-775767,-27.693128348768784,-33.47193926019027,-2.1019302485327875,-29.67034031358367
-7.161972452222222,-128.91550414,6.5883653182418005,-2.8884221000462955,1e-07,0.0,100,18,227.14266732452077,901.2127,mp-1214316,BaTbCuBO5,https://materialsproject.org/materials/mp-1214316,16.25039751381939,-81.29424567264465,55.431848325682296,-60.77780052325127
-7.6800916754545465,-168.96201686,4.052527194165058,-2.7631230644668188,0.0,4.3725000000000005,143,22,319.8192710186727,780.5154,mp-554885,Ba3Si6N4O9,https://materialsproject.org/materials/mp-554885,-27.947946041549358,-29.89170751937575,-11.153359895761957,-20.208602543611775
-7.403452957391305,-340.55883604,5.670753097549663,-2.7152370660869565,0.0,3.2574000000000005,15,46,652.9683199907994,2229.89164,mp-1214443,BaTm2(MoO4)4,https://materialsproject.org/materials/mp-1214443,-51.07616872527328,-53.69523649919672,-24.0584236574415,-59.66283439280422
-5.17820401421875,-331.40505691,5.425504487618866,-1.313316575097657,0.03568285,0.0,62,64,1501.7895922575785,4906.8200000000015,mp-1204566,Sm3Sb4S9,https://materialsproject.org/materials/mp-1204566,9.829614538539452,-8.051482295713026,-3.019993007287264,-13.946352195581028
-8.284239390714285,-231.95870294,4.987333726056015,-3.1122745763809525,5.999858975,0.0,57,28,403.4395701961303,1211.7076,mp-1211712,KEuTiO4,https://materialsproject.org/materials/mp-1211712,12.540914940790394,-64.01711513654196,15.12643718210591,-42.69609063238846
-8.2136113925,-164.27222785,7.761325708152947,-3.2374091487500003,3.000000925,2.498800000000001,62,20,226.72295466484528,1059.69848,mp-756834,HoCrO3,https://materialsproject.org/materials/mp-756834,9.284214617566992,-80.95543973765486,51.82071657564287,-52.78369174663169
-5.746676582222222,-206.88035696,5.868754141445155,-0.6881491908333328,9.895e-05,0.0,92,36,943.3999820133816,3334.208,mp-355,Nd5Si4,https://materialsproject.org/materials/mp-355,33.510677862599856,-40.29824030487438,20.36474939969454,-18.337583928138148
-7.515320065416668,-180.36768157,5.5127729880819265,-3.245818692604168,0.0,4.2674,113,24,291.86415752411494,968.950928,mp-14415,Pr2Be2GeO7,https://materialsproject.org/materials/mp-14415,-17.0589505753059,-35.716245846487034,-14.984171215328805,-34.29593518361319
-7.187997684680852,-337.83589118,6.440525285209889,-0.7090952673404252,4.8134164,0.0,225,47,1097.037470817362,4254.9421600000005,mp-1223565,La20Mn8Te7C12,https://materialsproject.org/materials/mp-1223565,28.01549018467699,-42.00340042269365,18.06696284381004,-27.77988961757109
-9.68519114,-48.4259557,5.657369854159764,-1.7051926130539996,13.9423092,0.4992000000000001,164,5,116.64889560167893,397.4167,mp-29394,Gd2CCl2,https://materialsproject.org/materials/mp-29394,19.33122337799494,-42.69300324541771,20.66907112027347,-35.369883457570936
-6.55011601,-288.20510444,4.411742504003798,-2.6241349514393946,0.0,3.4811,19,44,580.7910913402524,1543.0536,mp-557974,BaZn2(BO3)2,https://materialsproject.org/materials/mp-557974,-26.92618670149133,-28.26236451288261,-21.65822110865128,-14.611064901958704
-8.01922523,-208.49985598,4.875778210260715,-3.27445322496795,0.0008426,0.0,46,26,381.96961941382784,1121.563,mvc-10753,Sr2Y2Ti2O7,https://materialsproject.org/materials/mvc-10753,17.37491589571157,-65.01296668206967,16.838297414817017,-28.553604208477758
-6.6888698008333325,-481.59862566,4.596740972441335,-2.9214641749966668,0.0,3.3751,62,72,1066.7135220078962,2952.9000128000002,mp-1195688,Ba3Zn2B3O9F,https://materialsproject.org/materials/mp-1195688,-24.210847577588076,-25.60743151193468,-16.48114157655921,-26.820405634134836
-4.713131121428573,-131.96767140000003,6.942585870648978,-1.547596967600715,0.0,2.3603,6,28,703.7848335147586,2942.4701999999993,mp-1220145,Pb12BrCl7O8,https://materialsproject.org/materials/mp-1220145,-20.18016798329408,-54.85348265596639,-12.621079833629985,-58.11753220896588
-4.406109286041667,-211.49324573,4.334585571020592,-0.4809873841666666,0.999105625,0.0,62,48,1523.2502094947126,3976.21388,mp-1195178,Ba5LaSi6,https://materialsproject.org/materials/mp-1195178,2.0967812769905168,-25.957945723132838,-11.363681468417086,-28.84178477831088
-5.93221284,-47.45770272,5.42384039256373,-0.7562584912499997,2.3199999999999998e-05,0.0,63,8,204.5008738772252,667.96388,mp-7083,LaSi,https://materialsproject.org/materials/mp-7083,33.28843722209247,-39.88864383706811,12.107739959211392,-19.19295261630021
-6.050016539230769,-314.60086004,4.440076201415866,-2.2742332868942303,0.0,2.6951,176,52,639.8276803511687,1710.8201542400002,mp-1210405,Na4Sr(Ge2O5)3,https://materialsproject.org/materials/mp-1210405,-33.94758112492404,19.147294548268125,-13.815736828100315,36.64540102414733
-7.0736884740625,-226.35803117,6.741403585552128,-2.0248003950325515,2.000000125,0.06780000000000007,14,32,496.4078493854409,2015.3008,mp-556965,NpAgSeO5,https://materialsproject.org/materials/mp-556965,-25.73684979533288,-47.66288997832695,-20.38977326632621,-48.00770407987377
-6.112070766944445,-220.03454761,4.458470542779445,-2.42148113725,1.0000001,0.5208000000000002,62,36,505.8175575848738,1358.09675424,mp-1198990,Na2PrGeO5,https://materialsproject.org/materials/mp-1198990,-21.74532119462477,-37.523192334829005,-17.685817087766218,-26.909349103047056
-10.094489817608695,-464.34653161,8.446793880677363,-3.4186025415760875,20.73763655,0.0,127,46,629.3265873525388,3201.2448,mp-1213410,Eu3Ta5O15,https://materialsproject.org/materials/mp-1213410,-31.370484111554088,-67.23597115804097,-3.5933405185872034,-57.067605327360646
-6.326699812916666,-151.84079551,5.205913433886965,-1.7802636608184528,0.0001851,0.3786000000000005,62,24,528.9335705068843,1658.246096,mp-1191667,NdPS,https://materialsproject.org/materials/mp-1191667,16.153709074972696,-7.739372675388888,3.672652917603575,-7.667931705810317
-3.082726068,-77.0681517,5.453119810895567,-0.20995394714482807,1.87e-05,0.0,1,25,976.2391900830228,3205.9163557,mp-620471,Cs3Te22,https://materialsproject.org/materials/mp-620471,18.783875898151923,-9.390035339967332,-5.150351367651631,-7.76032573345424
-7.847135438125,-376.66250103,5.6181448972694055,-2.4367716572916662,7.000000125,2.9426,60,48,805.7260829224022,2726.034,mp-1212617,GdTl(MoO4)2,https://materialsproject.org/materials/mp-1212617,-51.5186108508849,-51.968295101202614,-27.782950253098413,-55.18930594022264
-4.4167507375,-35.3340059,6.2982434830945575,-2.087692613214167,0.0,1.5094,129,8,206.59365598746612,783.5872063999999,mp-16742,BaAgTeF,https://materialsproject.org/materials/mp-16742,21.20479293634601,-7.957999267826555,13.73110114324816,16.245263357167193
-5.628224307142856,-78.7951403,4.018204023160613,-0.9628414753057136,5e-07,0.4973000000000001,176,14,274.2863247348075,663.7232772000001,mp-1246311,Sr3AlN3,https://materialsproject.org/materials/mp-1246311,7.120912482663061,-39.51317095551178,5.790803688999556,-32.2462295932543
-3.0328741692708334,-291.15592025,4.834334967747237,-0.4225498143570405,0.0,0.9354000000000005,14,96,3596.099572715909,10469.341276,mp-582182,Cs5In3As4,https://materialsproject.org/materials/mp-582182,-3.1966414695109124,-25.555562405929926,-7.297072807493729,-30.997414837238093