energy_per_atom,energy,density,formation_energy_per_atom,total_magnetization,band_gap,sgr,num_sites,cell_volume,weight,mp_id,formula,URL,tsne_cry_0,tsne_cry_1,tsne_xrd_0,tsne_xrd_1
-5.738851936666666,-34.43311162,7.681051185811452,-0.4678144912500001,2.2899999999999998e-05,0.0,65,6,87.7710722744479,405.9971386,mp-1220177,NdAlNi4,https://materialsproject.org/materials/mp-1220177,74.53881137153384,21.418148571720568,89.26025645379181,-13.385909766953429
-6.24159709625,-49.93277677,9.793323221141938,-0.5044550262499996,0.0,0.0,62,8,152.37558294236268,898.6619999999999,mp-20619,SbRh,https://materialsproject.org/materials/mp-20619,34.974041897699394,28.516819149855472,68.41689008683298,-1.1939921237827151
-8.297321653181818,-182.54107637,8.395973389334918,-0.09071787255682036,33.8883479,0.0,166,22,264.09914849096384,1335.3311,mp-974000,Lu2Fe17C3,https://materialsproject.org/materials/mp-974000,75.84769460731165,33.89351732770633,88.78039109259393,-24.277926828568887
-4.683652249285714,-131.14226298,10.791510530386496,-0.6175683749999996,8e-07,0.0,63,28,477.0844105731182,3100.4759999999997,mp-1207617,Yb2(Ga3Ir)3,https://materialsproject.org/materials/mp-1207617,62.37576636842871,13.30235081602847,54.67774855555937,-9.341143436888057
-5.866475903333334,-35.19885542,15.316131546177779,-0.5384429266666668,3.3e-06,0.0,191,6,115.25230217300656,1063.04,mp-570832,SrPt5,https://materialsproject.org/materials/mp-570832,76.78384986318335,12.069912274879155,62.095281408118,22.750062340708705
-6.428728455,-12.85745691,5.777065960159442,-0.3247614300000006,0.7643982,0.0,221,2,23.807362048809114,82.82653859999998,mp-2658,AlFe,https://materialsproject.org/materials/mp-2658,45.84351192689304,60.27618718001517,89.75680852266431,-5.420098842638242
-2.0695900806,-103.47950403,7.289095681862228,-0.23738368699999995,2.40563465,0.0,141,50,847.1604041501723,3718.692,mp-698212,Ce3Zn22,https://materialsproject.org/materials/mp-698212,71.45916814092519,17.357616964524592,66.17787333958529,4.432045553064905
-6.485339296153848,-84.30941085,8.507492129501502,-0.07280915384615455,13.6575997,0.0,191,13,222.229223062348,1138.5539999999999,mp-1207446,Zr(FeSn)6,https://materialsproject.org/materials/mp-1207446,66.80825077779971,15.9000481338966,58.97087206331889,18.75745256456505
-3.4869298335897434,-135.99026351,6.787154204730044,-0.18248623435897424,0.0,0.0,200,39,571.4020622714543,2335.503,mp-30910,Mg2Ga5Cu6,https://materialsproject.org/materials/mp-30910,49.31481438296157,51.14896410837244,68.907143510913,-12.247542478242
-5.566487433214285,-155.86164813,10.228097087132966,-0.005412465624999641,5.499064975,0.0,62,28,406.0560629919026,2501.1040000000007,mp-1192935,PuCu6,https://materialsproject.org/materials/mp-1192935,70.26742980370689,24.202006211777192,57.55538767632825,16.164357525513815
-10.864950181,-217.29900362,16.84444727010203,-0.014703511499999425,0.014133825,0.0,213,20,264.3191709631438,2681.244,mp-639789,Fe2Re3,https://materialsproject.org/materials/mp-639789,54.25906690880647,59.719034165972396,77.26626762960512,-2.760418038971684
-2.218389875357143,-186.34474953,6.527958585675026,-0.2227473032142856,8.25e-07,0.0,71,84,1335.185373791137,5248.918944,mp-1219746,ScZn6,https://materialsproject.org/materials/mp-1219746,52.1213303446676,45.07288406060238,67.44461116879029,-4.670697397521595
-5.751007933125,-184.03225386,6.931991638748361,-0.3537445549107145,5.6375e-06,0.0,61,32,423.52048898801286,1768.0044959999998,mp-618929,Ni2GeP,https://materialsproject.org/materials/mp-618929,18.47282227747548,37.3894263544818,68.1554021089201,-22.77671215709425
-7.94756993875,-63.58055951,6.8876987009622335,-0.3783912070833342,1.373457075,0.0,141,8,64.279751513972,266.624,mp-1080525,FeB,https://materialsproject.org/materials/mp-1080525,36.35724018537407,55.47029592996254,75.28850732781737,-3.87903212338796
-13.113874755,-157.36649706,15.517898090472965,-0.1235004366666672,6.801317425,0.0,194,12,226.71311409695,2118.656,mp-1102209,GdRe2,https://materialsproject.org/materials/mp-1102209,82.20784647318166,11.409101583916677,59.89981955059466,25.974023973012013
-7.30765256125,-58.46122049,8.509511658866865,0.03956995249999995,6.95834625,0.0,194,8,111.71522328417471,572.49,mp-20883,Fe3Sn,https://materialsproject.org/materials/mp-20883,54.89410470160268,53.25936492113979,81.99973809372769,5.7101373546315415
-4.405157423928571,-123.34440787,8.95032443667417,-0.6641211860714284,7.2999999999999996e-06,0.0,63,28,475.80733814602735,2564.607,mp-1207626,Yb2(Ga3Rh)3,https://materialsproject.org/materials/mp-1207626,69.3887325117447,15.759971041255202,64.84445906364243,5.294509893816722
-8.560538085,-136.96860936,7.1692855782550176,-0.3376823769642847,4.9056030999999996,0.0,1,16,180.72340683890098,780.2633260000001,mp-1222102,Mn12SiP3,https://materialsproject.org/materials/mp-1222102,43.429063782256115,54.16275502292842,77.315592939436,-12.834672311759832
-5.480842028333334,-65.77010434,8.356180157035421,-0.016123345416666268,5.8221148000000005,0.0,47,12,179.02275211027177,900.879975,mp-1220419,Nd2(CoCu)5,https://materialsproject.org/materials/mp-1220419,77.1655511186787,16.819014574953766,85.11026947995582,-12.651668163438346
-7.5027195525,-30.01087821,8.604290486185544,-0.16476438375000058,4.0322466,0.0,216,4,46.772246794054965,242.35623999999999,mp-1018024,MnFeCoGe,https://materialsproject.org/materials/mp-1018024,79.05373126561034,49.44073677490122,92.18799638916887,-5.396569806782217
-8.934019944285714,-250.15255844,7.04799707081586,-0.5784081974828571,1.874178975,0.0,227,28,316.31217022089766,1342.55636,mp-1194044,V4Co2N,https://materialsproject.org/materials/mp-1194044,53.51675954542762,48.81591204487811,70.86860225456165,-11.611515656579185
-7.086119423333333,-63.77507481,5.767726131388849,-0.407531621666666,2.46e-05,0.0,153,9,130.42561862227655,453.02111579999996,mp-1228015,AlSiMo,https://materialsproject.org/materials/mp-1228015,41.00166807964693,38.84358835644852,57.63380513802394,-10.640310003369727
-6.0169037633333335,-54.15213387,8.757062912779599,-0.17153957500000022,0.014318733333333332,0.0,189,9,109.53460014970202,577.644585,mp-1079542,CoNiAs,https://materialsproject.org/materials/mp-1079542,42.57301012463171,55.06634116938255,75.43445633253539,-12.965767067732479
-4.899217930795455,-431.13117791,8.418984651291302,-0.5171042807954552,2.25e-07,0.023699999999999832,62,88,1520.2281758531171,7707.604200000002,mp-1210802,Tb3Ga15Ru4,https://materialsproject.org/materials/mp-1210802,69.30433780791239,15.981530019699631,60.19435353673207,10.778625071324804
-5.179826508571429,-36.25878556,6.7884053049586806,-0.5680548797321429,1e-07,0.0,166,7,116.83503829738336,477.6302,mp-5528,Ni3(SnS)2,https://materialsproject.org/materials/mp-5528,41.1171551597571,41.24022422785133,62.53798479851561,-9.187217329947083
-6.4279953941666665,-231.40783419,8.748234429326404,-0.13871858583333346,0.8717609583333333,0.0,189,36,439.1267560434304,2313.4558799999995,mp-18206,Co2As,https://materialsproject.org/materials/mp-18206,42.51291514600138,54.935657742391406,75.38419434418775,-12.708488720517973
-7.01519657625,-56.12157261,7.847819541416108,-0.12419884374999945,2.002023075,0.0,198,8,107.97818336742722,510.31217999999996,mp-1078464,MnGe,https://materialsproject.org/materials/mp-1078464,79.14427137592253,46.8693958267464,82.49011134439408,-0.8218704014199614
-7.94263736625,-63.54109893,6.945135338837646,-0.3734586345833337,1.145157375,0.0,62,8,63.74815455720952,266.624,mp-20787,FeB,https://materialsproject.org/materials/mp-20787,36.40749714797576,55.509231009751815,75.41346851306953,-4.086179163653382
-10.068886364285717,-140.9644091,12.971839694021305,-0.4841081800000008,1e-07,0.0,136,14,227.8353387286188,1779.8097,mp-9906,Y(Re2Si)2,https://materialsproject.org/materials/mp-9906,64.04739462497416,13.977431883294368,56.41654786078721,-8.01187025320513
-5.3801584841666665,-64.56190181,9.954773000981485,-0.3787832691666668,0.0,0.0,36,12,192.0041254444483,1151.0464,mp-8073,AsPd2,https://materialsproject.org/materials/mp-8073,62.06483454927085,37.13310638925634,74.5750391576048,1.2331536271186865
-6.343838659615384,-164.93980515,7.406037702723181,-0.8319666856593408,0.0,0.00730000000000075,31,26,366.1706031876568,1633.128296,mp-505805,Pr2Ni7P4,https://materialsproject.org/materials/mp-505805,64.79504789683288,9.280377332802471,60.95211634726726,-1.2223691277714988
-5.765545163888889,-103.77981295,6.130455796108763,-0.3828522327777783,1.3333333333333334e-07,0.0,181,18,180.40336723172462,666.0215999999998,mp-571428,MgNi3B2,https://materialsproject.org/materials/mp-571428,40.84621701121732,44.9245025873788,67.93146295931015,-15.458114543894876
-7.332374191666666,-87.9884903,8.594349463402155,-0.4943269066666669,1.395e-05,0.0,62,12,173.30405778664226,896.9591199999999,mp-1101995,NbNiGe,https://materialsproject.org/materials/mp-1101995,60.324900943046075,36.707534650849645,72.58389853713453,0.5293863874461648
-8.9286028725,-35.71441149,6.080926867847222,1.5079667375000003,0.9594674999999999,0.0,155,4,93.59808584543501,342.75804500000004,mp-1180144,MnMo3,https://materialsproject.org/materials/mp-1180144,17.319834739564897,23.91766805012103,27.500539596000248,-48.399472625572564
-6.632266572000001,-33.16133286,7.019823969585702,-0.6662632670000008,0.0,0.0,139,5,92.74205898750915,392.0612,mp-5610,Ca(AsRu)2,https://materialsproject.org/materials/mp-5610,31.52935919166773,18.680710241595094,54.42316360629838,-13.933676114282227
-7.1980707738888885,-129.56527393,8.573373158411814,-0.3799033403703697,3.8139017999999996,0.0,191,18,215.35073325998303,1111.857145,mp-13765,Ce3Co11B4,https://materialsproject.org/materials/mp-13765,74.13431047972988,26.19052873986871,60.3135388399449,15.390807460802774
-8.872784634750001,-354.91138539,7.804223246357603,-0.08824645516666721,0.32654770000000005,0.0,62,40,358.49308041249253,1684.8505,mp-1196534,Mn5Fe2BC2,https://materialsproject.org/materials/mp-1196534,39.473923673410056,55.759300775509004,79.03305369568409,-13.784713511858465
-6.6405246416666674,-39.84314785,16.574215368393386,-1.1099126183333337,2.8999999999999998e-06,0.0,227,6,112.03076904934336,1118.20442,mp-571271,TmPt2,https://materialsproject.org/materials/mp-571271,81.69578095413159,11.445754077012081,61.56389891596488,26.530854412975287
-7.5314343940625,-241.00590061,6.861575940531048,-0.20954616343750046,3.67814475,0.0,230,32,351.8580724305424,1453.9260000000004,mp-1196624,Fe5Si3,https://materialsproject.org/materials/mp-1196624,45.82226861543214,57.56678063057523,78.66553417256794,-6.848146642427361
-9.132499782413793,-264.84249369,7.8032943626052464,-0.13520045511494305,14.728834299999999,0.0,44,29,283.71309511403786,1333.2398349999999,mp-1222165,Mn23(BC2)2,https://materialsproject.org/materials/mp-1222165,39.58412418759916,54.285740895502684,79.12117918887158,-12.052865590220796
-9.110522958620688,-264.20516580000003,8.75049765444628,-0.28898666387930977,3.4e-06,0.0,87,29,431.0058752000267,2271.26,mp-1210708,Mo21S8,https://materialsproject.org/materials/mp-1210708,62.45506944101469,31.475694999725818,70.72933659625565,5.1477305788615295
-6.626992080625,-106.03187329,5.876385519521612,-0.7412622731249989,1e-07,0.0,63,16,265.99328718776883,941.3082519999999,mp-31191,Sc3Co2Ge3,https://materialsproject.org/materials/mp-31191,43.824741580640925,26.60178498395915,58.2917161785369,-2.130810439904237
-7.083255681111112,-254.99720452,8.406793653643941,-0.8878488996031746,7.423202900000001,0.0,189,36,455.0774492342834,2303.915849,mp-1225778,Dy5Co19P12,https://materialsproject.org/materials/mp-1225778,56.8347172620656,33.51735815934051,62.70528061879655,-2.9929126234718764
-6.675133081666666,-40.05079849,16.277748866778758,-1.1112265533333323,1.5e-07,0.0,227,6,113.25428828548115,1110.19664,mp-2579,HoPt2,https://materialsproject.org/materials/mp-2579,81.96797871512888,11.409854993623624,61.505518788331116,26.329809128224905
-8.962059133,-89.62059133,6.9011930160840445,-0.6628073716666663,3.17e-05,0.0,38,10,114.21210239803571,474.665,mp-1217082,Ti3B4Mo3,https://materialsproject.org/materials/mp-1217082,59.517718835980176,28.512793027970858,67.03149197887751,3.3173160390766747
-7.225279335,-28.90111734,8.510533719139888,-0.10541964874999897,4.0003557999999995,0.0,225,4,47.31605152290104,242.50249,mp-1183740,CrCo2Ge,https://materialsproject.org/materials/mp-1183740,79.23701900491292,49.153306612279,91.4884433896287,-4.945564619351186
-8.144836017142858,-57.01385212,6.153078065440023,-0.4031425666666664,5.287352200000001,0.0,71,7,56.14891475172329,208.058135,mp-10118,Mn3B4,https://materialsproject.org/materials/mp-10118,35.075952889242885,54.82208590279584,71.1475780421955,-1.9152609900867128
-5.687213866206897,-164.92920212,10.114587874642712,-0.6717530540517251,1.2e-06,0.0,225,29,495.0331778366866,3015.32,mp-1209001,Sm3(Ge3Pd10)2,https://materialsproject.org/materials/mp-1209001,70.93968150834493,8.256752419295728,55.420268146421186,24.080152294960453
-7.169099007931035,-207.90387123,8.357962187679052,-0.14837385689655147,28.4892365,0.0,225,29,282.187512523377,1420.329485,mp-639154,Co23B6,https://materialsproject.org/materials/mp-639154,39.303870437763294,53.79480070933073,79.19389015472578,-11.998826374810236
-6.863394323333334,-82.36073188,8.30022490392237,-0.16078249999999986,0.0,0.0,62,12,193.03343312517367,964.88,mp-13688,Ge2Mo,https://materialsproject.org/materials/mp-13688,35.19587230257565,31.664123012078587,69.43358675989886,-2.276353906815246
-6.80132286,-27.20529144,15.17114900700014,-0.21338657250000012,4.7666648,0.0,123,4,55.242004448783284,504.7064,mp-13463,FeNiPt2,https://materialsproject.org/materials/mp-13463,53.69337832465618,58.98655176152098,87.39062177805151,2.60794999930336
-7.3624699783333325,-88.34963974,8.820733440108171,-0.2918664927777783,5.4545976,0.0,35,12,151.6828580253983,805.7347799999999,mp-1225817,DyFe2Co2B,https://materialsproject.org/materials/mp-1225817,73.77083932859298,26.109813766719785,61.027337370070505,15.841355120829768
-7.263145185,-217.89435555,10.70922815783402,-0.5554043826666667,3.905e-05,0.0,139,30,452.1993168077312,2916.34556,mp-977049,Hf4Co4Ge7,https://materialsproject.org/materials/mp-977049,65.09091178597437,19.81477238384468,57.2659617321885,21.42649874788212
-6.220885422,-31.10442711,8.207511680154433,-0.10579033599999974,1.897675,0.0,187,5,65.16295629194097,322.07958499999995,mp-1226445,Co3Ge2,https://materialsproject.org/materials/mp-1226445,42.64264568491786,49.64083276426278,75.36339720542522,-15.236585307510726
-8.1370218725,-32.54808749,8.236939935546111,-0.1118983762500001,0.9999994000000001,0.0,225,4,47.869944962854454,237.454135,mp-865027,Mn3Ge,https://materialsproject.org/materials/mp-865027,80.12033993550666,48.46016352662392,91.03199952848931,-4.436021534809538
-6.45684847,-103.30957552,10.476268832180118,-0.5263648893749995,4e-07,0.0,55,16,231.06676413205926,1457.7902,mp-18561,Ga2AsRh5,https://materialsproject.org/materials/mp-18561,61.847916391116364,37.514020653043104,73.92384912614844,5.154142127686585
-5.90672364111111,-212.64205108,8.508849982099472,-0.3177260383333333,0.87583175,0.0,194,36,537.5836634314659,2754.65896,mp-1679,La2Ni7,https://materialsproject.org/materials/mp-1679,72.92016686612145,22.827132121416952,62.38555603443078,17.525354399219278
-8.286466826190477,-174.01580335,8.491404590516805,-0.8662996985714285,3e-06,0.0,6,21,238.11065655375438,1217.613,mp-1217063,Ti7B8(IrRh2)2,https://materialsproject.org/materials/mp-1217063,46.415240877718965,41.88215997945672,62.40697320762217,-7.956376828616714
-7.1982539125,-28.79301565,14.93522784221558,-0.10252856249999986,4.343204,0.0,123,4,56.04044642333138,504.03924000000006,mp-1221704,MnCoPt2,https://materialsproject.org/materials/mp-1221704,54.0780936879379,58.64300673412605,87.2308715406344,2.610038997242613
-9.01118013,-180.2236026,6.899184364451121,-0.7240136955416658,0.0013353,0.0,10,20,200.50406903289246,833.0515,mp-1216792,V11ReB8,https://materialsproject.org/materials/mp-1216792,46.23137093723741,42.010043194844144,61.89071839918514,-9.099000360630923
-9.64816151172414,-279.79668384,7.296858974733347,-0.054276357672412415,0.0050792,0.0,225,29,298.551983536717,1311.9184,mp-1193982,Cr22MoC6,https://materialsproject.org/materials/mp-1193982,40.240769257215646,54.28998517205653,79.16457963681293,-10.700916863993008
-10.666119539166667,-127.99343447,13.50377548111024,-0.2144200208333326,1.75e-06,0.0,194,12,226.9112432811161,1845.2794,mp-570923,YRe2,https://materialsproject.org/materials/mp-570923,82.75634664308072,12.483485558316955,62.0601248074314,23.027373186673326
-5.148965700833333,-185.36276523,9.217977481199377,-0.4648888512500007,9.116666666666667e-06,0.0,51,36,662.9533668147155,3680.184,mp-1209984,NdGa4Os,https://materialsproject.org/materials/mp-1209984,62.42403967659243,13.222475463951593,54.326033625172755,-8.964766799183401
-6.843314238888889,-739.0779378,10.062357681998817,-0.7066039161111106,0.0019290083333333332,0.0,176,108,1765.1840215567145,10696.4742,mp-1211078,TbGe3Rh5,https://materialsproject.org/materials/mp-1211078,67.92968130218152,9.243522878287262,52.690395322966225,8.560188802451206
-9.284910914347826,-213.55295103,8.613323793558624,-0.5374324301863345,0.17486310000000002,0.0,187,23,340.07917715958155,1764.012768,mp-30190,UMo13P9,https://materialsproject.org/materials/mp-30190,67.17551931820985,21.996072232301785,56.317846368279646,15.158808140104995
-8.13921263,-40.69606315,10.866033084363641,-0.26145389047599965,8.2198458,0.0,221,5,57.555657475154284,376.62570000000005,mp-579496,Fe3PtN,https://materialsproject.org/materials/mp-579496,53.89043605715185,58.15419551107289,87.37657788801893,1.980810306404461
-8.058315389444445,-145.04967701,6.918119151437589,-0.4985936284920645,7.024225866666666,0.0,6,18,204.8062984743641,853.2617070000001,mp-1221737,MnFe3P2,https://materialsproject.org/materials/mp-1221737,43.80448183763615,53.572789839409246,76.48768616517123,-11.576179409168837
-7.19044838,-28.76179352,8.27789492016851,-0.2705235799999999,0.9952341,0.0,216,4,47.22961459413574,235.442695,mp-1066581,VGaFeCo,https://materialsproject.org/materials/mp-1066581,79.2494013592541,49.111898040006324,91.48757882171942,-5.028964547054472
-4.1162863711428574,-144.07002299,8.395884975131395,-0.472230431428572,0.0001808,0.0,12,35,542.5656222693534,2743.277,mp-1203792,Yb4Ga21Ni10,https://materialsproject.org/materials/mp-1203792,68.29291561244426,19.01775023365018,63.54359625627277,6.4664377064184775
-11.13691885,-155.9168639,13.903442115249801,-0.4641371800000006,7.05577835,0.0,136,14,228.89437901074336,1916.4979999999998,mp-1105253,Gd(Re2Si)2,https://materialsproject.org/materials/mp-1105253,64.1876808922094,13.877391629303393,56.132116369107855,-7.974217493981367
-4.16045238875,-33.28361911,5.219770625550987,-0.28136450428571397,0.0,0.0,164,8,104.98552132683636,330.013524,mp-22716,LiCu2P,https://materialsproject.org/materials/mp-22716,13.324823634342744,25.571402759660355,68.47314931586385,-14.034942284520856
-7.01094592,-84.13135104,8.409269296809805,-0.1783803770833335,0.8000441999999999,0.0,156,12,153.30256334933858,776.35184,mp-1220646,Nb3SiNi8,https://materialsproject.org/materials/mp-1220646,64.49804802399991,47.020167256081784,78.52624643199009,-2.8960274287979377
-7.279298541818181,-80.07228396,9.605910486919802,-0.8932372935064928,4.6e-06,0.0,187,11,158.39661440053317,916.2950480000001,mp-1095635,Lu(P2Rh3)2,https://materialsproject.org/materials/mp-1095635,57.41737450799665,30.262776739145693,62.266571242758324,6.959004264224932
-1.8967230957894736,-36.03773882,7.2934357563583205,-0.2543326255263158,2e-07,0.0,166,19,317.3273546485637,1393.7683000000004,mp-30710,Pr2Zn17,https://materialsproject.org/materials/mp-30710,71.37284976674844,17.444505312613703,66.47040509043822,4.310883960892552
-4.5369226057142855,-31.75845824,6.567416397300002,-0.4517976564285716,0.0,0.0,123,7,114.41344510190541,452.504107,mp-1025242,ScGa5Co,https://materialsproject.org/materials/mp-1025242,57.541367488519775,43.89205042470753,74.92430668793789,13.620537607371835