energy_per_atom,energy,density,formation_energy_per_atom,total_magnetization,band_gap,sgr,num_sites,cell_volume,weight,mp_id,formula,URL,tsne_cry_0,tsne_cry_1,tsne_xrd_0,tsne_xrd_1
-4.3422693475,-69.47630956,6.474416662124777,-1.1705985918425004,0.0,2.7263999999999995,62,16,360.20843163882597,1404.4472399999993,mp-697084,HPbIO,https://materialsproject.org/materials/mp-697084,1.4187985101583391,-52.8344108379186,-7.4101504289475715,-33.356939849063856
-6.524215607884615,-339.25921161,3.8000049567135807,-2.7472034897527475,0.0,4.0371000000000015,14,52,800.7069023453163,1832.3508960000001,mp-6089,BaZn2(PO4)2,https://materialsproject.org/materials/mp-6089,-29.971887863620008,-27.626826388159465,-32.90118699588358,8.175440415575569
-7.568879950999999,-151.37759902,7.980857821046847,-2.9920290082499985,5.0000004,1.5761999999999996,62,20,227.02198119132615,1091.10964,mp-20651,TmFeO3,https://materialsproject.org/materials/mp-20651,9.221898632911355,-80.77774106315289,51.8668305813364,-52.72952163843843
-6.711446895714286,-93.96025654,4.287170949916153,-2.9767360718085856,0.0,4.6522999999999985,164,14,235.82282350426303,608.8461239999998,mp-1209375,Rb3Dy(PO4)2,https://materialsproject.org/materials/mp-1209375,-8.182575175018037,-33.56309872306806,-29.261708157967693,-60.890900938599046
-6.6013038375,-343.26779955,4.014675592960448,-2.3894508816758244,0.9613395,0.3490999999999997,2,52,751.7273697597493,1817.4468960000002,mp-654359,BaCu2(PO4)2,https://materialsproject.org/materials/mp-654359,-29.658020041869502,-27.752932720973128,-8.351796729251191,-29.70838733962909
-7.9420700359259255,-214.43589097,9.16295882049555,-1.9478836489814813,4.126666666666667e-05,0.0,166,27,367.3084645498852,2026.8312,mp-558655,Re2PbO6,https://materialsproject.org/materials/mp-558655,-46.85964527868863,-56.75179599759944,-16.507573656109027,-57.96492254213123
-5.831329693076923,-75.80728601,6.188478748359644,-2.0205563016346155,4.8598586,0.0,123,13,170.78160750624522,636.4670286,mvc-2490,Sr2AlTlCo2O7,https://materialsproject.org/materials/mvc-2490,9.689511746137454,-63.31683003383942,10.780593738380565,-42.38264072325281
-6.548260809285713,-183.35130266,4.376218004629162,-2.2391685214285717,19.9999997,1.6381,36,28,437.3664710973575,1152.6444,mp-1228024,BaSr(FeO2)4,https://materialsproject.org/materials/mp-1228024,-5.484686805457644,-42.35312774607881,-9.250897931534782,-24.48998963552286
-6.876570784999998,-82.51884942,8.436689904453273,-2.007277649166666,0.0,2.9279999999999995,15,12,179.12420819664342,910.0752,mp-641365,PbWO4,https://materialsproject.org/materials/mp-641365,-25.441766903460497,-60.644227731979065,-24.971610069135213,-54.69240063633188
-4.60986342265625,-295.03125905,5.728346934589137,-1.3426343424414071,1.75e-07,0.9209999999999994,62,64,1501.2879938278434,5178.980000000001,mp-1199349,Yb3Sb4S9,https://materialsproject.org/materials/mp-1199349,11.42432514189244,-6.696172279220915,-2.705382242463452,-14.269880767723107
-7.724053936923076,-200.82540236,6.515914812208193,-3.5114012701753845,0.0,1.4230999999999998,176,26,439.91468343083574,1726.21452,mp-556183,Pr3U(ClO2)3,https://materialsproject.org/materials/mp-556183,-1.9251058957886145,-60.23596787791533,-0.6807924708781591,-50.42569526320373
-7.156390890625,-343.50676275,5.019605835396239,-2.605505405125,5.12e-05,3.3279,15,48,664.0298545232922,2007.2808,mp-1211713,KLiTb2(MoO4)4,https://materialsproject.org/materials/mp-1211713,-51.20105116737914,-53.62583810131624,-24.021235489613442,-59.75578935997088
-3.9816865725,-15.92674629,4.0082489179828285,-0.9929948258674576,0.058075999999999996,0.0,166,4,111.15466772476047,268.3078,mp-999267,RbSnS2,https://materialsproject.org/materials/mp-999267,5.24858621268988,-4.5208802921099975,-3.1659509128762093,-5.339323600877377
-4.04924607382353,-137.67436651,4.970172228265302,-1.5638494007395205,2.155e-05,1.8678,14,34,938.7402955611557,2809.7508304000003,mp-1196865,Cs8In2O7,https://materialsproject.org/materials/mp-1196865,-5.231459410813526,-28.3386601736444,-6.195254918359948,-31.173433798019534
-2.663795624090909,-58.60350373,8.453758467856474,-0.7609033542290908,0.0,0.1813,72,22,447.0083529802173,2275.7072,mp-23358,Hg5(ClO2)2,https://materialsproject.org/materials/mp-23358,2.7964517409856806,-52.8782730228268,6.540599935103093,-33.60197413932477
-7.305779709999999,-168.03293333,5.687842234744863,-3.0601078628260883,0.0,3.6964,150,23,315.4606651534096,1080.54701,mp-1211277,La3ZrGa5O14,https://materialsproject.org/materials/mp-1211277,-7.894696998401728,-46.44070717463952,8.119191336363121,-35.454197284130586
-7.859303674285713,-110.03025144,6.523997039394102,-3.3661565729257146,4.0000006,1.6471999999999998,65,14,189.7495373244665,745.496125,mp-754290,LiLa4MnO8,https://materialsproject.org/materials/mp-754290,17.049692574587816,-70.03696876598964,38.86678462667084,-41.921260082808644
-6.671096531,-200.13289593,8.323097310943552,-2.02567136625,0.18300165,0.0,63,30,392.4379071505728,1967.0112,mp-17097,SrIrO3,https://materialsproject.org/materials/mp-17097,0.8435582682686852,-77.47367089275986,41.73690509032157,-62.5262908466597
-5.86667473625,-46.93339789,6.372032333791157,-0.7958416000000001,0.008685225,0.0,62,8,186.0101793212474,713.7819999999999,mp-1025489,SmSi,https://materialsproject.org/materials/mp-1025489,32.185832149341195,-40.041167636293906,12.92408136057226,-18.522520817774925
-6.390432334,-255.61729336,6.411158235028925,-0.21695397574999967,16.0528444,0.0,140,40,778.5587118508718,3005.929386,mp-1210082,Nd6Al5Fe9,https://materialsproject.org/materials/mp-1210082,34.26254124704933,-14.140858224321981,7.349090254110692,-23.894181157181762
-6.141523311923077,-159.67960611,6.031880564359626,-1.9890375258653856,14.00000015,0.9237000000000002,1,26,362.3392044923422,1316.1911599999999,mp-1182211,BaYbCo4O7,https://materialsproject.org/materials/mp-1182211,-3.0560559217538907,-44.04351601323754,7.784862218846285,-38.10916784710104
-4.23002328625,-33.84018629,6.60725397441317,-0.5291981112499999,5e-08,0.0,63,8,143.60282072347766,571.3929544,mp-12782,YbAl2Ni,https://materialsproject.org/materials/mp-12782,39.85626467896434,-14.24463908706692,20.15279635063437,10.300237108616818
-5.672729911904763,-119.12732815,4.735354053358288,-1.1446181863690474,15.0000128,0.1402000000000001,12,21,464.67705919876704,1325.118135,mp-1192080,Nd2Mn3(SbS3)4,https://materialsproject.org/materials/mp-1192080,10.917597092503895,-4.5138756616627616,-6.6949142167726725,-18.718071756804434
-3.737290905,-29.89832724,6.93576688387304,-0.6347268088541669,3e-07,1.2305,121,8,282.0872298657663,1178.2266,mp-1220095,NdTl2InTe4,https://materialsproject.org/materials/mp-1220095,6.916622832143655,-30.583868359255934,4.0188672140058985,-32.559709193505725
-5.8363485975,-560.28946536,4.15366811784872,-1.7947044095703135,0.9999985999999998,0.4206999999999996,88,96,1607.5398183343802,4021.096,mp-1244581,CaSbAs2SeO7,https://materialsproject.org/materials/mp-1244581,-41.75608375255351,-46.2341132188802,-26.113709309163326,-21.018476411284823
-6.215060738026316,-944.68923218,5.655430890742804,-1.7708541867105263,9.6375e-06,1.1262,14,152,2298.1897095809736,7827.128879999999,mp-645095,UAg3(AsO4)3,https://materialsproject.org/materials/mp-645095,-24.896084565998837,-47.032861770047646,-8.014174843805323,-33.773742603312435
-7.157124903181818,-157.45674787,3.7028608700747037,-0.5670392884681816,0.0,1.7525,2,22,330.8875937556166,737.8512000000002,mp-1247168,Sr3C3N5,https://materialsproject.org/materials/mp-1247168,-21.212392480507752,-31.534395969990193,-19.609998564339246,-31.219313335363044
-6.947693253214285,-194.53541109,4.863780893729653,-2.57878358,9.2225e-05,2.0445,2,28,532.8735026742585,1560.8064,mp-1194049,SmMoBrO4,https://materialsproject.org/materials/mp-1194049,-31.58894251184252,-33.733984689073345,-37.43822286521942,-24.859338015848344
-5.12468755,-35.87281285,4.5273647682957145,-2.9887761568762565,5.000000599999999,3.4569,139,7,145.51655236174096,396.74256160000004,mp-1206528,Cs2MnF4,https://materialsproject.org/materials/mp-1206528,-53.32328756918042,-61.88047231836962,-2.187111398960523,-6.7293621962458
-7.603970942499998,-729.98121048,5.412677424970665,-3.333641208046876,0.0,3.8436,185,96,1394.0575474162324,4544.056860000001,mp-14385,Ba3Tm(BO3)3,https://materialsproject.org/materials/mp-14385,-22.695800761027087,-25.817882563741488,-7.318926470981263,-21.92904695327539
-4.79765616625,-38.38124933,4.156657326175323,-0.05234582119047637,8.609999999999999e-05,0.0,166,8,165.97913538479426,415.47857200000004,mp-20050,InP3,https://materialsproject.org/materials/mp-20050,10.54643019692339,-4.788587698458348,-7.539838922372527,-15.087531611462984
-6.41787929111111,-57.76091362,6.634103150751103,-1.856533916574074,1.7068076,0.0,99,9,140.62654687712273,561.8242,mvc-14940,Ti(BiO3)2,https://materialsproject.org/materials/mvc-14940,-28.344356004704967,-49.83971290093217,-20.015678033097103,-39.668119649439895
-7.410661044545455,-326.06908596,6.120714178456229,-3.0231067751136376,0.0,3.6808,2,44,605.5331342328636,2231.9832,mp-772149,Sm2Ge2O7,https://materialsproject.org/materials/mp-772149,-29.27460829809268,-54.97495019864342,-8.111326361368254,-51.587078501684715
-4.729285200454545,-104.04427441,5.881410105357576,-1.5593190493327278,0.0,2.2101,146,22,508.42001871519983,1800.7566,mp-677164,CuAs2Pb6Cl7O6,https://materialsproject.org/materials/mp-677164,0.03716070309875311,-18.112397923611667,-18.2385369460232,-41.682326214311296
-8.504889035625,-272.15644914,5.518922534884688,-3.664420876718751,0.0,1.9490000000000005,63,32,434.915871613794,1445.4746,mp-557074,BaPr2Ti3O10,https://materialsproject.org/materials/mp-557074,6.65597043648654,-91.08515157438713,2.3070074534686715,-37.435423349257434
-5.501430283888888,-198.05149022,5.586766564567869,-1.3881715358188889,1.99999995,0.0,15,36,421.87899961806136,1419.38216,mp-721072,Cu3As2H2PbO10,https://materialsproject.org/materials/mp-721072,-22.963941459854546,-43.32738888321561,-6.979448644333334,-46.08637362450939
-7.21350854775,-288.54034191,5.6570875201390765,-2.7108801330000007,0.9999993,0.22529999999999986,11,40,607.138324768222,2068.38536,mp-554177,La4Cu3MoO12,https://materialsproject.org/materials/mp-554177,-13.018519190898395,-60.01383850728887,0.3274411102123426,-48.80410562198979
-3.8804514972222215,-69.84812695,5.8999330522922255,-1.3152995003105556,0.733988,0.0,174,18,453.21274174542395,1610.2751999999996,mp-1188914,Pb2Cl3O,https://materialsproject.org/materials/mp-1188914,2.5546125736819514,-7.645056106282323,-16.10936473795197,-26.47725045639478
-7.47469728953125,-478.38062653,6.3800170822349935,-3.1141075812207037,3.7000000000000006e-06,2.391,141,64,1047.8408462562877,4025.9472,mp-14837,Sm4Si2Se3O7,https://materialsproject.org/materials/mp-14837,29.524599210853204,-17.644958840196605,16.189817584623427,0.20460756473624675
-5.920478811363638,-130.25053385,4.9875166429170426,-2.127759007386365,0.0,2.5528,2,22,340.64791810669016,1023.154,mp-1190335,BaCdAs2O7,https://materialsproject.org/materials/mp-1190335,-29.390829006756725,-33.14161454466004,-3.449680431089935,-30.424457008082747
-6.518335403809523,-273.77008696,4.687907445562102,-2.3602800537202393,0.0,3.0655,150,42,554.8902057466382,1566.5238,mp-9380,SrGe4O9,https://materialsproject.org/materials/mp-9380,-40.75421520202588,15.693035631821495,-14.147985586877933,37.66086635146885
-4.35713433375,-69.71414934,4.641152057558172,-1.0965941157812509,3.85e-05,0.6474999999999995,1,16,413.5091901252857,1155.7446,mp-1228525,Ba2CuAg3(SnS4)2,https://materialsproject.org/materials/mp-1228525,-1.572371923804151,-22.37219910810975,-19.56365282425729,-52.83033077203466
-10.55338688,-84.42709504,6.874053054589571,-0.7990240224999994,3.64323745,0.0,62,8,179.083187635534,741.342,mp-601371,GdSi,https://materialsproject.org/materials/mp-601371,31.304380452034835,-41.025588625044996,13.07606214557232,-18.402826290205503
-5.945172594444443,-214.02621340000002,4.31176795867508,-2.5218774800806187,0.0,2.6812000000000005,11,36,770.7338118454837,2001.2931190000002,mp-554842,Cs5Si3AgO9,https://materialsproject.org/materials/mp-554842,-37.43731496675425,-20.44265133821275,-7.047143863351151,-30.10897855079977
-6.561421383333334,-196.8426415,4.587919260677318,-2.4551625301886992,0.0,2.9514,176,30,489.0442328863601,1351.1850075999998,mp-16805,Cs2Ti(GeO3)3,https://materialsproject.org/materials/mp-16805,-31.675757071750105,-30.51022738640113,-6.091572040010858,-28.04164760378136
-8.2253158225,-164.50631645,8.315429736827298,-3.2595521717500007,3.000000575,2.5342,62,20,219.63217180083285,1099.8452,mp-755471,LuCrO3,https://materialsproject.org/materials/mp-755471,9.01776513662184,-80.73458021026481,52.124650675810464,-51.9783812809994
-4.666931057,-46.66931057,3.0346394931137968,-0.7044415768660712,3.65e-06,1.1923,148,10,269.08717449592467,491.75752400000005,mp-1079752,SnPS3,https://materialsproject.org/materials/mp-1079752,2.4358632141357903,-8.482973982492886,-7.578451154352262,-6.221890208301279
-9.279123715,-334.04845374,5.4035616062452005,-3.1601913080092596,13.999999625,0.08030000000000026,14,36,498.50574500830186,1622.1879999999999,mp-1212596,Eu2B2O5,https://materialsproject.org/materials/mp-1212596,-17.31756651265588,-32.67224760089868,-26.271066946241717,-43.95894396738418
-7.569801112499999,-90.83761335,5.385186667210792,-1.8299783352083332,6.245568775,0.0,14,12,266.5330251184136,864.3760000000001,mp-1232155,EuS2,https://materialsproject.org/materials/mp-1232155,16.036564878067725,-7.803869153329546,3.683493918277207,-7.062783643412034
-7.607204668,-38.03602334,7.320137580403947,-2.7516356965833344,0.0,1.8161,99,5,68.74892592355306,303.0652,mp-20459,TiPbO3,https://materialsproject.org/materials/mp-20459,-2.4762634967352914,-79.7117928676995,26.137802062378487,-66.50909985940146
-10.567769423,-211.35538846,7.027652202407711,-3.6358131275833343,5.992068225,0.0,62,20,239.23077529272624,1012.4608,mp-510278,GdTiO3,https://materialsproject.org/materials/mp-510278,10.406881672801841,-81.6337621095139,50.97386272825955,-54.62547350198871
-7.089250935,-113.42801496,7.298857716559045,-3.078391056302084,2.0,0.0,9,16,215.65087177635303,947.888,mp-753108,Yb2TiO5,https://materialsproject.org/materials/mp-753108,-9.20080201833699,-53.95697668586352,-3.4766332101811,-45.81307285750862
-6.099148643181818,-268.3625403,5.117145087636134,-1.963664633977272,5.000479,2.8428000000000004,1,44,649.5547345741428,2001.6788158,mp-1229069,Al3Tl4Fe(As2O7)4,https://materialsproject.org/materials/mp-1229069,-32.52937292161212,-30.40045728046595,-22.963172478621413,-28.11616577420056
-4.508795677386363,-396.77401961,7.995541647307401,-1.1926940865909093,0.0,1.4253000000000005,41,88,1276.6294713463606,6147.0064,mp-560456,Hg2Te2O7,https://materialsproject.org/materials/mp-560456,-21.316765947394547,-62.6808186984489,-11.342411807313802,-55.42022829406438
-5.254286456315789,-99.83144267,4.381617844494769,-0.5530160357389476,1.0,0.0,12,19,447.372999298676,1180.4706,mp-1245476,Sr10IrN8,https://materialsproject.org/materials/mp-1245476,3.7253995848788763,-33.13441119746459,-1.1218677549012683,-31.9002268392175
-6.1294863429166675,-441.32301669,6.3263513920181325,-1.8911244661111115,0.0,2.5373,92,72,1401.3635590022861,5338.94,mp-1208305,Tl5V3O10,https://materialsproject.org/materials/mp-1208305,-32.977843059694656,-31.920011839846627,-22.63961379140691,-51.652586756157376
-8.775798866428572,-245.72236826,4.715327634256867,-3.6627773059821433,0.0,2.715,4,28,398.22455870101516,1130.8130800000001,mp-770454,La2Ti3O9,https://materialsproject.org/materials/mp-770454,-22.910184822301076,-35.81956660976211,-9.77553784672603,-50.70133443289176
-6.902044471666668,-165.64906732,5.284023638957054,-1.6402429365364586,20.56790315,0.0141,55,24,576.8285826308228,1835.5339999999999,mp-504621,Eu3Sn2S7,https://materialsproject.org/materials/mp-504621,7.355392336663067,-6.9005371031081015,-4.1279991103256455,-10.737337252186618
-8.928774981714287,-312.50712436,5.011849854695897,-3.2968077660714283,1.6100000000000002e-05,0.0,12,35,511.54651272122635,1543.95305,mp-850556,La3Nb8O24,https://materialsproject.org/materials/mp-850556,-30.96091685559269,-70.87128717589168,32.69076915366742,-59.017459986277075
-5.3567326416666665,-96.42118755,5.760968533401615,-0.5214369932799998,8.36e-05,0.7712999999999997,2,18,417.39671034067607,1448.0896,mp-1246104,Ba4SnN4,https://materialsproject.org/materials/mp-1246104,-2.2382790416363556,-31.395041713074733,-2.719386225613889,-32.21878910139891
-8.033231797142857,-56.23262258,9.169393632868953,-0.6310064555357145,3.18e-05,0.0,12,7,116.61627122210548,643.9478200000002,mp-1025382,Th2Fe2Si2C,https://materialsproject.org/materials/mp-1025382,53.09739440781479,-9.95844634919616,11.330469120209953,-17.54282168872053
-4.64075943,-18.56303772,5.028496526533226,-1.283090858095,0.0,1.1648,166,4,121.70955471213728,368.5647,mp-1018098,Ba2BrN,https://materialsproject.org/materials/mp-1018098,0.11469358186363797,-27.359085848962213,3.70719258306956,-58.58554010905422
-7.108412169285714,-298.55331111,3.9888070271839142,-3.4518796801246943,1.2e-06,5.2119,176,42,617.7991053901976,1484.0249784000002,mp-6669,Sr5P3O12F,https://materialsproject.org/materials/mp-6669,-19.97746392332001,-32.51500582897888,-10.040628034993984,-33.69175674956834
-6.871813771666668,-41.23088263,7.073996538978354,-3.519037787336668,0.0,5.1804,129,6,101.5866920945035,432.76544,mp-29731,HoClO,https://materialsproject.org/materials/mp-29731,0.7414530247120971,-51.73078309000394,4.213480532670835,-38.632750151148976
-7.219257034285714,-50.53479924,5.29315021352147,-2.9962030396428574,4.9999996,0.7568999999999999,107,7,93.74613139396408,298.82607,mp-1227068,CaLaFeO4,https://materialsproject.org/materials/mp-1227068,23.69995568469332,-72.58866404156181,43.52760656074532,-39.18496122539303
-7.156053971458332,-343.49059063,4.790295163264861,-2.5977614511666665,0.0017448000000000001,3.3775,15,48,683.9402643707672,1973.0194,mp-1211510,KLiSm2(MoO4)4,https://materialsproject.org/materials/mp-1211510,-51.628692746955515,-53.0093072607224,-24.630619313652602,-59.6420299401857
-6.8938992070000005,-68.93899207,5.508618032700339,-2.477451538442,3.0000005,1.9174,194,10,144.85175622315217,480.52649,mp-19156,BaMnO3,https://materialsproject.org/materials/mp-19156,-8.499205869309371,-81.80210612163236,7.705368734784503,-19.561863132819397
-4.338508134444443,-39.04657321,5.877406539138622,-0.12757591333333332,0.2163408,0.0,10,9,223.82568530147373,792.22139,mp-571606,Sm4Mg3Co2,https://materialsproject.org/materials/mp-571606,29.31734300819287,-38.92838843934163,14.134292055001303,-3.1486340734999825
-8.331273182391305,-383.23856639,4.9057441225111935,-3.080809958576088,0.0,1.9064,127,46,641.537545808019,1895.29964,mp-1212050,K2HoNb5O15,https://materialsproject.org/materials/mp-1212050,-30.104108590051666,-69.8514039198183,-2.996281937225215,-56.07682742772012
-6.863766896666666,-123.54780414,6.380297837353213,-1.8155641300601388,1e-07,1.3815000000000004,15,18,438.20641499989136,1683.7228,mp-30292,Nd4Se3N2,https://materialsproject.org/materials/mp-30292,28.272484586903158,-19.44538776604259,19.441940034911344,-1.1803190304447004
-7.530241832368421,-286.14918963,4.8323567020928,-1.6473526088815795,28.00029025,1.1140000000000003,161,38,846.4962591367587,2463.4,mp-1196638,Gd4(GeS4)3,https://materialsproject.org/materials/mp-1196638,-2.150502265310505,-11.498341897643517,-9.152497000954547,-11.91356996270277
-6.237464040833332,-149.69913698,4.782552700420375,-1.7999062884114585,2.9999988999999996,0.0,173,24,527.0875110795641,1518.0756,mp-1192173,La3Co2S7,https://materialsproject.org/materials/mp-1192173,12.013008442018876,-14.990369124347419,1.0417268935878607,-2.6894640394381453
-6.504489721923077,-169.11673277,5.880615529508482,-2.1174482493269235,12.99999975,0.19130000000000005,186,26,367.07958783687013,1299.9717999999998,mp-17703,BaHoCo4O7,https://materialsproject.org/materials/mp-17703,-3.1647349270210428,-44.058166760543735,8.222807844296241,-38.475583927847815