energy_per_atom,energy,density,formation_energy_per_atom,total_magnetization,band_gap,sgr,num_sites,cell_volume,weight,mp_id,formula,URL,tsne_cry_0,tsne_cry_1,tsne_xrd_0,tsne_xrd_1
-5.932333097142857,-166.10532672,8.035823171534831,-0.16190992571428556,6.48651465,0.0,140,28,401.20159006487813,1941.5292,mp-1213407,EuNi9Ge4,https://materialsproject.org/materials/mp-1213407,22.60925869981121,37.54299749679486,64.29413441887493,-21.39396727033087
-7.252761799999999,-43.5165708,4.9766369289711525,-0.4339976147619045,1e-07,0.0,12,6,76.0384326650877,227.887248,mp-7291,CrP2,https://materialsproject.org/materials/mp-7291,16.670998626802216,37.89595982979493,69.60477937520314,-19.28407989651637
-5.9579707325,-47.66376586,7.458289728076919,-0.4848940724999995,3.35e-06,0.0,129,8,133.60830890662373,600.1,mp-1095201,ZrCuGe2,https://materialsproject.org/materials/mp-1095201,61.567721157710935,35.51441691149269,71.5484885007802,0.044094554215185836
-6.821518239444446,-122.78732831,8.44184173770349,-0.4278694305555564,0.0,0.0,12,18,233.40897212088336,1186.6036,mp-2717,Zr2Ni7,https://materialsproject.org/materials/mp-2717,63.6956401731425,44.14415053303114,77.39768898461905,-1.0678375062010614
-5.598855365,-33.59313219,8.167426777096232,-0.4204743479166666,2.1e-05,0.0,187,6,90.1491335945083,443.40207000000004,mp-1222941,LaGaNi4,https://materialsproject.org/materials/mp-1222941,77.21134896896864,16.46115698179094,85.92939004107878,-12.183357087392562
-9.632504201428572,-269.71011764,9.16625805095098,-0.033647719821429084,0.036061725,0.0,227,28,338.6677470754433,1869.4628,mp-1193060,Fe3Mo3C,https://materialsproject.org/materials/mp-1193060,63.40375851710999,42.197373718435394,74.50057772720072,1.8995073198296657
-8.099420285441179,-550.76057941,7.329793027765223,-0.07891213862745036,31.47377355,0.0,136,68,929.5555417564316,4103.1554,mp-1220544,NdYFe14B,https://materialsproject.org/materials/mp-1220544,71.20581500771068,36.127434954731285,84.29806858916483,-6.829335009527582
-7.753846522758621,-224.86154916,9.240423839817584,-0.10793883551724254,50.4095956,0.0,225,29,419.4711989735957,2334.237,mp-1193644,Lu6Fe23,https://materialsproject.org/materials/mp-1193644,71.62720970799882,28.26512660729656,62.69633925595275,12.548992361436401
-7.404286937999999,-74.04286938,7.838077253828896,-0.27064466700000056,1e-07,0.0,12,10,176.5369066437872,833.2896,mp-542454,Mo2As3,https://materialsproject.org/materials/mp-542454,34.72646104528183,32.143133332417285,29.296307473122138,-53.72930014410085
-6.772528143333332,-121.90550658,7.950192384126692,-0.2156901574999992,4.89e-05,0.0,1,18,273.68877195148724,1310.3446158000004,mp-1228992,AlGe3Mo2,https://materialsproject.org/materials/mp-1228992,55.174036929457685,42.990722914209776,77.81703052935923,7.739150815598822
-8.665679673333333,-51.99407804,15.696373666683217,-0.7783540033333326,1.7899999999999998e-05,0.0,227,6,110.98560367237455,1049.1,mp-582,CeIr2,https://materialsproject.org/materials/mp-582,81.84742817373022,11.913925787202256,61.73621846896621,26.256026504897928
-8.258121686875,-132.12994699,5.3256408968925255,-0.5491244125000003,1.385e-05,0.0,140,16,211.37848610220288,677.928,mp-1188102,V5Si3,https://materialsproject.org/materials/mp-1188102,50.94408526008506,47.22368550058844,75.06537543389634,0.3031730270802126
-5.50639303875,-44.05114431,7.985960721861312,-0.3058916962499998,2.5e-08,0.0,62,8,109.23381446589752,525.3335999999998,mp-1099,NiGe,https://materialsproject.org/materials/mp-1099,22.217732862235952,36.19547795441467,63.34005966223864,-23.326320098202967
-5.720050530000001,-34.32030318,7.434456630906613,-0.42209709125000106,3.5000000000000004e-06,0.0,187,6,89.49041139127962,400.6606086,mp-1222982,LaAlNi4,https://materialsproject.org/materials/mp-1222982,74.84274585546397,18.111717483150674,87.13623140141182,-11.3581608468344
-4.4475689237500005,-106.74165417,7.336044346319679,-0.020651134285714082,0.0,0.11369999999999968,185,24,300.9755381662622,1329.670572,mp-7463,Cu3P,https://materialsproject.org/materials/mp-7463,45.40688176438025,56.873805666802156,74.26520714600555,-7.879149940115387
-4.4482110234210515,-169.03201889,7.743607738567857,-0.06975561763157817,0.0,0.0,220,38,456.9853081676149,2131.064,mp-14266,Cu15Si4,https://materialsproject.org/materials/mp-14266,46.77182684210821,57.161909825881864,75.21623377459271,-13.084048563585913
-8.896664816551722,-258.00327968,10.263880701666713,-0.4667594056896546,0.026982299999999997,0.0,225,29,352.01212350031966,2175.80578,mp-542996,Ta6Fe16Si7,https://materialsproject.org/materials/mp-542996,60.47277950604425,45.931559541329975,61.831786254292936,-7.160286750045973
-8.294066249285715,-116.11692749,7.811166550231981,-0.09348016395833372,22.3080315,0.0,44,14,177.10438348440888,833.0980500000002,mp-1217503,TbTiFe11C,https://materialsproject.org/materials/mp-1217503,71.23115923635164,36.19551431304915,83.35581548657636,-21.563864890759845
-6.3681551700000005,-38.20893102,8.114406554801839,-0.2898086522222225,0.0,0.0,140,6,52.46901305829644,256.3956,mp-2536,Ni2B,https://materialsproject.org/materials/mp-2536,37.07885523244337,55.44495986732474,79.87089319482747,-8.085901618905108
-7.57041732,-45.42250392,7.547323036367874,-0.1481100283333324,4.080920900000001,0.0,129,6,81.71634139572824,371.40929,mp-505803,MnFeAs,https://materialsproject.org/materials/mp-505803,43.51102292155196,49.87095579326454,73.42791895732545,-13.924090021193507
-6.3961214391666665,-76.75345727,6.220071562983912,-0.8182748591666673,0.0,0.0,62,12,188.25203661824656,705.1572480000001,mp-7066,ScNiGe,https://materialsproject.org/materials/mp-7066,47.12170478411562,45.531850322951506,65.78158745914918,-5.965310960678447
-8.160143297058822,-416.16730815,8.315811822876075,-0.5877146679411768,3.3333333333333334e-08,0.0,174,51,878.8287956225536,4401.08586,mp-29939,Nb9As7Pd,https://materialsproject.org/materials/mp-29939,65.09907764909484,34.08232180988448,70.8586725052146,1.8375529797577599
-7.3301159400000016,-65.97104346,7.007240773160406,-0.5476825773809522,2.305380833333333,0.0,189,9,102.80334273535223,433.815621,mp-975423,MnNiP,https://materialsproject.org/materials/mp-975423,43.8352945323395,53.42707631821554,76.09133210505935,-11.353723367921445
-9.450198246071428,-264.60555089,9.053214674232064,-0.033266549315476776,0.0,0.02910000000000057,74,28,342.45643977487146,1867.0634,mp-1225209,Fe6BMo6C,https://materialsproject.org/materials/mp-1225209,63.429656605786505,42.127688659888456,74.32015318682278,1.8531568923822108
-4.916278770714285,-137.65580558,8.483467455819701,-0.7198837832142857,3.2e-06,0.0,63,28,484.23430224045717,2473.887,mp-1208948,Sm2(Ga3Rh)3,https://materialsproject.org/materials/mp-1208948,69.46719896436076,15.784776304088533,65.10120372555521,5.021955088061258
-7.223464031666666,-43.34078419,7.842166094103977,-0.2512593838888897,1.793236,0.0,69,6,53.08420399233035,250.6988,mp-1224960,FeNiB,https://materialsproject.org/materials/mp-1224960,36.66689332066439,55.57069452258311,79.81251199486279,-7.902928781275031
-7.11281251375,-227.61000044,10.138629207677564,-0.7144687268750003,0.00013565,0.0,62,32,496.4765836529724,3031.3,mp-1203331,Hf2(NiAs)3,https://materialsproject.org/materials/mp-1203331,59.324762619689615,22.647866699639216,57.89722654649249,-5.348919641297061
-6.9603058299999985,-125.28550494,4.469207020068973,-0.4211225177777773,0.003297133333333333,0.0,3,18,236.53515139582802,636.6152999999998,mp-1216927,TiCrSi4,https://materialsproject.org/materials/mp-1216927,47.97567838639149,50.2923332004601,76.73784536930535,-6.7101719563578826
-6.032595375517241,-174.94526589,8.371529507655834,-0.17243467011494254,0.9956193000000001,0.0,225,29,291.7688220076173,1470.9388,mp-1224119,In(Ni11B3)2,https://materialsproject.org/materials/mp-1224119,39.69668488648164,53.24572702446449,79.27837765652912,-10.815055624329753
-7.589190358333332,-45.53514215,7.722851932676911,-1.029384985,1e-06,0.0,191,6,97.57296661081907,453.79335,mp-30028,YSi2Rh3,https://materialsproject.org/materials/mp-30028,65.2704990368799,12.437110782437824,52.10504672779541,-9.42323307849644
-3.9243353819999998,-431.67689202,8.332336600187203,0.03736176600000001,0.0,0.025599999999999845,1,110,1668.5052000244964,8372.3096,mp-532348,Cu29(Ag6As7)2,https://materialsproject.org/materials/mp-532348,62.74919863887679,35.67388968116616,71.71903283702908,5.459990941691216
-6.63893768875,-53.11150151,8.37604679529721,-0.09764915124999972,1.06924,0.09020000000000028,198,8,101.88785414818324,513.94,mp-21255,FeGe,https://materialsproject.org/materials/mp-21255,79.16917237306332,47.197329409905116,83.55594645785854,-1.5644699948256828
-7.011668267931035,-203.33837977,8.430026046584253,-0.09379305206896588,26.0382012,0.0,225,29,292.1508081181403,1483.1562900000001,mp-1194407,Co22B6Sb,https://materialsproject.org/materials/mp-1194407,39.693616993977216,53.212845056434624,79.25622421102757,-10.750217600975306
-7.6299816175,-91.55977941,7.822841576579084,-1.0701762441666671,2.5e-07,0.0,74,12,192.6516257272607,907.5867,mp-1102541,YSi2Rh3,https://materialsproject.org/materials/mp-1102541,66.35400795016136,12.948128154240653,57.39833285230013,15.457897645061676
-4.705506832352942,-79.99361615,7.037159709850173,0.36387775238117703,2.5e-06,0.0,123,17,218.26939883191227,924.9988,mp-1188468,Cu12PdN4,https://materialsproject.org/materials/mp-1188468,50.38347299272873,60.645828643952726,85.48351157957458,6.8302724632228395
-6.905240993333333,-62.14716894,4.347239979901629,-0.46270082037037,5.8399999999999997e-05,0.0,21,9,120.79710715498777,316.2431,mp-1217112,Ti2CrSi6,https://materialsproject.org/materials/mp-1217112,48.05623013544582,50.27806560863302,76.66482826102639,-6.675585869304498
-6.074615673333334,-36.44769404,15.586943872665227,-0.8068425688888894,2.8999999999999998e-06,0.0,216,6,112.29525981692852,1054.07935,mp-1024984,TbInPt4,https://materialsproject.org/materials/mp-1024984,82.17746101260775,11.957531316823331,61.684656285925406,26.16187176515388
-8.833038952499997,-105.99646743,15.396377412062392,-0.5683227474999993,6.163333333333333e-05,0.0,166,12,215.3460719724682,1996.6705500000005,mp-1095497,YIr3,https://materialsproject.org/materials/mp-1095497,76.82017787578559,12.098917744365895,62.21432431026473,22.91527237102799
-8.055474123684213,-153.05400835,7.68117977562713,-0.014178733245614694,34.3494904,0.0,160,19,265.8769706372483,1229.871,mp-1220302,Nd2TiFe16,https://materialsproject.org/materials/mp-1220302,74.75420357723955,37.037177731670056,86.89326129971485,-23.058419232051342
-7.140057613636364,-157.0812675,8.092197252282157,-0.07553025818181812,14.21700085,0.0,194,22,279.6807361473701,1362.9499999999996,mp-1212970,Fe7Ge4,https://materialsproject.org/materials/mp-1212970,42.95155156560424,49.38357912189516,75.73184839000758,-14.921013720221724
-7.334380759999998,-22.00314228,11.799782466877394,0.0673254166666671,6.579999999999999e-05,0.0,139,3,46.31582068388978,329.12,mp-542595,Ge2W,https://materialsproject.org/materials/mp-542595,54.15707706710478,42.36610932492704,70.62031789860721,18.1281498555785
-5.694552608333333,-34.16731565,7.595263625774397,-0.4235151629166669,2e-07,0.0,187,6,88.762435642891,405.9971386,mp-1220221,NdAlNi4,https://materialsproject.org/materials/mp-1220221,74.87562632361994,18.20837887849607,87.18708367159864,-11.440498916180534
-6.81600172137931,-197.66404992,7.471748087320408,-0.4271686291379309,24.016661,0.0,225,29,330.149716338922,1485.539004,mp-22372,Mn6Ni16P7,https://materialsproject.org/materials/mp-22372,46.529627955625884,53.11717855408836,72.4472398089263,-12.779365017368715
-7.8811354540476195,-331.00768907,7.930525078588588,-0.01802992404761908,8.388156083333334,0.0,185,42,527.6147145410939,2519.82135,mp-704981,Mn5Ge2,https://materialsproject.org/materials/mp-704981,46.554313106596354,56.59466737330565,75.83218765182356,-14.429050547360447
-6.86851309125,-54.94810473,7.968094806334072,-0.033006306249999014,1.98715005,0.0,4,8,105.5001173087502,506.2422,mp-1226385,CrFeGe2,https://materialsproject.org/materials/mp-1226385,79.11740144708996,46.963363263869255,83.03908557880166,-1.2041001950967472
-5.961966586666668,-71.54359904,6.950850180632365,-0.4222446438888892,0.000163125,0.0,62,12,175.87902716171908,736.212,mp-1102042,TiCuGe,https://materialsproject.org/materials/mp-1102042,46.787914785286105,46.21914720361373,73.44098837379846,-10.565206033387486
-3.7719674041379303,-109.38705472,9.466817982185438,-0.2044932879310339,1e-06,0.0,225,29,438.4801924918437,2499.798,mp-1193632,Yb6Cu23,https://materialsproject.org/materials/mp-1193632,71.47367278057438,28.518316656657454,62.62486549406048,11.936467974806144
-7.632793849,-152.65587698,7.411075294847145,-0.4077823427499993,24.0026111,0.0,166,20,224.3996476035101,1001.50773,mp-1221846,Mn4Cr(Co2Si)5,https://materialsproject.org/materials/mp-1221846,42.53110569383652,60.15265392655746,91.5337812648742,-8.620303384026657
-7.664602616190477,-160.95665494,8.93600037150469,-0.8490378830952379,2.27e-05,0.0,147,21,303.66350752493526,1634.130334,mp-1215726,Zr2P7Rh12,https://materialsproject.org/materials/mp-1215726,57.43492492876591,30.233082669406862,52.46033319467964,10.200656939378431
-5.91704683,-35.50228098,9.495011692925726,0.1594152116666668,0.045799,0.0,194,6,82.74751927476925,473.15278,mp-571365,Co2Sn,https://materialsproject.org/materials/mp-571365,53.38102022585188,56.1234830598949,81.86074359691419,4.858369351972435
-8.067723297205884,-548.60518421,8.210530003225918,-0.09122211677696074,61.2174068,0.0,65,68,904.6347004727901,4472.9634,mp-1226156,Dy4Fe28BC,https://materialsproject.org/materials/mp-1226156,72.48176313624276,32.12548329387895,83.80138196703446,-6.711801850689702
-8.0837582225,-32.33503289,6.653173115715559,-0.1579318324999992,1.0483286,0.0,225,4,47.135251666472904,188.85372859999998,mp-864988,Mn2AlCr,https://materialsproject.org/materials/mp-864988,44.452168190667855,60.58529142354546,90.30372463152355,-6.9114831503775696
-7.350811751666666,-88.20974102,6.245072443352147,-0.5898854233333329,0.0235298,0.0,62,12,146.477148426264,550.8815999999998,mp-1095532,VSiNi,https://materialsproject.org/materials/mp-1095532,44.359940542106855,52.83376824291375,74.87055442577461,-10.358283612409188
-5.744559946071428,-160.84767849,8.678277457858707,-0.3406640350000001,0.018583475,0.0,194,28,421.7859869718527,2204.32988,mp-1193093,LaNi5Sn,https://materialsproject.org/materials/mp-1193093,70.92739152193808,21.833271485901548,63.77107108073773,17.34388036320538
-6.155954528333332,-36.93572717,7.3352501406972035,-0.2853179525000004,1.2202238,0.0,191,6,76.61149199106528,338.422912,mp-570673,ScNi5,https://materialsproject.org/materials/mp-570673,40.039788834625675,46.582453663093865,68.82873739847523,-17.04273205292568
-4.181738241428572,-29.27216769,7.967763689722463,0.06711229571428591,1e-07,0.0,160,7,96.49460135246315,463.01,mp-1225769,Cu5Ge2,https://materialsproject.org/materials/mp-1225769,45.7976315749925,59.234744808485345,87.65519191877722,-3.9420816505659007
-7.0500851925,-56.40068154,7.408422578258658,-0.2020306374999992,3.0876097999999996,0.0,31,8,115.51577562565231,515.3686,mp-1226258,CrFeAs2,https://materialsproject.org/materials/mp-1226258,22.74409823023169,35.8851016670334,62.95187309932212,-23.19369806707387
-6.9424629375,-55.5397035,12.661035022332161,-0.09575995750000033,5.6968073,0.0,194,8,97.5476665436014,743.76717,mp-865193,Co3Pt,https://materialsproject.org/materials/mp-865193,49.827025578366076,67.53294822051484,72.68839275855562,-16.718458365659206
-7.843698035,-47.06218821,15.433018702552754,-0.8920383616666664,0.0697291,0.0,74,6,113.49646310152085,1054.8339999999998,mp-1226519,CeIrPt,https://materialsproject.org/materials/mp-1226519,82.4171720368485,11.687871157039073,61.2533177356649,26.04931327558249
-6.800654716666667,-40.8039283,4.066792415833096,-0.5514008222222225,1.2e-06,0.0,70,6,84.96089447345429,208.076,mp-2582,TiSi2,https://materialsproject.org/materials/mp-2582,48.328580674283415,50.26824859012249,80.42016484399358,-1.1990352054864553
-7.524435162222222,-270.87966584,6.583445556968777,0.19504702574777846,0.05119165,0.0,62,36,306.4792773126434,1215.0811199999996,mp-1246094,Co4CN4,https://materialsproject.org/materials/mp-1246094,27.97860145959377,54.565038891300404,60.03435339645387,-3.99537274137248
-7.1070934275,-85.28512113,7.541136448680178,-0.15775163499999914,3.582724366666667,0.0,166,12,175.52298024055858,797.116305,mp-2588,YCo3,https://materialsproject.org/materials/mp-2588,76.12639499432025,24.263728898735238,75.9939736698335,0.7311807921008979
-7.683936149166668,-92.20723379,6.553068380517616,-0.4524158941666663,3.497689375,0.0,62,12,143.8866162068097,567.82696,mp-19809,MnCoSi,https://materialsproject.org/materials/mp-19809,44.2461308400534,53.03633716115901,75.1352012398694,-10.420982067538013
-8.043115152894737,-305.63837581,7.820210502769897,0.024174346776314786,80.29408559999999,0.0,8,38,528.8061561384013,2490.38135,mp-1217543,TbNd3Fe34,https://materialsproject.org/materials/mp-1217543,74.74600609028249,37.06763654107143,86.7949798199922,-23.091174897736806
-8.015956539117647,-545.08504466,8.25303323791043,-0.117586989509804,30.81724165,0.0,136,68,903.404962491564,4490.00656,mp-14698,Ho2Fe14B,https://materialsproject.org/materials/mp-14698,72.6407451335861,32.02204189973741,83.68995473629977,-6.681096192017906
-5.729482467619048,-120.31913182,7.284203766387504,-0.4223002559523799,10.215752199999999,0.0,174,21,291.46260500665227,1278.5444690000004,mp-1191383,Dy2Mn3Cu9P7,https://materialsproject.org/materials/mp-1191383,64.78951402162367,9.710526124529515,61.05956630291072,-2.3922872395528043
-8.095233152,-40.47616576,6.933714476622798,-0.0948932769519999,0.6657915,0.0,164,5,47.07917589361443,196.58289,mp-1245477,Mn2NiN2,https://materialsproject.org/materials/mp-1245477,27.992815989442487,52.9716879159644,70.90828085436411,0.2234084128015264
-7.78304115375,-62.26432923,5.909922883052511,-0.5540102973214278,1.99092435,0.0,26,8,95.4126286515119,339.577248,mp-1226245,CrFeP2,https://materialsproject.org/materials/mp-1226245,17.078184727420858,37.69833753490985,68.08037373306526,-23.59961382172903
-5.13221886,-143.70212808,8.764947056887527,-0.5404357878571427,0.0,0.0,63,28,475.7968503764429,2511.434,mp-22627,Dy2(Ga3Ru)3,https://materialsproject.org/materials/mp-22627,69.41184385766402,15.773910150130856,64.85356621431373,5.29656757301667
-6.16149923975,-246.45996959,6.755176675770763,-0.5244184857499995,1.25e-08,0.0,63,40,456.7308340818123,1858.0096,mp-29667,Si2Ni3,https://materialsproject.org/materials/mp-29667,42.48509455324905,55.112516678020775,75.47782577348549,-13.531413649534366
-7.867321028333333,-47.20392617,8.548118678643805,-0.04988798666666838,9.8838229,0.0,191,6,85.80854279393006,441.725,mp-568006,DyFe5,https://materialsproject.org/materials/mp-568006,75.8591120887649,19.43466730309061,87.60385204560204,-13.249742564021794
-5.571695802000001,-27.85847901,2.92943687201927,-0.06139810550000036,0.0,1.7218999999999998,164,5,57.9823623762569,102.2894772,mp-9514,Mg(AlC)2,https://materialsproject.org/materials/mp-9514,30.47606765626687,52.446829517049544,60.97499231439677,-18.5997840665188
-6.9671118175,-167.21068362,8.963045732137244,-0.2914250195833337,4.40237325,0.0,194,24,340.8502751497313,1839.79812,mp-1214094,Ce3Co8Si,https://materialsproject.org/materials/mp-1214094,73.87255458154534,23.61962747005254,61.859919254096795,17.604136695058468
-6.831630965714285,-143.46425028,8.875400711142015,-0.6509437921428562,0.13619610000000001,0.003899999999999793,174,21,261.40755140163947,1397.1949539999998,mp-504856,U2Ni12P7,https://materialsproject.org/materials/mp-504856,55.062008206386864,33.34281162948539,62.290839233448544,-4.718009240835693
-5.215923390555556,-93.88662103,8.052409265204405,-0.5223896718055564,5.400000000000001e-05,0.0,189,18,284.43526166121205,1379.3046,mp-1220258,NdGa2Ni3,https://materialsproject.org/materials/mp-1220258,76.51730987135241,15.466059376962836,63.009365187166594,0.6093749843232872