energy_per_atom,energy,density,formation_energy_per_atom,total_magnetization,band_gap,sgr,num_sites,cell_volume,weight,mp_id,formula,URL,tsne_cry_0,tsne_cry_1,tsne_xrd_0,tsne_xrd_1
-7.0956616005,-141.91323201,3.7151021240857,-0.7260624278389998,5e-08,1.1048,176,20,357.43775874000954,799.6907900000001,mp-862670,Sr3Co(CN)3,https://materialsproject.org/materials/mp-862670,-4.895546756297853,-33.31099816128525,-0.4181921184839458,-33.634929798568365
-10.083050040277778,-362.98980145,7.297914846159853,-3.629078045231736,13.999999800000003,1.3483999999999998,176,36,610.8746252158362,2684.7372384,mp-1194754,Gd2SeOF2,https://materialsproject.org/materials/mp-1194754,23.339654344942684,-40.66785646096122,6.68723738602905,-36.534136388574936
-5.839446618695653,-134.30727223,6.286928199639312,-1.7693003634782607,12.9858334,0.042999999999999705,139,23,337.98174076078965,1279.6248,mvc-141,Ba2Tl2Zn3Cr4O12,https://materialsproject.org/materials/mvc-141,9.182565629125332,-64.14248533424424,10.08913175211356,-45.91855144519247
-6.403565097142858,-268.94973408,5.379108275441535,-2.14944219610119,0.0,3.514,5,42,557.4173804020394,1805.6838,mp-1218292,SrGe12Pb2O27,https://materialsproject.org/materials/mp-1218292,-29.457785873031998,-29.40658289411756,-7.785004465041946,-24.65204350911195
-8.556927530892857,-479.18794173,7.405477112269257,-2.927375049946428,0.012884925,0.0,53,56,708.1064780533188,3157.930160000001,mp-541373,KTa3CuO9,https://materialsproject.org/materials/mp-541373,-36.51290748216224,-77.87326131261976,-1.892078834770457,-56.64260717526518
-5.246324345,-83.94118952,6.53548303152605,-1.7312261794531256,0.0,1.0739999999999998,1,16,360.48225039812377,1418.7716,mp-1234171,MgTl6Si2O7,https://materialsproject.org/materials/mp-1234171,-32.44280965982209,-31.101842165262646,-20.041119341659574,-41.60107943190869
-4.483763665,-35.87010932,6.4422204200156425,-0.587265624296875,0.0,2.2017,217,8,263.4027644410606,1021.89628,mp-1025396,NbTl3Se4,https://materialsproject.org/materials/mp-1025396,0.065986173974546,-24.453112765784308,30.56269363470656,-64.88226884664411
-7.164103073913043,-164.7743707,4.4518677575617085,-3.0650703692391312,0.0,3.4208000000000003,150,23,315.2200974594396,845.0979800000001,mp-1208777,Sr3NbGa3(SiO7)2,https://materialsproject.org/materials/mp-1208777,-7.50570976053976,-43.766340836405966,8.06398070456955,-35.453136839335755
-5.254481944642857,-147.12549445,5.7642590461100305,-1.4783133689285712,0.000704975,0.6116999999999999,62,28,429.72335101585463,1491.7064,mvc-16292,Zn(SbO2)2,https://materialsproject.org/materials/mvc-16292,-5.4048439323397375,-45.60634658478528,-22.97928284626008,0.9659606503519076
-4.997712985,-59.97255582,5.382434123064729,-1.917809130610632,0.0,2.386,63,12,266.8736266842648,865.0382076,mp-867730,Cs2SnO3,https://materialsproject.org/materials/mp-867730,-5.4173268701165656,-30.13109709695929,-23.155002920221985,-53.641246301371794
-6.736969971052631,-128.00242945,5.884958760672298,-2.645007363026315,1.893066,0.0,1,19,292.21899584339064,1035.6255999999996,mvc-2678,Ba2Mg2Ti3Tl2O10,https://materialsproject.org/materials/mvc-2678,8.539521723649441,-64.11539576553476,9.46779881066936,-44.840690908638194
-5.021491254,-50.21491254,6.507859646715435,-0.7035329180000005,5.675e-05,0.0,127,10,211.77891834639075,829.9879999999998,mp-1206813,Er2MgSi2,https://materialsproject.org/materials/mp-1206813,30.555659345752357,-39.101954807920784,19.974918484343647,5.765561367353728
-6.87601829,-89.38823777,5.599919639593211,-2.3358438762500007,16.999999300000002,0.0,82,13,188.3561043018705,635.2028,mp-1103543,BaDyFe4O7,https://materialsproject.org/materials/mp-1103543,-3.2084349567496364,-44.32649704886954,7.831633599541751,-38.84490500305857
-5.203345773333333,-31.22007464,6.262895408273394,-0.6195183966666669,2.235e-05,0.0,63,6,116.65984463658556,439.9947172,mp-1206025,HoAlSi,https://materialsproject.org/materials/mp-1206025,36.770791732094615,-13.672906202794223,13.094715851357579,-16.40723857095201
-4.9789012726923065,-129.45143309,4.151980910498299,-1.5382989785544232,2.0000152,0.2963,4,26,431.56168293435263,1079.0688,mp-1193551,SrCu2Se2(ClO3)2,https://materialsproject.org/materials/mp-1193551,-29.30481049477553,-30.560239105237713,-19.107462503235368,-10.383902093687482
-6.34570726452381,-266.51970511,5.721991012771653,-2.043550588005953,1.2e-06,3.1985,150,42,558.7173581823192,1925.2638,mp-541156,Ge4PbO9,https://materialsproject.org/materials/mp-541156,-29.43533912284483,-29.441351895873318,-7.793001362982867,-24.681358460301052
-7.497834883095238,-314.90906509,5.309147970113437,-3.0166080099652786,0.0,1.1657000000000002,11,42,789.1993365147023,2523.2626,mp-556737,Pr6Ti2S7O6,https://materialsproject.org/materials/mp-556737,10.919066282315303,-6.015820349386692,-4.239844129829823,-13.191959488262231
-6.343655496315789,-120.52945443,5.2412567744082965,-0.7386936773178944,2.9980583999999997,0.0,12,19,435.7818246961135,1375.483735,mp-1245975,Ba8Mn3N8,https://materialsproject.org/materials/mp-1245975,-1.9500732395633733,-28.08998083514946,-2.4698887048558147,-31.51176526701047
-7.211562345,-173.07749628,4.478130278730884,-3.084835484270833,2.99999985,2.9441,15,24,372.11159359552664,1003.50799,mp-562216,Ba2CoSi2O7,https://materialsproject.org/materials/mp-562216,-25.38204371675189,-26.56020884245525,-7.778862806620995,-25.508117766843647
-3.74090993,-104.74547804,5.515172463885487,-0.7631616809611046,0.000106325,1.1291000000000002,14,28,787.4198523544168,2615.2690076,mp-1193928,CsAg2BiS3,https://materialsproject.org/materials/mp-1193928,4.619988594315179,-7.255248474172967,-9.587710672004144,-20.112385080931293
-4.71487792375,-37.71902339,7.014903551105553,-0.6005901367968747,0.0,2.2547,217,8,262.73989403182287,1109.93778,mp-10644,TaTl3Se4,https://materialsproject.org/materials/mp-10644,-0.14425444873898402,-24.361297795107127,30.47473627642812,-64.91637254374552
-6.129731401875,-490.37851215,4.412058445108301,-1.97857641570575,1.0000001875,0.07359999999999989,29,80,1189.4310378814964,3160.32272,mp-1199725,CeH(SeO3)2,https://materialsproject.org/materials/mp-1199725,-29.978063186062755,-53.01880069690893,-24.234083325990127,-50.50986135121808
-4.89532262,-68.53451668,4.411419909914478,-2.1517174850357144,0.0,2.3032000000000004,14,14,277.51944079783607,737.26347712,mp-752689,Ba2Na2O3,https://materialsproject.org/materials/mp-752689,-2.52484130008188,-23.11986061799948,-23.747432407728954,-32.462305974315484
-5.923199015,-106.61758227,4.052284774207752,-2.544364178786718,0.0,3.9557,2,18,320.903666792256,783.1150076,mp-8294,Cs2Li2TiO4,https://materialsproject.org/materials/mp-8294,-7.331026264439464,-30.43220629870975,-5.517193949397411,-29.37172797624539
-6.7358405420833325,-161.66017301,6.643046597020527,-2.3024293796875006,3.0,0.8885000000000001,1,24,362.27083454101916,1449.2776,mvc-337,Sr2GaW2O7,https://materialsproject.org/materials/mvc-337,-16.156985750132765,-48.58605578382301,2.9767790336605517,-35.138389704092766
-6.142744738947369,-116.71215004,5.335299803674023,-0.6482174025810522,5.9077760999999995,0.0,12,19,428.94731835530985,1378.2046,mp-1246245,Ba8Fe3N8,https://materialsproject.org/materials/mp-1246245,-1.9097539624322344,-28.17180394470095,-2.4165958579045936,-31.49413520748093
-5.815885646666668,-139.58125552,7.445187838349669,-0.7306715000000003,0.556941425,0.0,62,24,527.8266102610194,2366.5618000000004,mp-1190904,Tb3Si2Ni,https://materialsproject.org/materials/mp-1190904,47.31492569017635,-13.507665736257405,28.258640728340822,10.678903813363364
-7.0594340266666675,-296.49622912,5.396472945722135,-2.8154422077738097,1.8100000000000003e-05,3.3791,2,42,581.1161394999141,1888.52983856,mp-1202169,NaPr3Ge4O13,https://materialsproject.org/materials/mp-1202169,-29.36249267022719,-54.76139751686492,-15.5374112371163,-52.55902762578721
-8.147230528333333,-48.88338317,6.108129658483392,-2.8902647190033353,5.99999975,0.0,129,6,110.60042679582695,406.8328,mp-542757,EuClO,https://materialsproject.org/materials/mp-542757,0.7234012434801076,-51.58917506504175,4.003453501043564,-38.35923474749699
-3.158910636818182,-69.49603401,6.579523925000544,-1.0969545038275006,1.4e-06,1.8016,128,22,706.7527273417672,2800.353600000001,mp-28242,Tl6SCl4,https://materialsproject.org/materials/mp-28242,-0.025432120813375897,-24.29912384624071,-6.8811144167175,-27.497062989439286
-5.2149168433333335,-31.28950106,6.155681977298854,-0.6219620949999994,0.00014580000000000002,0.0,63,6,117.38051534982573,435.1340772,mp-1206330,DyAlSi,https://materialsproject.org/materials/mp-1206330,36.781353198971054,-13.694499533455716,13.075027717991741,-16.389420956678975
-7.65734256859375,-490.06992439,5.234343617630938,-3.284622437558593,0.0,2.592,141,64,1050.686623164859,3311.9696,mp-16159,Pr4Si2S3O7,https://materialsproject.org/materials/mp-16159,-21.031059203622547,-33.736364066406004,-9.086259161248183,-19.208557843593773
-6.984341513055557,-251.43629447,6.874536436944537,-3.6527226655095153,0.0,2.7258000000000004,176,36,628.5249439449068,2602.0572384,mp-1194932,Sm2SeOF2,https://materialsproject.org/materials/mp-1194932,23.404810451509817,-40.61682576301454,6.6357677594867805,-36.4689685233955
-3.1101230690625,-99.52393821,7.871389861061433,-0.6016736128684372,0.0,0.5641000000000003,130,32,1025.504108053392,4861.1579999999985,mp-28920,Tl5Se2Cl,https://materialsproject.org/materials/mp-28920,39.17633626437413,-43.97340876602165,4.886630793821272,-33.043327627378105
-4.108011715540541,-303.99286695,5.2072849164672546,-0.5159507896329733,0.35032895,0.16480000000000006,1,74,2403.542784218407,7537.2706,mp-684007,Ba19(InN)9,https://materialsproject.org/materials/mp-684007,-2.8243070104104597,-27.253289929524538,-6.8281655038153675,-31.094288265300765
-4.3421686825,-34.73734946,6.1653887792430035,-1.1581804843099994,0.0,1.7416999999999994,166,8,129.73485414552678,481.69046,mp-642807,TbH2Br,https://materialsproject.org/materials/mp-642807,4.644573503082482,-62.068661458293505,27.854466244076864,-41.54565888129285
-5.371589757000001,-429.72718056,3.9067458430729403,-0.5025911149520006,0.9940944625,0.0,11,80,1870.0978901268568,4399.7744,mp-1245335,Sr5FeN4,https://materialsproject.org/materials/mp-1245335,3.764785655340822,-33.098188252546315,-2.2876423958349306,-28.3271915926756
-5.192881166666667,-31.157287,6.394770284527767,-0.6126039866666672,8.5e-07,0.0,63,6,115.46343348629286,444.6520772,mp-1206326,ErAlSi,https://materialsproject.org/materials/mp-1206326,36.79088533488647,-13.677774847474165,13.06958898735261,-16.399817617541178
-5.8990842375,-23.59633695,8.043603552423923,-0.32008071250000025,1e-07,0.0,63,4,106.94514039564169,518.0391972,mp-178,ThAl,https://materialsproject.org/materials/mp-178,-0.7038836261384076,-24.465359061369444,0.13016927159137878,-9.491704462028236
-6.208871277777778,-55.879841500000005,5.505103252010472,-1.9604925970833336,2.5874017000000005,0.0,99,9,121.79819036493004,403.7915386,mvc-7688,BaAlCuMoO5,https://materialsproject.org/materials/mvc-7688,8.863460688309118,-63.70183100662038,41.3755344712443,-53.37039043504304
-5.177482607857144,-289.93902604,5.213750706894758,-1.4907645006614283,3.4995168,0.0,33,56,1910.696566656202,5999.19383712,mp-646565,NaCe4I7N2,https://materialsproject.org/materials/mp-646565,3.6126397517634983,-27.336974312895613,-4.0903278603950115,-28.04214136806509
-6.169068238,-246.76272952,3.970675858043065,-2.0190739940647497,5.000000425,3.3822,14,40,663.2234086307958,1585.8977799999998,mp-559818,SrMn(SeO3)2,https://materialsproject.org/materials/mp-559818,-30.332258439489237,-30.23654207246227,-21.296858128949925,-12.476905807586865
-5.125214978095238,-107.62951454,6.0265174560377135,-1.425237271904762,0.555425,0.0,139,21,322.29088855981263,1169.6754,mvc-11852,Ba2CaTl2(CuO3)4,https://materialsproject.org/materials/mvc-11852,7.417912105274278,-62.84835679690684,10.393672540901695,-44.327205488536826
-5.6355599125,-202.88015685,6.9226545766081005,-1.649866991222778,1.5e-07,2.6457,176,36,690.9282818106099,2880.4248,mp-510724,As3Pb5ClO9,https://materialsproject.org/materials/mp-510724,-23.936695688046175,-45.84801598609821,-23.76780857264882,-40.3925897670848
-6.7979494900000015,-156.35283827,5.5267693965912805,-2.6370111313768123,0.8693046999999998,0.0,139,23,342.4561952989738,1139.7964,mvc-10499,Ba2Mg3Ti4Tl2O12,https://materialsproject.org/materials/mvc-10499,8.757753125039297,-63.954233453979576,10.041988131225867,-45.549772547178726
-4.8673079365625,-155.75385397,5.002100567170408,-1.4000046108300783,0.0,3.068,4,32,487.40056968780715,1468.2140000000004,mp-542117,Cd3Se3O10,https://materialsproject.org/materials/mp-542117,-31.63667180357475,-57.23773958341192,-21.67107432148485,-55.53658985494471
-7.339221542000001,-73.39221542,5.999242916359652,-2.8884857717500005,0.0,2.8816999999999995,11,10,144.9419830318724,523.6505400000001,mp-1079050,LaAsO3,https://materialsproject.org/materials/mp-1079050,19.109808177026693,-35.66534043414079,8.021938861883301,-22.75617073380627
-3.768088074107143,-211.01293215,6.299837862574901,-0.6049530937053577,0.0,1.5714000000000006,61,56,1653.7633754045535,6274.132,mp-559356,Tl3AsS3,https://materialsproject.org/materials/mp-559356,-1.0184564395870894,-22.884294380657874,-13.580501530055347,-29.361839027946644
-6.906660387083334,-165.75984929,5.9405431906315025,-1.9819479353645841,6.99629925,0.021399999999999864,62,24,509.7970130845192,1823.7879999999998,mp-1191419,NdEuCuS3,https://materialsproject.org/materials/mp-1191419,14.346893168265495,-18.280688057529133,16.01773353836138,1.0885459722829758
-6.923208290769232,-90.00170778,6.372724716067778,-2.521267891013077,8.232179200000001,0.0,123,13,205.8018770201045,789.8150400000001,mvc-13315,Ba2YMn2TlO7,https://materialsproject.org/materials/mvc-13315,8.521481150024956,-66.07192257674492,10.308058179234894,-48.50752195710318
-5.810922149583334,-139.46213159,7.613878407585799,-0.7367183979166677,0.41041545,0.0,62,24,525.4875630845983,2409.4576,mp-1192305,Dy3Si2Ni,https://materialsproject.org/materials/mp-1192305,47.322283248500206,-13.500293367690926,28.26150239242929,10.68870086215382
-8.041857572727274,-353.8417332,5.773268555399578,-3.0223098242897737,2.9722372999999997,0.0,55,44,774.8019971211618,2693.7879199999998,mp-683997,Ce3NbS3O4,https://materialsproject.org/materials/mp-683997,0.2105723300571849,-58.21969255550192,-5.87095209881887,-23.34889656875797
-4.38122315625,-35.04978525,6.24988293407794,-0.41708573062499976,4.3700000000000005e-05,0.0,189,8,175.23598186339115,659.5475,mp-349,Yb3Si5,https://materialsproject.org/materials/mp-349,48.65721294606856,-16.490306637982172,21.122535548977798,21.858217743740965
-6.037198905238094,-253.56235402,5.700884395814071,-2.1789434820599998,0.0,3.435,176,42,672.2488853003426,2307.9331999999995,mp-557347,Ca2As3Pb3ClO12,https://materialsproject.org/materials/mp-557347,-24.10158443832745,-45.80406421735297,-24.06956517094768,-40.100827902866655
-7.31499806642857,-102.40997293,4.8518698859956055,-1.7347576566071428,14.00000085,0.27720000000000056,4,14,345.5519715830563,1009.6560000000001,mp-1103850,Eu2GeS4,https://materialsproject.org/materials/mp-1103850,-2.0740887097518184,-11.56351804582892,-19.299427434779254,-8.066816556139202
-3.846116393888889,-207.69028527,5.294822453725788,-0.4025469438798763,1.1561667,0.0,8,54,1766.1149940188598,5631.463699999998,mp-677705,Ba24In19N11,https://materialsproject.org/materials/mp-677705,-2.98058836682392,-27.38884311223089,-6.490628869762047,-31.26851372120505
-5.131979151578949,-97.50760388,6.4372491589731595,-1.7162593130263162,6.035767099999999,0.0,1,19,275.5260322243473,1068.1048,mvc-3048,Ba2Mg2Tl2Ni3O10,https://materialsproject.org/materials/mvc-3048,8.542391018212339,-63.715555226624325,9.888354320623595,-44.304926333277905
-7.071435012173914,-162.64300528,5.554556159695549,-2.858588848985508,0.0485101,0.0,139,23,354.8891054498334,1187.1154,mvc-16441,Ba2Ca3Ti4Tl2O12,https://materialsproject.org/materials/mvc-16441,8.519073273771829,-64.3109065484073,9.953138027550123,-45.711650524644405
-5.259241836,-315.55451016,5.253018416005178,-1.23215574096875,1.000000075,0.2694000000000001,2,60,904.2892793109093,2860.6664,mp-579463,Cu2Pb(SeO3)3,https://materialsproject.org/materials/mp-579463,-23.902361599428144,-43.031515963287774,-14.464288562112674,-29.66573569940993
-2.251395365,-76.54744241,7.063837334345423,-0.2785071755042017,7e-07,1.3402000000000005,14,34,943.8064205717533,4014.898096,mp-541403,Hg7(P2Br3)2,https://materialsproject.org/materials/mp-541403,9.078765357907043,-24.191694839555765,-17.745400632343273,-34.848237626312596
-7.118744763461539,-185.08736385,6.610120139124218,-3.1169019238292317,0.0,3.5081,176,26,411.4451558429992,1637.8428,mp-1209888,Nd3W(ClO2)3,https://materialsproject.org/materials/mp-1209888,-1.7557823931927163,-60.09748838209794,-0.8465567485228247,-49.747680272653376
-7.286110587142858,-102.00554822,8.505613860878855,-2.2894126328571422,3.0,0.0,123,14,203.63807604075544,1043.07505,mvc-1144,Ba2YW3O8,https://materialsproject.org/materials/mvc-1144,5.798415889105429,-68.13190197454253,17.73813088971474,-75.8591347614529
-6.969828016249998,-167.27587239,3.643579303890183,-3.186935045520834,0.0,3.9789,4,24,329.29666078004107,722.5476000000001,mp-1218075,SrCaZnSi2O7,https://materialsproject.org/materials/mp-1218075,-22.469038612445374,-32.10476281167503,5.062032940391207,-21.488837457594578
-6.542029208974358,-255.13913915,5.270570960653419,-2.5355215872435903,0.00011926666666666667,3.5566,145,39,669.890807311288,2126.2415100000003,mp-685195,SrLaTl(AsO4)2,https://materialsproject.org/materials/mp-685195,-29.603885759195503,-32.213403769399484,-28.18461342331829,-54.54232346746852
-5.200486464615385,-67.60632404,8.01889648718843,-1.5727445591553848,1.34e-05,0.0,139,13,250.56965064297188,1210.024,mp-1104254,Bi4Pb(ClO3)2,https://materialsproject.org/materials/mp-1104254,-19.26069730314524,-55.6866184991431,-10.333419705603406,-60.21336194888091
-6.8972483633333335,-165.53396072,5.8120518012884315,-1.9694382645312511,6.999865475,0.01130000000000031,62,24,517.2569006740398,1810.4506,mp-1220024,PrEuCuS3,https://materialsproject.org/materials/mp-1220024,14.389494049181454,-18.269763405885534,16.077309430394905,1.1811246010845584
-8.435317725263157,-641.08414712,5.0121555183295206,-2.420292953580526,3.99999995,0.0730000000000004,198,76,1108.992567271069,3347.3728,mp-1228410,Ce4Si4N6O5,https://materialsproject.org/materials/mp-1228410,-23.425132106377724,-30.06026297116518,-11.959740337607345,-22.268560873851854
-5.083518175,-61.0022181,7.824777551210081,-0.8907474442968747,7.699999999999999e-06,1.0045000000000002,11,12,349.7891127604585,1648.2732,mp-1102545,HfTl2Se3,https://materialsproject.org/materials/mp-1102545,9.029240047850502,-24.15195461216346,5.9127774777312245,-21.494560270916864
-8.095378355357143,-226.67059395,6.055787971983833,-0.9735019038945579,20.907642925,0.0,62,28,727.8891953724748,2654.525144,mp-1193614,Eu3InP3,https://materialsproject.org/materials/mp-1193614,-0.7425706749014449,-27.44975341118839,7.202527411145122,-22.768505391999593
-5.830522064090909,-128.27148541,5.428058682519072,-2.248825226022728,2.365e-05,1.8538,40,22,323.55553198617304,1057.6556,mp-865532,BaMgTe2O7,https://materialsproject.org/materials/mp-865532,-33.97523653438625,-56.52906221722978,-5.715314362816769,-53.62731501337586
-6.2989424462068975,-182.66933094,5.177773770115227,-2.2040133001380453,7.999999799999999,1.0074999999999998,1,29,463.93109964445586,1446.59669,mp-1228293,Ba4Mn2Ag2As4O17,https://materialsproject.org/materials/mp-1228293,-6.9054432996346256,-40.99759708305324,-2.3082170543241314,-30.1959577488443
-6.611229466249998,-158.66950719,5.2546474853775145,-2.850724364479167,0.0,3.2310000000000003,35,24,349.52776342152504,1106.0536,mp-1218128,SrNdGa3O7,https://materialsproject.org/materials/mp-1218128,-7.482515903588139,-43.953029439209786,9.133228018385543,-36.02357242685777