energy_per_atom,energy,density,formation_energy_per_atom,total_magnetization,band_gap,sgr,num_sites,cell_volume,weight,mp_id,formula,URL,tsne_cry_0,tsne_cry_1,tsne_xrd_0,tsne_xrd_1
-6.41154957875,-102.58479326,5.275289164821498,-0.5947697946424997,3.16530835,0.0,15,16,274.04795842525647,870.6102,mp-8924,Ba2LiFe2N3,https://materialsproject.org/materials/mp-8924,-6.613352256307078,-33.00744689140312,0.708406580536697,-31.136773321702556
-8.186586074545454,-90.05244682,5.549560777733027,-3.3583954277462125,0.0,0.7039,139,11,166.87844101656583,557.7117000000002,mp-10960,Tb2Ti2S2O5,https://materialsproject.org/materials/mp-10960,5.6832215413291935,-41.75775820716279,-9.453238465824446,-13.244040881910776
-5.4461659034375,-174.27730891,3.477752687994044,-1.5191241039770826,0.000911675,1.8788,62,32,707.7978504104947,1482.3776,mp-616577,Sr3BCNCl2,https://materialsproject.org/materials/mp-616577,15.29354529926433,-17.869895137368985,7.172618814383728,4.831246532509043
-5.281996487619048,-221.84385248,5.323499788315384,-1.7407570093452391,2.0000629,0.2889999999999997,2,42,778.534971341574,2495.8948,mp-1199575,Ba2Cu2Te4Br2O11,https://materialsproject.org/materials/mp-1199575,-40.89392425889513,-46.555013785426816,-6.53378262013154,-34.11150197927578
-6.4929211521739125,-149.3371865,5.748375580358903,-2.327626900869565,13.6761703,0.0,139,23,347.6943295971422,1203.6318,mvc-149,Ba2Ca3Tl2Cr4O12,https://materialsproject.org/materials/mvc-149,9.197873603051617,-65.41000919488742,10.11144036034904,-46.40082996095295
-6.850531761666668,-82.20638114,4.7238167885888735,-2.1584313251041682,8.0000257,0.0,25,12,190.75078267601424,542.6381,mvc-1391,Ba2Cr3O7,https://materialsproject.org/materials/mvc-1391,6.741969649246754,-40.27901698760214,0.4525419831605894,-35.71291665960858
-7.201348778571429,-302.45664869999996,5.724559801114456,-1.1276521417285716,1.9330006000000002,0.0,14,42,808.8845704732829,2788.557200000001,mp-583042,Ce8C8Cl5,https://materialsproject.org/materials/mp-583042,18.23987566472718,-43.056355875442,-3.3289026101544583,-25.9905954209846
-6.4581277746153845,-83.95566107,6.146987890097861,-2.243008257019232,6.161458799999999,0.0,123,13,195.04195617069809,722.0068386,mp-1249454,Ba2AlTlCr2O7,https://materialsproject.org/materials/mp-1249454,8.34154455832366,-64.06335555926421,8.821998468689243,-47.88599970902301
-7.29845857,-204.35683996,6.56487814556117,-2.700162726227678,4.75e-06,1.1432000000000002,176,28,430.853254872728,1703.3620099999996,mp-1192676,La3CoW(SO2)3,https://materialsproject.org/materials/mp-1192676,-1.9425597793527964,-60.48690318205848,-0.41026652355875337,-50.563635598901385
-6.3869621119230775,-498.18304473,5.735771369645043,-2.402343849834103,0.00016725,2.679,5,78,1315.8589520105447,4545.1904,mp-1173616,Nd5Te7WCl3O23,https://materialsproject.org/materials/mp-1173616,-31.4193480761014,-57.113164624539394,-21.237626182494648,-55.67941851906421
-4.8060646025,-19.22425841,4.700646083009904,-1.5421869814100004,0.0,1.1229,166,4,114.4956337372728,324.1137,mp-1018099,Ba2NCl,https://materialsproject.org/materials/mp-1018099,-0.021193915173548083,-27.0322112352774,3.826036329118902,-58.55994681664416
-7.332094833846154,-190.63446568,5.814741960449071,-3.2145202211369237,0.31055105,0.0,176,26,415.78874438637064,1455.9755599999999,mp-1209927,Nd3Nb(ClO2)3,https://materialsproject.org/materials/mp-1209927,-1.7971577896923667,-60.27535418883671,-0.7093574757889051,-49.79253090473626
-6.243381935,-149.84116644,4.490112024971888,-2.6207709105208337,0.0,3.1171,113,24,368.28638786105483,995.8496,mp-17392,Sr2ZnGe2O7,https://materialsproject.org/materials/mp-17392,-7.584368276420838,-43.69347095049712,3.5424079747032056,-33.13315513832881
-6.432579413970588,-437.41540015,4.918081174707226,-2.304354971838236,2.0137486,0.13449999999999995,3,68,957.3621403812867,2835.4556,mp-1204343,Ba3Ge9O22,https://materialsproject.org/materials/mp-1204343,-29.5870309783011,-29.25475106335637,-30.325046137891768,9.623013674142102
-6.2093627911194025,-832.05461401,4.785196408825336,-2.427411198271717,0.0,3.826,9,134,2316.09655051982,6674.3248,mp-1218343,SrNd10Se12(Cl2O9)4,https://materialsproject.org/materials/mp-1218343,-29.768883272013262,-53.57305777432996,-18.57808492437163,-30.367615895481567
-7.639786373125,-488.94632788,6.44092239363635,-3.311625630839844,0.0,2.6107,141,64,942.9292096950522,3657.4472,mp-16587,Dy4Si2S3O7,https://materialsproject.org/materials/mp-16587,-20.83472354889253,-33.96776817980406,-18.54235604642068,-34.95041285786159
-7.815660449791666,-1125.45510477,5.943992546046811,-2.664154861138888,1.0777483,0.0,1,144,2073.9430570995664,7423.795391360001,mp-1099903,K5Na3Ta6Nb2O20,https://materialsproject.org/materials/mp-1099903,-31.775072004128013,-74.3797598446985,-22.432863569046155,-24.26427238828888
-5.025795269565217,-115.5932912,6.480160012672888,-1.5842240430434784,1.7276052,0.0,139,23,396.28513397396654,1546.4804,mvc-10620,Ba2Tl2Zn3(SnO3)4,https://materialsproject.org/materials/mvc-10620,8.783083821271465,-65.96044628533784,10.88754698864594,-47.88954719932793
-6.522772183846153,-84.79603839,5.6182741966004315,-2.2192597731730777,18.0000008,0.0,216,13,190.85596246757402,645.7428,mp-1214187,BaYbFe4O7,https://materialsproject.org/materials/mp-1214187,-3.201995622224097,-44.65043876337741,8.407141347802174,-39.292271209946364
-8.788469391818182,-96.67316331,6.7018472467551256,-3.4031107899177133,3.96e-05,2.2853000000000003,123,11,173.01140533087548,698.26483,mp-541600,RbLaTa2O7,https://materialsproject.org/materials/mp-541600,-32.04638621729818,-68.36259344691746,-6.544092407047208,-59.67892138284019
-8.299064375,-182.57941625,8.483299290678806,-2.899641678252842,4.00064155,0.0,55,22,421.8851263549862,2155.3108399999996,mp-1219211,Sm2U2Se3O4,https://materialsproject.org/materials/mp-1219211,9.464358770840986,-68.72333035146066,6.343199601755624,-24.158180440465568
-9.405922666666667,-56.435536,5.918071542116477,-1.0932903629166664,6.93164415,0.0,12,6,139.82518081960174,498.3294,mp-28755,GdCBr,https://materialsproject.org/materials/mp-28755,20.730561121938184,-2.11112752288278,16.211264486039468,-7.903673143638259
-3.858869975,-30.8709598,6.401617803368971,-0.8469588303645841,4.535e-05,0.5220000000000002,194,8,198.8674139743121,766.6625999999999,mp-20042,TlInS2,https://materialsproject.org/materials/mp-20042,4.482577894642652,-4.985353442512189,3.165837913454959,-52.72941954300589
-3.858177965,-15.43271186,6.386764512389568,-0.8462668203645833,0.0,0.7363999999999997,166,4,99.66495361918322,383.3313,mp-22566,TlInS2,https://materialsproject.org/materials/mp-22566,4.4788659062043426,-4.98398608660634,3.166607825669672,-52.741639092250786
-6.04676219375,-193.49639019999998,7.187224462193299,-2.0574675893750003,1.595e-05,0.0,17,32,506.71454052848185,2193.1861,mp-1200772,Ba2YCu3(PbO4)2,https://materialsproject.org/materials/mp-1200772,9.263739760378751,-65.81059381763417,41.2380551848589,-51.50628718393283
-5.626833562777778,-101.28300413,5.349093322329709,-0.44702714827999934,0.0,0.0766,2,18,412.4223946945881,1328.53599,mp-1246144,Ba4CoN4,https://materialsproject.org/materials/mp-1246144,-0.9422021194939466,-27.397865171682373,-3.5031390697912705,-30.267529807484888
-8.572988239999999,-85.72988240000001,6.944878790512303,-0.8246609714279984,3.81e-05,1.0637000000000003,12,10,173.67800837598094,726.3742000000002,mp-989636,BaWN3,https://materialsproject.org/materials/mp-989636,-5.513925131819046,-30.486681299347683,-22.83317051984423,-52.15491965416953
-7.213968209361703,-339.05650584,5.72078367102522,-1.1146340956034035,3.2926857000000003,0.0,2,47,908.0231195457914,3128.2636,mp-1196346,Ce18C18Cl11,https://materialsproject.org/materials/mp-1196346,18.25240339724232,-43.06237268585453,-3.2850863918764337,-26.037567095865843
-8.477932903661971,-1203.86647232,4.807829387544267,-3.2177315939612665,0.00023475,0.04499999999999993,185,142,2064.6711315575303,5977.93024,mp-560469,Ba6Nb14Si4O47,https://materialsproject.org/materials/mp-560469,-33.91509488925796,-56.338584121011465,-7.842314430744647,-28.341841230753175
-3.71182092,-25.98274644,6.508911119115636,-0.6230424431696429,0.0,1.598,160,7,212.02964789797397,831.1049,mp-8393,Tl3SbS3,https://materialsproject.org/materials/mp-8393,-3.2648149334597725,-28.483124677775198,1.7094042315350888,-50.74877704237928
-7.1202727642307675,-185.12709187,6.400012774472534,-3.1141408747907686,0.0,3.5178,176,26,419.76181850921034,1617.8367,mp-555930,Pr3W(ClO2)3,https://materialsproject.org/materials/mp-555930,-1.8359016826004075,-60.22396137445348,-0.7286724320039812,-50.237077275290105
-7.55592138962963,-408.01975504,5.4377854145597055,-2.683312031760582,0.0,2.4915000000000003,40,54,819.4326305713388,2683.40502656,mp-556062,NaNb4Tl3P2O17,https://materialsproject.org/materials/mp-556062,-32.10958120672461,-31.57532690964641,-24.56444071321982,-49.98204665166418
-9.406109751666667,-56.43665851,5.939233197123522,-1.093477447916667,6.93079025,0.0,12,6,139.32697976576284,498.3294,mp-567572,GdCBr,https://materialsproject.org/materials/mp-567572,20.732573478848764,-2.113821241677749,16.221986858340582,-7.911626889185174
-4.63043787,-180.58707693,6.858596939568626,-1.6569873688625645,5.5e-06,1.2934,65,39,801.0254960250462,3308.5106,mp-1226996,CdBi12(Cl7O6)2,https://materialsproject.org/materials/mp-1226996,-2.6667144704400334,-58.336515868423824,2.639721816326208,-49.64374684048295
-5.974929222,-29.87464611,7.587340865693258,-1.4627895182500006,1.0394046000000001,0.0,38,5,65.05448863678916,297.2472,mvc-5731,ZnWO3,https://materialsproject.org/materials/mvc-5731,-33.76937996555842,-79.82397668146291,30.44500323459437,-63.86058366801929
-7.256602554230769,-188.67166641,6.210526482873416,-3.2174914161369235,0.0,3.5961,176,26,429.35696671088084,1605.82362,mp-23117,La3W(ClO2)3,https://materialsproject.org/materials/mp-23117,-1.8614550977120088,-60.279766520268176,-0.6742477724740463,-50.37067152418575
-7.328176690625,-469.00330819999994,5.4786052471052855,-2.8711018690755203,0.0006138,2.3649,15,64,864.7163447631892,2852.9528,mp-1228624,Ba3Ti4Sb4O21,https://materialsproject.org/materials/mp-1228624,-33.9321609210963,-56.44003664318174,-5.46452241674954,-54.6109536754831
-4.954121025277779,-178.34835691,6.698110923649563,-1.3818094079166667,0.0,2.752,14,36,737.7486674800117,2975.8544,mp-29690,Tl2Te2O5,https://materialsproject.org/materials/mp-29690,-3.072574298082975,-30.33357837833334,-14.454236178513408,-52.00898648273771
-5.669158550769232,-221.09718348,5.521882649091644,-1.4276456069230774,1.0000004999999998,0.20520000000000005,2,39,509.03946782039566,1692.7372,mp-554606,Cu7As6(PbO12)2,https://materialsproject.org/materials/mp-554606,-8.401030205161769,-44.12506435172718,-2.431223579222588,-30.07349399384811
-7.508444551538461,-97.60977917,4.5554187545551565,-3.045006695592282,0.00019219999999999998,1.3487000000000002,123,13,234.42345948412301,643.10263,mp-1209483,Rb2LaNb2ClO7,https://materialsproject.org/materials/mp-1209483,-28.52044775949037,-69.33326059990185,3.5199063929586187,-58.472461394141476
-6.501392813913044,-299.06406944,5.632014551787519,-0.9417050330434792,0.00748705,0.0,59,46,1034.3942874749594,3508.33286,mp-624186,La9B3C6Br5,https://materialsproject.org/materials/mp-624186,26.08751176403175,-41.32842802908762,13.274749119507645,-23.620299885562233
-6.35442837,-495.64541286,5.531531049447612,-2.4025609556033336,0.00015295,2.6796,5,78,1311.6700015497092,4369.390399999998,mp-1173624,Nd5Te7MoCl3O23,https://materialsproject.org/materials/mp-1173624,-31.406080707098823,-57.11044887710643,-21.194066922897782,-55.753366028289655
-7.001097731166666,-420.06586387,6.065275406553212,-2.4395654306309513,0.0,2.9007,148,60,1032.652016155506,3771.8588520000003,mp-667345,NbTl2PO6,https://materialsproject.org/materials/mp-667345,-32.446840016147675,-31.42970723289825,-5.2698385160645165,-33.62386434120181
-7.446434311666667,-312.75024109,5.33836266709815,-2.8180537765773814,3.9999954,1.0340999999999996,31,42,716.5138267769521,2303.4753,mp-650816,La5V3S6O7,https://materialsproject.org/materials/mp-650816,-0.15313373700014332,-49.920383925269874,-2.812471100792469,-26.82338905403596
-7.112925565384615,-92.46803235,8.360359264556434,-2.056975090865385,4.999487,0.0,47,13,203.99831632700324,1027.07565,mvc-1334,Ba2YW3O7,https://materialsproject.org/materials/mvc-1334,5.90529767584956,-68.00727881099563,17.80362608024559,-75.86273576018624
-7.489987779545454,-494.33919345,5.233990851187294,-2.9959226864267685,0.0,2.3328,1,66,862.6470340583293,2719.0488,mp-695259,Ba3LiTi5(SbO7)3,https://materialsproject.org/materials/mp-695259,-33.88285008327221,-56.29489894744161,-5.470500337216996,-54.617661768378575
-7.6594602490625,-490.20545594,5.7661014096242775,-3.303573204902343,4.25e-07,2.5838,141,64,997.3447136414154,3463.2072000000007,mp-6671,Sm4Si2S3O7,https://materialsproject.org/materials/mp-6671,-20.922630219743446,-33.87663916254948,-18.541807527937028,-34.91616958664456
-5.7317569520000005,-28.65878476,6.176841651099722,-0.6255807769999997,1.1900000000000001e-05,0.0,44,5,108.09969586094348,402.1072,mp-1217678,Tb2Si3,https://materialsproject.org/materials/mp-1217678,48.14588285683971,-15.358953612238855,6.407884759481902,-9.927882833120071
-3.1646518575,-12.65860743,6.7497510414982544,-0.61202170828125,8e-07,0.0,164,4,93.71303734696946,380.9243,mp-7708,TlCdS2,https://materialsproject.org/materials/mp-7708,5.016056646095056,-5.0136492587652715,6.051501441412253,-9.725449237233192
-7.520687325142857,-263.22405638,3.813556536745128,-3.473758254107142,0.0,4.4268,148,35,526.4635829387095,1209.0644000000002,mp-555314,Sr7Zr(Si2O7)3,https://materialsproject.org/materials/mp-555314,-25.14918298875897,-34.832941034216184,-3.595726108235445,-30.87711848068218
-8.418449884375,-134.69519815,5.063778988123035,-3.4783710516361364,0.0,1.6396000000000002,99,16,233.45401361728656,711.91312,mp-1219633,RbLa2Ti2NbO10,https://materialsproject.org/materials/mp-1219633,-28.992942869340496,-68.56304702372103,-1.6681253006243424,-50.705598631021395
-4.641957191111112,-83.55522944,8.00568849546911,0.020978625495416736,0.00011525,0.3680000000000003,58,18,456.66185596707686,2201.63,mp-1246357,Bi4Se3N2,https://materialsproject.org/materials/mp-1246357,23.801688035064107,-40.21949788120257,6.557427542582129,-1.1688184108445605
-6.6399327075,-53.11946166,5.609066653057631,-0.2720919363541663,0.12309415,0.0,12,8,180.3728366296817,609.2739999999999,mp-1078268,Pr2BC,https://materialsproject.org/materials/mp-1078268,6.724665973218189,-39.073386660418564,-0.02046717587875504,-34.95948382346662
-8.50997740625,-136.1596385,6.7693686032695926,-3.3791011496066807,0.0,2.0508,123,16,247.99608224451117,1010.9830919,mp-7181,CsSr2Ta3O10,https://materialsproject.org/materials/mp-7181,-32.215873642620046,-67.90521140358193,-14.366407810806711,-51.49445731938317
-6.820480663448277,-197.79393924,5.957248948645803,-2.4755026956465507,0.2547984,0.0,12,29,414.40623356613503,1486.69862,mp-772159,La6Cu6O17,https://materialsproject.org/materials/mp-772159,-0.8185191340723612,-49.97278913195088,-2.391705862600662,-50.07373707273764
-5.712641167999999,-28.56320584,6.3693008352819644,-0.6152733089999991,3.3e-05,0.0,44,5,106.6971733944916,409.2565,mp-1225291,Dy2Si3,https://materialsproject.org/materials/mp-1225291,48.09634245068378,-15.282611222152328,6.38102129062089,-9.900037355168203
-7.629597098125,-488.29421428,6.581727377889135,-3.3082818845898436,2.5e-07,2.619800000000001,141,64,932.5673595648527,3696.3323200000004,mp-6757,Ho4Si2S3O7,https://materialsproject.org/materials/mp-6757,-20.813605307404174,-33.988835078103484,-18.537483851833546,-35.06976540046692
-5.581733234500001,-111.63466469,4.289259264177828,-1.7455956444687502,1.00000015,0.3563000000000001,15,20,352.13332054103887,909.5788,mp-9639,BaCu(SeO3)2,https://materialsproject.org/materials/mp-9639,-30.37249184204112,-29.45880686025917,-29.483531296386506,8.021278953324392
-5.285441986231882,-364.69549705,8.728480398757975,-0.5068008142675361,0.0003976333333333333,0.0,111,69,1127.375830518562,5925.953923200002,mp-707703,Th8Al4H11,https://materialsproject.org/materials/mp-707703,1.4802450437974488,-53.24078345879047,4.692738451387716,-46.95128085513669
-7.6221002215625,-487.81441418,6.717883978457415,-3.3034476555273447,2.95e-06,2.6296,141,64,922.8760078146007,3733.5912,mp-6316,Er4Si2S3O7,https://materialsproject.org/materials/mp-6316,-20.806718930388747,-33.99970371274458,-18.53865711942151,-35.19634798549158
-7.0979341850000015,-354.89670925,5.780287893152262,-2.7560614917000006,0.0,3.2544,2,50,635.2422222663921,2211.25962,mp-652961,La3GaGe5O16,https://materialsproject.org/materials/mp-652961,-8.872142242258947,-47.35396342612356,0.02819771341423373,-31.94269191985681
-6.383685769615385,-497.92749003,5.6039119090178175,-2.3966847020776934,0.00048525,2.7435,5,78,1336.9407017081562,4511.8469,mp-1173612,Pr5Te7WCl3O23,https://materialsproject.org/materials/mp-1173612,-31.423897495073277,-57.114701042023476,-21.292419265288245,-55.665249611076106
-8.32767410875,-133.24278574,5.551368339728156,-3.4214469801275134,1.36e-05,1.4433999999999996,8,16,233.99149737511317,782.2598319000001,mp-1225973,CsSm2Ti2NbO10,https://materialsproject.org/materials/mp-1225973,-28.76530582751925,-68.21696728799691,-1.6937321560928305,-50.62705082869011
-8.325173524361702,-782.56631129,5.095120436629208,-2.187829212855533,3.14798515,0.0,1,94,1397.5101907263088,4288.055,mp-694972,Ce10Si10BrN17O9,https://materialsproject.org/materials/mp-694972,-23.78910562517757,-30.249030619449037,-18.13102960898044,-28.440153650503696
-6.302457954425288,-1096.62768407,4.7940346869871195,-2.267454448155965,1.6833333333333332e-06,2.9384,165,174,2446.880716739784,7064.2308,mp-1210469,Rb2Ba(Ge4O9)2,https://materialsproject.org/materials/mp-1210469,-29.505913944119023,-29.34934922802489,-23.0020833524071,0.9739127447802679
-5.9943017875,-263.74927865,4.544434545273512,-2.169028122613638,0.0,2.8585,14,44,679.0239065587156,1858.3,mp-554083,BaZnAs2O7,https://materialsproject.org/materials/mp-554083,-30.610281632677932,-29.810702781774378,-32.329241547770145,10.053656138568082
-6.5559946638,-327.79973319,4.179349775634673,-2.2157344992052,12.00054195,1.2884,176,50,674.5692078611413,1697.79848568,mp-1201950,Na3SmMn3(AsO5)3,https://materialsproject.org/materials/mp-1201950,-28.26063596538939,-34.43042009909843,-22.290998120403994,-15.255040058948195
-5.4707691535,-218.83076614,4.097218751494943,-1.941332137968751,0.0,4.331099999999998,14,40,659.7145672067003,1627.7815999999998,mp-555691,SrZn(SeO3)2,https://materialsproject.org/materials/mp-555691,-30.24782889785688,-29.94890289640903,-21.158119304728324,-12.384464960137956
-5.568523943750002,-133.64457465,4.946893356216296,-1.7952786255208348,0.01768115,0.0,46,24,359.90050994290704,1072.1756,mvc-273,Sr2Cu2SbO7,https://materialsproject.org/materials/mvc-273,7.3042569317873,-62.591360598517596,7.983344546271892,-37.04658948283356
-6.916019005384616,-179.81649414,5.621834912211279,-2.3779509081730774,17.0000005,1.5418000000000005,4,26,376.67939578130853,1275.2662400000004,mp-1194202,BaHoFe4O7,https://materialsproject.org/materials/mp-1194202,-3.1609392436294486,-44.356137740861314,7.752258810158623,-38.81861883907121
-7.071408590714285,-197.99944054,6.5549293212508495,-2.588951165513393,1.164028,0.0,176,28,431.38569469732704,1702.88242,mp-1193278,La3NiW(SO2)3,https://materialsproject.org/materials/mp-1193278,-1.9305882756647796,-60.46588301493253,-0.3062120982565549,-50.55919222800998
-5.801463098823528,-98.62487268,6.408661546052728,-1.799831911617647,14.3273527,0.0,1,17,261.94569118825666,1010.9496,mvc-3071,Ba2Tl2Fe3O10,https://materialsproject.org/materials/mvc-3071,7.1045688132627545,-63.76735437881554,8.692319908518776,-45.9804840654559
-5.08211983576923,-132.13511573,6.714826614636066,-1.6009322087707694,0.0,2.6478,12,26,516.2035241726426,2087.4048,mp-554952,Te2Pb3(ClO3)2,https://materialsproject.org/materials/mp-554952,-23.85053628944121,-45.97241060645271,-14.222137411359384,-50.320034438850826