energy_per_atom,energy,density,formation_energy_per_atom,total_magnetization,band_gap,sgr,num_sites,cell_volume,weight,mp_id,formula,URL,tsne_cry_0,tsne_cry_1,tsne_xrd_0,tsne_xrd_1
-6.044748837857143,-84.62648373,8.690057290326028,-1.82546274059,0.0001082,1.0690999999999995,99,14,225.75336113004775,1181.4294000000002,mp-1227592,Bi3PbWClO8,https://materialsproject.org/materials/mp-1227592,-18.804811962836254,-56.28231371094807,-9.70278919892885,-60.28309864122284
-6.699010109166667,-160.77624262,5.122920580088163,-2.349202472007084,0.99999995,1.6486,36,24,530.9070498690982,1637.89865,mp-1244594,La4MnS6O,https://materialsproject.org/materials/mp-1244594,10.082181627395881,-8.487976698760827,-8.655466217626943,-11.601302226403778
-7.59742585671875,-486.23525483,6.85273005792495,-3.3010815219335936,0.0,2.6506,141,64,911.2108488006644,3760.39456,mp-16591,Tm4Si2S3O7,https://materialsproject.org/materials/mp-16591,-20.77786467349143,-34.021588561229464,-18.631038008490624,-35.3655634723618
-8.288102969166667,-99.45723563,6.555215028815395,-2.990140019334168,0.9343445,0.0,123,12,180.30912657118532,711.7960300000002,mp-1102721,LaTa2CuClO7,https://materialsproject.org/materials/mp-1102721,-32.36786416476635,-68.95556187142749,2.4744700907726016,-50.087279471024466
-6.1922681825,-49.53814546,4.645204129842248,-0.8693421035714293,0.0001792,0.10430000000000028,194,8,207.6912560485297,580.9970480000001,mp-1096801,BaZrP2,https://materialsproject.org/materials/mp-1096801,4.4595621364586995,-4.95989684674263,5.279422107283633,-50.69273829231525
-5.687280147272728,-62.56008162,5.157938836402259,-1.4779722206818182,1.4800000000000002e-05,0.0,71,11,315.2303477310265,979.1632800000001,mp-569873,La4C2Br5,https://materialsproject.org/materials/mp-569873,26.786197048401146,-7.046294655055852,14.916237670590544,2.524515116279492
-6.121062843529412,-104.05806834,5.882571441725607,-1.784689363970588,7.797641099999999,0.0,1,17,282.1126013647529,999.4029,mvc-3069,Ba2Tl2Cr3O10,https://materialsproject.org/materials/mvc-3069,7.219508993807808,-63.37769054554872,8.591905754203358,-45.62559922547524
-8.404029823333332,-100.84835788,7.001145587516642,-3.2341667023958336,2.15e-05,0.0,139,12,148.63638841046418,626.67903,mp-15901,Li2LaTa2O7,https://materialsproject.org/materials/mp-15901,-33.19331748571065,-70.24308026369461,-26.0835582758318,-31.65419060058084
-7.563004963809522,-317.64620848,5.588811083800329,-3.1986954990357144,7e-07,3.7706,143,42,631.365889840769,2124.96339928,mp-1220900,NaLa9(Ge3O13)2,https://materialsproject.org/materials/mp-1220900,-28.786195108684,-54.80532043662162,-10.37388566529684,-33.56644403929211
-7.846423752549019,-400.16761138,5.157198439834949,-1.4212624493318946,0.0015254,0.0,174,51,728.2262000395161,2261.67945,mp-695596,Ba4Pr7Si12BN27,https://materialsproject.org/materials/mp-695596,-24.77943953150324,-30.25446042221082,6.5488654850478785,-1.226989096124836
-5.058750477799999,-252.93752389,7.107997336586941,-1.566200765602,0.0,1.5366,12,50,1024.287023591128,4384.4976,mp-653930,CuAs2Pb8Cl5O9,https://materialsproject.org/materials/mp-653930,-19.298769043917048,-55.19901782213572,-11.949825148891607,-58.80081780873443
-7.857859378214287,-220.02006259,7.067104454189497,-2.770059790267858,0.0,1.5824,36,28,475.3254631798739,2022.9423199999999,mp-556569,SrTa2Bi2O9,https://materialsproject.org/materials/mp-556569,-33.962223781319906,-70.00843757496146,-11.479558390131054,-59.688751358747645
-5.036400825,-70.50961155,8.657246934855625,-0.5325640299257144,3.455e-05,0.0,140,14,189.92534556597172,990.1788372,mp-24083,Th2AlH4,https://materialsproject.org/materials/mp-24083,1.4478065003970269,-53.34064800115743,4.690135715001682,-46.98156294569675
-5.9491617749999985,-154.67820615,6.151762753420584,-2.1954736431730777,0.0,0.0,9,26,351.06409058323084,1300.5794772000004,mp-1262316,Sr2AlCu2BiO7,https://materialsproject.org/materials/mp-1262316,9.467830993366134,-63.508395178947204,11.061497992513623,-45.10281927324336
-6.4135830221875,-205.23465671,5.687149338025701,-1.0176732830208337,0.0,0.0,62,32,714.0180712942441,2445.42724,mp-569072,La3B(CBr)2,https://materialsproject.org/materials/mp-569072,26.088852408232928,-41.25852106836838,14.953072949636688,-23.815860877550783
-6.878595610769231,-89.42174294,5.656498847672376,-2.340527513557692,16.999999300000002,0.0,82,13,187.18552190507427,637.6331200000002,mp-1104176,BaHoFe4O7,https://materialsproject.org/materials/mp-1104176,-3.169012565023275,-44.314365007148645,7.809137055546772,-38.819816677461255
-9.210976446,-46.05488223,7.149002231140526,-2.7062579832187508,12.007012300000001,0.0,164,5,96.36809533779676,414.8868,mp-754655,Eu2SeO2,https://materialsproject.org/materials/mp-754655,24.35779430867537,-41.108765819471984,20.338864013779414,-36.65754528153972
-6.131434094444446,-110.3658137,4.884163176924044,-2.1081159005902785,3.0198319,0.0,140,18,431.3695144215255,1268.79227,mp-22423,BaLa2CoS5,https://materialsproject.org/materials/mp-22423,15.966680380192114,-16.789113463985707,4.248969264555018,-0.6533371485271092
-6.318532933333333,-265.3783832,4.2782876091926605,-2.7787888711076185,0.0,3.828500000000001,176,42,691.1155322280009,1780.6212,mp-559965,Sr5As3ClO12,https://materialsproject.org/materials/mp-559965,-28.721628401631484,-33.00598416785059,-6.981834425892163,-26.379000314712695
-4.18672391375,-100.48137393,5.493034860539439,-0.591516771059028,1.8775e-05,1.2969000000000004,14,24,587.8927489459326,1944.7392,mp-22665,AgAsPbS3,https://materialsproject.org/materials/mp-22665,4.44560595876856,-7.4143678245409514,-17.14963409100346,-31.65996127266375
-5.97970769,-191.35064608,7.49438900154219,-1.9512168472656244,20.0201644,0.0,38,32,468.39021773923133,2113.9512000000004,mp-1218774,Sr4Fe4Bi5PbO18,https://materialsproject.org/materials/mp-1218774,9.059375302329093,-67.57918887436057,11.73432865003447,-47.574756400532856
-6.079522418043479,-279.65803123,4.617911049225591,-2.4507911646428586,0.0,3.8508,14,46,656.3219087120407,1825.2122480000005,mp-1194862,Sr2Zn3Te2(PO7)2,https://materialsproject.org/materials/mp-1194862,-7.848828977641548,-43.28778228874766,-1.437629024325198,-27.210456060445185
-8.2330697103125,-263.45823073,5.750564783639662,-3.3095078896679704,0.21603385,0.0,11,32,497.963900557704,1724.4844,mp-18647,Nd3Ti3(SeO4)2,https://materialsproject.org/materials/mp-18647,13.630948116081456,-17.966179005758104,16.429011916062347,1.7011195237980108
-6.4938971075,-207.80470744,7.286734580677936,-2.5059821229687493,0.0151974,0.0,38,32,468.8620036895754,2057.44815,mp-1228600,Ba3La5Tl2(Cu2O9)2,https://materialsproject.org/materials/mp-1228600,8.937140648863359,-66.33437360026886,11.222724131627148,-47.92060820810186
-9.032997353999999,-90.32997354,5.3595349825487215,-1.1037271229279997,6.35e-05,1.2207999999999997,11,10,171.56193188918076,553.73114,mp-989534,LaMoN3,https://materialsproject.org/materials/mp-989534,-32.189006929709095,-54.2424326505166,-24.369989563664433,-31.888198320475713
-4.90659558875,-78.50552942,6.101721963635902,-0.9783639770312504,0.0,2.127,215,16,466.64557195584007,1714.7091799999996,mp-1217833,TaTl6VS8,https://materialsproject.org/materials/mp-1217833,-1.026125456774466,-24.30215255110601,5.5063054947657335,-51.51705168029147
-7.884828614375,-504.62903132,5.266848650900745,-3.224448039589845,3.9995256,0.0015999999999998238,141,64,1040.2086962305182,3299.303200000001,mp-561726,Ce4Si2S3O7,https://materialsproject.org/materials/mp-561726,-21.028699579696323,-33.74985128683712,-9.00291527806375,-19.22807784673794
-8.533192871666666,-51.19915723,8.652383911519077,-3.4996136726041662,0.0,1.114,129,6,107.51281376010469,560.20492,mp-8136,ThSO,https://materialsproject.org/materials/mp-8136,-2.031349498317248,-57.646939903369216,5.771452282040262,-9.307391228101922
-6.360148652777778,-114.48267575,5.118708703496548,-0.961541016057778,0.0012474,0.20639999999999992,2,18,425.7997398571781,1312.5526,mp-1245490,Ba4VN4,https://materialsproject.org/materials/mp-1245490,-1.0084318066430484,-27.377392654921373,-3.5301551409256167,-30.361023051269022
-8.0609908128125,-257.95170601,6.055542682197562,-3.384609270859375,2.044289625,0.0021000000000004353,62,32,584.0583177261807,2129.9048000000007,mp-510277,Ce3S2O3,https://materialsproject.org/materials/mp-510277,0.4198020492847933,-58.2833535599308,-5.962360696309079,-23.431612409566664
-6.647923159642858,-186.14184847,5.945181091706486,-0.516091143690476,0.0008230000000000001,0.0,15,28,382.696085080425,1370.156,mp-567415,Nd2B5,https://materialsproject.org/materials/mp-567415,8.524817736046785,-59.21883845302603,-1.4097161429182867,-33.280377677223505
-6.60011999,-39.60071994,4.900236635451411,-0.8628143329166656,9.000000000000001e-07,0.0,12,6,154.40303233754798,455.64204000000007,mp-23062,YCI,https://materialsproject.org/materials/mp-23062,25.967169019599748,-20.114821413066164,8.126936623788652,0.19371903496307472
-5.995695991428571,-41.96987194,5.680285971234338,-0.7336984810714274,0.06563580000000001,0.0,44,7,163.609325627983,559.6663100000002,mp-1223188,La3Si3Ni,https://materialsproject.org/materials/mp-1223188,33.1076959920087,-39.04847974163176,12.012763808571055,-18.874495750510647
-6.9071917845833335,-165.77260283,5.767372332073952,-1.9793816857812512,6.9959603,0.04330000000000034,62,24,521.2640572158703,1810.4506,mp-1191152,PrEuCuS3,https://materialsproject.org/materials/mp-1191152,14.325190665769476,-18.30054707171465,16.046003824214715,0.9970808880379876
-5.9188469425,-47.35077554,5.409187187885019,-0.7428925937499997,3.5e-07,0.0,62,8,205.05485602977672,667.96388,mp-1860,LaSi,https://materialsproject.org/materials/mp-1860,32.725649073327624,-39.490879449309396,12.36683751690533,-18.86092287749209
-6.0437748425,-169.22569559,5.4429128609706465,-1.9321039063775507,0.967465025,0.010299999999999976,15,28,442.8589854627065,1451.602648,mp-541201,TlCuPO4,https://materialsproject.org/materials/mp-541201,-32.696261526830035,-30.375698130410925,-13.940845700901404,-27.20457563481091
-5.667249234615384,-73.67424005,7.2097161117766655,-2.074828909903846,0.6391956,0.0,123,13,197.74638716944187,858.5738,mp-1214587,Ba2NdCu2HgO7,https://materialsproject.org/materials/mp-1214587,9.052788779192273,-65.98869221782016,11.133939523168678,-47.87875650585833
-5.9649224295000005,-238.59689718,4.0325364931749865,-0.6486640812857146,4.08125e-05,0.0,61,40,856.2242624074294,2079.298048,mp-1232371,LaSiP3,https://materialsproject.org/materials/mp-1232371,9.225311843041736,-17.049443615701325,3.479034335117591,-0.06984813822723529
-6.8828822416666675,-41.29729345,5.504823972744439,-3.4615663673366672,2.2e-06,4.698500000000001,129,6,116.05143937131342,384.7201,mp-27984,PrClO,https://materialsproject.org/materials/mp-27984,0.6247497384140229,-51.37649821366393,3.9349529814698174,-38.28708221385728
-9.125198312,-45.62599156,8.945030548005278,-2.287364181764501,0.0,1.4425,164,5,97.30308228478366,524.15452,mp-7769,Th2SN2,https://materialsproject.org/materials/mp-7769,4.009831121420908,-6.059777728831068,-13.777405125153091,-66.15658815526402
-6.92224066,-62.30016594,7.083274108500594,-3.200366277083333,5.94e-05,2.2326,123,9,107.47902779634491,458.46764,mp-1184645,Ho2Mg2O5,https://materialsproject.org/materials/mp-1184645,35.719445623652575,-77.52771714443504,66.20570312185241,-36.47727426642215
-8.93772758984375,-572.01456575,6.4031756287890484,-3.51463890329427,0.0,2.19,15,64,862.6516134152362,3326.4558399999996,mp-1228489,Ba3Ta4Ti4O21,https://materialsproject.org/materials/mp-1228489,-33.92968626710657,-56.42096459431771,-5.871915744565498,-54.539747187383526
-6.6456484340625,-212.66074989,4.08316356157909,-0.8529982149475002,3.00000045,0.0,18,32,572.3065201150895,1407.2666000000004,mp-569547,Sr6FeC2N7,https://materialsproject.org/materials/mp-569547,18.778866787441387,-43.33453187933629,16.638824830682616,-28.323342460140317
-8.953996780333334,-268.61990341,7.835152985749082,-3.238048231208334,0.05508905,0.0,18,30,438.99634257055686,2071.37768,mp-1219245,Sm2Ta3(SO4)2,https://materialsproject.org/materials/mp-1219245,-30.40372566086481,-55.46116745079723,-12.454071967705731,-52.972033016456855
-6.352907158076923,-165.17558611,5.1046960789619495,-2.197947625096155,0.054480600000000004,0.0,186,26,528.9765402839213,1626.1373,mvc-1155,BaYSn4O7,https://materialsproject.org/materials/mvc-1155,6.357781475712201,-67.4097846308047,2.8010889548450906,-35.946449216836456
-8.0189480403125,-513.21267458,5.920966652855368,-0.2774236934375001,9.000000000000001e-07,0.3475000000000001,148,64,1070.7420790123147,3817.93381,mp-1195612,La11(MnC6)3,https://materialsproject.org/materials/mp-1195612,10.021287104469732,-59.701373880744974,-0.4596223206691925,-32.895350736544145
-7.454073688333334,-313.07109491,5.7760697215431245,-3.1203878115952386,0.0,3.6504,143,42,616.0775643512882,2142.98301928,mp-1221029,NaPr9(Ge3O13)2,https://materialsproject.org/materials/mp-1221029,-28.771718143180323,-54.836982171272275,-10.49598655996621,-33.666719815979015
-8.521809025833333,-511.30854155,5.385695679778794,-3.1262917473750007,0.0,0.3587999999999996,58,60,923.3134539032784,2994.62112,mp-1211629,La2Nb3(SO4)2,https://materialsproject.org/materials/mp-1211629,-31.463364112567056,-56.96328997446138,-19.1379833464706,-57.66102842644153
-6.802559620416668,-163.26143089,5.3740670993058695,-2.03486271514875,0.0016637,0.6945999999999994,12,24,544.8096603808716,1763.1886999999995,mp-1219905,Pr5S2N3Cl2,https://materialsproject.org/materials/mp-1219905,10.487499750736767,-6.517606910001391,-5.719752572786952,-23.49765891745907
-5.2431918556521735,-241.18682536,4.012140546619872,-0.5782004971217387,3.56042835,0.0,136,46,1034.0069331455588,2498.3340000000007,mp-1245458,Sr11(GeN5)2,https://materialsproject.org/materials/mp-1245458,3.701597964882758,-33.33764643735227,0.546178395428838,-34.64746572442835
-5.227689094166666,-62.73226913,5.664208028594376,-1.9420334214756945,0.0,1.0,12,12,298.2347576221952,1017.2984,mp-559025,BaErAgS3,https://materialsproject.org/materials/mp-559025,3.5662593477487654,-4.695294931015128,-6.4005150419274806,-22.886201681784115
-6.675160299,-133.50320598,5.339059164500497,-2.0521008684419995,14.0000014,0.08420000000000005,6,20,316.86739067816563,1018.8099800000001,mp-1228618,Ba3Mn4PtO12,https://materialsproject.org/materials/mp-1228618,-24.408781724665843,-43.146040597709906,-14.601477696069848,-30.67797787220811
-7.378930615357143,-206.61005723,6.116690820017418,-3.1187033483035718,7.9999999000000015,0.9457000000000004,8,28,369.4368115042543,1360.84169,mp-756753,Li3La7(FeO8)2,https://materialsproject.org/materials/mp-756753,16.653131257743073,-69.68395599460972,-2.28940017961683,-19.810404452392547
-5.658811189634147,-928.0450351,5.166411010026515,-2.2995923663404114,0.0,3.1077000000000004,140,164,3580.885797491626,11141.158000000001,mp-1195449,Rb7Nd11Te12(Br4O9)4,https://materialsproject.org/materials/mp-1195449,-13.553765265514025,-59.379013611400254,18.38430184928233,-71.6294684634393
-7.858877047254902,-400.80272941,5.257261259306775,-1.4362667475181696,0.0005442,0.0,174,51,721.737909526532,2285.0199,mp-695553,Ba4Nd7Si12BN27,https://materialsproject.org/materials/mp-695553,-24.786475016152238,-30.26716977376025,6.596754769841483,-1.2238028018153568
-8.203385456666666,-49.22031274,9.357638284666551,-3.1614459657812497,0.0,0.7690000000000001,129,6,116.0532244980203,653.99492,mp-7950,ThSeO,https://materialsproject.org/materials/mp-7950,23.73653361230333,-40.39848368729082,14.568512642037366,-16.800814985728184
-7.940702632329546,-1397.56366329,7.1445156891049075,-3.0187517012500007,0.0,3.1278,62,176,2544.511514907017,10947.832,mp-532050,Nd4(WO5)3,https://materialsproject.org/materials/mp-532050,-29.38941495695897,-57.5937367263915,-21.11145980332393,-56.02042325026261
-7.961561728846153,-207.00060495,6.813196770284308,-2.6845952690215378,18.00006925,0.0,176,26,410.47368803168894,1684.1748,mp-1213105,Eu3W(ClO2)3,https://materialsproject.org/materials/mp-1213105,-1.7318602913553882,-60.027689194488104,-0.7941041599867692,-49.60953405651714
-7.373512549565217,-169.59078864,4.532180675865758,-2.8914316901086963,15.0000003,2.4002,150,23,349.01621566652466,952.58498,mp-31758,Ba3NbFe3(SiO7)2,https://materialsproject.org/materials/mp-31758,-30.91466819185803,-31.754031803483247,-8.824000492844918,-25.90559561085805
-7.696404618888887,-1108.28226512,5.3660498985375655,-2.6416944730138883,2.78450405,0.0,1,144,2079.3566031216,6719.46339136,mp-1099857,K5Na3Ta4Nb4O20,https://materialsproject.org/materials/mp-1099857,-31.459725620632447,-74.51197485489958,-22.340506088892155,-24.228844252298927
-6.322706846086956,-1163.37805968,6.836023646447067,-2.312733416333478,8.004845225,0.0,33,184,2923.2185354885414,12034.159119999998,mp-1205023,Sr4Mn2Bi4O13,https://materialsproject.org/materials/mp-1205023,6.488235266074186,-67.11599187467816,-11.767147725487142,-54.20261523450559
-6.407277427391303,-147.36738083,6.051688566021785,-2.2895792602898557,1.3577417999999999,0.0,139,23,346.5876981390561,1263.1084,mvc-16276,Ba2Ti4Tl2Zn3O12,https://materialsproject.org/materials/mvc-16276,9.098963274980381,-63.879696657633346,10.125646016469764,-45.48773891279329
-6.263097375,-275.57628450000004,4.263984006562455,-2.099403054204545,2.9999999,2.5917,14,44,636.166723313304,1633.56878,mp-18086,SrCoAs2O7,https://materialsproject.org/materials/mp-18086,-30.53252393516325,-29.487524962817172,-30.699204391350985,9.52473641629875
-4.69685745625,-37.57485965,5.821252071125707,-0.9421415820312502,1.5e-06,1.9756,217,8,226.02189649626723,792.3514,mp-5513,Tl3VS4,https://materialsproject.org/materials/mp-5513,-1.0450314123184998,-24.30396715799493,5.2689446375158235,-51.46242314872987
-6.664872004545455,-146.6271841,4.899367567480377,-1.4747145710548482,0.0,2.8065,64,22,435.8333423263099,1285.9124,mp-553990,Ba4B2N4O,https://materialsproject.org/materials/mp-553990,9.876313633233831,-59.707231563048495,-17.79311459591357,-60.66738926597175
-6.8921422933333325,-41.35285376,5.724751652449782,-3.4770217131700014,0.0003009,4.766400000000001,129,6,113.52743693966784,391.3888,mp-23058,NdClO,https://materialsproject.org/materials/mp-23058,0.6614002994614627,-51.45185308999631,3.9529690767887713,-38.30682734342042
-6.909615649230768,-89.82500344,3.715037339940283,-2.9020534018681317,1.0000004,0.2246999999999999,12,13,191.63220140953644,428.728724,mp-10950,Sr2Cu(PO4)2,https://materialsproject.org/materials/mp-10950,-23.823750290507906,-30.327365817621256,2.178133767061856,1.2914774472543569
-7.1578641625,-143.15728325,5.808045847539555,-0.6281782418333336,7.5e-08,0.0,127,20,209.69286150066083,733.44,mp-1974,CeB4,https://materialsproject.org/materials/mp-1974,8.060691739823657,-59.50616664810614,4.4238015836260995,-48.846160186625525
-9.322712623611109,-335.61765445,6.0114974649339326,-3.1682501915005545,34.999999,0.2458,20,36,536.8202484999823,1943.4012,mp-1202692,Eu5B3ClO9,https://materialsproject.org/materials/mp-1202692,-17.882660675259796,-32.927587601681275,-18.42566329492411,-34.07622332747673
-3.842926083333333,-23.0575565,7.213364486001872,-1.835450917293333,4.6e-06,4.0867,129,6,96.45554178269958,419.00188,mp-1070852,YbHCl,https://materialsproject.org/materials/mp-1070852,4.62647657103705,-62.03325528536922,3.7745029547987854,-51.10277230343057
-5.33484489826087,-122.70143266,6.6990641315172,-1.5945895978260864,15.734202499999999,0.0,139,23,321.00482837285324,1295.0204,mvc-139,Ba2Tl2Zn3(FeO3)4,https://materialsproject.org/materials/mvc-139,9.521481257602833,-63.88246554062586,10.244455248638001,-46.018142931824684
-6.8245208069230765,-88.71877049,5.479074799698294,-2.2864527097115377,16.999999399999997,0.0,216,13,193.24698560700585,637.6331200000002,mp-1214409,BaHoFe4O7,https://materialsproject.org/materials/mp-1214409,-3.1700033395243166,-44.676202672240265,8.413857176608307,-39.288273823291135