energy_per_atom,energy,density,formation_energy_per_atom,total_magnetization,band_gap,sgr,num_sites,cell_volume,weight,mp_id,formula,URL,tsne_cry_0,tsne_cry_1,tsne_xrd_0,tsne_xrd_1
-8.0389597565,-160.77919513,4.838950410491229,-3.3619998304166683,0.0,2.1347,189,20,263.95833961716664,769.1967999999998,mp-11772,Ba3Ti3(BO6)2,https://materialsproject.org/materials/mp-11772,-21.680724616536164,-27.079138215374268,11.707915623469095,-18.609798181724752
-7.14060405125,-342.74899446,4.48575304182983,-2.6247885619166667,0.0006101,3.5981,60,48,772.157626156085,2085.894,mp-1211686,KDy(MoO4)2,https://materialsproject.org/materials/mp-1211686,-50.68244164116753,-53.4993952400581,-24.139646510257887,-56.606705337019136
-3.5195398383333334,-21.11723903,2.852130696287775,-1.3898986198024428,0.0,2.7465,129,6,144.93978458012216,248.9476,mp-8751,RbLiS,https://materialsproject.org/materials/mp-8751,5.143569577884087,-28.078431569375976,-1.153086306322314,-37.031388478944095
-7.99091557075,-319.63662283,6.461796577209242,-2.6658970729375016,0.00021185,2.2499,51,40,617.3728608650376,2402.43544,mp-1173546,Nb4Pb3O13,https://materialsproject.org/materials/mp-1173546,-19.05070664643589,-76.19170295649275,-2.110264598407986,-76.35721061707324
-7.089185085,-113.42696136,7.341179217158904,-3.0783252063020834,2.00000015,0.0,15,16,214.40765617988444,947.888,mp-1101168,Yb2TiO5,https://materialsproject.org/materials/mp-1101168,-9.2077685767092,-53.94890895022654,-3.459712366096736,-45.80591953949993
-5.068738922142857,-70.96234491,5.210445197759881,-2.2196707049815267,0.0,2.1913,12,14,389.85543697972616,1223.2897514,mp-753923,Cs3HoO3,https://materialsproject.org/materials/mp-753923,-5.434485173921057,-27.11287695880659,-25.77033971170886,-49.821289236561356
-7.389487722999999,-295.57950892,4.400414710194841,-3.3836564432500014,2.475e-06,4.6059,14,40,644.2607294857202,1707.2856,mp-776076,BaSiO3,https://materialsproject.org/materials/mp-776076,-26.374933868822364,-25.716635863520807,-20.250880814330174,-12.521611745747736
-5.400377081666666,-97.20678747,3.7108805201388315,-3.759140526482988,0.0,6.837000000000001,74,18,266.8604012772689,596.3648194,mp-1225922,CsMgAlF6,https://materialsproject.org/materials/mp-1225922,-58.6078530562402,-59.64371047880066,-14.454038541621985,12.074422992352236
-7.106728632708332,-341.12297437,5.402556826689854,-2.4686550717916678,4.135e-05,1.1534999999999995,9,48,659.1404440661472,2144.51068,mp-699660,KHo2Cu(MoO4)4,https://materialsproject.org/materials/mp-699660,-50.979986428937224,-53.9090974506066,-23.626909432337637,-59.791594684311676
-3.0256876325,-36.30825159,4.707989989145041,-0.639863810833333,1.8000000000000001e-06,2.3788,62,12,459.25002297995854,1302.0738800000001,mp-1208879,SnIBr,https://materialsproject.org/materials/mp-1208879,19.24086254289753,-10.02541921618767,8.105914816045113,6.799496523685707
-5.281750245,-147.88900686,5.358174148630051,-1.4018462035714288,0.0,0.4310000000000001,62,28,914.3995926185852,2950.555296,mp-17501,Ba(ScTe2)2,https://materialsproject.org/materials/mp-17501,-0.4751513064160177,-26.74733747590467,-6.030133821391082,-25.87008825815689
-5.251190312083334,-126.02856749,5.392094047153554,-2.001665862604167,0.0,2.0283999999999995,61,24,747.0114265927236,2425.69176,mp-1209894,NdSI,https://materialsproject.org/materials/mp-1209894,18.066435448484174,-15.164361138497704,3.6041144662535913,0.6563631276068733
-9.687932658928572,-271.26211445,6.1575690329545125,-1.7968966358614296,21.089925375,0.0,214,28,636.5608212453322,2360.4788,mp-28133,Gd3CCl3,https://materialsproject.org/materials/mp-28133,19.301599428951885,-42.61667432521444,0.9024198815591892,-35.84608982078185
-3.45268793,-27.62150344,7.043525786605017,-0.5370040770312503,0.0,0.7359999999999998,140,8,222.9744846470594,945.7932,mp-322,TlS,https://materialsproject.org/materials/mp-322,10.187981571656,-26.42967715676529,4.3626692407487,-37.51302463921796
-5.686804887,-398.07634209,5.04366449913354,-1.962425616366072,0.0,1.7401,146,70,1563.999960451918,4750.440000000001,mp-1219403,Sm9Ga5S21,https://materialsproject.org/materials/mp-1219403,12.23932968798713,-13.680226396803969,1.1804740047486757,-4.292075581216444
-7.1211854535,-142.42370907,6.0604656094087375,-3.003595357875,0.0,2.4108,14,20,417.40376916173926,1523.3976,mp-8993,Sm2S2O,https://materialsproject.org/materials/mp-8993,11.704139902105775,-4.257642218620019,-7.07917734302727,-20.17994668381089
-7.2927062847916675,-1050.14970501,4.3991719989340785,-2.4733790536388884,3.932234525,0.0,1,144,2141.9451272827614,5674.53387136,mp-1076894,K5Na3Nb7WO20,https://materialsproject.org/materials/mp-1076894,-30.843146509811522,-74.75539436953562,-22.01803189371799,-24.1546240720081
-7.559757692000001,-75.59757692,5.973997332016287,-2.2678824429687494,6.99925685,0.02519999999999989,11,10,155.05905894550042,557.8444,mp-755177,EuSeO3,https://materialsproject.org/materials/mp-755177,8.501937387810832,-32.204648151093664,2.981677002738936,-32.109668600977685
-8.217228392500001,-164.34456785,4.788335446345116,-3.1948226801875013,9.25e-05,0.9932999999999998,139,20,292.1614744969476,842.47772,mp-756435,Sr3Nb4O13,https://materialsproject.org/materials/mp-756435,-29.574279677152084,-69.99154927126429,-2.2174261635286707,-54.987446545415246
-5.7401849019444455,-206.64665647,5.879399348186791,-0.6816575105555552,0.02296605,0.0,62,36,941.6918674163207,3334.208,mp-640791,Nd5Si4,https://materialsproject.org/materials/mp-640791,33.52481180771729,-40.36153950409378,20.52041586935493,-18.37371564810299
-8.482515917999999,-84.82515918,4.412946242686234,-3.008738296875001,0.9999998999999999,0.0,123,10,164.33028100729857,436.71403,mp-1079978,LaNb2O7,https://materialsproject.org/materials/mp-1079978,-29.323397489172105,-68.63740643083214,1.7346062564063087,-52.08515011972519
-5.462123670833333,-262.1819362,4.425329316011891,-1.0541694356249998,5e-08,0.5682999999999998,2,48,1448.8156759119886,3861.087472,mp-504934,Sc2CI3,https://materialsproject.org/materials/mp-504934,9.835681392604227,7.708478034344647,-5.730243859995282,-5.973089023454282
-5.247372135833333,-314.84232815,4.691529327996667,-1.553940624,0.0,0.6061000000000001,2,60,1936.487038337132,5471.1666,mp-571575,Pr5(CBr4)2,https://materialsproject.org/materials/mp-571575,26.708799742411,-6.8566540827647495,6.5639095198845485,7.244971731795823
-7.959781292142857,-668.62162854,5.785601947762673,-3.5621563363124986,4.8700000000000005e-05,3.0656,7,84,1143.9498096338525,3985.7167385600014,mp-686543,NaSm9Si6(SO12)2,https://materialsproject.org/materials/mp-686543,-18.95654810470018,-34.82976253502548,-11.68247569809402,-34.31889695815429
-8.019856272109376,-1026.54160283,4.551197441848879,-3.175884455466056,0.0,2.274,62,128,1902.4393803321268,5214.1967352,mp-581330,CsCa2Nb3O10,https://materialsproject.org/materials/mp-581330,-29.125122317262488,-71.42176861382974,-4.942372990091181,-55.95430330801602
-2.8360980953125,-181.5102781,4.688672221728987,-0.7158392592708331,0.0,1.5437999999999998,205,64,2157.345776327248,6091.448,mp-28988,In7Br9,https://materialsproject.org/materials/mp-28988,13.580575103410261,-29.779610310023703,2.518178771895586,-28.20198734229917
-4.2913637965,-85.82727593,5.352015522281189,-0.612814842531251,3.95e-06,1.4266,2,20,487.29946740086785,1570.5950000000007,mp-1208124,TlCuAs2PbS5,https://materialsproject.org/materials/mp-1208124,-0.3732558443970185,-19.430064161056272,-14.463522994375847,-29.16069726761104
-5.066845128,-202.67380512,3.9769163047291713,-1.1795680824687502,0.0,0.6979,14,40,762.6905670687332,1826.6096,mp-657353,BaZn(SeO3)2,https://materialsproject.org/materials/mp-657353,-30.315387791357022,-30.54857610582978,-25.848706169565503,-7.936062446106512
-4.428338469375,-70.85341551,7.671900344619063,0.12729466955357086,3.5875e-06,0.0,14,16,412.4108107134764,1905.390096,mp-1179841,PPb,https://materialsproject.org/materials/mp-1179841,4.7805511920333235,-5.943313579721951,5.6536279349280285,-1.3638317226505614
-4.884784278,-48.84784278,4.498409016711019,-0.5334989799519996,0.0,0.0,59,10,253.04151550742725,685.4907999999998,mp-1245724,Ba2CaN2,https://materialsproject.org/materials/mp-1245724,-5.41083689040262,-31.22576832769111,-2.8354962224061815,-35.547086819416464
-5.475642920333333,-328.53857522,6.781656974064457,-1.571016393583333,0.0,3.0439000000000003,15,60,1124.7717623690344,4593.5783999999985,mp-543039,TePbO3,https://materialsproject.org/materials/mp-543039,-25.254631192439426,-56.69124859523741,-25.2391886914569,-54.25661974999375
-6.490370558928572,-363.4607513,4.784449681604023,-2.9337257460714286,0.0,3.5660000000000003,33,56,865.9469154711711,2495.0208,mp-557311,Sr2GeO4,https://materialsproject.org/materials/mp-557311,15.489694565387516,-65.55445540926343,16.585310729404846,-29.56826608455317
-5.112120075909091,-112.46664167,6.075558933062212,-1.6473913511363634,0.0444985,0.0,10,22,463.6177841673335,1696.2788,mp-1218644,Sr5CaCu4(BiO2)4,https://materialsproject.org/materials/mp-1218644,31.84911391061558,-26.454186161992656,7.875668032465831,-2.515553624236865
-6.218509794166668,-74.62211753,4.714546586706348,-0.4450819991666665,7.00269215,0.0,62,12,287.907750201486,817.418,mp-1102652,EuMgSi,https://materialsproject.org/materials/mp-1102652,30.62814983326781,-38.47815529547049,19.38384724825604,5.018582699869762
-9.105180669111109,-409.73313011,7.726020853818986,-3.3655940887222227,3.0001252,2.3421000000000003,44,45,622.7976056529707,2897.701995,mp-1228585,Ba4Ta10CoO30,https://materialsproject.org/materials/mp-1228585,-32.61292803713163,-67.40548561550581,-4.934002565067421,-56.587485056701105
-5.633102183333333,-33.7986131,7.818996747714058,-0.4951068849999996,2.495e-05,0.0,129,6,109.14687936225876,513.941,mp-1072082,YbFeSi,https://materialsproject.org/materials/mp-1072082,41.57607585285177,-6.538461690982822,26.32880466969131,15.726887268556448
-6.779216545,-40.67529927,6.339211585928376,-0.5562733816666661,0.0,0.0,129,6,117.79147002606274,449.6763,mp-1018895,PrFeSi,https://materialsproject.org/materials/mp-1018895,41.77315159738645,-5.9120410529747955,25.884710754252573,16.08045993573981
-3.4220849666666666,-20.5325098,3.6490453296092062,-1.1683880678733332,0.0,3.5468,129,6,152.891843730799,335.98082,mp-24204,CaHI,https://materialsproject.org/materials/mp-24204,0.5636389110936033,-24.832313178620645,-24.98475883074646,6.014367056291156
-5.969825047333332,-89.54737571,6.53673788164659,-2.058950258666667,0.0,0.0,65,15,208.13665623462512,819.3332,mp-6691,Ba2Dy(CuO2)4,https://materialsproject.org/materials/mp-6691,24.071987495978107,-77.65750301179068,42.70461526108517,-48.285971879929285
-5.741931950555557,-206.70955022,6.367675570698185,-0.7104859286111113,0.558802775,0.0,62,36,901.3911033450123,3456.5679999999998,mp-567800,Sm5Si4,https://materialsproject.org/materials/mp-567800,33.590257184317764,-40.47330582064948,20.754494585673914,-18.493945465307824
-4.444706512727274,-48.89177164,4.0198963262009,-1.2074553513636366,0.18214249999999998,0.0,139,11,282.4164549505608,683.6845400000001,mp-549580,Sr2Cu3(IO2)2,https://materialsproject.org/materials/mp-549580,-0.8381234900487174,-11.825706956981554,-17.342164904761106,-9.470320311576891
-6.36231772,-877.99984536,5.925944135951482,-1.8440987070652184,9.0,2.3993,3,138,2104.764314009424,7511.24511,mp-1198906,V2Co3TePb3O14,https://materialsproject.org/materials/mp-1198906,-23.74708341986773,-44.95029460478293,-18.374268168382645,-42.315375353036636
-5.761041891805554,-414.79501621,4.4031749569294405,-1.9752598745761103,1.5e-06,2.3039,14,72,1010.5558940375593,2679.64456,mp-758313,BaZn2As3HO11,https://materialsproject.org/materials/mp-758313,-30.84743167357609,-29.44143329395113,-32.505407705783874,10.330590213792773
-6.345708209583332,-152.29699703,4.471093599620321,-2.25831446357639,0.0093254,0.0,46,24,343.3131033312147,924.3896,mvc-269,Sr2TiCu2O7,https://materialsproject.org/materials/mvc-269,-6.3124671156981025,-45.181527749951314,9.748527102463754,-35.815443693535435
-7.281996120588236,-123.79393405,5.786490776053277,-2.9037597454235295,0.00035039999999999995,0.07350000000000012,44,17,258.30210372045366,900.1069560000002,mp-1220840,Nb3Pb2O7F5,https://materialsproject.org/materials/mp-1220840,-58.32544905073657,-43.97097873312779,-18.31542147177364,-66.52864281036967
-7.701983197435897,-300.3773447,6.3332269721427075,-3.279040875897436,0.0,3.3964,143,39,570.9691400234284,2177.6525999999994,mp-1226117,Er2Si2PbO8,https://materialsproject.org/materials/mp-1226117,-26.17664118275943,-44.902761407794095,-12.255031518874764,-34.6882548997112
-2.8377626775,-11.35105071,6.997171658704527,-0.08647273000000011,9.95e-06,0.0,59,4,110.72459932581852,466.5708,mp-1185694,MgBi,https://materialsproject.org/materials/mp-1185694,1.6429696297243528,-50.868707348244456,0.5349537541926893,-36.910752655576296
-4.5956928781818185,-101.10524332,5.049402846986579,-1.0617364857954543,2.00932525,0.0,81,22,409.1637710322007,1244.1939999999995,mp-542807,Cu2Te2Br2O5,https://materialsproject.org/materials/mp-542807,-40.389443065906036,-43.409593669146005,-17.54080078171289,19.53633853659684
-7.913613258913043,-364.02620991,4.888240482201065,-3.316402870562825,0.13021580000000002,3.3788,1,46,556.0070542852967,1636.7553702000002,mp-42036,Nd6Al7Si5N3O25,https://materialsproject.org/materials/mp-42036,-22.28543179072071,-35.93736818054869,-17.588960125588446,-33.01857801720419
-4.45819652375,-35.66557219,6.241578114034213,-1.2145871836979172,0.0,1.1665,121,8,216.6520991338139,814.3445999999999,mp-1225567,DyTl2InS4,https://materialsproject.org/materials/mp-1225567,10.223064033890157,-26.403308557513398,4.376098843984009,-37.4818158767473
-7.0716099775,-678.87455784,5.504951875568583,-2.30988405125,0.0,1.4123,61,96,1328.8776960442515,4405.441599999999,mp-1213667,ErCu(MoO4)2,https://materialsproject.org/materials/mp-1213667,-31.14135276787261,-53.62566628494507,-12.768975797149512,-50.7095138814007
-5.8359807645,-116.71961529,5.033606353859705,-2.2040707114166667,4e-07,0.5964,11,20,267.72634989939235,811.5612,mvc-3976,Ca2AgSbO6,https://materialsproject.org/materials/mvc-3976,-31.39320245332915,-76.91654387946373,-3.75490594292384,-45.03426646554401
-6.108224055625,-97.73158489,7.874911045297389,-0.8136599524999992,3.49625595,0.0,141,16,282.03723350437684,1337.5284,mp-1208055,TlTcO2,https://materialsproject.org/materials/mp-1208055,23.695113041214647,-42.272023108677224,22.929850017657447,-35.460925759532884
-8.30273584,-232.47660352,5.161651929283594,-3.0981899965952384,5.999987975,0.0,57,28,369.08579354337064,1147.2734771199996,mp-21307,NaEuTiO4,https://materialsproject.org/materials/mp-21307,12.46160222536298,-64.02422441847533,11.678932036613665,-43.96186916010023
-4.6436994233333335,-139.31098269999998,6.23021104073117,-1.9535131577708345,1.9e-06,0.0,11,30,707.2777141396574,2653.65,mp-16789,Yb2S3,https://materialsproject.org/materials/mp-16789,6.512327022940625,-6.724339566940443,-4.32991720622872,-12.80039196851495
-6.3190946125,-151.6582707,5.556052988931535,-1.7889072820684528,8.61375e-05,0.4514000000000005,62,24,510.22835972889237,1707.190096,mp-1191565,SmPS,https://materialsproject.org/materials/mp-1191565,16.179614300270917,-7.301187760214844,3.6922494852141687,-8.045210849939602
-7.143265846499999,-142.86531693,4.341714468214345,-0.7015045838389995,0.0,0.8073999999999999,176,20,419.91712592766345,1097.93279,mp-861914,Ba3Co(CN)3,https://materialsproject.org/materials/mp-861914,-27.072954937046696,-18.870744763441184,-14.658517647448086,-25.595388401862017
-3.47645562984375,-222.49316031,6.5012798057669805,-0.5607717768750002,3.125e-09,0.8102,92,64,1932.5752212336868,7566.3456,mp-561066,TlS,https://materialsproject.org/materials/mp-561066,-1.3472058281721837,-22.07188398645637,-8.281063225881223,-18.313835420120448
-8.50785631109756,-697.64421751,4.507201074294105,-3.5211838598983745,1.965e-05,2.2143,12,82,1099.2369405697077,2983.6588,mp-774530,Ba4Ti11O26,https://materialsproject.org/materials/mp-774530,-11.314367478826265,-20.543027055272507,-6.712881183396559,0.4952240506274204
-5.68928672,-182.05717504,4.496860900014483,-1.9348281651171868,0.0,3.3733000000000004,14,32,554.2598051220599,1500.976,mp-28536,BaSe2O5,https://materialsproject.org/materials/mp-28536,-30.141007587403735,-26.29391137093607,-21.69212105428119,-12.952111523430927
-7.662339030416668,-183.89613673,3.840242779496364,-3.580617914687501,0.0,4.1804999999999986,35,24,319.5179021490808,738.9325316000001,mp-1217784,SrYAl3O7,https://materialsproject.org/materials/mp-1217784,-22.29198839776259,-34.467049124123946,4.7022531336088464,-21.539733996656366
-4.183289138055557,-150.59840897,6.55643286569847,-0.5738836800462974,0.00013945,0.6803000000000008,62,36,789.5910173170346,3117.6024,mp-1225935,Cu2AgBiPbS4,https://materialsproject.org/materials/mp-1225935,6.29818670515106,-6.716206477793648,-1.4685000991002048,-9.715599359403184
-6.8965109700000005,-96.55115358,7.116756392978901,-3.030434644285714,0.0,2.2372,12,14,253.11360995792117,1084.79708,mp-779287,La2HgO4,https://materialsproject.org/materials/mp-779287,-5.05850502893111,-63.765524255223475,-10.407284380008054,-54.43157030391078
-7.764158286428571,-217.39643202,5.0656499718678925,-3.3885194938809513,1.05e-05,2.3327,57,28,395.0991022867815,1205.2916,mp-1211326,KSmTiO4,https://materialsproject.org/materials/mp-1211326,12.553408727287348,-64.0360498684587,15.127950974451046,-42.66557482863829
-7.2389654656097555,-296.79758409,7.6413004471445145,-2.279113414359756,0.0,0.7506000000000004,6,41,658.3271603990776,3029.42328,mp-1173083,Nb6(Pb2O5)5,https://materialsproject.org/materials/mp-1173083,-22.957048464162693,-63.289658378698455,-3.0016692378709804,-76.70240550487462
-9.328278404,-46.64139202,8.573629718307899,-0.7745468209279991,9.000000000000001e-07,0.0,1,5,61.42225191051296,317.13295,mp-998367,YReN3,https://materialsproject.org/materials/mp-998367,4.552893490434092,-74.58476237991644,45.377293077823076,-60.09015988273068
-7.31892960074074,-395.22219844,5.840945951412087,-1.6952877212215742,0.0,2.0857,148,54,1110.0188717587616,3904.4913,mp-568883,Pr3SiSe2N3,https://materialsproject.org/materials/mp-568883,28.42622755923329,-19.501150365114512,5.4201155409326836,4.966420626810665
-6.094846291875,-487.58770335,4.543232849914704,-2.0036666539609365,0.0,3.605,14,80,1320.9248398918894,3614.0488,mp-573109,Sm2Se5O13,https://materialsproject.org/materials/mp-573109,-30.606368505511963,-53.367520291058405,-23.802018767289876,-49.72659093827509
-2.768960576875,-44.30336923,5.7377469688465705,-0.521330544375,3.15e-05,1.5778999999999996,140,16,622.9904425142902,2152.6513,mp-1208036,TlSn2I5,https://materialsproject.org/materials/mp-1208036,3.803687560325484,-30.885780428415902,-4.947491922940556,-26.75916330670652
-5.221897554,-26.10948777,5.478023441300963,-0.451212760952,0.9932059999999999,0.0,139,5,111.00931826730499,366.2134,mp-1245897,Ba2CuN2,https://materialsproject.org/materials/mp-1245897,0.22754526510141326,-31.747631726850955,20.46285356642761,-70.94279738731731
-6.930521079285714,-194.05459022,6.49428381834353,-2.3265036699382144,2.5e-07,1.4081,62,28,600.3430073279258,2347.911,mp-18164,Tb3S3N,https://materialsproject.org/materials/mp-18164,12.400568065333534,-3.4180540372600787,-5.031008521198789,-18.28824960894916
-6.482728930520833,-622.34197733,7.037019213727323,-1.8273511642708329,0.0,2.002,198,96,1610.1524214390893,6823.4912,mp-554435,TcBi3O8,https://materialsproject.org/materials/mp-554435,-24.96856945256033,-57.20877619092847,-17.781301904472066,-62.72225309089606
-3.348919860833333,-80.37407666,5.012810384517153,-0.4611384110316668,0.0001776,0.0,167,24,786.1332892875572,2373.1674,mp-16859,Ba6Ga5N,https://materialsproject.org/materials/mp-16859,-1.820784101743924,-30.68632112095634,-2.014342101610614,-33.14778174487565