energy_per_atom,energy,density,formation_energy_per_atom,total_magnetization,band_gap,sgr,num_sites,cell_volume,weight,mp_id,formula,URL,tsne_cry_0,tsne_cry_1,tsne_xrd_0,tsne_xrd_1
-7.0260607120000005,-35.13030356,6.850456817815077,-0.8413359888571434,0.0,0.0,139,5,65.58287593764621,270.558324,mp-10259,Zr(NiP)2,https://materialsproject.org/materials/mp-10259,57.77573881291347,35.499545493680365,64.27936978174965,8.078181177571812
-6.919223801666668,-83.03068562,8.312412776247433,-0.2740487348611123,2.1325307000000002,0.0,35,12,155.9166332610002,780.4956,mp-1219126,SmFe2Ni2B,https://materialsproject.org/materials/mp-1219126,74.03562282536309,26.40714331586609,61.05597279287763,15.910619154374508
-9.2034476125,-36.81379045,9.471203581017836,-0.04797308869000005,0.0022241999999999995,0.0,194,4,39.27515579209629,224.0134,mp-999117,TcN,https://materialsproject.org/materials/mp-999117,32.40914926181353,48.30325393226491,68.12501423036683,9.757931327187423
-6.7988714366666665,-40.79322862,10.174642164370429,-0.30174466000000066,3.1149847999999998,0.0,187,6,85.29949008773896,522.65666,mp-1217342,ThFeNi4,https://materialsproject.org/materials/mp-1217342,75.20889786664452,20.163573698156434,89.81961501652475,-13.199249337707133
-5.960933473076923,-77.49213515,4.563415628348098,-0.3386868092307684,0.0,0.0,139,13,190.85920840752067,524.5103388,mp-10896,Y(MnAl2)4,https://materialsproject.org/materials/mp-10896,41.528225209531634,43.45723736844617,58.35457178486378,-15.922099054270873
-7.7746763075,-62.19741046,7.090050860280129,-0.3681021108333322,0.07610175,0.0,26,8,63.4669113409435,270.98648000000003,mp-1221680,MnCoB2,https://materialsproject.org/materials/mp-1221680,36.454862186094424,55.5380967674498,75.43680691954098,-4.128293085576258
-6.684726960714285,-187.17235490000002,6.554650081870678,-0.9396306662499988,0.0055899999999999995,0.0,227,28,354.91416276559096,1400.9536,mp-21457,Ti3Cu3O,https://materialsproject.org/materials/mp-21457,54.32395797110711,48.002043773032206,76.60179065633919,3.4692665211807125
-6.835037644482759,-198.21609169,6.777751085653671,-0.7035863356896562,0.0,0.0,225,29,348.60715618018617,1422.8949,mp-3337,Ti6Si7Ni16,https://materialsproject.org/materials/mp-3337,46.62912956002946,53.06501721329868,72.28041448887781,-12.774598439824775
-7.028305992222222,-63.25475393,5.9684233345354185,-0.5566012822222217,1.8458555,0.0,189,9,144.76456646902176,520.3227360000002,mp-9549,ScFeGe,https://materialsproject.org/materials/mp-9549,47.16483316276422,45.073871901752966,63.842178936383924,-8.88924132744296
-9.439640988333332,-56.63784593,15.170200875404651,-0.15169457791666593,0.0002369,0.0,216,6,113.83260013713736,1039.94147,mp-1222924,LaCeOs4,https://materialsproject.org/materials/mp-1222924,82.5335114533304,11.442411523913984,61.51098589447348,26.022199168425857
-4.0399760075,-113.11932821,7.706978421013918,-0.11615350714285708,1.5e-07,0.0,140,28,468.3358035622611,2173.664,mp-571034,CaCu9Sn4,https://materialsproject.org/materials/mp-571034,33.68008499878641,30.517288636638142,69.07484995440251,-10.769797167791276
-9.960751296551726,-288.8617876,9.029929746067321,-0.06537898456896536,0.0001536,0.0,225,29,305.9068083652678,1663.5062,mp-1193668,Cr20(WC2)3,https://materialsproject.org/materials/mp-1193668,45.70720875726482,41.947648388937715,65.40535080653291,-9.63857852099552
-10.456531616666666,-62.7391897,12.990788554869221,-0.2896996922222215,4e-07,0.0,69,6,74.28920856259717,581.182,mp-1228637,BMoW,https://materialsproject.org/materials/mp-1228637,59.529941325550006,30.027489532710728,65.81888951993801,13.503925861056745
-6.6812719650000005,-40.08763179,16.115231812356257,-1.1082380650000008,0.0,0.0,227,6,113.89557418033024,1105.336,mp-916,DyPt2,https://materialsproject.org/materials/mp-916,82.24222455640005,11.402848945560882,61.44778432748094,26.22138762910449
-7.046127059166667,-84.55352471,5.3220184571769025,-1.205931098214286,0.0,0.0,62,12,168.01660637636405,538.492296,mp-10240,ScNiP,https://materialsproject.org/materials/mp-10240,48.016972703156426,45.3880498007049,66.86381999077946,-6.598938761994238
-3.8556349733333337,-11.56690492,7.071010759482533,0.04039301046874992,0.0,0.0,216,3,48.38875259965233,206.05200000000002,mp-22297,Cu2Se,https://materialsproject.org/materials/mp-22297,81.88768472888053,37.43360515471657,50.327927656163645,48.83811474621538
-5.033835258333333,-30.20301155,8.305593484550784,-0.2370050412499995,1.59e-05,0.0,191,6,89.35486222305526,446.93027,mp-1222942,LaCu3Ni2,https://materialsproject.org/materials/mp-1222942,77.09956423780729,16.969696818194635,84.99703082471389,-12.857294330483704
-4.852846097857143,-135.87969074,8.989687352901642,-0.690475515714286,7e-07,0.0,63,28,470.6903122778055,2548.18384,mp-1208059,Tm2(Ga3Rh)3,https://materialsproject.org/materials/mp-1208059,69.35521917474834,15.827762758492465,64.8683056529635,5.40054399945329
-8.141514996666666,-24.42454499,12.494275957685845,-0.3375249633333344,0.0,0.0,139,3,39.64986725150443,298.33468,mp-1157,TaNi2,https://materialsproject.org/materials/mp-1157,52.20855974057918,59.14042799653635,81.95615959597563,4.521896255271577
-5.9288462,-23.7153848,5.904564768049465,-0.4952727724999999,0.0077214,0.0,225,4,47.3876216418744,168.50147719999998,mp-867330,Al2FeNi,https://materialsproject.org/materials/mp-867330,45.84997823474421,60.278115920941595,89.76114295039957,-5.4255577645585165
-6.903090793333334,-41.41854476,8.156282708659989,-0.17482128208333356,7.636919099999999,0.0,191,6,88.82971069206528,436.31629000000004,mp-1219013,SmMn2Ni3,https://materialsproject.org/materials/mp-1219013,77.36987179604141,16.856996324727756,85.52804560600471,-12.66223203847414
-9.824790865,-58.94874519,15.782854011831276,-0.4853625183333321,6.26452455,0.012000000000000456,227,6,112.87056438717846,1072.796,mp-995,EuIr2,https://materialsproject.org/materials/mp-995,82.07163422353167,11.531817587129328,61.5495480828725,26.2958927229602
-8.191950376206897,-237.56656091,8.619562387167738,0.02513225758620714,13.3014279,0.0,225,29,431.2563762077829,2238.5750350000003,mp-1192635,Dy6Mn23,https://materialsproject.org/materials/mp-1192635,71.32380162479366,28.40991474078085,62.593691130716216,12.184777250059906
-6.844815767586208,-198.49965726,7.099146882482634,-0.4687965994827593,6.5661334,0.0,225,29,337.13973447197935,1441.3419,mp-636953,V6Si7Ni16,https://materialsproject.org/materials/mp-636953,46.62326931470435,53.0609168674433,72.35820457181185,-12.790777362768946
-9.04622773,-108.55473276,13.306897533193927,-0.26972279535714233,3.365e-05,0.0,194,12,143.61916382214932,1150.906694,mp-1226460,Co3PW2,https://materialsproject.org/materials/mp-1226460,64.78256056216253,47.92551740414298,71.93563347691867,18.205270599434847
-4.268475603214286,-119.51731689,8.52997464105618,-0.14731019017857094,5e-08,0.0,140,28,463.7048614341394,2381.992,mp-607080,NdCu9Sn4,https://materialsproject.org/materials/mp-607080,34.11279787212787,30.25246209239664,69.19642921641574,-10.314002118512391
-7.3764037925,-29.50561517,7.519980887288604,-0.3501196137499996,5.4635086,0.0,225,4,44.56016830601357,201.79689,mp-5436,FeCo2Si,https://materialsproject.org/materials/mp-5436,42.34194936494732,60.196060813080386,91.56267253472816,-8.646835879596514
-8.422010515517242,-244.23830495,7.692614138450012,-0.06724808331896599,47.195046999999995,0.0,160,29,292.03901207536194,1352.9000999999996,mp-1224758,Fe23(BC)3,https://materialsproject.org/materials/mp-1224758,39.787722248331534,54.57526655080478,79.29905507221274,-11.004961197315023
-5.439933499642856,-152.31813799,9.6294007858635,-0.6683430124999999,1.7e-06,0.0,63,28,476.62667490504793,2763.9394,mp-1207736,Y2(Ga3Ir)3,https://materialsproject.org/materials/mp-1207736,44.34790350013676,40.85505397573832,55.019628255012435,-9.433428338899104
-1.8449494852631576,-35.05404022,7.829064884737983,-0.2242031907894734,3e-07,0.0,166,19,305.8076376773613,1441.8136400000005,mp-30713,Ho2Zn17,https://materialsproject.org/materials/mp-30713,70.8604452267539,17.38678971978033,66.44883415825515,4.287847978437613
-8.971887283125,-143.55019653,6.708017608166532,-0.3126150358184514,1.15e-05,0.0,1,16,180.13520967406123,727.6854860000001,mp-1226178,Cr12BP3,https://materialsproject.org/materials/mp-1226178,44.0814134960403,53.48812054613141,77.20344524471068,-12.352903988164776
-8.1791940545,-163.58388109,7.194959516572793,-0.05729031045200088,0.1940685,0.0,59,20,181.94948051396236,788.36999,mp-1247267,Fe5CoN4,https://materialsproject.org/materials/mp-1247267,27.64640646955344,53.33043300646619,70.11613761071101,-0.17481578147131255
-7.2323063677777775,-65.09075731,6.545170625004505,-0.6374147738194446,0.0358385,0.0,87,9,144.75045070711928,570.5474999999999,mp-1087497,V5Se4,https://materialsproject.org/materials/mp-1087497,23.088602709446945,35.825850975144604,64.034432566698,-21.223957381397668
-5.65827922125,-90.53246754,8.519003014809696,-0.3133390943750003,0.0578873,0.0,15,16,199.36090562997632,1022.7739999999999,mp-1428,Ni5Ge3,https://materialsproject.org/materials/mp-1428,42.66090335059279,49.58662229063021,75.53909231969969,-15.082919226306519
-6.183053595,-24.73221438,5.7135627835362826,-1.3753912835416662,0.0,1.4575999999999991,166,4,30.91030320684153,106.3558,mp-1096940,CuBO2,https://materialsproject.org/materials/mp-1096940,28.684182537223833,53.03877444314952,68.73514408326204,-17.969555770902538
-1.672107960357143,-46.81902289,7.311235383655497,0.24484775285714275,0.38391935,0.0,226,28,455.2792085646418,2004.5620000000006,mp-669703,EuZn13,https://materialsproject.org/materials/mp-669703,34.218412510686534,30.080836700008394,69.24179678563128,-10.529125532267663
-6.975624180833332,-334.82996068,7.647983066953009,-0.3956251038690475,8.781192375,0.0,1,48,529.5744174079545,2439.073144,mp-1225419,Fe4Ni5P3,https://materialsproject.org/materials/mp-1225419,43.313971715914285,54.276079262243535,77.35467610975894,-12.92347242187865
-6.602993875,-39.61796325,8.702771104633362,0.4352569683333331,0.09374395,0.0,59,6,107.79503733042135,564.9463900000001,mp-1077563,CoTeMo,https://materialsproject.org/materials/mp-1077563,28.095586341489906,22.0434470148713,51.89378964932489,-4.22761331424054
-5.5345335252380945,-116.22520403,7.650218593758361,-0.17708106666666654,5.598493066666666,0.0,12,21,290.7012863455552,1339.281,mp-540538,Ga4Fe3,https://materialsproject.org/materials/mp-540538,49.76444049365706,48.43984620464457,73.83299925924038,-6.323977123198631
-5.525979327999999,-27.62989664,4.6248729917039695,-0.6440909109999999,0.0,0.0,139,5,76.70493587131546,213.6358,mp-5292,Ca(SiNi)2,https://materialsproject.org/materials/mp-5292,33.69135224480876,45.79383992960244,59.77658113340376,-6.182933288584838
-6.3491054,-25.3964216,15.023166591960877,-0.18091016499999932,4.060678299999999,0.0,123,4,56.32252078840312,509.559,mp-3702,FeCuPt2,https://materialsproject.org/materials/mp-3702,54.54688473344019,41.6578655105714,78.9932299186574,11.334083121263168
-4.019602290357144,-112.54886413,8.757756969364637,-0.12959814249999976,2.5e-07,0.0,140,28,462.5649158439042,2439.588,mp-569691,YbCu9Sn4,https://materialsproject.org/materials/mp-569691,34.1355611804238,30.2510413312563,69.18256615817205,-10.279913930487949
-8.707456266896553,-252.51623174,8.060207703241234,0.20232211034483047,8.6111623,0.0,217,29,345.2003304744809,1675.59226,mp-1194459,BaMn28,https://materialsproject.org/materials/mp-1194459,46.625459287012646,54.104367888193714,78.28852168444739,-9.60048250527155
-1.8191362542105265,-34.56358883,7.9172175001963625,-0.2089040139473685,0.0,0.0,166,19,304.08221940075873,1449.8214200000002,mp-30714,Tm2Zn17,https://materialsproject.org/materials/mp-30714,70.7989155896569,17.357626386523414,66.46178201947691,4.2945987819698415
-6.3586916461538445,-165.32598280000002,7.522537892218952,-0.8496790387362628,3.3299999999999996e-05,0.0,31,26,363.44390754837485,1646.465696,mp-540986,Nd2Ni7P4,https://materialsproject.org/materials/mp-540986,64.78024109138522,9.28929306730498,60.92588197475008,-1.283905526584218
-7.2374388722222225,-130.2738997,10.285024880874078,-0.7518525572222217,2.2934202333333333,0.0,12,18,303.3781503133912,1879.0596,mp-662714,GdAs2Pd3,https://materialsproject.org/materials/mp-662714,68.0125302174569,9.317556672629753,52.726564827794675,8.420927216013263
-9.514251004,-47.57125502,10.814734149113441,-0.3689688724759989,6.26e-05,0.0,221,5,55.61552956026998,362.212,mp-505628,Cr3IrN,https://materialsproject.org/materials/mp-505628,53.49796635580682,58.24245352781556,87.49162250743258,2.080697397589259
-5.130165540714286,-143.64463514,10.901955910910155,-0.6427473221428569,4.995e-05,0.0,63,28,469.7496654813867,3084.0528400000007,mp-1208073,Tm2(Ga3Ir)3,https://materialsproject.org/materials/mp-1208073,62.37333376394171,13.320600965888314,54.756381759057554,-9.361771641536293
-9.47914301875,-75.83314415,14.473420281696331,-0.5076269037499994,0.002836475,0.0,65,8,111.59053611355957,972.6339999999999,mp-1079582,VIr,https://materialsproject.org/materials/mp-1079582,54.46201647341734,41.50629847542165,72.60437093877452,15.312942507142427
-7.280322333333333,-65.522901,8.939617240638244,-0.2289793583333343,3.2636686666666663,0.0,189,9,129.7087783579978,698.295435,mp-20207,MnAsRh,https://materialsproject.org/materials/mp-20207,54.8539062363972,52.85344674333332,80.46957173043936,4.683477815269167
-8.622766741875,-137.96426787,8.830896643255135,-0.3945825049107139,5e-08,0.0,12,16,211.7656102154868,1126.188648,mp-1209867,NiMo2P,https://materialsproject.org/materials/mp-1209867,61.527062500898374,37.35315599051233,74.0545210641568,0.8740390469872619
-7.98244336,-63.85954688,8.593084213799102,-0.2273509574999997,5e-08,0.0,62,8,132.07009272933772,683.4464,mp-9998,MoAs,https://materialsproject.org/materials/mp-9998,35.0503891284367,31.772860553786863,70.7534620144194,-9.118212698413991
-6.4780851450000005,-90.69319203,15.532617389846216,-0.7143974378571433,0.04814385,0.0,148,14,264.5501734149368,2474.592,mp-1104316,CeSbPt5,https://materialsproject.org/materials/mp-1104316,64.28188961709819,15.067842409661367,58.49353514977273,18.059064428497624
-6.23518958,-24.94075832,5.97717016228841,-0.4686816875000002,0.0003077,0.0,225,4,46.878616893866216,168.7412722,mp-862691,Al2FeCo,https://materialsproject.org/materials/mp-862691,45.813807618077576,60.27194995580272,89.79833930531933,-5.477332883383956
-7.751871603333334,-139.53368886,7.070223791227777,0.03252100894222091,0.00023595,0.0,15,18,161.82879753310482,689.0327699999998,mp-1246230,Fe2Co3N4,https://materialsproject.org/materials/mp-1246230,27.798207651706303,52.85091179953905,70.30189218757117,-3.049735507147425
-7.86657541,-94.39890492,7.0974851192768265,-0.6402294273809517,2.996046925,0.0,62,12,135.55267902802456,579.380008,mp-20249,MnCoP,https://materialsproject.org/materials/mp-20249,43.85488909521454,53.384118855076245,75.71796331042276,-10.994224339226356
-6.47744903137931,-187.84602191,8.05314058098069,-0.3668007435632191,1.85e-05,0.0,225,29,287.2666719844267,1393.1614,mp-1193180,Ti2(Ni7B2)3,https://materialsproject.org/materials/mp-1193180,39.29988993144919,53.542538729431236,79.31748366351945,-11.57510449771538
-7.554038955,-30.21615582,8.260079878285588,-0.2966550225000013,0.0,0.0,225,4,46.71065220373646,232.3545,mp-21883,VGaFe2,https://materialsproject.org/materials/mp-21883,79.03678130585787,49.39537331580321,92.04990013742258,-5.4865822900582675
-6.071963277777778,-54.64766949999999,3.3213456119321134,-1.034211780787037,1.07e-05,0.0,123,9,78.88864506611169,157.79000000000005,mp-972793,Si2B2O5,https://materialsproject.org/materials/mp-972793,37.540871629923664,59.562636110706386,69.64845483676254,-24.32111958977057
-8.254930895,-49.52958537,16.665656043399355,-0.8105650016666658,0.0,0.0,227,6,108.99124006139157,1093.868,mp-1358,DyIr2,https://materialsproject.org/materials/mp-1358,80.98985461607116,11.307026849269867,61.515237265034095,27.26741550422423
-9.4781287321875,-303.30011943,14.451302966470113,-0.5066126171874998,0.029962825,0.0,71,32,447.04528923895776,3890.5359999999996,mp-1178808,VIr,https://materialsproject.org/materials/mp-1178808,54.44338390435172,41.51924295964733,72.58493242975916,15.348907530962697
-6.237007435,-49.89605948,9.463631799685876,0.0978376812500006,3.0136962000000005,0.0,194,8,103.70335891617974,591.0191699999998,mp-1183774,Co3Sn,https://materialsproject.org/materials/mp-1183774,54.27565956039302,64.81433808280565,83.14093065557825,5.342793703099544
-6.3810385216666665,-38.28623113,8.191080124740521,-0.2487844483333331,4.2610931,0.0,65,6,86.20169326260441,425.2143186,mp-1225293,DyAlCo4,https://materialsproject.org/materials/mp-1225293,75.17894315866404,20.74134140387636,89.73875047235674,-13.358073815455626
-7.935976232272727,-174.59147711,7.636136465660564,-0.05936701477272844,35.1851658,0.0,166,22,278.8938120841313,1282.518,mp-1190200,Sm2Fe17B3,https://materialsproject.org/materials/mp-1190200,78.06193169401983,34.29828106432888,88.74007794204854,-25.882640525774807
-8.597782451034483,-249.33569108,9.664622018374953,-0.5612348325862072,4.6515606,0.0,225,29,371.3049512077273,2161.0585,mp-640158,Hf6Fe16Si7,https://materialsproject.org/materials/mp-640158,60.48152039046153,45.926045746011134,61.56988032302914,-6.997494273715785
-5.58065562875,-44.64524503,6.669343488555628,-0.5637066362500001,0.0,0.0,65,8,93.22133522321056,374.41161580000005,mp-16514,Al3Ni5,https://materialsproject.org/materials/mp-16514,46.746962851617525,57.36108350459619,74.7683394073696,-18.869894177285346
-6.343958555,-38.06375133,7.639005772526263,-0.1850958695833332,4.2417708,0.0,187,6,88.46267102459566,406.95631860000003,mp-1220149,NdAlCo4,https://materialsproject.org/materials/mp-1220149,74.91676088441976,18.308768715031334,87.30734766500379,-11.426031084502599
-4.006217898333333,-48.07461478,2.589179062505396,0.14543853166666726,1.6100000000000002e-05,0.0,2,12,206.44928227363414,321.904,mp-1100464,MgSi2,https://materialsproject.org/materials/mp-1100464,39.03548445217577,25.142162490542077,60.935353607438685,4.316570641264696
-5.930275946190476,-124.53579487,9.480110325101423,-0.3048197554761912,1.2e-06,0.0,65,21,263.3039520101759,1503.217,mp-864632,Yb4Ni13C4,https://materialsproject.org/materials/mp-864632,56.116168111818546,30.240788598468924,61.154628353533894,8.622892440702268
-8.212533572758622,-238.16347361,8.82091764329614,-0.003319774482758342,13.3664178,0.0,225,29,426.78737332913977,2267.129035,mp-1193393,Er6Mn23,https://materialsproject.org/materials/mp-1193393,71.4351778497605,28.35555252846025,62.67009182513418,12.43848170626285
-6.002535837586208,-174.07353929,6.258043481438242,-0.3871084406896561,3.37e-05,0.0,225,29,308.3752437124965,1162.1682099999996,mp-1214229,Be15(Nb3Ni4)2,https://materialsproject.org/materials/mp-1214229,39.645433682551754,40.85735637614074,61.12991806355085,-12.62475638256265
-1.4361168539285714,-40.21127191,7.457070640521919,-0.14500352642857145,1.715e-05,0.0,226,28,455.7618754804621,2046.714,mp-1194047,YbZn13,https://materialsproject.org/materials/mp-1194047,34.227047624569224,30.06827483390957,69.23736210048489,-10.479619820181211
-5.834689684615384,-75.8509659,4.612205244051923,-0.4276486792307697,5.1811074999999995,0.0,139,13,190.14635836775142,528.1381588,mp-4656,Y(Al2Fe)4,https://materialsproject.org/materials/mp-4656,41.545702833426965,43.49654855011568,58.400950643057655,-15.83279572437907
-3.879704245,-46.55645094,6.671509307653439,0.016323738802083668,5e-08,0.0,8,12,205.1454173211228,824.2080000000001,mp-684525,Cu2Se,https://materialsproject.org/materials/mp-684525,16.547856432355847,24.545458087162523,67.57188523369925,-15.522163472258864
-7.372714596666667,-88.47257516,8.64206116749728,-0.5263021316666668,0.0,0.0141,62,12,174.1008713520164,906.08552,mp-1103243,NbNiAs,https://materialsproject.org/materials/mp-1103243,60.26263271685436,36.694677374177395,72.58822152203152,0.5290150896896365