energy_per_atom,energy,density,formation_energy_per_atom,total_magnetization,band_gap,sgr,num_sites,cell_volume,weight,mp_id,formula,URL,tsne_cry_0,tsne_cry_1,tsne_xrd_0,tsne_xrd_1
-6.814850397916668,-163.55640955,4.684029793978211,-2.6350182997675007,5.00000135,2.2105,113,24,416.10195101491786,1173.73569,mp-1192147,Ba2MnGe2O7,https://materialsproject.org/materials/mp-1192147,-30.321505453026127,-31.65334796680909,-8.55209948339611,-26.205749335012865
-7.571334647857142,-211.99737014,6.377765174620356,-2.8024881240848205,3.00000205,1.3701,176,28,439.8814327436399,1689.4878199999996,mp-866693,La3CrW(SO2)3,https://materialsproject.org/materials/mp-866693,-1.8870423170557336,-60.481209124251386,-0.3464298024555658,-50.60773795381099
-6.130244484285713,-85.82342278,6.688907300749574,-2.1373283022321443,8.400000000000001e-06,0.0,8,14,216.82229815781292,873.3936500000002,mp-1228257,Ba2YCu3PbO7,https://materialsproject.org/materials/mp-1228257,9.24625817210162,-65.69880032541329,41.12137743641082,-50.54762734582553
-5.55604022,-127.78892506,8.761827477826522,-1.314603136956522,4.2508965,0.0,139,23,342.4621994771288,1807.0004,mvc-144,Ba2Tl2Zn3(WO3)4,https://materialsproject.org/materials/mvc-144,8.611838854660425,-66.92983922985275,11.794707870455248,-46.360101568685415
-4.8388818178571436,-67.74434545,5.738084195352747,-1.7620109508928574,8.5e-07,2.1175,11,14,316.580103455022,1093.96,mp-1103823,Yb2GeS4,https://materialsproject.org/materials/mp-1103823,12.560876851180355,-13.682659689887073,-12.049702594224328,-22.171389629535557
-7.213395665769231,-187.54828731,6.0708771214506605,-2.6384388281730784,1.25e-06,0.0,8,26,374.282041386617,1368.36306,mvc-16147,Sr2YTaCu2O7,https://materialsproject.org/materials/mvc-16147,7.608783773553791,-67.91049075684735,-6.637665139086763,0.439011970896989
-6.60341922,-85.84444986,7.845473410308575,-1.7566442047115391,5.064008,0.0,25,13,204.2797666164703,965.1513386,mp-1254671,Ba2AlW3O7,https://materialsproject.org/materials/mp-1254671,6.240800803483722,-66.08787695269204,9.11760947605741,-48.5474126135124
-7.050042006666668,-63.45037806,7.049407113503393,-2.3576006559722225,2.2956043,0.0,99,9,130.40823395301285,553.6158499999998,mvc-7676,BaYCuWO5,https://materialsproject.org/materials/mvc-7676,9.663540179348741,-65.36970996998487,16.341411820544277,-62.936235050231936
-6.7611659784615386,-87.89515772,7.775671529688764,-2.1853445000961544,4.0586186,0.0,47,13,223.7250067568683,1047.6189499999996,mvc-2993,Ba2YTlW2O7,https://materialsproject.org/materials/mvc-2993,6.4089020779683645,-66.5880813276392,2.1282766206321764,-33.48094661326695
-6.0146971025,-649.58728707,6.0585075406259286,-2.2279928336574075,10.864963725,0.0,21,108,1556.1434579984327,5677.618320000001,mp-704097,Sr6Co4Bi2O15,https://materialsproject.org/materials/mp-704097,9.146081733095857,-67.68021597519669,37.936200879114544,-51.755475450658686
-6.202732665,-235.70384127,4.310670345344313,-2.0855324074342105,0.0,3.1663,2,38,693.5251047552257,1800.3539999999996,mp-757280,Ba2As6O11,https://materialsproject.org/materials/mp-757280,-30.175838261201392,-29.963335661074915,-21.427728425154726,-12.565464246683412
-6.226785828,-124.53571656,6.182307608435553,-1.7955138182499994,3.0016703,0.0,8,20,338.2081127727393,1259.1734,mvc-529,BaTl(MoO3)2,https://materialsproject.org/materials/mvc-529,6.285836986577286,-64.5588455231217,8.397921831302671,-47.09183061827444
-6.618517471666666,-158.84441932,4.735913243710222,-2.5846493934375,4.00000035,2.0075000000000003,113,24,412.17942639656684,1175.5496,mp-1190820,Ba2FeGe2O7,https://materialsproject.org/materials/mp-1190820,-30.287840371529647,-31.65193049402509,-8.520184701623009,-26.229152291553923
-7.357086224285713,-205.99841428,6.3893914803097935,-2.7237306283705363,5.0,0.20420000000000016,176,28,441.08159420526863,1697.1856200000002,mp-1193798,La3FeW(SO2)3,https://materialsproject.org/materials/mp-1193798,-1.8863749427994767,-60.475984495333684,-0.34968765194071383,-50.626937448858996
-5.777900802222222,-52.00110722,6.553332234554774,-1.9109774687500003,9.1e-06,0.0,99,9,130.95927086359436,516.8319386,mvc-7237,BaAlCuBiO5,https://materialsproject.org/materials/mvc-7237,8.373616068554085,-63.51319959602867,1.6786635184487966,-47.76695089236056
-7.519226531785714,-210.53834289,6.368147873438998,-2.7607589187962502,3.99999995,0.0,176,28,442.08001568378234,1695.3717100000001,mp-866694,La3MnW(SO2)3,https://materialsproject.org/materials/mp-866694,-1.8866198144689679,-60.4805905057945,-0.3628984081786987,-50.62390920204479
-5.561815427692308,-72.30360056,6.222852544256367,-2.0602122304807717,2e-07,0.0,123,13,175.79478412776544,658.7891,mp-20824,Sr2CaTlCu2O7,https://materialsproject.org/materials/mp-20824,10.204986555395452,-67.46028866035792,11.903113466806474,-45.267101439124424
-8.150385902307693,-105.95501673,5.488344149335389,-3.261305012179487,1.0000003,0.08370000000000033,115,13,170.9709833969749,565.08614,mp-1223151,La2Ti2CuO8,https://materialsproject.org/materials/mp-1223151,12.264276050394848,-63.46520885744287,11.097468781718456,-44.173106243884725
-6.692879171111112,-60.23591254,6.007927104551582,-2.51146322875,5e-07,0.0,99,9,135.01326003074504,488.48585,mvc-7191,BaYCuSnO5,https://materialsproject.org/materials/mvc-7191,9.157703579306267,-65.77211109848851,17.573511565436426,-62.01149973469345
-6.510863472916667,-156.26072335,4.845748224751792,-2.5178984388541674,3.0000002,2.655,113,24,404.95338386636087,1181.72599,mp-1190827,Ba2CoGe2O7,https://materialsproject.org/materials/mp-1190827,-30.28587151079002,-31.626116886219158,-8.5001248542907,-26.208239953887528
-5.530437363684211,-105.07830991,6.383522553736374,-2.052326846447368,0.12925830000000002,0.0,1,19,324.6811496017122,1248.1546,mvc-2769,Ba2Mg2Tl2Sn3O10,https://materialsproject.org/materials/mvc-2769,6.426034845951402,-67.15699092316287,2.3018573998546623,-33.9938290245964
-6.136666807333333,-92.05000211,7.00913238063196,-2.1605410199999997,2.8999999999999998e-06,0.0,139,15,222.0313287666268,937.19385,mp-1208753,Sr2YCu2(BiO4)2,https://materialsproject.org/materials/mp-1208753,9.470018633009136,-68.12801392168122,11.794389632510608,-46.38687579648922
-6.719763948362068,-779.49261801,5.325262025086964,-1.1032928367782762,0.00080855,0.0,14,116,2407.6136799857986,7721.091399999998,mp-1204834,Pr11C11Cl7,https://materialsproject.org/materials/mp-1204834,-2.105043162607952,-26.35323320597071,-3.7557498554014215,-25.56310661290935
-6.557088667777778,-59.01379801,6.718856814668883,-2.388023004305555,8.599999999999999e-06,0.0,99,9,143.03733124224374,578.7562499999998,mvc-7260,BaYCuBiO5,https://materialsproject.org/materials/mvc-7260,7.643419358992491,-66.1693785042669,-9.699594514580816,-60.15205835540061
-5.751785450714286,-161.04999262,6.947914477299437,-0.689577734285714,0.003938925,0.0,8,28,580.4147335691556,2428.5318399999996,mp-1224909,Ho3Si4,https://materialsproject.org/materials/mp-1224909,47.513594008996684,-14.015422932332386,17.03860168610703,-39.76773743288075
-6.433059095263157,-122.22812281,6.214458565500367,-2.3759920803947367,0.1512063,0.0,1,19,298.6915615349812,1117.8336,mvc-2821,Ba2Ti3Tl2Zn2O10,https://materialsproject.org/materials/mvc-2821,8.013480953481519,-64.73705751151162,9.50700694181957,-44.801749439783
-6.503979715652172,-149.59153346,5.6603256198231975,-2.3780765113043487,8.636745,0.0,139,23,351.86540661619165,1199.4134,mvc-150,Ba2Ca3Tl2V4O12,https://materialsproject.org/materials/mvc-150,8.910764324184338,-65.25857380623846,9.994407552826594,-46.155136758379186
-6.216877110061728,-1007.13409183,6.23664662711758,-2.316548008240741,48.03315255,0.0,21,162,2502.0133363806062,9397.0528,mp-616616,Sr15Fe10(Bi5O23)2,https://materialsproject.org/materials/mp-616616,6.498655763864825,-67.20067559808582,-13.774529920999,-49.916799568744345
-5.5892640041176485,-475.08744035,5.539060143566188,-2.0831914238970586,0.0022960000000000003,0.0,12,85,1156.7899249757265,3858.7042,mp-1229281,Ba6Ca15Cu18Hg3O43,https://materialsproject.org/materials/mp-1229281,9.391651289567012,-64.45426098636896,10.087453921316367,-46.150153088266116
-6.7347937202380965,-282.86133625,5.309356221603012,-1.0994368072047624,0.1155843,0.0,14,42,876.1026673333553,2801.2236,mp-1196511,Pr8C8Cl5,https://materialsproject.org/materials/mp-1196511,-2.1008216385948617,-26.354372636394626,-3.6834561748928816,-25.598288064500608
-5.870708895555556,-52.83638006,5.625521079304713,-1.9914352831944453,1e-07,0.0,99,9,125.91226267261844,426.5615386,mp-1253491,BaAlCuSnO5,https://materialsproject.org/materials/mp-1253491,8.664372650174217,-63.7218100619186,41.60579319988979,-53.70628922819337
-8.426801617272728,-556.16890674,5.017468948641373,-3.2878457188510097,0.0006792,0.0,8,66,887.2960254235143,2681.04522,mp-773084,Ba6Li2Ti7Nb9O42,https://materialsproject.org/materials/mp-773084,-33.882156709027555,-56.25912031811146,-5.315753049532363,-54.64391468583004
-5.118197621875,-81.89116195,6.7956517750170615,-1.3198609818750002,0.0,1.7260000000000004,4,16,298.7128534516245,1222.4636,mp-559727,Tl2CuAsO4,https://materialsproject.org/materials/mp-559727,-3.1737576435890387,-30.34369965264929,-3.989742312545153,-31.189025256378564
-6.8378569146875,-218.81142127,5.089264257107376,-1.21736975284625,0.0,0.030899999999999924,14,32,683.4376942503687,2094.6180400000007,mp-570942,La3C3Cl2,https://materialsproject.org/materials/mp-570942,-2.149984725352356,-26.35590970635261,-4.093964990702143,-25.283533422596367
-6.1597387941666675,-147.83373106,4.94682292431742,-2.526878758854167,0.0,2.8895,113,24,432.58190957480764,1288.6816,mp-1214739,Ba2CdGe2O7,https://materialsproject.org/materials/mp-1214739,-30.27476307605428,-31.67239940482947,-7.981156107012531,-25.83879892423049
-5.7253124743478265,-131.68218691,6.308592440559825,-1.975272052608697,11.1180128,0.0,139,23,324.12220019570253,1231.38018,mvc-122,Ba2Ca3Tl2(CoO3)4,https://materialsproject.org/materials/mvc-122,9.216279288660873,-64.43836992403494,10.109856424190085,-46.03961880682585
-6.202092936315791,-117.83976579,4.260758576559933,-2.08489267875,1.28e-05,3.1731,1,19,350.824630063161,900.1769999999998,mp-1228580,Ba2As6O11,https://materialsproject.org/materials/mp-1228580,-30.20011009084557,-29.987617045614034,-21.398797658074862,-12.508750219800543
-6.297450118461539,-163.73370308,6.3705894274169825,-2.3345865274038466,0.00073465,0.0,46,26,371.2872249376876,1424.4281,mvc-280,Sr2YCu2BiO7,https://materialsproject.org/materials/mvc-280,9.844838070946906,-68.19938373170227,12.01838960838722,-46.38389821928645
-6.86050886698276,-795.81902857,5.0931574933015975,-1.1898304846231038,2.1475e-05,0.0,14,116,2488.610847662428,7632.99548,mp-571523,La11C11Cl7,https://materialsproject.org/materials/mp-571523,-2.1390134646740133,-26.36117790745308,-3.9872708463379456,-25.371209407654863
-6.850222173962264,-726.12355044,5.07883301447284,-1.2022718914600004,0.0001869,0.0,14,106,2275.076972284256,6958.424800000002,mp-571437,La20C20Cl13,https://materialsproject.org/materials/mp-571437,-2.1378579946236345,-26.357198514574637,-3.9440700441408287,-25.39144702450639
-4.876946690384616,-126.80061395,5.588029395475652,-1.3345559341553843,0.0,0.4530000000000003,4,26,449.54038067670655,1512.7887999999996,mp-1192807,Cu2Te2Pb(ClO3)2,https://materialsproject.org/materials/mp-1192807,-24.30934698676908,-43.04269745511813,-19.858339443051783,-32.77951070073905
-6.855468430810811,-507.30466388,5.084442259401438,-1.1956422042389194,1.6e-06,0.0,7,74,1588.4812130695154,4863.80676,mp-570240,La14C14Cl9,https://materialsproject.org/materials/mp-570240,-2.1437197353911746,-26.35768557238188,-3.9939933194495962,-25.371515326901697
-5.52922353,-77.40912942,5.370387210126912,-0.4707300981628566,0.000131,0.0,176,14,317.05320288186834,1025.389,mp-1246177,Ba3NiN3,https://materialsproject.org/materials/mp-1246177,-2.188286988833876,-27.77564686942937,-3.809265434692024,-34.54230971320381
-6.289290305,-138.36438671,6.8048389356141135,-2.307043592132727,3.9999995999999998,0.0,3,22,362.3037116144178,1484.70969,mp-1173263,Sr2MnBiPbO6,https://materialsproject.org/materials/mp-1173263,6.501979649283003,-66.90351048659888,9.28785118922984,-48.63756362370947
-5.229603992,-52.29603992,6.701384779525838,-1.7225040901519997,0.0,1.9099000000000004,63,10,196.45410358401998,792.8235999999998,mp-23138,SbPbClO2,https://materialsproject.org/materials/mp-23138,-18.8692428947907,-55.01696416389789,-10.7010304279635,-59.57186183391161
-6.139593357586207,-178.04820737,6.2455275452006225,-2.3972904508620694,14.573186800000002,0.0,107,29,455.58300844537285,1713.5136,mp-1227908,BaSr6Fe3Bi3O16,https://materialsproject.org/materials/mp-1227908,8.765164162457259,-66.8654523364614,9.761403123376663,-48.62267222459368
-5.690650504615384,-73.97845656,7.531944196176861,-2.110511077788462,0.6370262,0.0,123,13,193.31176619079704,876.8318,mp-1214696,Ba2DyCu2HgO7,https://materialsproject.org/materials/mp-1214696,8.959930157909792,-65.69870593902156,11.086935642840904,-47.83902262372325
-3.4901465185714287,-24.43102563,6.971300744455961,-0.3162625915401784,0.0,0.9501,160,7,220.32015719276254,924.9515,mp-7684,Tl3AsSe3,https://materialsproject.org/materials/mp-7684,8.036641207735686,-25.291761443110534,4.13975301576011,-34.14581912272275
-6.870255369285713,-288.55072551,5.101405555541754,-1.1804565219666667,1.55e-06,0.0,14,42,901.3880446521956,2769.188720000001,mp-568190,La8C8Cl5,https://materialsproject.org/materials/mp-568190,-2.1455005461625976,-26.36646907310159,-3.9495642345952566,-25.409729666998228
-5.439611906315791,-103.35262622,6.68684148550514,-1.7252232835526329,11.6810136,0.0,1,19,283.5344128490103,1141.7676,mvc-3064,Ba2Tl2Zn2Fe3O10,https://materialsproject.org/materials/mvc-3064,8.549990827499624,-64.54837563453077,9.119473586323547,-45.88033286927306
-5.761847740384615,-449.42412375,5.1807250660049045,-2.4870117622243586,8.45e-06,2.459,1,78,1249.2331139426747,3897.4894,mp-677520,KBa6Zn4(GaO3)7,https://materialsproject.org/materials/mp-677520,-7.503612742193768,-43.35456051171007,-1.26876071514928,-30.31262871840941
-5.317765290714285,-74.44871407,5.208622701792995,-0.6517844060199991,0.0,0.2805,176,14,333.93254379492464,1047.4482,mp-1029573,Ba3GaN3,https://materialsproject.org/materials/mp-1029573,-2.8044972050301737,-27.224148232559163,-3.927133222756797,-34.54971045033341
-6.138337822894738,-233.25683727,4.90096032559127,-2.0221814847039483,1.00000025,0.52,14,38,590.9674871577097,1744.1976,mp-17874,Sm2Cu(SeO3)4,https://materialsproject.org/materials/mp-17874,-30.113583070746785,-53.20273306544358,-18.89567750616356,-30.705465491177648
-8.591083866875,-137.45734187,5.702657378292781,-3.5421101610111343,6.829999999999999e-05,2.4254,8,16,232.9362941906284,799.9546200000002,mp-1219619,RbLa2TaTi2O10,https://materialsproject.org/materials/mp-1219619,-29.0234726862162,-68.50849449106559,-1.7101709037274244,-50.58144911179302
-5.773427660227273,-254.03081705,5.048459139002349,-0.4686532247290904,1.998084425,0.0,130,44,1124.0534814546402,3417.4072,mp-1245602,Ba5(FeN2)2,https://materialsproject.org/materials/mp-1245602,-2.4502795806273667,-27.542850416521105,-7.568546332447668,-26.82499197671176
-6.042730243684211,-114.81187463,7.518772620947447,-1.8384257251315792,5.9962117,0.07449999999999958,1,19,318.8103012455678,1443.5446,mvc-3066,Ba2Mg2Tl2W3O10,https://materialsproject.org/materials/mvc-3066,6.066305307886482,-67.54388976391965,2.4223919569691543,-34.14466252296018
-6.50168293625,-156.04039047,4.544568402130133,-2.811356183854168,0.0,3.6144,113,24,406.4850692416285,1112.4696,mp-1190545,Ba2MgGe2O7,https://materialsproject.org/materials/mp-1190545,-30.60376026763887,-31.618270303863557,-8.598461046420624,-26.21390066114242
-5.748745436666668,-86.23118155,5.699345308151232,-1.7137412980000002,0.0006006000000000001,0.0,65,15,217.27562364162208,745.7390499999998,mp-20509,Ba2Y(CuO2)4,https://materialsproject.org/materials/mp-20509,10.874598833551351,-64.55435174642153,42.89701156508911,-37.17024620442631
-7.489801437692307,-97.36741869,6.233631671683941,-3.0234413080448728,0.0009679,0.0,123,13,206.6267761051433,775.67295,mvc-16175,Ba2YTi2TlO7,https://materialsproject.org/materials/mvc-16175,8.369341118933303,-66.05086547692368,10.231717268119796,-48.544597665915994
-6.284184600666666,-94.26276901,7.340103087529216,-2.0531756726666672,6.0988873,0.0,139,15,226.28530907965515,1000.252,mp-1208972,Sr2EuCu2(BiO4)2,https://materialsproject.org/materials/mp-1208972,9.57290778652702,-68.39178006775896,11.83338796242284,-46.4049185625629
-6.195930884210527,-117.7226868,6.066407867971715,-2.147140406710525,9.041418499999999,0.0,1,19,286.86932576056216,1048.0129,mvc-3041,Ba2Mg2Tl2Cr3O10,https://materialsproject.org/materials/mvc-3041,8.326628744784808,-64.14002826591424,9.095332378084873,-45.23924583102643
-5.971088475833334,-143.30612342,5.3887959827671965,-1.8244031659375008,0.5436371999999999,0.0,8,24,368.64672091774116,1196.3356,mvc-866,Sr2Cu2WO7,https://materialsproject.org/materials/mvc-866,-36.28586345956654,-45.589309517398135,-12.307590562626135,-36.76449929163292
-5.62349974375,-44.98799795,5.642491826965137,-2.004320665625,1.6e-06,0.0,63,8,137.06451939091528,465.7436,mp-997034,BaCuO2,https://materialsproject.org/materials/mp-997034,11.151571580529556,-18.813560268280085,11.840904415193794,-19.093433093969047
-5.534354254736843,-105.15273084,6.577624444858269,-1.8625705435526327,8.416503599999999,0.0,1,19,269.82754959141255,1068.824185,mvc-3036,Ba2Mg2Tl2Co3O10,https://materialsproject.org/materials/mvc-3036,8.532960772961783,-64.48204675085972,9.166264830380351,-45.881504612681894
-5.821970702857143,-81.50758984,5.313075748599283,-0.5732290053057137,1.56341025,0.0,176,14,320.6231049978641,1025.86859,mp-1246164,Ba3CoN3,https://materialsproject.org/materials/mp-1246164,-2.1034322017940528,-27.826808047968502,-3.8786732945051337,-34.52995210189441
-8.082865973968254,-509.22055636,5.7347149185368735,-1.5748674747784128,0.0,1.8771000000000004,216,63,922.0459466845983,3184.3097444000005,mp-866690,La17Al4(Si3N11)3,https://materialsproject.org/materials/mp-866690,14.153012284731016,-65.77770011564274,4.071861736772285,-33.35179114499648
-7.9947760347619035,-167.89029673,5.515946385944932,-1.7093790804785705,0.0,2.510699999999999,1,21,291.97495673037145,969.87675,mp-1222517,LiLa5Si4N10O,https://materialsproject.org/materials/mp-1222517,-24.47774436907812,-30.533057321181477,-3.699112376718944,-29.86578027246777
-5.997518814666666,-89.96278222,7.310563465142072,-2.1348789324999995,1.7e-06,0.0,139,15,225.44566109435596,992.53,mp-1208768,Sr2NdCu2(BiO4)2,https://materialsproject.org/materials/mp-1208768,9.569994669411503,-68.3364189646434,11.821032744316607,-46.51636932943972
-8.475351416153845,-110.17956841,6.936015717319425,-3.4468217636746163,0.0,3.0577999999999994,12,13,197.8978971412329,826.6128600000002,mp-559702,Pr2Ta2Cl2O7,https://materialsproject.org/materials/mp-559702,-32.00341531856815,-54.65513289639125,-12.282283585457805,-40.368151172120754
-5.6666518166666675,-84.99977725,5.317307349349012,-0.5692945044439994,1.0000006,0.0,148,15,333.30307408798404,1067.2889,mp-1228029,Ba6Ge2N7,https://materialsproject.org/materials/mp-1228029,-2.2671580017302317,-27.66678083387808,-3.839710956990516,-34.489389895834485
-5.102126252121212,-168.37016632,6.932488491533299,-1.9246190275378792,0.0294058,0.0,12,33,581.3752166701064,2427.1498,mp-1228271,Ba8Cu4Hg4O17,https://materialsproject.org/materials/mp-1228271,6.669349186460384,-65.79579337050214,10.134564667023168,-48.762185429833224
-5.5599142307500005,-222.39656923,4.5569664987486895,-1.7237766407187507,0.9940013000000001,0.4388000000000001,31,40,662.8932241529949,1819.1576,mp-620033,BaCu(SeO3)2,https://materialsproject.org/materials/mp-620033,-30.565360858104377,-30.01898250030638,-17.69522544481337,19.565704480139946