energy_per_atom,energy,density,formation_energy_per_atom,total_magnetization,band_gap,sgr,num_sites,cell_volume,weight,mp_id,formula,URL,tsne_cry_0,tsne_cry_1,tsne_xrd_0,tsne_xrd_1
-6.866306526071428,-384.51316546,3.698247168252775,-2.535295948518868,2.9999990000000003,0.6833,2,56,845.1948338777098,1882.364296,mp-1201490,Rb7GdFe6(P4O17)2,https://materialsproject.org/materials/mp-1201490,-35.812775665709985,-22.25769635060318,-33.20584607987802,10.762103639312699
-5.269606474375,-84.31370359,6.401641335445636,-0.7948578141091955,1.9276453000000002,0.0,51,16,548.2531204125818,2113.6027237999997,mp-617298,CsUTiTe5,https://materialsproject.org/materials/mp-617298,23.576626779515014,-22.516899508788825,16.352994544236573,2.5964650821956075
-5.87618719625,-141.02849271,5.652938869760317,-1.853354961953125,0.9999976999999999,0.0,173,24,487.55530561007964,1659.7744899999998,mp-1192199,Tb3GaCoS7,https://materialsproject.org/materials/mp-1192199,12.334703766740079,-13.022637485713116,1.891170983710443,-5.20372083498529
-3.0402888675,-12.16115547,4.7635719685069375,-0.17444827750000025,2.24e-05,0.0,59,4,101.83393322537422,292.13,mp-1094715,MgSb,https://materialsproject.org/materials/mp-1094715,3.6508736013681884,-36.29391303948599,6.42330114914685,3.868389450125155
-3.3226296525,-39.87155583,4.240256592081152,-0.6772010191666663,1.625e-06,0.24659999999999996,62,12,463.84977621202364,1184.46,mp-11265,BaCaSn,https://materialsproject.org/materials/mp-11265,1.8808635387488184,-32.31296190291602,-4.928857155438698,-33.4321986884556
-4.793598905777778,-215.71195076,7.399374618157013,-1.0958546131388895,0.0,1.4916999999999998,2,45,1261.5364419007662,5621.416,mp-1198074,Hf(TlS)4,https://materialsproject.org/materials/mp-1198074,5.124013943440512,-5.759849085784049,-16.13584521168643,-31.342491327907986
-5.2755918425,-21.10236737,4.9106069018064025,-2.1697048896174573,0.0,2.3824000000000005,166,4,107.71272241321087,318.53201,mp-9368,RbTmS2,https://materialsproject.org/materials/mp-9368,5.303491881574073,-4.265456649850632,-3.3192454167063783,-4.9842377556346555
-5.942763350555556,-106.96974031,5.086003450719914,-1.8199771102777784,0.0,3.0906,18,18,251.3631267308464,769.8908,mp-558830,ZnTeMoO6,https://materialsproject.org/materials/mp-558830,-41.44628707512968,-45.39641874832488,-17.938038091880465,17.892859561592296
-6.536815027375001,-522.94520219,4.454036630305343,-0.9106938099460002,3.999999975,0.0,14,80,1479.0895874791538,3967.33774,mp-567532,Sr8(MnN3)3,https://materialsproject.org/materials/mp-567532,19.897164220299395,-43.99222981980873,17.380190756831368,-25.976880042516303
-5.801779276964285,-324.89963951,5.990004783832417,-0.6468600648214279,0.002376325,0.0,62,56,1379.6244656192346,4976.6714,mp-1199517,Pr7Si5Ni2,https://materialsproject.org/materials/mp-1199517,33.40772793339334,-39.470278819424585,18.0979353751176,0.3264585863970012
-5.911006059999999,-70.93207272,4.561617715075345,-2.915566309375,0.0,3.1605,152,12,211.45886579918357,580.8924,mp-756018,BaMgO2,https://materialsproject.org/materials/mp-756018,-23.815755820635616,-24.46949933471184,7.313765025194908,-21.291097964079217
-7.389313335833332,-177.34352006,5.3378776625430735,-2.407549054195402,6.000000099999999,0.0,15,24,346.74081695772185,1114.614,mp-1209361,RbEu(MoO4)2,https://materialsproject.org/materials/mp-1209361,-48.20483512523359,-54.99890350294186,-21.185718910098423,-58.75735394828439
-6.9009450169565225,-158.72173539,5.833619120975914,-2.8525829313043483,0.0,3.305400000000001,150,23,315.4014742062738,1108.0330099999999,mp-6788,La3Ga5SnO14,https://materialsproject.org/materials/mp-6788,-8.012753582545079,-46.47971152603289,8.12292329165292,-35.463504365762404
-7.246760412777778,-521.76674972,3.0890472090087893,-3.3654042045383328,4.085e-05,4.8546,14,72,1087.3116638387296,2022.6908127999998,mp-1211577,KSr2Si4O10F,https://materialsproject.org/materials/mp-1211577,-23.651894356127386,-32.14668897888447,-20.5635128565374,-31.996761734370374
-6.356876897083333,-305.13009106,5.382156279538389,-2.2974212584375007,21.98653795,0.0,63,48,734.202030185538,2379.7032,mp-542530,Ba5Fe5O14,https://materialsproject.org/materials/mp-542530,-9.578074668915283,-82.62672774457876,18.983129723574574,-75.28701359470182
-6.583866892236843,-500.37388381,5.9580249817086735,-2.4956436136184217,3.00006945,0.04249999999999998,62,76,1264.7595577580073,4537.9656,mp-1215133,Ba5GaRu2O11,https://materialsproject.org/materials/mp-1215133,-14.756926963744956,-81.51594329317861,0.3527307087203957,-31.63069768353609
-8.693052352777778,-469.42482705,6.6880455729829835,-3.72175591044753,0.46893320000000005,0.0,31,54,663.4048600626363,2671.9528,mp-1178188,Ho5Ti5O17,https://materialsproject.org/materials/mp-1178188,6.191022618196696,-89.47682637664194,-3.103133897425272,-50.672975476857395
-3.19235025375,-25.53880203,3.5902537128759384,-1.677002187801724,0.00016615,4.1375,129,8,277.18816311238584,599.3089037999999,mp-23057,CsLiBr2,https://materialsproject.org/materials/mp-23057,-0.3826137778800016,-29.61158977362217,2.072622969471495,-49.178662500831365
-4.8772305815,-195.08922326,6.5509480854434194,-1.1471637260833338,0.0,1.6417999999999997,14,40,574.8261382491414,2267.7312,mp-558637,AgTeO3,https://materialsproject.org/materials/mp-558637,-6.8105977075182365,-45.98203874596955,14.850006206876758,-29.174955702348107
-4.694210921052632,-356.76003,7.278100222469778,0.5487815557631578,20.000000075,0.055600000000000094,60,76,1633.5650489948705,7159.87390848,mp-1238551,Na4W8XeO6,https://materialsproject.org/materials/mp-1238551,17.028200650534,-22.251365299540048,0.500152150138799,8.99642427895979
-7.647548261999999,-38.23774131,7.974989961104377,-3.40809642721875,0.0,2.174,164,5,89.28599521074185,428.8095,mp-755340,Tb2SeO2,https://materialsproject.org/materials/mp-755340,0.9662375712674632,-59.68736010161788,20.920148096523985,-36.34582825673347
-6.66580995625,-159.97943895,3.123484597147346,-2.628837594877874,0.0,3.9289,167,24,409.1775505191432,769.6655999999998,mp-31358,RbBO2,https://materialsproject.org/materials/mp-31358,-31.04761467571418,-17.818683091303214,-10.3447613157679,-22.08815837303805
-5.2225050425,-20.89002017,5.480296336290376,-2.1349810560829745,1e-07,2.1886,166,4,112.71737082265356,372.0024519,mp-561619,CsLuS2,https://materialsproject.org/materials/mp-561619,4.7584858893777335,-4.041100498169191,-3.197535161411727,-6.037979150723097
-5.893913084482759,-341.84695889999995,3.839770526696079,-1.946567703933189,10.000000199999999,2.3711,167,58,859.4436204610877,1987.3464,mp-560990,Ca3Fe2(SeO3)6,https://materialsproject.org/materials/mp-560990,-31.304029516172786,-29.375282903919068,-35.30892602353545,16.614489308779206
-7.300511031428571,-204.41430888,4.915016742095292,-2.5637339235,5.999999825,0.0,62,28,421.0847371363561,1246.36547712,mp-1019727,NaEuGeO4,https://materialsproject.org/materials/mp-1019727,-35.06946536981832,-50.5625255107953,-18.87587335419662,-39.86344270408861
-6.653246308571428,-279.43634496,4.381969343624131,-2.7722001811904766,9.999999699999998,3.2132000000000005,4,42,688.9829135806976,1818.1457544,mp-1229132,Ba3Al2Ga2(FeO6)2,https://materialsproject.org/materials/mp-1229132,-25.66639522107993,-28.406780975110912,-9.907646878436182,-25.141808910280513
-7.065775425416668,-1187.05027147,4.021200549213233,-3.406761214277194,0.0015265,4.7268,143,168,2501.5906994052784,6057.911107200001,mp-729560,Sr20P12Br(O16F)3,https://materialsproject.org/materials/mp-729560,-20.124158036422795,-32.46671021123222,-9.856937293202176,-33.60531139652417
-4.309671506170212,-202.55456079,5.7575102206096815,-0.7948676914314895,0.7853316999999999,0.0,10,47,1201.3885614308638,4165.519,mp-1209339,Sb10Pb10(S8Cl)3,https://materialsproject.org/materials/mp-1209339,5.535698939299832,-8.352642958848172,-4.422062358830413,-10.695995226760603
-3.721529050277778,-133.97504581,7.1478083811321795,-0.460922610277778,0.0,0.0,62,36,908.3884556975572,3910.168,mp-20101,Yb5Si4,https://materialsproject.org/materials/mp-20101,33.520555189572924,-40.550955530464975,20.771169543974853,-18.5010415785623
-6.506361443214287,-182.17812041,7.279699535136306,-1.9127677608087488,0.0,1.5215,15,28,680.3725124694512,2982.71064,mp-607806,Ho3Se3N,https://materialsproject.org/materials/mp-607806,27.438150589950844,-2.9483351982201738,15.338701488378556,1.6062079746186841
-4.870838245384615,-126.64179438,6.432043507026324,-1.295451765360577,0.0,2.7837,15,26,583.1082497755866,2258.65068,mp-1193210,Pb3Se2(IO3)2,https://materialsproject.org/materials/mp-1193210,9.63410814837163,-24.8964387666336,-15.712670257796646,-47.03006621499929
-4.182219749375,-133.83103198,4.523949274258294,-2.1576290915196124,7.5025e-05,0.0,14,32,521.2028999449127,1419.9578716,mp-572903,CsCu2F5,https://materialsproject.org/materials/mp-572903,-58.817387108566855,-59.43814379492192,-6.232931988346052,-27.77125934122234
-5.4062152634210525,-205.43618001,5.417678015334582,-1.376175153914473,0.9999998,0.5759999999999996,14,38,606.4727453229892,1978.6792,mp-556635,CuBi2(SeO3)4,https://materialsproject.org/materials/mp-556635,-23.86253254396325,-47.43715687517494,-19.74995780265296,-41.959283600007616
-4.7998308907894724,-182.39357385,4.538031238582487,-1.2514528378618421,2.0000163,0.1414,14,38,618.4464929805814,1690.1316,mp-1203548,Cd3(SeO3)4,https://materialsproject.org/materials/mp-1203548,-37.14569975263947,-43.343528845833035,-21.654246205574584,-28.91860891684527
-5.8443230208333325,-70.13187625,5.842195610891727,-1.9868866264583336,0.0035711,0.0,115,12,199.58659935743145,702.19605,mp-1228546,Ba2Pr(CuO2)3,https://materialsproject.org/materials/mp-1228546,10.797102901432496,-66.25772539339171,39.71507679505197,-52.39475957317424
-6.901105087666666,-207.03315263,5.441142225500915,-2.484657419108666,3.000000066666667,2.0629,185,30,439.94420472571517,1441.57947,mp-19267,BaMnO3,https://materialsproject.org/materials/mp-19267,-8.430079027166514,-81.59350653564705,7.691266226198095,-19.643884844455805
-5.4867255025000015,-65.84070603,5.327240757386181,-2.3038104406106332,1.0,0.0,36,12,294.70941969333285,945.4689076,mp-1213718,Cs2TbO3,https://materialsproject.org/materials/mp-1213718,-5.386415812556809,-26.638781232973948,-25.537507349099673,-53.982814666625636
-9.253671008571429,-129.55139412,5.698941823057445,-1.9417080794642865,18.99961205,0.8617999999999997,122,14,290.0352590056072,995.3960900000001,mp-674348,Gd2MnS4,https://materialsproject.org/materials/mp-674348,18.771707919908714,-3.815478556404656,7.815865919466473,-9.038296438953328
-5.958435304166668,-71.50122365,8.591796012376161,-1.6554390816666675,0.0,2.2178000000000004,15,12,173.3354784822382,896.8552,mp-19132,HgWO4,https://materialsproject.org/materials/mp-19132,-19.726738903836264,-61.35990557427329,-15.053691551768251,-58.22850270528476
-4.4141162034375,-706.25859255,5.89562108627818,-0.757848782171876,0.0029160999999999996,1.3758,14,160,4226.54626054539,15006.04,mp-638022,Sb4Pb5S11,https://materialsproject.org/materials/mp-638022,5.466799686446097,-8.755528551189293,-4.5849147893124265,-10.41450593211184
-7.1380118633333325,-342.62456944,4.594572045747072,-2.6253657660833327,0.000768375,3.5569,60,48,760.7495119600119,2104.93,mp-1211601,KEr(MoO4)2,https://materialsproject.org/materials/mp-1211601,-50.65840250299284,-53.575525575878245,-24.105206117665286,-56.62656784872963
-8.320304893636363,-366.09341532,4.645186833747995,-3.5653787910227286,2.0000003,0.01860000000000017,14,44,641.1657825942648,1793.5952000000002,mp-662527,Ce2Si2O7,https://materialsproject.org/materials/mp-662527,-25.01190534869771,-36.853481928592345,-30.944446760629262,-45.613965684890616
-5.18042149,-41.44337192,5.32491446212588,-1.8748690796425,0.0,0.40669999999999984,141,8,191.88287643254608,615.3182063999999,mp-676643,Ba2NF,https://materialsproject.org/materials/mp-676643,-3.5655341491294514,-26.402366575421357,-14.052353043570609,-66.33179883286047
-6.951882186428572,-97.32635061,8.11944805531165,-0.30974024023809626,2.1000000000000002e-06,0.0,140,14,273.37848040637175,1336.72399,mp-567883,Ti4CoBi2,https://materialsproject.org/materials/mp-567883,39.53774791705703,-8.169948116481748,1.0946392292829523,-12.224517348293233
-4.899532308,-97.99064616,4.703974563221598,-2.7588586580513788,7.0,3.743,160,20,348.37109081563864,986.8655359999999,mp-1226311,Cs2MnNiF6,https://materialsproject.org/materials/mp-1226311,-52.833049547689235,-64.03114392009843,-23.30344154698038,-14.515357154489406
-7.021134941111112,-63.19021447,7.210698203917624,-3.00962112875,1.9999978999999999,2.1603000000000003,71,9,132.81584410338698,576.7374,mp-19199,BaSm2NiO5,https://materialsproject.org/materials/mp-19199,15.696511776977596,-63.36777954764562,17.091030327118858,-38.407316458199844
-4.165413132941176,-141.62404652,4.6945571094605265,-2.0962871679411768,1.56e-05,3.2308000000000003,127,34,1166.3000020838397,3297.27988,mp-771951,Ba3La2Br12,https://materialsproject.org/materials/mp-771951,13.674777296153625,-29.730021325794816,14.2924964567856,-21.17092601452256
-6.412416508636364,-282.14632638,4.611708266700568,-2.527891313295456,0.0003965,3.3198,2,44,772.7007171024617,2145.972,mp-1194732,Ba2As2O7,https://materialsproject.org/materials/mp-1194732,-29.496887699762922,-32.12197010831769,-21.627674448622848,-12.75521252039956
-3.7175322933333335,-44.61038752,2.7896285531367053,-0.19308575424160895,0.0,0.061300000000000125,62,12,294.72123357866633,495.118,mp-1246143,RbMgN,https://materialsproject.org/materials/mp-1246143,-5.280156202725574,-28.6655616172927,-26.25760721531277,-57.69275238895477
-4.98678892375,-79.78862278,4.828419400172893,-1.0462626045817185,0.0,0.5154000000000001,12,16,223.6777543577877,650.39724,mp-1208134,TlCu2H(SeO5)2,https://materialsproject.org/materials/mp-1208134,-30.820660068680912,-26.708065404903852,-30.236036474410568,7.207985232617579
-6.890248414285715,-48.231738899999996,5.880517641018074,-2.7603847753571435,1.9999974999999999,0.0,107,7,86.76139947438487,307.25079500000004,mp-1227058,CaNdCoO4,https://materialsproject.org/materials/mp-1227058,23.27734011466802,-72.46000788028424,43.307829586243585,-39.70577246537032
-5.549548896875,-88.79278235,8.378175300648483,-1.5898695285937503,0.0,2.1305,9,16,246.557338370071,1243.994,mp-624234,TePb2O5,https://materialsproject.org/materials/mp-624234,-19.386169064695988,-60.67717446795979,-14.679596005300255,-58.911598571027326
-5.32528718175,-213.01148727,5.804672646694441,-1.4546799444374998,2.0000003,2.9687,148,40,590.6105799802415,2064.5712,mp-1196304,NiTe6O13,https://materialsproject.org/materials/mp-1196304,-45.20857685244957,-47.81256528723546,-23.246857829362067,-55.798621133514004
-4.407658966111111,-79.33786139,3.458292966428296,-0.8416081077777781,0.0,1.1198,15,18,455.0811755629006,947.7669544,mp-28304,Ca3(AlAs2)2,https://materialsproject.org/materials/mp-28304,21.57798789695017,-7.901761312359865,-8.370480788785123,-16.627362121552995
-5.79332582875,-370.77285304,4.938791986302825,-1.849209667983965,0.0,2.3255,176,64,1867.1047352873368,5553.161763800001,mp-568707,CsPr9Nb(Br5N2)3,https://materialsproject.org/materials/mp-568707,28.708348294179824,-22.736959303964852,13.276707433096053,-4.5379807247960375
-6.644396516333332,-797.32758196,5.033990526819059,-2.6877649806874992,2.5e-08,2.8838000000000004,61,120,2482.5312520307216,7525.8928,mp-558333,Nd4Ga2S5O4,https://materialsproject.org/materials/mp-558333,-0.8682937485733728,-50.2576174947704,-14.468445851401356,-52.131357878663906
-7.413342584130435,-341.01375887,5.463463120298723,-2.712145265,0.00014040000000000002,3.3652,15,46,665.5744958862692,2189.8562,mp-1214377,BaTb2(MoO4)4,https://materialsproject.org/materials/mp-1214377,-51.554084651566356,-53.067742984428214,-24.7456747541014,-59.5221149406815
-4.948986160555554,-178.16350178,4.190341446523633,-3.3445838425940995,7.5e-08,5.039,62,36,537.8066071591256,1357.1456388,mp-1213699,CsAlZnF6,https://materialsproject.org/materials/mp-1213699,-58.70870184495218,-59.611821752957326,-14.403753679132205,12.020441685305649
-8.246933118125,-131.95092989,5.342054561083964,-3.28299727328125,1.999999,2.0092,119,16,198.9702522492688,640.09934,mp-1223170,La2Ti3NiO10,https://materialsproject.org/materials/mp-1223170,10.938217881194632,-94.1894936316436,42.92504852679305,-37.25020150664644
-7.865582225769232,-204.50513787,8.388670577623271,-2.90666862875,0.0,3.1466,2,26,331.23981308371214,1673.3492,mp-772682,Dy2W2O9,https://materialsproject.org/materials/mp-772682,-28.68095306036821,-58.26025397425721,-12.518371339922314,-49.490914993110074
-3.3370645791666664,-40.04477495,5.49397740294266,-0.05072211250000022,4.135e-05,0.0,12,12,323.79737721512544,1071.3,mp-1094527,MgSb2,https://materialsproject.org/materials/mp-1094527,30.26930466832951,-25.333398452090396,25.33084514010049,7.4129221165425765
-4.419221833428571,-154.67276417,3.6359290584323847,-1.5784610183047618,1.0,0.052999999999999936,225,35,1127.6090263056765,2469.0214,mp-866664,K8Zr6BBr20,https://materialsproject.org/materials/mp-866664,8.068107363700278,-0.4462314683998411,-1.1976118136801353,-18.959485611377747
-5.4404273271428565,-76.16598258,7.4617077611436935,-1.6606245161309527,0.0,1.3030000000000002,176,14,299.0774644495692,1343.9182,mp-4584,Tl3BO3,https://materialsproject.org/materials/mp-4584,1.4344683173660504,-33.416985076451624,0.2577574529436743,-47.678949246836645
-8.078073025,-64.6245842,6.143506850990592,-2.036759596875001,4.999985,0.0,11,8,145.49954707163602,538.3056,mp-1206663,GdBrO2,https://materialsproject.org/materials/mp-1206663,-0.710065699970379,-49.57757304837853,-8.349764579082539,-41.516862669536025
-5.0147823306250014,-240.70955187,4.502007265644724,-1.4357274667187507,0.00137765,0.21340000000000006,62,48,1164.3686858593871,3156.804,mp-1201423,Ba2SnSe4O5,https://materialsproject.org/materials/mp-1201423,-0.7007254737227729,-4.878347398649089,-20.14653944856995,-34.01092505254841
-5.9680650335,-119.36130067,8.659458539001175,-2.209205448750001,0.0,0.7376999999999994,62,20,214.28278908617975,1117.4521544000002,mp-768539,AlTlO3,https://materialsproject.org/materials/mp-768539,36.06556479461752,-77.33160910463576,52.912247736546384,-50.089891694790296
-7.983340613066666,-598.75054598,6.380030421558277,-3.0419896629666665,22.8877747,0.033199999999999896,1,75,1097.2350134899013,4215.73513,mp-766364,La19(RuO6)8,https://materialsproject.org/materials/mp-766364,-6.025802182210182,-72.12397167074091,1.5098564056991928,-37.27566695296608
-4.617890975714286,-32.32523683,4.982531424069402,-1.5863947869642858,0.0,0.6694,139,7,238.33978949791015,715.1505999999998,mp-8300,Ba4As2O,https://materialsproject.org/materials/mp-8300,3.506734568555803,-29.836076492941213,-1.0341959539647174,-34.076079535943634
-3.82590829775,-153.03633191,6.9447599756731,-2.317241512464,0.0,3.7002,55,40,715.0047812825624,2990.3160768,mp-998759,TlCdF3,https://materialsproject.org/materials/mp-998759,-45.374348600982096,-80.83505768566282,-35.61093768838456,-84.40037381115873
-5.2268421678125,-167.25894937,6.293557552028777,-1.6456117077604175,0.0,1.4075000000000002,4,32,716.0971460658052,2714.0576,mp-1197880,ErAgS2,https://materialsproject.org/materials/mp-1197880,18.582136428553127,9.360839765688134,-6.4028304167627725,-21.667204484301926
-6.81216514,-54.49732112,6.2581407581042985,-0.6306069656249997,1.95447875,0.0,63,8,138.75672464277952,522.93809,mp-1078797,SmMnSi2,https://materialsproject.org/materials/mp-1078797,53.99951011446772,-12.920304449660795,25.08065500888978,7.932412165443712
-7.660409081428571,-107.24572714,6.598573103584269,-3.2923739971428567,3.0000022,0.6547000000000001,65,14,187.83325341095303,746.4030799999999,mp-756904,LiLa4FeO8,https://materialsproject.org/materials/mp-756904,17.119040521873192,-69.9880385053479,38.91986465576802,-41.87458358761968