energy_per_atom,energy,density,formation_energy_per_atom,total_magnetization,band_gap,sgr,num_sites,cell_volume,weight,mp_id,formula,URL,tsne_cry_0,tsne_cry_1,tsne_xrd_0,tsne_xrd_1
-7.570473247931035,-219.54372419,10.977191945258449,-0.47238705017241406,1.5502898,0.0,225,29,381.5604690375223,2522.3511200000007,mp-672657,Hf6Co16Ge7,https://materialsproject.org/materials/mp-672657,61.4746616405424,45.56825157414146,66.89301098656087,16.068215844232128
-8.06219383736842,-306.36336582,8.196903924482745,-0.006889133750001675,79.2109468,0.0,187,38,515.5184323778217,2544.749,mp-1220311,NdEr3Fe34,https://materialsproject.org/materials/mp-1220311,73.56042413158008,37.26774490505847,88.43525965481217,-20.93992358282189
-8.765201458620691,-254.19084229999999,8.246374370121705,0.018728744051723683,34.4021585,0.0,225,29,289.30029099699465,1436.6892,mp-641587,Fe21(MoC3)2,https://materialsproject.org/materials/mp-641587,40.33603163455851,52.62857698937026,79.52740309022919,-10.680232264223438
-7.702400581875,-123.23840931,6.641177798692719,-0.38051235125000016,7.4550716,0.0,193,16,181.76752358190757,726.9630000000002,mp-449,Fe5Si3,https://materialsproject.org/materials/mp-449,44.54503885340095,56.9754168073063,75.24911336903949,-7.852619716459224
-5.831282091538461,-151.61333438,5.812731858264736,-0.7473157575824175,0.0,0.029600000000000293,31,26,351.32310620434674,1229.809696,mp-510001,Ca2Ni7P4,https://materialsproject.org/materials/mp-510001,41.11951773351455,47.68906347409356,69.97427507548815,-16.887899273775197
-7.301065652631579,-277.4404948,8.518766264658293,-0.11759224894736887,28.57097775,0.0,194,38,518.0647434943069,2657.73484,mp-1197720,Tm2Ga3Fe14,https://materialsproject.org/materials/mp-1197720,69.89180169167355,39.6032248895404,88.41465412448791,-20.72438827253028
-5.411115479166668,-129.8667715,8.8801387610025,-0.20823076868055604,0.39199209999999995,0.0,127,24,335.38701988456313,1793.56414,mp-1191038,LaIn2Ni9,https://materialsproject.org/materials/mp-1191038,68.26962702776453,32.29448577042116,74.69715483055424,0.8351666112389037
-7.209338848571428,-100.93074388,6.4506348061894325,0.0519311318371436,0.07832595,0.0,176,14,139.0578230635879,540.1928,mp-1245402,Cr(NiN)3,https://materialsproject.org/materials/mp-1245402,27.64058031215305,53.3001372375956,66.74845505501214,-7.235289385504121
-6.139102678333334,-36.83461607,10.420692938292026,-0.4563616195833345,0.9999418999999999,0.0,65,6,90.63248363981162,568.76307,mp-1222871,LaNi4Pt,https://materialsproject.org/materials/mp-1222871,62.39520708015573,13.337622265505967,63.76693690601033,0.0582052629203846
-5.334543274166666,-64.01451929,8.629098266849379,-0.2298440900000003,0.00027269999999999996,0.0,47,12,171.54198620902062,891.429,mp-1226995,Ce2(CuNi)5,https://materialsproject.org/materials/mp-1226995,78.60321705205024,18.294697495112224,86.34994605155255,-14.03879920791878
-6.463746608157893,-245.62237111,7.799046618481787,-0.3929802634210525,0.01095845,0.0,36,38,387.2095840543251,1818.6056,mp-21695,Ce(Ni2B)6,https://materialsproject.org/materials/mp-21695,31.107537588033384,44.659759039340294,65.76171912077461,-20.04783478074522
-6.773099607777778,-60.95789647,8.788416998985662,-0.5947700251587307,7.1333333333333325e-06,0.0,189,9,109.1576867567727,577.717986,mp-1079265,NiPRh,https://materialsproject.org/materials/mp-1079265,59.85164143974363,37.18617156013815,73.07903276023687,-0.14466507153675826
-6.248761734722222,-224.95542245,7.702207763509099,-0.718464201944444,8.75e-07,0.0,62,36,465.87276771497596,2160.894,mp-1213227,DySi3Ni5,https://materialsproject.org/materials/mp-1213227,55.89844483156684,33.65995509723006,61.38053723977561,-2.8434747699035268
-6.686589045405405,-494.80758936,4.94646661301208,0.1515672906756766,18.55482945,0.0,58,74,950.1033908340244,2830.19826,mp-650285,Mn14Si23,https://materialsproject.org/materials/mp-650285,49.199718827408724,46.92277237404978,72.0840132003469,-7.393160853374126
-5.403219265714285,-75.64506972,10.632245639319487,-0.10805583142857143,0.0378235,0.0,120,14,191.26044108812766,1224.6192,mp-30510,Ce(Ni2Sn)2,https://materialsproject.org/materials/mp-30510,33.959706156499074,33.65018994386517,65.04298989979277,-21.712926249981514
-7.771822813809522,-163.20827909,7.637821351591111,-0.685192857142857,1.2098703000000002,0.0,174,21,258.2127584170628,1187.676334,mp-1191147,Sm2Fe12P7,https://materialsproject.org/materials/mp-1191147,56.348338410884345,35.160452363261236,62.916435519479116,-4.190021998690922
-6.3102895666666665,-132.51608090000002,7.675099753266543,-0.7559878328571423,8.3e-06,0.0,174,21,264.3537592388931,1221.857134,mp-1190918,Sm2Ni12P7,https://materialsproject.org/materials/mp-1190918,56.65389571031898,35.45868004598695,63.31998971665604,-4.056739722986906
-7.273374779230768,-94.55387213,8.909818616446413,-0.1467439638461529,0.0569851,0.0,191,13,175.9272132176169,943.95827,mp-22018,Hf(MnGe)6,https://materialsproject.org/materials/mp-22018,68.36740628606482,34.40572297180405,68.78045183966319,2.179803093669625
-9.015217096923076,-117.19782226,8.922608679287746,0.00946713307692339,2.319057,0.0,139,13,165.8740770372245,891.2946000000002,mp-31221,ThMn12,https://materialsproject.org/materials/mp-31221,69.76851642625225,40.690612311790574,88.3274597089622,-19.691218045556266
-4.0511767575,-97.22824218,6.7099987026953025,-0.17036971583333305,0.0,0.0,194,24,351.12852155787897,1418.8597,mp-13218,YMg2Cu9,https://materialsproject.org/materials/mp-13218,41.62043020942575,45.93526360331583,63.91828565503523,-7.1045075374863655
-7.31173090375,-58.49384723,5.963884701166407,-0.4123977712499993,0.82419275,0.0,4,8,93.05228968921827,334.20059,mp-1226249,CrCoSi2,https://materialsproject.org/materials/mp-1226249,43.73531887290763,57.93037488768907,78.0246586260427,-7.425783571310373
-9.019161988333334,-108.22994386,14.105429466214126,-0.2750359430555551,7.5e-08,0.0,62,12,120.52577417799858,1023.80478,mp-21464,CoReB,https://materialsproject.org/materials/mp-21464,58.951865772385034,28.861124000220407,72.05822580107761,-15.323697616303482
-8.069882908684214,-306.65555053,8.196244448242732,-0.01577698289473891,39.3576609,0.0,194,38,516.366452238573,2548.73,mp-1196404,Dy2Fe17,https://materialsproject.org/materials/mp-1196404,73.56878421396763,37.281311772025106,88.33925626069853,-20.945904162633475
-8.513160354901961,-434.1711781,6.197527105537846,-0.4939005053081228,16.402955900000002,0.0,174,51,624.5133356432569,2330.8324780000003,mp-15746,Zr2Cr30P19,https://materialsproject.org/materials/mp-15746,51.583201675464814,47.53635554399785,71.33363573787399,-4.6836869792753175
-8.701526978888888,-156.62748562,6.365250447042848,-0.5948131673809516,1.9595893,0.0,11,18,231.72323303203441,888.2515720000001,mp-18686,ZrCr5P3,https://materialsproject.org/materials/mp-18686,57.06876741475914,36.170234031557214,70.85075120165816,-4.822664091862851
-7.167538524615384,-93.17800082,7.291015491598036,-0.3194993057692294,11.5420394,0.0,191,13,184.57524808743855,810.4241820000002,mp-19936,Sc(MnGe)6,https://materialsproject.org/materials/mp-19936,44.08852396611025,47.877584306023074,72.12719521825719,-8.984846608277163
-6.180316121666666,-74.16379346,8.547201425012634,-0.12952055479166566,7.521164999999999,0.0,47,12,170.80220858977185,879.16083,mp-1219759,PrSm(Co2Ni3)2,https://materialsproject.org/materials/mp-1219759,78.62695081425936,18.678574060556212,86.20702866735071,-14.278478830206735
-6.403788924210527,-243.34397912,7.8669486960940995,-0.3971264806578954,2.5e-07,0.0,36,38,388.1920219627697,1839.0936,mp-1205147,Sm(Ni2B)6,https://materialsproject.org/materials/mp-1205147,31.10129118872776,44.651078085657566,65.74848748166235,-20.06045275362524
-7.370475572142857,-103.18665801,7.2385361480427575,-0.2915898521428569,8.10360265,0.0,136,14,209.933594792154,915.1317,mp-1207910,Y(Fe2Ge)2,https://materialsproject.org/materials/mp-1207910,22.209651598683845,34.78440844671032,70.13110532112779,-8.335240459574358
-5.222306614444445,-94.00151906,8.995188500358289,-0.5617202919444451,3.986666666666666e-05,0.0,189,18,267.3708302507309,1448.3556,mp-1225816,ErGa2Ni3,https://materialsproject.org/materials/mp-1225816,69.38568218884032,12.246161146708017,63.13010561307114,0.5663178935935265
-5.2586743983333335,-31.55204639,6.747575083828468,-0.10974486583333368,1.9755506999999999,0.0,191,6,82.08348735892035,333.545,mp-774,CaNi5,https://materialsproject.org/materials/mp-774,40.577004533791325,46.46610150264386,68.61648003544363,-16.924857568599066
-7.352007146578948,-558.75254314,7.734644210558651,-0.10286443605262943,25.8422449,0.0,62,76,1017.9999735626717,4741.75398,mp-654223,Mn11Ge8,https://materialsproject.org/materials/mp-654223,46.99361615304166,49.21374731781971,74.48399222486802,-6.403641261993634
-5.9982716542857135,-125.96370474,8.170621778807861,-0.7475424202380948,0.0,0.0,174,21,257.5401946301979,1267.217134,mp-542003,Yb2Ni12P7,https://materialsproject.org/materials/mp-542003,55.86438275358868,34.796172826175024,63.1435770913162,-4.242796801266666
-7.665812784736842,-145.65044291,7.9513904191410045,-0.043315584210528425,29.6719563,0.0,166,19,262.5809617567082,1257.353,mp-1182265,Ce2Ga2Fe15,https://materialsproject.org/materials/mp-1182265,73.96261710808898,37.34796785489872,86.19348302014072,-22.58544800571804
-6.807566595,-149.76646509,8.173901430752952,-0.09186511818181874,9.17164325,0.0,12,22,283.70897429674295,1396.54,mp-636946,Fe6Ge5,https://materialsproject.org/materials/mp-636946,43.85877543293411,48.12552313910366,75.7238113970578,-14.758474043002137
-7.6480275944736835,-290.62504859,8.131416384010919,-0.10328938657894887,28.69953925,0.0,194,38,502.16184785440424,2459.0129944,mp-1198100,Tm2Al2Fe15,https://materialsproject.org/materials/mp-1198100,69.74544617130957,40.240404910308406,88.44538808059151,-19.86296320184837
-5.835592701904763,-122.54744674,8.570778606299072,-0.5306326485714286,1.8000000000000001e-06,0.0,174,21,293.95961993727934,1517.256,mp-1191002,Nd2Ni12As7,https://materialsproject.org/materials/mp-1191002,56.75340129918872,37.14377686610033,70.08615829689458,-4.620051689781581
-7.856176105384615,-102.13028937,9.130599688117195,-0.1643948280769223,13.0520062,0.0,8,13,157.87558912331409,868.0908850000002,mp-1217449,UFe5Co5Si2,https://materialsproject.org/materials/mp-1217449,69.9524124286172,41.65980996478935,83.4317322430074,-18.185219800343305
-8.060927030526315,-153.15761358,8.128949745240558,-0.002985709868421569,39.7277695,0.0,160,19,258.8128185055104,1266.984,mp-1219100,SmErFe17,https://materialsproject.org/materials/mp-1219100,73.85321238304918,37.30294660903235,87.12525548334284,-22.262975131233016
-7.1041812819230765,-184.70871333,7.269965913223702,-0.31737581519230673,22.3233404,0.0,187,26,369.55306613963495,1617.931364,mp-1219700,Sc2Mn12GaGe11,https://materialsproject.org/materials/mp-1219700,44.110322925251786,47.87440984688529,72.16171874665659,-9.015089376689607
-6.984531068,-69.84531068,12.789654850221767,0.3823493569999997,8.5e-07,0.0,127,10,136.71254184058728,1052.9750772,mp-16496,Al(CuRe)2,https://materialsproject.org/materials/mp-16496,58.86180399059961,28.712656834989996,65.81665578111894,13.398008330776285
-7.47183819125,-59.77470553,5.907107605840567,-0.4518423650000001,0.8737135,0.0,146,8,92.99594167898529,330.8185,mp-1216327,VFe3Si4,https://materialsproject.org/materials/mp-1216327,43.74496623127031,57.925356255085475,78.04077280601265,-7.442640949805836
-7.7382169284210525,-294.05224328,7.503099215923146,-0.06658368250000092,57.96020649999999,0.0,2,38,517.1882179846772,2336.9005,mp-1220603,Nd4Fe29Si5,https://materialsproject.org/materials/mp-1220603,74.27101074257901,35.82861536628603,88.40832764485191,-22.4346890257958
-5.363146801538462,-69.72090842,8.723700449808796,-0.3285758907692309,2.1810619,0.0,71,13,177.8682578728532,934.43717,mp-1213263,Dy(GaCo)6,https://materialsproject.org/materials/mp-1213263,68.86374476190886,34.86041367839369,69.04403184634482,2.166602268234879
-6.2767768550000005,-37.66066113,8.758509709207019,-0.06750706541666672,5.154881400000001,0.0,187,6,85.24769314385688,449.63878,mp-1219087,SmCo4Cu,https://materialsproject.org/materials/mp-1219087,78.5279980373246,18.897226150744935,86.65060077232036,-14.199857873139598
-5.057690285555554,-91.03842514,6.228701547454878,-0.1406452819444447,0.8191941999999999,0.0,160,18,257.5962565139885,966.2466,mp-1227887,Ca3MgNi14,https://materialsproject.org/materials/mp-1227887,41.05362469226474,46.18049908524239,68.00979044863263,-16.418936010501714
-8.298036816,-82.98036816,7.4803002987766485,-0.28744358147599913,5.3823078,0.0,140,10,111.64271937499286,502.92167,mp-1205588,Mn3GeN,https://materialsproject.org/materials/mp-1205588,51.35427480486189,49.18857302566077,73.72491326961827,-1.7870377906866017
-8.491075386875,-135.85720619,5.759581144471848,-0.7878991689285719,0.00014335,0.0,193,16,200.4490104753057,695.257572,mp-1188605,V5P3,https://materialsproject.org/materials/mp-1188605,50.4426359413101,47.544973809020824,75.31956711203674,-0.2501192365144778
-6.492684801315789,-246.72202245,7.393924241203762,-0.3938626186842107,2.25e-06,0.0,36,38,385.42357178116737,1716.1853,mp-1202784,Y(Ni2B)6,https://materialsproject.org/materials/mp-1202784,31.18617035433207,44.7458640636137,65.99745456485644,-20.186494263852442
-4.2617685519999995,-21.30884276,6.729312737306089,0.16665340300000012,4.6e-06,0.0,164,5,86.82490704442581,351.8568,mp-1245668,Cu2As3,https://materialsproject.org/materials/mp-1245668,34.83659557351135,31.936108115551967,68.7510013572161,-1.7126066086995801
-7.750744384761903,-162.76563208,7.473337607727423,-0.6594719076190467,1.1028107,0.0,174,21,261.1770893073817,1175.440334,mp-510028,Nd2Fe12P7,https://materialsproject.org/materials/mp-510028,56.54471860584282,35.32625149138835,63.29772937260761,-4.0674498801128784
-7.209293725,-288.371749,4.8516964631417645,-0.6921784705000007,5e-08,0.0,128,40,544.705014449956,1591.497296,mp-21588,Sc2Fe3Si5,https://materialsproject.org/materials/mp-21588,34.695199588363856,45.803556734378006,69.18501905300688,-6.872717058806592
-6.677437888988094,-1121.80956535,6.329862414482918,-0.7015123305555557,0.00047430000000000004,0.0,191,168,2015.071197575083,7681.315,mp-867049,Ti13Si31Ni40,https://materialsproject.org/materials/mp-867049,46.27602377790787,52.62589598814278,75.37952635455106,-10.166672719342467
-6.30280976,-132.35900496,8.11057009510768,-0.7711909630952383,2e-07,0.0,174,21,257.76583513591737,1259.0055539999998,mp-541971,Tm2Ni12P7,https://materialsproject.org/materials/mp-541971,55.85825034426382,34.81723002679777,63.154291732638505,-4.238914586301645
-7.692380960526315,-146.15523825,7.415240090637973,-0.10060333842105253,28.166826399999998,0.0,12,19,258.54987380690073,1154.5704999999996,mp-1220563,Nd2Fe14Si3,https://materialsproject.org/materials/mp-1220563,74.27750310993449,35.77354860551908,88.4380430449725,-22.421618463307738
-8.835043016,-176.70086032,12.456227102822213,-0.38770338533333293,0.0059168,0.0,127,20,229.06158910389797,1718.26323,mp-1189575,Ta3Co5B2,https://materialsproject.org/materials/mp-1189575,59.03591428365709,28.672266956002346,67.67100122199412,2.2751818100444905
-7.3917548417647065,-125.65983231,7.952512443129356,-0.05752586852941189,25.1223937,0.0,155,17,216.7212935114541,1037.9032,mp-1225179,Fe12Ge3As2,https://materialsproject.org/materials/mp-1225179,46.558035413343504,49.76689890841651,75.26785135813606,-7.24625087560158
-7.1072607283333324,-127.93069311,7.631364027127705,-0.1400686527777779,8.7176286,0.0,166,18,256.91065541627927,1180.68813,mp-1188333,Y2Co7,https://materialsproject.org/materials/mp-1188333,76.27735443260984,24.22507467212416,76.01367084240826,0.6915045145069842
-6.0194075789655175,-174.56281979,8.565322608439141,-0.2636054302298854,0.0032939,0.02469999999999928,225,29,296.0482060251581,1527.0634,mp-21551,In2(Ni7B2)3,https://materialsproject.org/materials/mp-21551,40.542767434871415,52.22917754452344,79.45236152031615,-10.208821918983267
-5.399931481428572,-151.19808148,7.704189986149022,-0.5421569450000011,0.00153465,0.0,63,28,477.85820095814057,2217.0574,mp-1207878,Y2(Ga3Ru)3,https://materialsproject.org/materials/mp-1207878,69.54297036031191,18.2857274137321,65.34336419762296,5.0083016347955445
-6.62541931125,-106.00670898,5.163780844612178,-0.4814630031249996,0.0,0.2597000000000005,2,16,196.64560808348,611.5091543999998,mp-29110,Al2(FeSi)3,https://materialsproject.org/materials/mp-29110,41.38600904031768,47.223909607574655,67.93461527678312,-15.914036312904495
-6.125158692413794,-177.62960208,8.613503948550708,-0.2826297086206907,1.3e-06,0.02649999999999864,225,29,295.89282635336,1534.8474,mp-21573,Ni21(SnB3)2,https://materialsproject.org/materials/mp-21573,40.56367007139585,52.143931289209974,79.493097597836,-10.15625810647324
-8.348110449,-83.48110449,7.370982803262015,-0.08291693575000067,5.12946615,0.0,140,10,112.39914911789906,498.92967000000004,mp-22706,Mn3GeC,https://materialsproject.org/materials/mp-22706,51.37216712045045,49.17246890458824,73.73355448465487,-1.8682272507247932
-7.1736603799999985,-64.56294342,11.165558070795354,-0.4674102711111108,6e-07,0.0,12,9,114.19205319136623,767.8338,mp-1205858,Hf2Ni7,https://materialsproject.org/materials/mp-1205858,62.335152930700495,46.31213375991774,72.24450089836596,17.079147404695846
-7.935456598947367,-150.77367538,8.012494279573026,-0.011764496578947322,38.46821679999999,0.0,8,19,260.35227105969653,1256.2613900000001,mp-1219271,Sm2Fe15Co2,https://materialsproject.org/materials/mp-1219271,74.20642774631565,37.39285694999143,86.75898705869953,-22.537266852218746
-7.77035914,-62.16287312,5.7401658041766,-0.35871227750000045,0.16753525,0.0,4,8,94.36746955995352,326.21029,mp-1221675,MnCrSi2,https://materialsproject.org/materials/mp-1221675,43.84895093853836,57.89339468543422,78.0870438163933,-7.338508423052491
-8.112088318421053,-154.12967805,7.958700051704358,-0.013709503947368556,33.2932683,0.0,160,19,259.8002788398801,1245.1815,mp-1219218,Sm2VFe16,https://materialsproject.org/materials/mp-1219218,74.13907523293469,37.374269122703254,86.93806063279635,-22.461521179040886
-7.61996586,-60.95972688,5.879465372243183,-0.3831735949999997,0.2728812,0.0,4,8,92.6439660204939,328.0242,mp-1226256,CrFeSi2,https://materialsproject.org/materials/mp-1226256,43.73260550582895,57.92208347452193,78.02570822012792,-7.47161154287438
-7.181552567931035,-208.26502447,7.877396255500182,-0.5916160556896547,0.0,0.0,225,29,356.90859429195336,1693.13118,mp-3640,Nb6Si7Ni16,https://materialsproject.org/materials/mp-3640,62.098231717718846,44.47699352820058,73.91643335365961,-7.781812263788781
-7.805311226666666,-234.15933680000003,6.708995155441443,-0.6806609470000002,1.455e-05,0.0,139,30,397.97365237048837,1607.9136,mp-984586,Nb4Co4Si7,https://materialsproject.org/materials/mp-984586,63.778648253609724,28.005156632545763,63.59825020012546,9.584820969411822
-6.113951153793104,-177.30458346,8.643662719295975,-0.26328777172413953,0.0,0.0,225,29,296.0322954960128,1540.9474,mp-10123,Ni21(B3Sb)2,https://materialsproject.org/materials/mp-10123,40.53287703687435,52.187506237045234,79.46392294901528,-10.198130205174811
-5.5177363757142865,-115.87246389,7.453937220402112,-0.4759002059523818,0.0009068999999999999,0.0,174,21,291.5943588309247,1308.928,mp-1191589,Ca2Ni12As7,https://materialsproject.org/materials/mp-1191589,41.12508414633536,47.96742532780824,70.17757626270765,-16.955426461021734
-6.8366275,-41.019765,8.782239411600065,-0.6582979173809527,0.0,0.0,129,6,72.82298017641119,385.145324,mp-1018823,NiPRh,https://materialsproject.org/materials/mp-1018823,59.96646927999289,37.06390208963,73.0491275400785,0.05973012218604504
-7.301804744210527,-277.46858028,8.32689374722213,-0.10493495842105384,29.00389135,0.0,194,38,524.8698452120801,2631.998,mp-1203342,Dy2Ga3Fe14,https://materialsproject.org/materials/mp-1203342,73.02793729453064,36.86105986916903,88.37072871046577,-20.96471982902529