energy_per_atom,energy,density,formation_energy_per_atom,total_magnetization,band_gap,sgr,num_sites,cell_volume,weight,mp_id,formula,URL,tsne_cry_0,tsne_cry_1,tsne_xrd_0,tsne_xrd_1
-4.649755788333334,-55.79706946,6.482902824000617,-1.4360564080208338,2.55e-06,0.0,62,12,286.9054891996756,1120.1064,mp-1102611,YbAsS,https://materialsproject.org/materials/mp-1102611,3.619409206734249,-5.648974371420962,17.072587543344465,-40.48993686555396
-6.911827881875,-442.35698444,3.8322311599654775,-2.575130691345186,0.0,3.056,33,64,999.2216108739076,2306.0272,mp-6394,RbTiAsO5,https://materialsproject.org/materials/mp-6394,-31.26926037853005,-29.463225052017716,-33.44279696462281,10.404904087514652
-5.9859670691666675,-71.83160483,5.705749443706857,-2.1974432363541685,0.0001063,0.0,47,12,216.17052557114718,742.7798,mvc-1192,Ba2Sn3O7,https://materialsproject.org/materials/mvc-1192,-24.524901401334354,-63.9889178423728,-5.827857778161385,-57.252030272442205
-5.440797436666667,-97.93435386,7.43422949372193,-1.6822060945288893,1.27e-05,1.3945999999999996,38,18,374.66775849184614,1677.3866999999998,mp-1219347,SiPb7(ClO4)2,https://materialsproject.org/materials/mp-1219347,-20.214615898648262,-55.25547231787235,-11.147916781906526,-60.068604692894624
-5.589854285625,-89.43766857,6.629024356495685,-1.9128164577678568,0.0,2.6391,173,16,354.7620094208455,1416.242524,mp-5709,Tl3PO4,https://materialsproject.org/materials/mp-5709,-32.40715963775185,-32.3976457232504,-19.764112478830334,-52.64862210923946
-5.0358600912,-251.79300456,4.851982507517556,-1.6629805739716008,1.99999995,0.0,2,50,928.8671346951187,2714.0868,mp-561174,Ba2Cu4Te4Cl4O11,https://materialsproject.org/materials/mp-561174,-40.97471063617049,-46.457178138608036,-6.525837034055141,-34.31375975761064
-6.980930563333334,-251.31350028,6.397334225196492,-3.633062894120625,0.0,2.6888,176,36,656.3526848385317,2528.6412384,mp-1194517,Nd2SeOF2,https://materialsproject.org/materials/mp-1194517,23.468664214698283,-40.572665992595965,6.6163634202424335,-36.459125908104184
-5.2392577124324315,-193.85253536,7.707953993603213,-1.629688869413784,0.0,1.0290999999999997,8,37,733.9489780687869,3406.8726,mp-1227872,Bi12Pb2Cl6O17,https://materialsproject.org/materials/mp-1227872,-19.379827792632838,-55.438825324461575,-11.991136529092948,-58.82255236444392
-8.76162651923077,-227.8022895,6.8514243374906085,-3.2757792952884617,2.0008079,0.2818999999999998,12,26,381.8230884639786,1575.41132,mp-1209353,Pr2Ta2O9,https://materialsproject.org/materials/mp-1209353,-32.136867767812355,-54.52047299962317,-23.53292777072781,-33.89100305782666
-5.153242726666667,-30.91945636,6.789506015182996,-0.5868130050000003,6.4e-06,0.0,63,6,112.52085225934408,460.0680772,mp-567229,LuAlSi,https://materialsproject.org/materials/mp-567229,36.815609234049454,-13.636539671175273,13.064535113369498,-16.39353854589487
-6.736233666785713,-188.61454267,5.8158527784739205,-1.6906986261933932,0.00043525,1.2106,62,28,707.6352680899276,2478.4136,mp-605821,Nd3SeBrN2,https://materialsproject.org/materials/mp-605821,3.931893536366636,-32.71619939044205,-3.03359152816778,-26.272830400655828
-4.88436618125,-273.52450615,5.018231134391223,-1.5264028669114285,0.0,2.7093,33,56,1989.3321689281809,6011.86023712,mp-570548,NaPr4I7N2,https://materialsproject.org/materials/mp-570548,3.5524111061913044,-27.10789600137613,-4.136997477028742,-27.88543560167037
-7.637280224166666,-91.64736269,4.470803264343591,-3.028014945937501,0.0,1.4759000000000002,139,12,148.31132902950839,399.31056,mp-561294,SrLi2Nb2O7,https://materialsproject.org/materials/mp-561294,-30.024005727904896,-70.74421901198025,-1.501140520735207,-54.17213718138058
-7.702888468541666,-369.73864649,6.47703595050037,-3.2236340772675014,3.000000025,2.2105,14,48,605.6473010833498,2362.36502,mp-769464,LiLa3MnO7,https://materialsproject.org/materials/mp-769464,15.85808540698626,-69.52134399413809,38.461205859145686,-41.98199649331328
-5.160791549615384,-134.18058029,4.79476727511712,-1.8280510036538464,1.515e-05,0.0788000000000002,14,26,474.97281849669815,1371.4728,mp-555814,Sr2Cu2Te(BrO3)2,https://materialsproject.org/materials/mp-555814,-27.11680039392726,-32.33247650310227,11.37770485105517,-2.4603450260777664
-5.1749603225,-20.69984129,6.3547730572799255,-1.2553390605468748,0.0,0.6594999999999995,166,4,106.41919307423771,407.25921199999993,mp-13313,ScTlSe2,https://materialsproject.org/materials/mp-13313,23.06877815571027,-24.00363576019917,16.632043539378127,-16.2612048687245
-7.791419940000001,-132.45413898,4.8076869208316095,-3.0980304433823527,0.0058219,0.0,42,17,216.84955318877772,627.83514,mp-756684,Sr2Li2Nb3O10,https://materialsproject.org/materials/mp-756684,-29.951857950593467,-70.70740383389494,-2.185818589476233,-54.398299373383786
-8.248668813181819,-181.47071389,5.43701490537061,-3.2057896945415383,0.0,2.3882,26,22,351.19892833090387,1149.9120238,mp-554929,CsNdNb2O7,https://materialsproject.org/materials/mp-554929,-13.701201211050494,-59.54409343980139,-7.72140471129165,-63.718413019912575
-7.7204075925,-216.17141259,5.408248451152472,-2.934482388692821,7.000000225,1.0236999999999998,62,28,466.5026070182975,1519.3632556,mp-1213376,CsEuPO4,https://materialsproject.org/materials/mp-1213376,-10.420977539740162,-31.76234713936552,-6.558381542149463,-24.903564633718762
-6.025118266000001,-30.12559133,5.076865463177945,-0.9854461937499992,1e-07,0.4887000000000001,164,5,145.10275381147977,443.63134,mp-1206803,Y2CI2,https://materialsproject.org/materials/mp-1206803,25.83571839144895,-20.358368140106307,-10.844234009117864,-5.384130812995537
-4.2824001422222215,-192.7080064,7.240566848563097,-0.7298094438194445,0.00058062,1.2713,2,45,1404.2349869874054,6122.986,mp-1205061,Zr(TlSe)4,https://materialsproject.org/materials/mp-1205061,24.495999751761865,-11.243160708552173,13.23833913175262,19.470987040668113
-4.482970285833334,-161.38693029,4.471840113276406,-1.00939854234127,0.0,0.9387000000000004,62,36,1203.9042127657412,3242.1201920000003,mp-17566,Ba5P4,https://materialsproject.org/materials/mp-17566,1.9467303409063563,-26.62572899478957,-11.186070098547757,-27.6336989668594
-6.5491745283333325,-275.06533019,4.891495526010723,-2.3739377282440484,6.666666666666667e-08,3.0156,143,42,582.4180261484197,1715.6448,mp-1196124,BaGe4O9,https://materialsproject.org/materials/mp-1196124,-29.506189203456,-29.26856750112982,-23.01220271934287,0.9851626676085912
-6.068845370625,-388.40610372,5.1579516917176065,-1.304124608125,0.0,0.03690000000000016,20,64,1752.4995064687298,5443.59848,mp-29994,La3C2Br3,https://materialsproject.org/materials/mp-29994,26.43833824319869,-20.189148106599298,5.867473687088082,6.190364326428165
-8.13170416904762,-170.76578755,5.6901144771552215,-3.257927182936508,0.6177718000000001,0.0,8,21,310.84507848639794,1065.1626,mp-1219148,Sm4Ti4S4O9,https://materialsproject.org/materials/mp-1219148,-0.18108602306270735,-49.819466397496264,1.667506250147337,-25.46748446142417
-7.820263799999999,-93.84316559999999,4.823707371006863,-2.8126871785008354,0.9999991,0.0,25,12,184.41674258652398,535.71303,mp-1222940,LaNb2CuClO7,https://materialsproject.org/materials/mp-1222940,-29.59139981056775,-69.27090632127644,0.6669380344879323,-51.47552606638068
-5.058769542,-50.58769542,6.017841731422077,-0.7167898079999999,0.000171,0.0,127,10,219.8253345782371,796.6534,mp-1205816,Tb2MgSi2,https://materialsproject.org/materials/mp-1205816,30.79676388176065,-38.935546040195696,19.96225185956981,5.702023368299093
-4.9974162657142855,-34.98191386,5.955458224513548,-0.5360210857142853,0.0,0.0,12,7,131.50390819444138,471.6336158,mp-12004,Er2Al3Si2,https://materialsproject.org/materials/mp-12004,36.70572168470904,-13.57215381122248,6.199905360383176,-2.4105810870141835
-8.676306831363636,-190.87875029,6.788003148900818,-3.5250407096590917,1e-07,2.9093,63,22,317.59216188656256,1298.2631199999998,mp-12286,Sr2Ta2O7,https://materialsproject.org/materials/mp-12286,-32.22326554854088,-67.97491165632836,-6.154602250983952,-55.56785824394846
-5.6996816612500005,-136.79235987,5.321498705602575,-1.8239594288281258,0.0,1.6883999999999997,173,24,535.3361984889743,1715.5820000000006,mp-558042,Sm3CuSnS7,https://materialsproject.org/materials/mp-558042,12.492598077268331,-13.617505325125395,1.3511936844978836,-3.963369971883241
-8.645244704285714,-242.06685172,4.366967189439663,-3.5344704332440484,1e-07,2.7859000000000003,59,28,359.55644017866786,945.5792,mp-3175,BaTi4O9,https://materialsproject.org/materials/mp-3175,-13.089520715265644,35.88980854570062,-21.53704088466757,-14.892601341165562
-5.6281358338333325,-337.68815003,6.497235091023071,-1.4332515718140002,21.999999,1.8047000000000004,176,60,684.9575062852027,2680.05138,mp-560090,Mn2Ni6Te3PbO18,https://materialsproject.org/materials/mp-560090,4.304523384720492,-72.31415149750792,8.274567818309293,-35.68625957308458
-7.297576579375,-116.76122527,5.0595828194351915,-2.27631938125,0.0,1.0522,62,16,330.572515083695,1007.2386,mp-557685,NbIO2,https://materialsproject.org/materials/mp-557685,-29.52760855662639,-30.213503453033525,-18.520514396845293,-9.667288976083682
-6.529309463333332,-156.70342712,5.406695551280949,-2.379297832760416,4.00000015,1.9593,186,24,516.7109605092359,1682.4048,mp-1190394,Nd4FeS6O,https://materialsproject.org/materials/mp-1190394,10.16982382618142,-8.510308116090805,-8.738299601813553,-11.647340081222428
-6.145595937894738,-116.76632282,6.1703631583747445,-2.119748315809475,12.1471114,0.0,1,19,284.41145738234883,1056.838735,mvc-3053,Ba2Mg2Mn3Tl2O10,https://materialsproject.org/materials/mvc-3053,8.282658736020226,-63.91909790789113,9.240915793004056,-44.801220882366856
-4.693685224166667,-56.32422269,4.961846219239686,-1.367280302533333,4.66e-05,1.102,164,12,355.15723797475005,1061.2431,mp-1227977,Ba6Br2N3Cl,https://materialsproject.org/materials/mp-1227977,0.041639240418452204,-27.213712589560878,3.765509126358064,-58.59419631398161
-6.673489975000002,-186.8577193,6.381169860814484,-0.5555855204761906,9.925e-06,0.0,14,28,369.2851002344612,1419.1,mp-570421,Sm2B5,https://materialsproject.org/materials/mp-570421,8.517213719543541,-58.89341390860467,-1.45298519331496,-33.27248792728405
-6.861039955,-137.2207991,5.768965842281706,-0.5651995658333334,0.0,0.0,127,20,215.86386951482135,749.944,mp-1632,NdB4,https://materialsproject.org/materials/mp-1632,8.030038400454776,-59.557239417577044,4.383832637882088,-48.84622156985246
-4.030012775714286,-28.21008943,7.465151949872148,-1.3632746834314289,0.0,2.2621,12,7,159.68761922299632,717.8948,mp-546862,HgPb2(ClO)2,https://materialsproject.org/materials/mp-546862,-19.13410481511914,-54.924105451139745,-0.6811185878138334,-36.10441656315599
-5.748524406785713,-160.95868339,7.347666176958147,-1.884331056377551,1.5e-07,0.0,62,28,455.36992655119684,2014.9518480000002,mp-1193794,Tl2PO4,https://materialsproject.org/materials/mp-1193794,-28.730388238747267,-46.59243014071887,-17.515028465479556,-35.60023285133193
-8.375124207941179,-284.75422307,5.4545505331760635,-1.1387166032664713,27.99999965,0.4205999999999994,194,34,679.2378697517893,2231.16542,mp-638276,LiEu4C3(IN2)3,https://materialsproject.org/materials/mp-638276,1.720907320231154,-33.41136717783744,1.5175570725972458,-49.04958934495095
-6.345339233846151,-247.46823012,4.883863199769156,-1.2741566386858971,0.026910900000000005,0.0,12,39,1127.1955042833144,3315.229880000001,mp-1207850,Y16C7(I7O)2,https://materialsproject.org/materials/mp-1207850,26.1898878903377,-20.570033921892847,10.296931942277213,-2.617486128994925
-7.526591607999999,-75.26591608,6.039530177193942,-0.9918559998571423,13.999495399999999,0.0,36,10,237.15910623450443,862.5690480000001,mp-1078980,Eu2ZnP2,https://materialsproject.org/materials/mp-1078980,14.579545666285188,-18.142461446668246,6.450992084248107,-0.7955921613189116
-6.249302392916667,-149.98325743,3.3879541058437384,-1.7150642820311113,0.0,2.7553,62,24,489.18417536368617,998.0696,mp-23131,Sr2BN2Cl,https://materialsproject.org/materials/mp-23131,15.28707708765852,-17.839859589397864,-18.862285481198953,-8.238001253950511
-4.4058552744999995,-88.11710549,4.3661032092165355,-1.9566742174827585,0.0,2.3181000000000003,60,20,514.0288228747917,1351.5508152,mp-753803,Cs2CaO2,https://materialsproject.org/materials/mp-753803,-2.388149279563431,-24.453860830360323,-5.741090165990412,-28.85688801345165
-6.911364026071429,-193.51819273,3.927415123194144,-2.866803261636837,8.00000015,3.9304,59,28,389.79190474423035,921.9142607999999,mp-561063,BaFe2P2O7F2,https://materialsproject.org/materials/mp-561063,-28.61000908637416,-27.29284693895046,-22.71379173435148,-29.25139347173626
-7.22743448625,-57.81947589,4.8425082008105935,-0.2080672662500005,7.180168425,0.0,63,8,245.4480534111535,715.7821544,mp-1079783,EuAl,https://materialsproject.org/materials/mp-1079783,1.0831518401975608,-25.767272656639037,-10.019974773110569,-27.933415363833863
-6.9397508750000005,-41.63850525,6.151920191945418,-0.483668248333333,1.8596319,0.0,129,6,120.88794391650387,447.86239000000006,mp-20333,PrMnSi,https://materialsproject.org/materials/mp-20333,41.602370998301936,-6.0631936254851135,25.243142672495264,15.712502557096874
-6.1389663783333335,-73.66759654,5.0495269957533875,-1.9210841892708348,12.0766714,0.0,25,12,182.24390057692744,554.1848,mvc-1354,Ba2Fe3O7,https://materialsproject.org/materials/mvc-1354,6.870386521075697,-40.018821075914424,6.606322672012657,-39.339402022087434
-7.785096691666666,-93.4211603,5.234654676055853,-2.746256419895834,0.0007932000000000001,0.0,123,12,184.03984236542058,580.16403,mp-624909,LaNb2CuBrO7,https://materialsproject.org/materials/mp-624909,-29.28073586099281,-68.96256086008793,0.6109892947798787,-51.43283360867913
-7.7822583575,-217.90323401,4.603252704587199,-2.6649533245535717,10.0000015,1.2317,42,28,417.60055715611975,1157.64872,mp-1022731,BaNb2Fe2O9,https://materialsproject.org/materials/mp-1022731,-30.102463707277998,-70.29645338052899,-1.4233456540969054,-54.02108791940696
-3.777881305,-173.78254003,7.328789488629707,-1.5622807001343482,0.0,0.7792000000000003,1,46,950.8248376529477,4196.465670400001,mp-674421,Tl8Cu4F11,https://materialsproject.org/materials/mp-674421,8.776140352201715,-24.36263697516873,-14.421177703553644,-29.447810377014488
-6.06300005,-109.1340009,4.7587616529125825,-2.3528491626388903,0.0,2.0209,55,18,281.7181547571966,807.3460000000001,mvc-3799,Ca2Sb2O5,https://materialsproject.org/materials/mvc-3799,-11.272237015983677,-44.09974871812076,-7.798807496220737,21.250320745334566
-6.04595656625,-48.36765253,5.768695401580279,-2.2161863825,0.0,3.2021,11,8,147.46434355902184,512.2896,mp-1025511,NdBrO2,https://materialsproject.org/materials/mp-1025511,22.47423741029515,-9.52857689763085,7.686513283671818,-1.376327994765283
-7.209456417,-72.09456417,5.275072349194009,-2.2668005463749994,3.9999998,0.0,12,10,171.3977019205177,544.4830000000001,mp-551214,CeCrS2O,https://materialsproject.org/materials/mp-551214,-0.18016226407576585,-49.83895368316659,2.553149559139956,-35.892334473795856
-6.49983566375,-259.99342655,5.159806290918487,-2.5042425750282504,0.0,3.7418999999999993,186,40,652.8681378478442,2028.6624064,mp-555217,Dy3Se4O12F,https://materialsproject.org/materials/mp-555217,-31.22236517391901,-53.03472842525492,-21.36004543780771,-43.53358857282197
-4.956111146666666,-267.63000192,5.920688278332893,-1.27528183,3.00004695,0.08519999999999994,90,54,905.0054688635986,3226.8168,mp-1194777,Cu3Hg2(Te3O8)2,https://materialsproject.org/materials/mp-1194777,-24.38345125174895,-43.185725132172834,-19.533219945653585,-36.72074559089726
-6.1536335714999995,-123.07267143,6.092250702498597,-2.153187495416668,0.96849385,0.0,14,20,237.8488550134156,872.6292000000002,mvc-5009,Mg2AgWO6,https://materialsproject.org/materials/mvc-5009,-35.175626231503934,-76.20202399614926,-17.844953320255602,16.93020926459801
-5.935807807826087,-136.52357958,6.158717514745457,-2.107342035295032,0.0,3.3594000000000004,150,23,332.0060575176405,1231.3661240000001,mp-1190498,Zn3TeP2Pb3O14,https://materialsproject.org/materials/mp-1190498,-23.484326538943826,-44.99460295671438,-18.951659218909107,-41.81875570732324
-5.848533807368421,-222.24428468,4.257899919384982,-1.7404687894407895,10.00000105,2.4708,13,38,590.3279382375539,1513.6996,mp-561035,BaFe2(SeO3)4,https://materialsproject.org/materials/mp-561035,-30.907777293151714,-29.75256873591276,-33.74296932458788,10.778201826233687
-8.402133256527778,-604.95359447,5.983024186640744,-1.5732824940603696,0.0,1.3068,57,72,958.9974127234776,3455.326600000001,mp-29594,La5B4N9,https://materialsproject.org/materials/mp-29594,11.692889609079625,-60.4320787263135,-6.902395875235085,-20.970875050738357
-7.4706651075,-179.29596258,5.415976602097044,-2.896003909469167,0.0,1.4499000000000004,12,24,532.7439725420047,1737.5857,mp-1019896,La5S4NO2,https://materialsproject.org/materials/mp-1019896,10.555501169180532,-6.31586714538373,-5.746070423882627,-23.155278830385274
-10.001966215,-60.01179729,6.517832381927318,-3.4807413090033337,7.00000025,2.9895000000000005,129,6,106.34163710703432,417.4048,mp-23050,GdClO,https://materialsproject.org/materials/mp-23050,0.717901123908111,-51.62675717327111,4.0373798556024365,-38.42447901959017
-7.8022288111538485,-202.85794909,4.242614461936518,-3.4631310778205133,0.0,3.722,100,26,396.62990083913843,1013.3744,mp-6081,Ba2Ti(SiO4)2,https://materialsproject.org/materials/mp-6081,-25.551678612732463,-26.44823328722023,-8.989478967381833,-25.435373135817226
-7.092120915625,-226.9478693,6.828007884346755,-2.0432328365950525,2.000000025,0.3155000000000001,2,32,490.11156876591593,2015.3008,mp-554763,NpAgSeO5,https://materialsproject.org/materials/mp-554763,-25.158573017147315,-46.979729981055755,-13.929161928345016,-50.126918975220995
-7.036055159249999,-281.44220637,3.680977445845618,-2.8603034747142866,0.999986425,1.9499000000000004,14,40,491.6645094844196,1089.890648,mp-759976,SrLiVPO6,https://materialsproject.org/materials/mp-759976,-24.057897034184887,-33.21411610093898,-17.43037909395371,-30.706029605723142
-5.991554741818181,-65.90710216,7.164416747364055,-2.1685415052272727,4.8689675,0.0,107,11,172.2701622982452,743.2618,mp-1218840,Sr2FeBiPbO6,https://materialsproject.org/materials/mp-1218840,8.986949611089571,-67.15928107043747,9.692218522195999,-48.72401817665247
-6.05016173625,-48.40129389,5.580130044353552,-2.215745081875,0.0,3.1972,11,8,150.4630245561244,505.6209,mp-1025461,PrBrO2,https://materialsproject.org/materials/mp-1025461,22.501399944490423,-9.4951601520284,7.675716186857714,-1.3736862394476592
-4.217738634807692,-219.32240901,4.718577978940608,-2.601084469280703,7.99999985,4.9957,14,52,1020.615716361402,2900.1756226,mp-563023,Cs7Ni4F15,https://materialsproject.org/materials/mp-563023,-53.588951392746026,-61.951192677247754,-22.441374329924606,-13.754719735906866
-7.732358799166667,-371.15322236,3.976182060322276,-2.9559477535974987,10.00349145,2.6446000000000005,15,48,693.8695541819342,1661.4795600000002,mp-1196057,BaMn2Si2O7,https://materialsproject.org/materials/mp-1196057,-28.86740594803322,-28.287547150074925,-5.78953784276458,-25.172333684454173
-5.537263116956521,-127.35705169,6.288330185462043,-1.775054092500001,0.0,2.9582999999999995,150,23,348.3732021491661,1319.2618,mp-558298,Zn3TeAs2Pb3O14,https://materialsproject.org/materials/mp-558298,-23.699073592999824,-45.072546003539905,-18.60166272718933,-42.23326986381228
-7.7547830440625,-248.15305741,6.978197124433536,-3.3703572038867198,2.5e-08,2.584,57,32,465.35070697353086,1955.5752,mp-17913,Tb2SiSeO4,https://materialsproject.org/materials/mp-17913,25.929443478806487,-39.70890954036508,6.7269196920226415,-23.3047499068017
-6.033656896153849,-156.8750793,4.664704233606526,-1.6730171399038472,23.0000016,0.0,156,26,391.25528251619033,1099.09501,mp-698728,Ba2CaY(Co4O7)2,https://materialsproject.org/materials/mp-698728,-34.82453720864867,-51.09347549937303,-26.139659423928922,-35.55423115264711