energy_per_atom,energy,density,formation_energy_per_atom,total_magnetization,band_gap,sgr,num_sites,cell_volume,weight,mp_id,formula,URL,tsne_cry_0,tsne_cry_1,tsne_xrd_0,tsne_xrd_1
-6.944165012321428,-388.87324069,5.599870559643028,-2.118485361010713,2.5e-08,1.2026000000000003,62,56,1270.561280780527,4284.7404,mp-561469,Nd6S4N3Cl,https://materialsproject.org/materials/mp-561469,10.53954880888596,-6.225249603107423,-5.770101911605281,-23.204829943665747
-7.809605704090909,-171.81132549,6.441320449892642,-3.096598427246364,1.99999815,0.0,4,22,300.92402378447366,1167.30051,mp-1178204,La3MnO7,https://materialsproject.org/materials/mp-1178204,15.949808250607875,-69.48409809975469,38.23002444410968,-41.89866668756279
-2.868473827272727,-63.106424200000006,3.6555911467043374,-1.5271144714890283,0.0,3.1975,167,22,848.2653200360471,1867.4124,mp-28315,Rb4CdBr6,https://materialsproject.org/materials/mp-28315,4.1569131201566805,-32.21699375762431,-2.958780913328773,-24.52978769637123
-5.81112665,-87.16689975,5.712237811210956,-1.7761225113333334,0.0,0.0,65,15,216.78523323156142,745.7390499999998,mp-6789,Ba2Y(CuO2)4,https://materialsproject.org/materials/mp-6789,24.33185757192504,-77.22998468312204,42.37204468228408,-47.753355402753456
-7.920711200217391,-364.35271521,5.72881008078933,-2.6534021251992748,0.99999955,0.0,127,46,633.8021838575359,2186.5986000000007,mp-1207566,YbNb5Ag2O15,https://materialsproject.org/materials/mp-1207566,-30.100553766016866,-68.27063191466179,-3.6347214300209583,-55.292712013504406
-5.5505213290625,-355.23336506,5.293913964250558,-1.4689087595312502,2.999994825,2.3711,133,64,989.0127872268338,3153.04156,mp-863436,CoTe2O5,https://materialsproject.org/materials/mp-863436,-40.968212782241146,-45.63004946261867,-26.97876409702191,-24.45535868883569
-8.443354987407409,-227.97058466,5.0861666576417255,-2.910564833487654,4.8599999999999995e-05,2.597,5,27,425.0987829028517,1302.0610800000002,mp-1216944,TiNb6Tl2O18,https://materialsproject.org/materials/mp-1216944,-48.03068961183336,-42.731135466679284,-24.91282048519393,-50.430176970812724
-7.99176400857143,-111.88469612,4.862618808101524,-3.472142251309524,0.0,2.2644999999999995,129,14,176.0118609594446,515.42214,mp-6521,LiLaTiO4,https://materialsproject.org/materials/mp-6521,12.428270880415424,-63.9206201540237,11.065336856032202,-44.19399953842496
-6.163809004,-61.63809004,6.062520786502937,-2.163362927916668,1.0,0.0411999999999999,1,10,119.50761944354664,436.3146,mvc-5923,Mg2AgWO6,https://materialsproject.org/materials/mvc-5923,-35.169034939419284,-76.06304000583377,-26.095786164740645,-13.317574666204386
-8.08753045578125,-517.60194917,4.330495008925297,-3.2938846509960937,0.0,2.4613,141,64,950.9394438283417,2479.9408,mp-1020598,Y4Si2S3O7,https://materialsproject.org/materials/mp-1020598,-22.230926560536783,-34.106537428735955,-1.4824483835854614,-15.694847248310404
-2.7624397225,-44.19903556,5.2599856525681865,-0.4666960441666666,0.0,1.4412999999999996,140,16,623.0260660498342,1973.5207,mp-23417,InSn2I5,https://materialsproject.org/materials/mp-23417,3.841848038726774,-30.905044802770323,-4.95157642733907,-26.744077845070763
-5.6637648,-33.982588799999995,6.3992453817096,-0.520866095,1.67e-05,0.0,141,6,114.7470839936589,442.20264000000003,mp-1077147,HoSi2,https://materialsproject.org/materials/mp-1077147,49.06295040966164,-15.770468963671574,21.45943084289317,22.53374526206572
-6.267997682847222,-902.59166633,5.543014016058492,-1.8413197107638883,16.000000075,0.3924000000000003,1,144,2127.402197925,7101.44110848,mp-1076205,K4Na4Mo3(WO4)5,https://materialsproject.org/materials/mp-1076205,-31.57405805147288,-74.67115220591495,-22.378948866644954,-24.330869150270704
-6.7338230992307695,-87.53970029,7.344985853447538,-2.1950078208653863,4.0000048999999995,0.5336999999999996,38,13,214.36819196284839,948.20495,mvc-2508,Sr2YTlW2O7,https://materialsproject.org/materials/mvc-2508,5.778169843819351,-67.86245785007057,2.674300995769289,-34.102189103770584
-3.4817956260000003,-34.81795626,5.64240764457083,0.6121506519999997,0.03892725,0.0,227,10,368.30873167577863,1251.49,mp-1209093,Sm4Mg,https://materialsproject.org/materials/mp-1209093,0.6696201707720073,-26.25585049945328,-15.786816673212742,-22.065508795530253
-5.04893001125,-40.39144009,6.041040812615982,-1.7474056072916673,8.5e-07,0.0,63,8,152.38813076465132,554.388,mp-996979,BaAgO2,https://materialsproject.org/materials/mp-996979,18.24815157315883,-43.957767082489006,8.343047668636062,-23.828248044949298
-7.414958517916666,-177.95900443,8.060152030209817,-2.470804670416665,1.0,0.0,15,24,346.1826904587958,1680.349,mp-1213822,CeTl(WO4)2,https://materialsproject.org/materials/mp-1213822,-47.40100448647513,-56.366137865293275,-20.072405956873947,-61.45261973505743
-3.62948268,-21.77689608,3.0894226663494484,-0.3909014198333338,0.0,1.2979000000000005,194,6,114.94104262896538,213.84710256,mp-9573,NaBeAs,https://materialsproject.org/materials/mp-9573,-27.999786542668428,-17.094455767481293,-1.5798281871177022,-36.06649062126735
-7.776210416785713,-217.73389167,5.415305995949051,-3.416415225309524,0.00011059999999999999,2.2649000000000004,57,28,384.4786488010033,1253.8516,mp-1211619,KDyTiO4,https://materialsproject.org/materials/mp-1211619,12.5264118147956,-64.0664714902273,14.836334043923225,-42.870614727133045
-8.823970771,-88.23970771,5.904292015407955,-0.6996134930000011,14.1556471,0.0,127,10,222.1682349556766,789.952,mp-1205813,Gd2MgSi2,https://materialsproject.org/materials/mp-1205813,30.874755677589732,-38.89695263462719,19.968578280973226,5.711434527201726
-2.563256866666667,-30.759082399999997,3.7597100346216648,-0.06844194958333343,0.0,1.3395,33,12,310.5931558897712,703.2296,mp-28460,Br2O,https://materialsproject.org/materials/mp-28460,-2.7850823159796243,-21.409664659167138,-8.94751227305489,-30.172846399658194
-7.582503152941178,-257.80510719999995,4.7613020860061015,-3.018122723970588,4.9999998,1.2555,12,34,424.998795789254,1218.6089000000004,mp-772076,Sr4Li4Nb5FeO20,https://materialsproject.org/materials/mp-772076,-29.975480877324518,-70.77531800105828,-1.9914626785471805,-54.41030607008212
-8.6914935865,-173.82987173,7.561351925479642,-3.6627367620833335,0.997693625,0.0,62,20,231.13750597770363,1052.4968,mp-756296,ErTiO3,https://materialsproject.org/materials/mp-756296,9.36174765148575,-81.384303514848,50.94270505623062,-53.2154530653973
-6.91891948875,-387.45949137,4.121062470937678,-2.9659233708928574,0.9999999875,1.5283999999999995,33,56,935.3970778946741,2321.4328,mp-541507,Sr2VO4,https://materialsproject.org/materials/mp-541507,-22.60571500773819,-33.06574919308929,-0.5190429798460712,-27.75361514504077
-5.852097087083332,-140.45033009,4.125465213931799,-1.4607202400053876,6.9900074000000005,0.4645999999999999,14,24,657.7784882427577,1634.1936,mp-646129,RbEuAsS3,https://materialsproject.org/materials/mp-646129,7.684047638553753,-29.38955554730441,4.642338563359009,-27.70283186422691
-3.9814791658749997,-318.51833327,8.17138799841263,-1.040281403125001,0.0,1.1609,206,80,1341.8069290264996,6602.9312,mp-3538,Hg3TeO6,https://materialsproject.org/materials/mp-3538,-14.671983911833733,-53.17657390748197,-18.334730934126533,-50.427031569275144
-7.06079058,-169.45897392,6.150926128597972,-2.573492582183908,0.0,2.9429000000000007,15,24,335.68336811369807,1243.4297238,mp-1213049,CsTm(MoO4)2,https://materialsproject.org/materials/mp-1213049,-47.879640666242274,-55.102926799256856,-20.90056738144849,-58.71038455998519
-9.517168286153844,-247.44637544,7.624390253689184,-3.499354991442306,0.0,2.2822000000000005,12,26,368.40282647546815,1691.52718,mp-1101372,TbTa3O9,https://materialsproject.org/materials/mp-1101372,-32.700616205522444,-70.09333703322497,32.077439102887624,-59.4985298628696
-3.947139017500001,-157.88556069999998,4.975250508599683,-1.4392795555913795,0.0,1.4562000000000002,14,40,805.2439341953192,2412.64444656,mp-562541,Cs2Na3TlO4,https://materialsproject.org/materials/mp-562541,-32.44999085495672,-35.670620298056484,-23.449222650981078,-27.81536448999516
-7.942759549642857,-222.39726739,8.38433586941165,-2.8549599616964287,0.0,2.3040000000000003,41,28,400.6488707451904,2022.9423199999999,mp-559951,SrTa2Bi2O9,https://materialsproject.org/materials/mp-559951,-31.73984625459171,-67.31128674632916,-7.21229643762917,-58.59883549922273
-5.2666354825,-21.06654193,7.227153185260898,-1.81122171703125,0.0,1.2536999999999994,166,4,101.89577178504591,443.4803,mp-1001604,LuTlS2,https://materialsproject.org/materials/mp-1001604,4.534037192477499,-5.067833251587412,-2.4170212096527304,-5.450308798406931
-4.59222263,-27.55333578,2.9338307532589094,-0.3609531608333333,6.48e-05,0.0,164,6,135.86189002853638,240.04,mp-1218335,SrCaSi4,https://materialsproject.org/materials/mp-1218335,24.759514386544307,-40.82654213925112,21.2556028756512,-34.12077398383522
-7.600763993666666,-456.04583962,3.754942667725764,-3.361607233606321,0.000396175,4.6636000000000015,14,60,877.3826346974125,1984.007248,mp-1197457,RbBaSc(SiO3)3,https://materialsproject.org/materials/mp-1197457,-27.557516310462226,-27.75718594886513,-8.529498036557003,-27.9818543672448
-7.650130566666667,-183.60313359999998,7.284221472778195,-2.465580976350575,6.0000083,0.0,15,24,355.87189977320094,1561.0893038,mp-1213312,CsEu(WO4)2,https://materialsproject.org/materials/mp-1213312,-47.52459628947479,-56.274359888325634,-21.095894666527048,-61.071536208102046
-4.64149414625,-37.13195317,3.967260766519895,-1.2724638918449998,1e-07,2.3576,194,8,185.0600138741729,442.13434000000007,mp-28553,Ca2IN,https://materialsproject.org/materials/mp-28553,25.73868551214261,-41.48721615403033,6.198362382669956,-38.535800420068064
-8.637019043928571,-241.83653323,5.072587025663828,-3.70055535407738,0.0,2.6195000000000004,12,28,357.22666778811663,1091.25008,mp-559747,La2Ti2SiO9,https://materialsproject.org/materials/mp-559747,-22.603382512051873,-35.566878095305704,-17.70507238468152,-31.39635367303839
-7.01201564625,-168.28837551,4.129709966298903,-2.7880697974652797,0.0,3.9764,63,24,290.0588834970025,721.3676,mp-556046,SrGa2B2O7,https://materialsproject.org/materials/mp-556046,-26.606475105759625,-28.582326493997744,-6.719719782698238,-24.375263558932186
-5.771485831428572,-80.80080164,4.77966348817452,-0.6145455895914286,6.17e-05,0.0,176,14,377.2308187774289,1085.8139,mp-1245853,Ba3YN3,https://materialsproject.org/materials/mp-1245853,-3.4211199769824288,-27.980837218887444,-26.57188446278685,-57.157990702727716
-8.007547901710527,-608.57364053,5.058395005138305,-2.199018806245789,0.0,3.1709000000000005,19,76,1143.454273483482,3483.2324,mp-677703,Nd4Si4N7ClO3,https://materialsproject.org/materials/mp-677703,-23.54851811535657,-29.99548799063617,-17.884068753327202,-27.86896031417828
-7.1914392093939385,-237.31749391,6.437933737807307,-2.8668181540530315,5.000111799999999,0.0,42,33,476.55351478539734,1847.60483,mp-757549,La9Ni5O19,https://materialsproject.org/materials/mp-757549,19.119228229445685,-71.44504840791478,43.610094127918025,-43.87159318006647
-6.574610079903848,-683.75944831,4.067519707283017,-2.3812602240796705,1.9830991875,0.0010999999999996568,56,104,1321.5817309389545,3237.2377920000004,mp-582585,SrCu2(PO4)2,https://materialsproject.org/materials/mp-582585,-25.992034440413317,-32.495791933083794,-19.197068538054094,20.216176535908737
-4.191134730333333,-125.73404191,7.36215719473657,-2.2825284303806668,0.0,2.9278000000000004,26,30,591.6698292633616,2623.2242576,mp-674395,Tl5SnF9,https://materialsproject.org/materials/mp-674395,-58.2188033184829,-43.213404672409716,-5.596409450376623,-24.219838335700125
-7.102359245,-568.1887396000001,4.040171431083527,-2.8790581042499994,0.9999997125,0.3643000000000001,142,80,1160.8168156171412,2824.3232,mp-565843,BaCu(SiO3)2,https://materialsproject.org/materials/mp-565843,-28.5324585840706,-28.096651387361554,-10.654932775866241,-22.81158301810574
-4.00681964625,-32.05455717,6.0419981853710425,-1.9100135540475005,6e-07,0.2845999999999997,129,8,214.64240888492097,780.9928064,mp-1078693,BaCdSbF,https://materialsproject.org/materials/mp-1078693,21.19416408414308,-8.015649651992979,13.777372114783072,16.2288751876747
-6.347921677777778,-114.2625902,4.815273247642731,-2.128666287812501,5.0,0.4663999999999993,140,18,437.54727442430266,1268.8106899999998,mp-16124,BaPr2MnS5,https://materialsproject.org/materials/mp-16124,15.946283483728335,-16.810541594041116,4.247552992724264,-0.6528845116834808
-7.006793826666668,-210.2038148,6.64020171676795,-2.82947182125,1.0000002166666666,0.015699999999999936,193,30,347.8761619731276,1391.0952,mp-14237,YbBO3,https://materialsproject.org/materials/mp-14237,-14.983351793443667,-35.06861857009621,-23.550134747699172,-47.048844871956604
-5.265512678333333,-31.59307607,5.761774181122617,-3.2993038641266663,0.0,4.2986,123,6,88.58047743276887,307.3584514,mp-5606,AlTlF4,https://materialsproject.org/materials/mp-5606,-1.552870697843313,-57.022442064520256,4.031458926882542,-50.5055139617761
-6.843929935416668,-164.25431845,7.586272471561665,-2.3895297951005743,0.00711575,0.0,15,24,350.9292324366468,1603.2413037999993,mp-1213160,CsYb(WO4)2,https://materialsproject.org/materials/mp-1213160,-47.50048623829593,-56.349632836689395,-20.94592423976804,-61.21701437157545
-7.118414799791666,-341.68391039,5.345172417512328,-2.5037011220833327,0.0,2.9695000000000005,15,48,708.0339274078368,2279.1174,mp-630880,LiNd2Tl(MoO4)4,https://materialsproject.org/materials/mp-630880,-51.99467199966834,-52.029373868543615,-27.90767707506114,-55.29820910079607
-5.891921029333331,-176.75763088,4.425706555989946,-2.5084876047883147,0.0,3.333,14,30,754.2802807226773,2010.3250228,mp-770128,Cs6Ti2O7,https://materialsproject.org/materials/mp-770128,-6.7258394822075225,-28.541438209455013,-6.542565495945211,-30.145024821753964
-5.169271133888889,-93.04688041,6.138589958745567,-0.3817837556874074,0.0001395,0.9268999999999994,15,18,377.4367643707828,1395.2876,mp-1246205,Ba3(InN2)2,https://materialsproject.org/materials/mp-1246205,18.26157872291155,-43.96013317040808,14.87032051971275,-20.43461705961901
-7.164217286180556,-1031.64728921,4.699277962240745,-2.3866820841944443,5.860997900000001,0.0,1,144,2133.685304848124,6038.26835136,mp-1099913,K5Na3Nb6(WO10)2,https://materialsproject.org/materials/mp-1099913,-31.091228180284425,-74.71069572976394,-22.088157821499955,-24.158987960528002
-6.235518859666668,-187.06556579,4.5250609429097315,-2.2485597719166672,0.0,1.4247,1,30,567.9852151816021,1547.7912,mp-676865,BaGeO3,https://materialsproject.org/materials/mp-676865,-30.55846043656496,-30.572011467983398,-20.714994893905423,-29.27661671816021
-6.654112737435898,-259.51039676,5.512404326708698,-2.4240071528594878,24.999578500000002,0.37970000000000015,38,39,582.4565533198103,1933.5504600000002,mp-1228330,Ba8Mn6Co2ClO22,https://materialsproject.org/materials/mp-1228330,-9.365302762112922,-82.59229865198735,19.415665693616365,-75.25433879364263
-6.935536877894738,-131.77520068,5.8211878023713615,-2.801683760921053,1.7941957999999998,0.0,1,19,304.41898875988437,1067.1716,mvc-2640,Ba2Ca2Ti3Tl2O10,https://materialsproject.org/materials/mvc-2640,8.325086594397321,-64.32021671722265,9.412328866445053,-44.90817698415142
-4.6050760875000005,-128.94213045,5.618176435491739,-1.8319363643973223,1.0,0.05080000000000018,5,28,682.0380450008803,2307.57,mp-1216489,Yb5S9,https://materialsproject.org/materials/mp-1216489,9.388714846101283,-1.3493049428601522,-5.913554423925069,-19.902874687140255
-10.4898065445,-209.79613089,7.064400975067711,-2.6153603216874983,13.999993875,1.3044000000000002,62,20,459.2261874464746,1953.6776,mp-669388,Gd2Se2O,https://materialsproject.org/materials/mp-669388,29.281525582900567,-19.08910300732267,15.293358718136554,1.8300555922302144
-7.314722353611112,-263.33000473,5.729209060165697,-2.9293565900694443,0.00040945,2.4083,15,36,607.7549131267117,2096.8823199999997,mp-1228322,Ba5Nb2O11,https://materialsproject.org/materials/mp-1228322,-14.678763629092925,-80.89221452151753,15.58473926290259,-70.62600876559135
-8.689001299500001,-173.78002599,7.442030195978923,-3.658114357083335,0.99582355,0.0,62,20,232.7650552404866,1043.18208,mp-755236,HoTiO3,https://materialsproject.org/materials/mp-755236,9.449874455467986,-81.45750406084373,51.17123969980377,-53.48857382586807
-6.383261558461538,-82.98240026,6.0980991721374656,-2.1904966179361547,8.318151400000001,0.0,123,13,198.2078246967377,727.8907286,mp-1250544,Ba2Mn2AlTlO7,https://materialsproject.org/materials/mp-1250544,8.306574934089667,-63.83921618877327,8.978751220440069,-47.850939649053466
-4.061782575176472,-345.25151889,5.3349867234940636,-0.9477374531470592,0.0208701,0.0,1,85,3024.694484324896,9717.751,mp-1229286,Ba51(Pd12O5)2,https://materialsproject.org/materials/mp-1229286,24.35675077444109,-11.325308006178506,8.872364014688063,-2.3228492888076078
-6.741987615555555,-121.35577708,5.302609029988218,-1.6186097400347232,7.981898700000001,0.0,36,18,345.877924635495,1104.494,mp-1214220,Ce2Fe2S5,https://materialsproject.org/materials/mp-1214220,12.881823555532165,-3.8778000200253535,-2.3239740352154543,-14.8980048657786
-7.38743408611111,-132.97381355,6.554291174914273,-1.819574582837916,3.8662758000000004,0.0,15,18,418.21095464860014,1650.7148000000002,mp-1105809,Ce4Se3N2,https://materialsproject.org/materials/mp-1105809,28.448464455749782,-19.41705604135557,19.355385475909472,-1.2519678194158632
-7.277600151666666,-436.6560091,6.787856060162883,-0.4041503909722223,1.5e-08,0.0,19,60,847.3219564902419,3463.634,mp-1208749,SmBC,https://materialsproject.org/materials/mp-1208749,10.07885065832239,-59.68329564518985,-1.0134335362485951,-32.64681355586962
-6.899676071499998,-137.99352143,5.412128065606437,-0.5715364903333324,0.0,0.0,127,20,223.54704277783344,728.59788,mp-7283,LaB4,https://materialsproject.org/materials/mp-7283,8.02101741674527,-59.62219950316826,4.3482680157631455,-48.86440300290397
-5.419849523333334,-81.29774285,6.13992963840106,-1.7773671440833343,2e-07,1.5759000000000003,143,15,377.1323721356318,1394.4666,mp-1216932,Tl6Si2O7,https://materialsproject.org/materials/mp-1216932,-32.79617105403348,-31.865028168703237,-23.67588299310501,-51.201321426830006
-5.493917806000002,-27.46958903,7.844306198192867,-2.4989328783125004,1.9999997999999999,0.0,164,5,86.82218346739845,410.1438,mp-12672,Yb2SO2,https://materialsproject.org/materials/mp-12672,-0.9882142589867982,-59.62513482284081,7.243859733455768,-55.7786138031322
-7.5599074008,-188.99768502,5.994795455206047,-3.0174095797000007,7.000001400000001,0.0,8,25,371.1808627502498,1340.01869,mp-770762,La7(FeO8)2,https://materialsproject.org/materials/mp-770762,15.699769148703382,-69.46090064167313,-2.379152683839857,-19.810761279541726
-3.7019833275,-148.0793331,4.860851232416157,-1.6069847125000003,1.8875e-05,2.8288,14,40,1710.6584936702955,5007.564560000002,mp-776442,Ba2YI7,https://materialsproject.org/materials/mp-776442,3.2014378345530936,-28.823281907718602,-4.480234221716857,-29.668992700127305
-7.200307968333332,-172.80739124,5.932303971366926,-2.8737082154166664,4.52e-05,2.9983000000000004,14,24,363.5118531911838,1298.65228,mp-1190427,LaSbO4,https://materialsproject.org/materials/mp-1190427,-47.16150561833169,-46.68565734566546,-25.840795604787036,-22.564826698894915
-7.0940650454545455,-156.069431,3.7668081557806263,-1.198601336536364,3.2500000000000004e-05,2.2444,2,22,322.0970596368697,730.653,mp-1029490,Sr3B3N5,https://materialsproject.org/materials/mp-1029490,-21.071865256700644,-31.633169518103283,-16.522229703288087,-28.944032502586108
-7.07045396375,-169.69089513,6.076816934749474,-2.5748323396839083,0.0,2.9934,15,24,337.5889697814568,1235.4219438,mp-1213217,CsHo(MoO4)2,https://materialsproject.org/materials/mp-1213217,-47.84574370653539,-55.0390312121559,-21.01480452297764,-58.68397828349158