energy_per_atom,energy,density,formation_energy_per_atom,total_magnetization,band_gap,sgr,num_sites,cell_volume,weight,mp_id,formula,URL,tsne_cry_0,tsne_cry_1,tsne_xrd_0,tsne_xrd_1
-7.995845745,-143.92522341,5.624877964466333,-0.7350872822222227,0.15793333333333334,0.0,46,18,233.45028515138358,790.7850000000002,mp-8648,TiFeSi,https://materialsproject.org/materials/mp-8648,49.698152404247075,47.27605858335236,74.60772592171479,-9.210142855442626
-7.026666288333334,-84.31999546,7.282931629763433,-0.3728204800000003,5.8042735,0.0,26,12,149.56546455439855,655.97678,mp-1221860,Mn2SiNi2Ge,https://materialsproject.org/materials/mp-1221860,44.57600672179098,51.98113685871104,74.78247577722566,-10.763280968006836
-7.392751674137932,-214.38979855,8.571928532360804,-0.17197122517241376,17.8172433,0.0,216,29,281.53871002275463,1453.34114,mp-1221854,MnCo21B6Mo,https://materialsproject.org/materials/mp-1221854,39.41429489101701,53.646697614525785,79.26233817966948,-11.908177777561312
-7.0911769025,-340.37649132,4.604506054732784,-0.6804263387500006,2.525e-06,0.0,55,48,679.3119217420285,1883.662944,mp-1199097,ScFeSi2,https://materialsproject.org/materials/mp-1199097,49.14267534352464,45.824495676288294,66.60327419019163,-5.77432364856626
-8.63679216,-86.36792159999999,7.070470199015259,-0.3397261654759987,0.5954706999999999,0.0,113,10,113.96834400815793,485.26999999999987,mp-637918,Cr3GeN,https://materialsproject.org/materials/mp-637918,51.20408083802863,49.40909817006312,73.50556356167971,-2.3859170731482964
-7.759268089722222,-279.33365123,8.339693076074933,-0.7532229548809524,1.44750275,0.0,62,36,435.7488758486883,2188.453144,mp-1200053,LuFe5P3,https://materialsproject.org/materials/mp-1200053,55.48431696704479,34.23082832033208,61.9510453491174,-4.210850969720882
-8.291610052222222,-74.62449047,6.074704800612556,-1.0360258618253968,2.3666666666666667e-06,0.0,189,9,110.4502885032024,404.057286,mp-1080486,TiFeP,https://materialsproject.org/materials/mp-1080486,44.25302946423173,52.79885980878766,74.80870995536779,-10.520258437701703
-4.717700358285714,-165.11951254,7.282147864346527,-0.5092391282857144,3.18e-05,0.0,12,35,548.8059934778382,2406.7404,mp-1201076,Y4Ga21Ni10,https://materialsproject.org/materials/mp-1201076,62.87701558808706,35.55246399572936,70.38979885468908,3.085149098669852
-7.1758649925,-57.40691994,7.4860333661345875,-0.2723194900000001,1.846209125,0.0,62,8,115.22097201358582,519.43858,mp-22240,MnAs,https://materialsproject.org/materials/mp-22240,22.752524664060182,35.88975072795774,62.92208094992606,-23.150787793761396
-6.2893296013157896,-238.99452485,7.4857971066483175,-0.6976857821428575,3.5e-07,0.0,11,38,504.4309309691718,2274.0011,mp-28821,La2Ni12P5,https://materialsproject.org/materials/mp-28821,23.226518490925287,39.804018593685925,65.07060891748965,-20.074485905884334
-8.46452348909091,-186.21951676,7.180030929343183,-0.08141831482954584,34.7470783,0.0,166,22,269.01745174630423,1163.2088,mp-1190821,Y2Fe17C3,https://materialsproject.org/materials/mp-1190821,71.12138375300451,37.57699121861416,81.96194244278034,-21.47571499499411
-6.390866263333333,-38.34519758,4.646046264742207,-0.10158340999999993,0.000396,0.0,63,6,94.33784113396773,263.94921400000004,mp-1024998,ScCoSi,https://materialsproject.org/materials/mp-1024998,41.79871524480565,45.285553181931455,67.0811914227093,-7.309058081420673
-5.59968414,-16.79905242,4.631188095056904,-0.3404848507142854,0.0009031000000000001,0.0,107,3,33.61810014762432,93.759762,mp-1008925,LiFeP,https://materialsproject.org/materials/mp-1008925,37.49744961627581,46.518173007368794,66.42677296524047,-16.663700781767815
-6.4785537574999985,-777.4264509,7.352498585588265,-0.017356412333332592,11.038647775,0.0,118,120,1763.5184107647015,7808.4684,mp-579963,Cr11Ge19,https://materialsproject.org/materials/mp-579963,61.73175761735986,37.297926103914705,73.34087121831558,-1.266690021621132
-4.237995268333333,-25.42797161,7.022450263535452,0.22699665166666705,9.000000000000001e-07,0.0,140,6,100.9166555879528,426.7784,mp-1245797,CuAs2,https://materialsproject.org/materials/mp-1245797,72.96161998950264,15.833442581609802,70.84274183720221,4.930261055165249
-7.9218223625,-31.68728945,7.335738708475088,-0.22061991875000064,4.9662914,0.0,123,4,44.2812224076401,195.6205,mp-1225210,Fe3Si,https://materialsproject.org/materials/mp-1225210,42.569700928560366,59.92974662176792,91.75783156718641,-8.618700448648589
-5.334583188333333,-32.00749913,8.269179121429278,-0.2579256029166667,7.53e-05,0.0,191,6,88.77389387356193,442.07767,mp-1222916,LaCu2Ni3,https://materialsproject.org/materials/mp-1222916,77.52207304828191,16.876239814554367,85.76701673560096,-12.737635338002427
-5.6285175672413805,-163.22700945,7.738534834793921,-0.5491372927586204,0.13151229999999997,0.0,225,29,455.5777838660754,2123.1085000000007,mp-1193834,Ti6Ga16Rh7,https://materialsproject.org/materials/mp-1193834,47.029563098451185,45.96426993514442,66.48829045982004,-10.03791719783129
-4.01194896,-28.08364272,5.764125988692817,-0.18292226114285728,0.0,0.0,166,7,127.65633398939464,443.1255,mp-8608,K(Cu2As)2,https://materialsproject.org/materials/mp-8608,45.382500689968865,46.49622596608428,68.73485028324416,-13.596129962258553
-7.2161707875,-57.729366299999995,7.441662437130582,-0.25294346,7.1132679,0.0,6,8,115.2515091475763,516.496635,mp-1221789,Mn3CrAs4,https://materialsproject.org/materials/mp-1221789,22.74748015490671,35.88845188728747,62.98130534888126,-23.13259527712577
-6.799252783888888,-122.38655011,8.186059327522067,-0.12491811879629705,14.3257082,0.0,191,18,245.544697384073,1210.476485,mp-1209806,Pr3Co13B2,https://materialsproject.org/materials/mp-1209806,74.15941706144409,26.38314364928215,60.876367193637186,16.088597880956375
-9.078385986666666,-54.47031592,12.983422258866804,-0.2727082283333336,9.470000000000001e-05,0.0,74,6,110.35351022206775,862.832,mp-1226566,CeOsRu,https://materialsproject.org/materials/mp-1226566,81.84996819104771,11.860180050108767,60.69464774327764,26.205567349225987
-4.9002759821428565,-137.2077275,8.782218894108352,-0.7165787685714291,8.5e-07,0.0,63,28,474.23986882262636,2508.1484,mp-1208547,Tb2(Ga3Rh)3,https://materialsproject.org/materials/mp-1208547,69.39243029698189,15.818254875009265,64.88652364133273,5.343686930429445
-4.3020236971428565,-30.11416588,6.514893347761003,-0.3455740735714287,1.3e-06,0.0,166,7,113.19510283625004,444.1052,mp-28006,Ca(Cu2As)2,https://materialsproject.org/materials/mp-28006,45.49970067379752,46.51748127556024,66.53429718809643,-7.437496824505651
-6.8666075696428575,-192.26501195,6.458793678080242,-0.6343532451785714,4.76584065,0.0,227,28,345.95024147849824,1345.5999399999996,mp-504734,Ti3Co3O,https://materialsproject.org/materials/mp-504734,53.74554415447805,48.60776852426429,76.61218818416793,3.441645805253008
-5.98311239725,-239.32449589,7.309231488897956,-0.5388321574999999,0.0016335999999999998,0.0,223,40,737.2839498917253,3245.3191,mp-1195758,Y3Ge13Rh4,https://materialsproject.org/materials/mp-1195758,64.17087395083277,-23.917999222937325,45.90461413709112,-6.346732782183154
-4.517093198928571,-126.47860957,6.882011821338753,-0.19427228821428602,0.0,0.0,140,28,396.4743686926504,1643.1660000000002,mp-11143,BaCu9Si4,https://materialsproject.org/materials/mp-11143,22.80713931402069,37.35717371059209,64.61546876598257,-21.240844615659878
-6.4729455,-122.98596450000001,8.974952692322839,0.05356956160087715,3.9955540000000003,0.0,123,19,222.486102798438,1202.5024399999998,mp-1224620,In4(Co4C)3,https://materialsproject.org/materials/mp-1224620,52.33644863785314,62.43680435799772,86.40770159149096,7.979938124546406
-6.739619013333333,-80.87542816,8.328992060905982,-0.018892311041666925,13.8220297,0.0,47,12,174.344125428751,874.4816,mp-1219752,PrNdCo10,https://materialsproject.org/materials/mp-1219752,78.04708394237977,17.574260725224107,86.15659737293178,-13.357753991908494
-5.2662204792307685,-205.38259869,7.611339672617938,-0.3189905746153855,3.3333333333333334e-08,0.0,191,39,520.2886558700492,2384.8242,mp-15949,Li(NiGe)6,https://materialsproject.org/materials/mp-15949,42.443259597691736,48.759452786298226,70.74523087773146,-17.73779314949066
-6.749712715,-80.99655258,6.295515760505689,-0.7279535149999994,8.8e-06,0.0,62,12,186.24906045587682,706.116428,mp-1095261,ScCoGe,https://materialsproject.org/materials/mp-1095261,47.01544280634955,45.629244722442415,65.88321310638882,-6.1117673436985545
-7.495009241666667,-89.94011090000001,8.65039616158481,-0.4703475733333337,0.983423225,0.0,62,12,175.65863312162918,915.0744,mp-20395,VAsRh,https://materialsproject.org/materials/mp-20395,46.861530090331925,45.56944277630641,65.72290894460735,-8.464961188886598
-7.379284248333334,-44.27570549,6.554708070522175,-0.5426887047222225,1.9e-06,0.0,191,6,61.65611509740166,243.377497,mp-4938,ScCo3B2,https://materialsproject.org/materials/mp-4938,37.43673440177815,49.937635004616745,71.92429494705273,-1.4368593474623652
-6.409501610833334,-76.91401933,8.443930089378362,-0.4551889869444447,0.05233485,0.0,191,12,151.6997173761714,771.4011999999999,mp-1095459,CeNi4B,https://materialsproject.org/materials/mp-1095459,74.44625033114076,25.96610433909423,61.482208896451276,15.970201886523324
-6.360692700571429,-222.62424452,7.420498849938326,-0.28033255523809464,5e-07,0.0,225,35,302.5924282556972,1352.2035386,mp-505473,Al(Ni10B7)2,https://materialsproject.org/materials/mp-505473,37.152948823445385,54.93258354044148,78.92640032709609,-10.488349423727175
-7.816655428333332,-234.49966285,6.03880249910675,-0.7495466633333346,3.4487873999999996,0.0,139,30,431.6467541183088,1569.749,mp-17435,Zr4Fe4Si7,https://materialsproject.org/materials/mp-17435,64.29672682302373,27.668244041656674,63.20627157053612,10.002052750097368
-7.9938760111111105,-143.8897682,8.181827343496696,-0.7235466050000005,0.0016618166666666663,0.0,46,18,272.5987208971424,1343.1516,mp-1208217,TiAsRu,https://materialsproject.org/materials/mp-1208217,46.92526766327745,45.643929198722326,65.6700990657462,-8.362002809286913
-7.47137377,-67.24236393,8.359149194534622,-0.2608792616666654,3.557884666666667,0.0,189,9,136.96264548570758,689.4695999999999,mp-15683,CrAsRh,https://materialsproject.org/materials/mp-15683,46.95905556338155,45.30223095692526,65.65799446516449,-8.237905070059488
-7.149966827222222,-128.69940289,4.826147809142684,-0.4137705172222215,0.2966046666666667,0.0,3,18,222.21460745879227,645.8388,mp-1216378,VCrSi4,https://materialsproject.org/materials/mp-1216378,47.84323933402043,50.38840150871541,77.0451397734508,-6.8200027746141885
-4.294080518846154,-111.64609349,7.158631920587112,-0.18861156173076934,1.5158176,0.0,12,26,440.05669636387086,1897.09717,mp-1220679,Nd(Ga3Co)3,https://materialsproject.org/materials/mp-1220679,66.85977405248691,9.886353077236194,64.10028502615623,6.506701809382324
-5.395631125945946,-199.63835166,5.7582734586040125,-0.34562035525096546,0.0052439999999999995,0.0,6,37,571.6173947491841,1982.205292,mp-1216350,Y6Cu15P16,https://materialsproject.org/materials/mp-1216350,70.63884784688051,32.507199319419954,62.9255011742296,11.034641067181964
-7.418120794545455,-81.59932874,8.347377274257672,-0.8678169794155844,8.8e-06,0.0,174,11,156.4150234508131,786.28396,mp-1102147,Sc(P2Rh3)2,https://materialsproject.org/materials/mp-1102147,48.21684440723313,40.161247621748416,65.77616067952304,-7.894801832289853
-7.955076057307693,-827.32790996,5.882738119423747,-0.6603479103846144,6.11944225,0.0,135,104,1494.7767615739835,5295.49744,mp-31310,Zr3(Mn2Si3)2,https://materialsproject.org/materials/mp-31310,64.11164272158634,27.731274718063517,63.17377826634629,9.802849623426189
-4.946850236666667,-29.68110142,8.558128536031745,-0.7164147233333331,0.0022546,0.0,191,6,109.06946582188343,562.125,mp-3494,CeGa3Pd2,https://materialsproject.org/materials/mp-3494,72.69288490170979,15.613073804015789,65.23694498988412,2.407861935026077
-6.179588321034482,-179.20806131,10.332102401120233,-0.5994980317241381,0.0001488,0.0,225,29,483.50441475537474,3008.4309999999996,mp-1194195,Zr6Ga16Ir7,https://materialsproject.org/materials/mp-1194195,59.62474422522556,18.127320789315288,60.20337876373855,-11.590506349551374
-7.548727856785715,-211.36437999,6.79957749933608,-0.42502611982142974,6.7870246,0.0,12,28,354.6413651354883,1452.18594,mp-1223067,LaFe8Si5,https://materialsproject.org/materials/mp-1223067,22.10586865888598,39.102230661162665,66.219926867962,-22.421254525065947
-6.784797013421053,-257.82228651,7.6946222491246035,-0.6285174334586475,13.36901275,0.0,11,38,502.0135198284034,2326.23522,mp-1213550,Eu2Ni12P5,https://materialsproject.org/materials/mp-1213550,23.220058416878494,39.80549347131407,65.03102975993886,-20.12426363337644
-8.6393116075,-34.55724643,8.15790379475646,-0.38685290625000057,1.9970629,0.0,216,4,48.654813414617244,239.03159,mp-999576,Mn2SiRu,https://materialsproject.org/materials/mp-999576,82.2990154260095,43.304165774646634,50.53851015816957,48.759907698435974
-7.549964306666667,-158.54925044,8.683604510207703,-0.9325079364285715,0.00014419999999999998,0.0,147,21,311.6031431099073,1629.494034,mp-1216134,Y2P7Rh12,https://materialsproject.org/materials/mp-1216134,57.37688782541912,30.18245435531669,52.350012803525,10.21198438119214
-7.47580962,-29.90323848,6.813016511414652,-0.1939106724999995,5.995278599999999,0.0,225,4,47.40958806276235,194.5165386,mp-2018,AlFe3,https://materialsproject.org/materials/mp-2018,44.44865205954861,60.635920897742,90.17613847082886,-6.720107689128339
-6.952246739666665,-208.56740219,7.949472526056515,-0.6196274973333327,0.0,0.0,139,30,463.356134073059,2218.21756,mp-22233,Zr4Co4Ge7,https://materialsproject.org/materials/mp-22233,63.38283115819585,35.044434138457326,71.55305318312321,3.389381869935809
-8.972258983,-89.72258983,6.321905275926988,-0.5177833599045712,2.06194885,0.0,63,10,105.57465212021391,401.937524,mp-1080816,Cr3PN,https://materialsproject.org/materials/mp-1080816,51.9883274311081,48.22128164837339,73.22391208894533,-2.339621791789796
-7.731564806896551,-224.21537940000002,8.895246587604216,-0.07706214551724158,49.0102222,0.003600000000000492,225,29,427.1152036285295,2287.989,mp-2162,Er6Fe23,https://materialsproject.org/materials/mp-2162,71.52146387711906,28.358707747261573,62.663705929646845,12.36499573728616
-4.158623105909092,-91.48970833,7.3982612899378255,-0.343178225,0.0,0.0,7,22,374.0762910379309,1666.636,mp-31312,Ga9Rh2,https://materialsproject.org/materials/mp-31312,52.45797750512485,43.52829676640327,66.6796374032336,-3.136461518362561
-6.218705944827587,-180.34247240000002,7.249730753529844,-0.6046869984482764,5.400000000000001e-06,0.0,225,29,393.34703359086114,1717.3098719999996,mp-570547,Sc6Ni16Ge7,https://materialsproject.org/materials/mp-570547,46.87662890110132,52.40829482610474,71.56257696610133,-12.585097904757442
-4.265661806000001,-21.32830903,5.86575021809366,-0.3763874569999999,0.0,0.0,139,5,88.4516734871501,312.4500000000001,mp-4441,Ca(CuGe)2,https://materialsproject.org/materials/mp-4441,31.41142654554101,19.43379478139902,54.23838352517322,-13.19170166088268
-6.9702411741666666,-83.64289409,7.077265190481996,-0.4157730024999999,1.528617275,0.0,62,12,133.85540748455492,570.4956,mp-1103705,FeSiNi,https://materialsproject.org/materials/mp-1103705,43.16317084190242,54.54276869257939,76.0825041439446,-13.482717953256929
-7.3660616958333325,-265.17822105,6.917169894611334,-0.9299023848809516,0.7114237499999999,0.0,59,36,471.93913546770585,1965.9177539999998,mp-1203265,YCo3P2,https://materialsproject.org/materials/mp-1203265,57.69905256139046,35.859764538218066,71.38497967896211,-1.0245468131167728
-7.58254482875,-60.66035863,7.7933905865465904,-0.2532258762499984,2.99009215,0.0,31,8,128.14945226585414,601.4424899999998,mp-1221596,MnMoAs2,https://materialsproject.org/materials/mp-1221596,34.924316121672014,31.860785521365685,70.50444358415314,-9.1744845325208
-7.638706594999999,-320.82567699,7.541639413517362,-0.1569475578571425,9.910368766666666,0.0,8,42,504.96553037543816,2293.3926,mp-1225714,Fe5SiAs,https://materialsproject.org/materials/mp-1225714,42.79349830281813,49.831004201557725,75.8065679769069,-14.314793935116436
-9.51112171625,-76.08897373,7.825009285287687,-0.5294875424400001,2.6514429,0.0,194,8,75.92482449906551,357.78289,mp-9374,MnMoN2,https://materialsproject.org/materials/mp-9374,32.165185586285965,48.317875817732954,67.97938554570104,9.039474565070162
-4.446801344583333,-106.72323227,7.316463020988722,-0.01988355511904712,0.0,0.0,165,24,301.78105032597483,1329.670572,mp-14012,Cu3P,https://materialsproject.org/materials/mp-14012,45.43401125457444,56.84243975822058,74.35898310452261,-7.955052628956051
-6.166918197758621,-357.68125547,8.323535377901733,-0.2621667085344821,0.8294655000000001,0.0,160,58,572.8557435915568,2871.4682,mp-1220773,Ni43(GeB4)3,https://materialsproject.org/materials/mp-1220773,39.57950283909387,53.53371114372879,79.3775646084552,-11.57065862350534
-8.156315648,-163.12631296,8.183195027384869,-0.043641339437502334,37.6211245,0.0,12,20,261.0321595426965,1286.3757,mp-1225413,Dy2Fe17C,https://materialsproject.org/materials/mp-1225413,75.19967853954317,34.441817205431875,87.73283082448681,-23.63432165852366
-6.279528553333333,-56.51575698,7.529755126246619,-0.4796730196296303,0.0,0.0,189,9,92.43359270651794,419.1424,mp-4720,Si2Ni6B,https://materialsproject.org/materials/mp-4720,42.687735923126155,55.14023228006836,76.02382532305843,-13.661386577086141
-4.2351609975,-118.58450793,7.633224785511152,-0.15882752535714267,0.0,0.0,140,28,413.36871977473464,1900.188,mp-11144,SrCu9Ge4,https://materialsproject.org/materials/mp-11144,42.97186494246784,49.75660848647153,70.67963339932005,-10.442942559711254
-7.462878635454545,-164.18332998,7.758928410098415,-0.050763820948182055,37.4552726,0.0,166,22,265.5673119245544,1240.8728199999996,mp-1190611,Nd2Fe17H3,https://materialsproject.org/materials/mp-1190611,76.64544146725027,34.83637638443579,88.49667467367529,-25.073701015309588
-7.594282395833334,-273.39416625,4.371057621377034,-0.7493980858333344,2e-07,0.0,92,36,539.5686539350794,1420.313296,mp-504941,Sc2V3Si4,https://materialsproject.org/materials/mp-504941,51.88505334736104,46.41695455603491,72.08310015658337,-4.179202584719719
-6.0096503425000005,-168.27020959,8.247151485200126,-0.3588510025000003,2.01275035,0.0,42,28,385.0028882945887,1912.1364,mp-1228034,CeFe(Ni2Ge)4,https://materialsproject.org/materials/mp-1228034,22.396060583800775,37.82535768712084,65.19504097828003,-21.942993139323367
-7.359953990277778,-264.95834365,8.17555654246582,-0.6869122954365091,2.29989905,0.0,62,36,442.93161316822494,2180.745144,mp-1197850,YbFe5P3,https://materialsproject.org/materials/mp-1197850,55.55065473228275,34.088277339052354,61.88668223404951,-4.134063015215083
-7.698271164473684,-292.53430425,7.956223535981652,-0.06110907631578979,70.0937465,0.0,1,38,530.4985153999187,2541.804,mp-1219432,Sm4Ga3Fe31,https://materialsproject.org/materials/mp-1219432,74.88538754679706,36.97303352201961,86.81242094492012,-23.29879425886561
-9.131059346363637,-200.88330562,14.267209101636414,-0.2383758733333317,0.8575458,0.0,127,22,224.59990935373744,1929.74317,mp-1213771,Co3(ReB)4,https://materialsproject.org/materials/mp-1213771,54.08790625219704,39.24144823969886,67.59121789048862,1.932615539531137
-8.387588842857143,-117.42624380000001,7.668305130534445,-0.13942547570571406,18.3882996,0.0,71,14,177.26040463192055,818.5817000000002,mp-1220115,NdV2Fe10N,https://materialsproject.org/materials/mp-1220115,71.16605462107495,36.286187919689844,83.22265088490668,-21.57502229238016
-5.359267462857144,-150.05948896,10.121481006050056,-0.6638285357142857,4.6899999999999995e-05,0.01999999999999957,63,28,487.0606473721043,2968.78,mp-1213877,Ce2(Ga3Ir)3,https://materialsproject.org/materials/mp-1213877,62.36692666419142,13.310481368333821,54.688878423073284,-9.21628898677453