energy_per_atom,energy,density,formation_energy_per_atom,total_magnetization,band_gap,sgr,num_sites,cell_volume,weight,mp_id,formula,URL,tsne_cry_0,tsne_cry_1,tsne_xrd_0,tsne_xrd_1
-4.418677251363637,-97.21089953,6.623548484047763,-2.4489095557572726,0.0,3.5928000000000004,127,22,410.53946745948446,1637.5574448,mp-1208140,Tl3GeF7,https://materialsproject.org/materials/mp-1208140,-58.1322104487742,-42.82440088552206,-34.573272921544664,-17.903713026885953
-7.045229413263888,-1014.51303551,4.9582909020153165,-2.3094862404444445,7.999999725,0.1221000000000001,1,144,2144.0403247302206,6402.002831360001,mp-1076886,K5Na3Nb5W3O20,https://materialsproject.org/materials/mp-1076886,-31.316804641641873,-74.71688689223019,-22.16793711692961,-24.20271362253291
-8.894135020434783,-409.13021094,7.269128810673543,-3.4815713351268114,0.0,2.3924000000000003,7,46,650.4201861230899,2847.26104,mp-1228225,Ba3Ta4TiO15,https://materialsproject.org/materials/mp-1228225,-32.164744024141676,-67.67796340210755,-4.26490489670108,-55.867970763442756
-7.89162833525,-315.66513341,4.8863119591273705,-2.474340549028251,20.99999935,2.7817000000000003,186,40,678.705365680296,1997.1624064,mp-559447,Gd3Se4O12F,https://materialsproject.org/materials/mp-559447,-31.14671459009591,-53.09694599580172,-21.366705004046487,-43.60322480086372
-7.992926909999999,-167.85146511,4.739398476753945,-3.1436528166865068,10.000000300000002,1.8806000000000005,12,21,275.3215536309318,785.8041999999998,mp-1214656,Ba2Ti4Fe2O13,https://materialsproject.org/materials/mp-1214656,-11.301463304243915,-20.541635345026013,-6.7190557785846075,0.5160914324254717
-4.73669308875,-37.89354471,5.560938541982373,-0.4780643642968752,0.0,2.174,217,8,251.20129871548988,841.24188,mp-1120727,TaIn3Se4,https://materialsproject.org/materials/mp-1120727,-0.5748428138097568,-24.23157191538704,30.935182837032475,-64.74271202997927
-8.6825673915,-173.65134783,7.6650577489251,-3.671657152083333,0.998339975,0.0,62,20,229.4619414371032,1059.19764,mp-755525,TmTiO3,https://materialsproject.org/materials/mp-755525,9.26467075976426,-81.32891289926192,51.305333340786326,-53.07576494361447
-7.076137513541667,-339.65460065,5.718541844596497,-2.4537690543749995,0.0006383999999999999,3.2843,60,48,793.5263815508908,2732.7354,mp-1208393,TbTl(MoO4)2,https://materialsproject.org/materials/mp-1208393,-51.33855262879742,-52.019265282102005,-27.750387940327283,-55.183468478828715
-4.438816929555554,-199.74676183,7.777162563224202,-0.7299255811527776,0.00083356,1.291,2,45,1400.5108167857436,6559.316,mp-1198311,Hf(TlSe)4,https://materialsproject.org/materials/mp-1198311,24.536334630766305,-11.243564749357406,13.242408486412636,19.488996612724982
-6.618849891666668,-158.85239740000003,5.0030314277346095,-2.3773302613505742,1.00000005,0.0,49,24,415.4279818261118,1251.6413037999996,mp-1213408,CsYb(MoO4)2,https://materialsproject.org/materials/mp-1213408,-49.504906733959935,-51.74671436123957,-29.792112471417713,-54.94334937360155
-4.889650198333333,-58.67580238,5.171026992853962,-1.199911606770834,2.9521086,0.0,47,12,180.70590914929107,562.73,mvc-1422,Ba2Ni3O7,https://materialsproject.org/materials/mvc-1422,6.909650543211925,-40.08143241141993,6.749558408815791,-39.29926716772503
-5.911959014545454,-130.06309832,6.239592596065773,-2.4360492202272725,0.0,1.2879,167,22,400.1119285600927,1503.4488,mp-782050,Ba4PdO6,https://materialsproject.org/materials/mp-782050,-2.133375654541249,-61.884145992816286,0.5853584456954811,-36.786103174282665
-5.420059704,-27.10029852,7.101772381722898,-0.7090408939999996,1e-07,0.0,71,5,98.44327596485371,421.0209586,mp-10530,Tm2AlSi2,https://materialsproject.org/materials/mp-10530,30.339355633311328,-39.41930978647105,14.59064759307983,-18.553123560309004
-7.2117791813043475,-165.87092117,5.472519546429996,-3.101031484347827,1e-07,3.6351,150,23,310.2746962792826,1022.5500872000001,mp-1223112,La3Al2Ga3SnO14,https://materialsproject.org/materials/mp-1223112,-8.319139498386551,-46.44526354717211,7.960054391631513,-35.494453452853776
-6.1785856033928575,-346.00079379,4.714350020064739,-2.657006828392857,0.0,2.6756,14,56,820.1723993608891,2328.5088,mp-554923,Sr(GaO2)2,https://materialsproject.org/materials/mp-554923,-7.128667655767778,-43.77714346870295,0.6758998221977882,-27.916985262476054
-3.2485262033333338,-77.96462888,5.22141902062739,-0.4769157174205556,8.840000000000001e-05,0.0,167,24,898.1384519643117,2824.1174,mp-672306,Ba6In5N,https://materialsproject.org/materials/mp-672306,-2.3512348281433195,-29.29274135862199,-4.701838107131036,-31.919126890397077
-5.028369961111111,-90.5106593,6.789449749550003,-1.3257065409722226,6.500000000000001e-05,1.4247999999999994,8,18,363.1454433115965,1484.7936,mp-1189719,Er3Tl2Cu5S8,https://materialsproject.org/materials/mp-1189719,14.584639700367525,-17.302370766450192,5.705177672804343,-23.82765682134389
-5.6463212,-248.43813280000003,5.477020651883374,-1.92479889193182,0.00019385,3.2644,14,44,766.595310984022,2528.4912,mp-1195118,BaTe3O7,https://materialsproject.org/materials/mp-1195118,-45.63775108508977,-46.66449587141094,-26.09461686218445,-23.349964869799923
-7.520073665714285,-315.84309396,6.226780055859005,-3.108782524583333,5.3299999999999995e-05,0.0,176,42,611.8222194016159,2294.2444,mp-1210026,Nd5Ge3O13,https://materialsproject.org/materials/mp-1210026,-28.67937533221172,-54.89823165242157,-10.378115380099144,-33.640301593742514
-4.552259350333333,-136.56778051,4.6972578115836745,-1.523643660899426,9.99999985,1.1471,14,30,726.3230411415383,2054.5898028,mp-773199,Cs6Co2O7,https://materialsproject.org/materials/mp-773199,-6.240808040349313,-28.737859868961586,-6.3062515375957355,-30.137685746150023
-4.562707131111111,-41.06436418,5.383963666822995,-0.4176367611423149,0.0,0.21910000000000007,12,9,179.9588636240828,583.4804,mp-1245877,In4S3N2,https://materialsproject.org/materials/mp-1245877,12.279927523072395,-18.369363435157037,-17.265949175345334,-29.650298247756158
-8.033287172,-40.16643586,6.693445151353862,-3.2710919212187504,1.9999995,0.0,164,5,97.04831828754759,391.1908,mp-754640,Ce2SeO2,https://materialsproject.org/materials/mp-754640,24.485313885936357,-41.07923888266118,20.241291602164388,-36.709891059088655
-8.709695269500001,-174.19390539,7.321154234662933,-4.002164979750002,0.0,4.4787,62,20,243.07285537562262,1071.684448,mp-776593,LuScO3,https://materialsproject.org/materials/mp-776593,10.33962740078241,-82.62582587619644,50.38262007591536,-54.95717225201066
-4.844878047631579,-368.21073162,7.546509025123067,-1.4652945904889485,0.015230525,0.0,15,76,1682.3499515837395,7645.631199999999,mp-1203866,Pb8Cl4O7,https://materialsproject.org/materials/mp-1203866,-19.616362262850632,-55.23644640759229,-12.047960048847678,-58.7633364168853
-5.012694526818182,-110.27927959,4.59648393637318,-1.7247583530525077,10.000000199999999,1.9052,15,22,522.6092507323558,1446.6176152,mp-1191216,Cs4Fe2O5,https://materialsproject.org/materials/mp-1191216,-6.3011766015692405,-29.07897238667026,-5.694767443137715,-29.702415492533607
-5.479830961428571,-76.71763346,5.528203891062079,-1.0489221662500003,0.0,0.5244,13,14,194.4897697550292,647.488,mp-1182093,BaPdO5,https://materialsproject.org/materials/mp-1182093,-16.24390480063385,-81.47313875362309,-15.815976412084064,-36.236555971062614
-7.217841893571429,-202.09957302,5.485902385550769,-3.1008378180357146,0.0022042,0.19730000000000025,1,28,447.2993865557727,1477.7374772,mp-674897,SrNd3AlCuO8,https://materialsproject.org/materials/mp-674897,-0.8294576087511184,-50.109466425058756,-14.763725636736247,-32.85474303429368
-4.712391794,-47.12391794,6.415721156432452,-0.4012813424374997,5.00000045,0.7008000000000001,12,10,284.05506132925245,1097.48583,mp-569109,MnBiSe2I,https://materialsproject.org/materials/mp-569109,15.890364516297698,2.053778499122793,-2.424424593584915,-18.680240187228048
-3.7271167925,-208.71854038,6.123761335140986,-0.5393973720982146,0.0,1.4724999999999997,14,56,1488.8646805955914,5490.6579999999985,mp-581376,Tl3Ag3(SbS3)2,https://materialsproject.org/materials/mp-581376,8.883139901224336,-24.438539740255514,-13.887559881038374,-29.142824664411968
-8.536029152142858,-119.50440813,5.692997994174943,-1.0344475562244904,20.99417165,0.0,43,14,338.22566917305994,1159.574096,mp-1105092,Eu3P4,https://materialsproject.org/materials/mp-1105092,48.23769256335001,-15.651022427887607,6.3108561914867805,-9.922844196252834
-4.607502542083333,-110.58006101,7.09201995457474,-1.1046219675694449,0.0,2.2744,45,24,456.9042262661618,1951.3988,mp-1191720,TlAgTeO3,https://materialsproject.org/materials/mp-1191720,7.625274804020642,-63.709660504571644,-3.6248459045430215,-59.73196942799422
-2.7501067873913043,-63.25245611,6.950178258688464,-0.13376372132505185,2.6e-06,0.7246999999999999,12,23,628.1415127983331,2629.083316,mp-672339,Ag2Hg7(P4I3)2,https://materialsproject.org/materials/mp-672339,9.266417533634355,-24.848775073392567,5.102417256254849,-34.651220849538035
-9.24358769076923,-240.33327996,7.2472984221996475,-3.5807186552884613,0.00011499999999999999,1.5227,14,26,360.24095958249023,1572.24472,mp-1213882,Ce2Ta2O9,https://materialsproject.org/materials/mp-1213882,-32.12065436530412,-54.62491796442608,-20.77073269118099,-33.46826883465981
-7.967717820625,-254.96697026,5.875661236821263,-3.2565773454492195,2.000254875,0.0,57,32,510.14508231608534,1805.1004,mp-542664,Ce2SiSeO4,https://materialsproject.org/materials/mp-542664,28.92249913456081,-17.579814238979232,16.101797812005522,0.13929763235800424
-6.7728076605555545,-243.82107578,5.691820915204872,-2.7239712093749997,1.95e-06,3.2839,20,36,631.7438894105437,2165.4252,mp-1194742,Ba3B3Pb2BrO9,https://materialsproject.org/materials/mp-1194742,-23.808844504999552,-26.345406760897962,-20.01506891616692,-35.778478885270665
-5.6666102679999995,-56.66610268,5.028253009157932,-0.008039884952000165,0.0,0.6880999999999995,36,10,198.73512198703392,601.7868,mp-1245618,Ge2TeN2,https://materialsproject.org/materials/mp-1245618,11.421029752013158,-19.495861834381607,-8.470502387020316,-12.210992849435296
-7.376513728333332,-44.25908237,6.290572765945147,-0.8065727107142858,6.75508985,0.033199999999999896,129,6,159.25350640288457,603.295524,mp-19794,EuSnP,https://materialsproject.org/materials/mp-19794,24.90463416678833,-10.934207231134842,13.769134830637777,19.773331784788688
-8.351285590909091,-91.8641415,4.644876398533001,-3.2016720580681834,0.0,1.4009,119,11,158.60626513981,443.65502999999995,mp-867708,LiLaNb2O7,https://materialsproject.org/materials/mp-867708,-29.346420546837848,-68.5705211615787,1.2734028316025436,-51.96254706326147
-6.360320509,-508.82564072,3.762584783047339,-2.1815998529765634,0.000866075,2.5914,14,80,1274.5506458159975,2887.9808,mp-1199170,Sr2V2Se3O13,https://materialsproject.org/materials/mp-1199170,-30.736375464177197,-30.79844348950591,-32.5852192482672,10.818732240425355
-6.34914109,-152.37938616,3.242163721157317,-2.8982589275,0.7083334666666666,0.0,152,24,421.40954420206975,822.7923,mp-1209083,Sr2LiSiO4,https://materialsproject.org/materials/mp-1209083,-7.652449455287916,-30.77972755893332,-27.33107122961492,-45.163600076922634
-4.900018413,-49.00018413,4.686839930289788,-1.0180294723750003,1.0199999999999999e-05,1.2026000000000003,12,10,229.3368119953464,647.2987999999998,mp-861911,Sb2S2O,https://materialsproject.org/materials/mp-861911,-2.504951773686578,-20.59963233150636,-24.057175423014325,-30.030177965107594
-5.0301819271428565,-35.21127349,5.586775894270867,-0.5516286057142861,1.2e-06,0.0,12,7,135.22814295193206,454.96631579999996,mp-3194,Tb2Al3Si2,https://materialsproject.org/materials/mp-3194,36.700715907641815,-13.586628637123976,6.200947198853482,-2.356554516455072
-6.570781396428571,-183.9818791,4.506892357384696,-2.2445076585714294,9.999999775,1.7431,36,28,461.3138474792444,1252.0584,mp-19154,Ba(FeO2)2,https://materialsproject.org/materials/mp-19154,-5.658770808556259,-42.21834047734328,-9.469835499297414,-25.010395974218856
-7.3766919899999985,-413.09475144,4.057043093956646,-2.834016314196428,1.000000025,1.7077,14,56,772.8511101150658,1888.2364,mp-867539,Sr2V3O9,https://materialsproject.org/materials/mp-867539,-23.537491562312628,-33.232281751570355,0.056507623208362,-31.74933821923473
-7.227107169999999,-144.54214340000001,4.308482015002856,-0.5908090653333332,0.0,0.0,127,20,203.72835192628608,528.5994000000002,mp-637,YB4,https://materialsproject.org/materials/mp-637,8.007226085279576,-59.57825068997639,4.389062710115779,-48.86528160083307
-3.868103092352942,-263.03101028,5.025181667087142,-0.4202770230882352,0.000227425,0.5567,63,68,1962.5322022548764,5939.084,mp-651048,Ag9(BiO3)2,https://materialsproject.org/materials/mp-651048,-0.1175564344251822,-11.475187021925526,-25.39595875118753,-28.78147854526693
-4.160798929285714,-58.25118501,6.199362148978459,-0.7075661134077385,0.0,1.3683999999999998,11,14,385.7967829910984,1440.3118,mp-29337,Tl3BS3,https://materialsproject.org/materials/mp-29337,-0.5732720550339712,-23.11112688041171,-13.103940805388286,-29.27572185552929
-7.929115214666668,-237.87345644,6.471649189570218,-3.2993135052500007,8.590000000000001e-05,3.6031,165,30,541.4997075391033,2110.39672,mp-769394,Ba4Ta2O9,https://materialsproject.org/materials/mp-769394,-30.769540828330538,-50.762409096027724,-30.551321192936978,-57.79498527762307
-3.6705013066666665,-22.02300784,6.514734620827039,-1.1742498349856323,0.0,1.5131,12,6,180.09905322127318,706.5763037999999,mp-1205877,CsTlO,https://materialsproject.org/materials/mp-1205877,-3.418609938533569,-28.86342233224284,-18.244353239748204,-60.895656041884536
-1.3718157758333334,-16.46178931,6.3663093915680555,-0.2010289858333333,3.325e-06,0.0,62,12,259.99762393959134,996.8,mp-30719,Mg2Hg,https://materialsproject.org/materials/mp-30719,14.964418584052346,-9.557193018337788,1.2192328670703938,-10.132157594904307
-7.403838567651515,-977.30669093,5.837369677353707,-3.007421304583333,4.166666666666666e-08,3.4278000000000004,2,132,1863.0078363104747,6549.1176,mp-581345,Nd2Ge2O7,https://materialsproject.org/materials/mp-581345,-29.26169222586017,-54.89083468564292,-15.484971653644752,-52.687896092320855
-5.890232960394738,-447.65770499,5.431198041243366,-1.6551205696052635,13.999999925,1.7774,14,76,1063.889817982487,3479.7112,mp-561343,Fe3(TeO3)4,https://materialsproject.org/materials/mp-561343,-43.40193076356012,-49.45488794109532,-26.205266271138502,-11.135849760193384
-7.64338563875,-183.44125533,4.497781695048417,-3.0341203605208342,0.0,1.6612000000000002,63,24,294.84346681130984,798.62112,mp-557857,SrLi2Nb2O7,https://materialsproject.org/materials/mp-557857,-29.99885077458509,-70.73502379304658,-1.4914953992794897,-54.17041511306752
-7.225436273333332,-65.02892646,6.839010675809183,-3.0228968176388884,2.9996568,0.000600000000000378,71,9,137.12141218185718,564.7411950000002,mp-19118,BaNd2CoO5,https://materialsproject.org/materials/mp-19118,15.566433808270274,-63.42932499451285,17.000838539293238,-38.5901537879349
-6.951849583333334,-41.7110975,6.339924261496527,-0.5019622508333335,1.86989595,0.0,129,6,119.04978493553679,454.53109,mp-22256,NdMnSi,https://materialsproject.org/materials/mp-22256,41.636793278603136,-6.173756923717133,25.302934619436197,15.722355803043154
-6.954123575,-139.0824715,5.050476586843285,-1.7612670354375006,3.865794,0.0,62,20,379.16833140566285,1153.2284,mp-21871,CeCrS3,https://materialsproject.org/materials/mp-21871,13.606877602924062,-16.16682956284335,5.431869069612534,-0.6776988342717988
-4.6183011105,-92.36602221,4.075886847180208,-0.5265215312514876,0.0,1.6653000000000002,163,20,561.0232593400151,1377.063272,mp-13383,ScAg(PSe3)2,https://materialsproject.org/materials/mp-13383,7.8161040924343785,0.1646583135529612,-0.3460253482413901,-16.22957213124259
-7.848577525714285,-54.94004268,4.565790535168532,-0.5026782053571424,4.2000000000000004e-06,0.0,65,7,85.200580666626,234.2661,mp-29896,Y2B3C2,https://materialsproject.org/materials/mp-29896,8.768049052911094,-57.39755092146179,5.429550634541648,-49.12166239665638
-6.3241185725,-101.18589716,4.515954076448355,-2.5064501356324405,2.165e-05,1.4668,194,16,369.00226780931257,1003.527924,mp-9712,Ba3BPO3,https://materialsproject.org/materials/mp-9712,-1.6850833345705098,-24.790043617387234,-23.86800171357159,-31.387057394564486
-4.950910292222222,-44.55819263,7.60446885480052,-0.2963347674386117,0.0,0.9367,12,9,209.65742366986424,960.13,mp-1245549,Bi4S3N2,https://materialsproject.org/materials/mp-1245549,-19.774433785631707,-54.25182407054236,-14.014185502017474,-48.88835522631056
-8.819822330714286,-246.95502526,4.980231278301887,-3.706800770267858,0.0,2.5817,2,28,377.0425832357938,1130.8130800000001,mp-769720,La2Ti3O9,https://materialsproject.org/materials/mp-769720,-22.79186802692087,-35.74661238887787,-18.095226390561574,-31.902675771866342
-4.539526788333333,-27.23716073,6.315083686911173,-0.4130360583333334,2.2899999999999998e-05,0.0,141,6,120.54117815930492,458.422,mp-1077404,YbSi2,https://materialsproject.org/materials/mp-1077404,48.90090516935121,-17.339133732102802,20.96161967024712,21.054071665703518
-6.75975152,-337.987576,4.804881769321952,-3.0621190845618678,0.0001785,3.5753999999999992,15,50,753.8698254329341,2181.3732128,mp-1195124,Ba5Zn2B4(O6F)2,https://materialsproject.org/materials/mp-1195124,-23.54973133278745,-25.402975566053556,-4.845438859087653,-8.357468232658722
-6.560094299499999,-131.20188599,4.801994537258025,-2.7147772117499995,0.0,3.5407,19,20,356.81946927495284,1031.8608,mp-13863,BaGeO3,https://materialsproject.org/materials/mp-13863,-29.86256657532003,-26.80996507625583,-21.369293359341302,-11.847365280878275
-7.376847339285715,-206.55172549999997,4.0511431368967985,-2.834171663482142,1.00000005,1.7180000000000002,9,28,386.98833304503546,944.1182,mp-1218556,Sr2V3O9,https://materialsproject.org/materials/mp-1218556,-23.536509194863786,-33.23480901210376,0.05592373507616447,-31.727920843493877
-5.463411276,-27.31705638,6.958689181259698,-0.7166992960000002,0.0,0.0,71,5,99.6679427888422,417.67053860000004,mp-10529,Er2AlSi2,https://materialsproject.org/materials/mp-10529,30.394145850807032,-39.32626680068543,14.602796137455721,-18.511004254959566
-4.79937693,-115.18504632,4.528064297870005,-1.5150402597772998,5.000000225,0.5157,64,24,546.7706271820387,1490.9691952,mp-540730,Cs2CoO3,https://materialsproject.org/materials/mp-540730,-6.825629044574747,-28.82392146723785,-6.515151656162662,-29.097886628337783
-4.744750471111111,-42.70275424,8.01760481381995,-0.08181465450458268,0.0058502,0.7752999999999997,12,9,227.99156677899208,1100.815,mp-1247172,Bi4Se3N2,https://materialsproject.org/materials/mp-1247172,16.856933069144016,-33.59975218407104,-13.987282629340823,-48.75417215218897
-5.420920767999999,-27.10460384,7.4481758503060975,-0.6908257380000002,3.1e-06,0.0,71,5,96.55479670424423,433.0865386,mp-10531,Lu2AlSi2,https://materialsproject.org/materials/mp-10531,30.305516704730557,-39.46595494505035,14.613848123525944,-18.603102956595176
-6.909908715833333,-165.83780918,5.740637414508878,-1.9933206749479169,6.998596275,0.02150000000000052,62,24,534.6284157075556,1848.26,mp-1190656,SmEuCuS3,https://materialsproject.org/materials/mp-1190656,14.43723299415679,-19.009795006686822,6.324542667841094,0.3924153130397278
-7.7461970853125,-247.87830673,7.165943915716282,-3.3672764426367188,0.0,2.5741,57,32,459.78530826404887,1984.1724,mp-18219,Dy2SiSeO4,https://materialsproject.org/materials/mp-18219,25.931761706610352,-39.717205092824976,6.715323343968574,-23.339782849407946
-8.661924251818181,-95.28116677,7.152241550048307,-3.111825549583335,2.3e-06,1.5464000000000002,119,11,167.31716075465832,720.6652300000002,mp-1222747,LaTa2AgO7,https://materialsproject.org/materials/mp-1222747,-32.16777142551792,-68.75826661361764,1.3126018539344857,-51.8033782564585