energy_per_atom,energy,density,formation_energy_per_atom,total_magnetization,band_gap,sgr,num_sites,cell_volume,weight,mp_id,formula,URL,tsne_cry_0,tsne_cry_1,tsne_xrd_0,tsne_xrd_1
-7.780190931315789,-295.64725539,8.17630572273827,-0.12936656723684187,55.2394494,0.0,2,38,493.3031075346632,2428.9685,mp-1226270,Er4Fe29Si5,https://materialsproject.org/materials/mp-1226270,69.82709752141776,40.42216793444514,88.13359018015068,-19.585499022690698
-6.55004563875,-209.60146044,7.503362331055584,-0.4258490292708341,3e-07,0.0,12,32,329.7464030916471,1490.0021499999998,mp-1199550,Y3Ni19B10,https://materialsproject.org/materials/mp-1199550,54.612931314048566,37.66384736370488,70.5469743435481,-4.595282643523753
-7.216128054999999,-317.50963442,5.259800484435452,-0.43301740090909,0.0,0.7853999999999992,54,44,525.7739798430803,1665.4027199999998,mp-568121,Mn4Si7,https://materialsproject.org/materials/mp-568121,41.513636477771634,47.18261124049287,69.25462452382779,-16.756628908462226
-7.292900794999999,-218.78702385,5.405938797703213,-0.7591869997777783,3.9899999999999994e-05,0.0,139,30,383.2241156721877,1247.59856,mp-1193657,Ti4Co4Si7,https://materialsproject.org/materials/mp-1193657,41.47467243648544,47.11903152040828,69.33277098039738,-7.205006257379108
-7.222022855333334,-866.64274264,5.253110926311806,-0.4275972555000001,0.0076175,0.8909000000000002,118,120,1438.8417035150683,4551.77198,mp-567968,Mn11Si19,https://materialsproject.org/materials/mp-567968,41.50727763051383,47.176362953461854,69.27588107046293,-16.754735056353606
-7.2199347299999985,-592.03464786,5.257389138969344,-0.428544847317072,0.99999955,0.009700000000000486,122,82,981.8429866002049,3108.58735,mp-752,Mn15Si26,https://materialsproject.org/materials/mp-752,41.511709439482686,47.18264223716289,69.28358689574868,-16.748966383415514
-7.2250348630434775,-664.7032074,8.049026469427584,-0.4320057294927536,14.49116785,0.002699999999999925,129,92,969.5678581966567,4699.72531,mp-16083,Ce3Co29(Si2B5)2,https://materialsproject.org/materials/mp-16083,54.28613853100581,36.90439793897797,69.3894268158663,-5.561171768827443
-8.070680807105262,-306.68587067,8.408165603706896,-0.019457209210526717,37.89320135,0.0,194,38,505.27171235839853,2558.45128,mp-1196975,Ho2Fe17,https://materialsproject.org/materials/mp-1196975,69.93323389926739,39.64100254744775,88.36265879677809,-20.516045623726395
-5.921083711428572,-82.89517196,9.178401746951762,-0.6333475242857146,0.0,0.0,136,14,197.96666802945225,1094.2336,mp-11340,Dy(Ni2As)2,https://materialsproject.org/materials/mp-11340,69.10642779222451,11.712704462339671,64.86732304069194,-0.7358199584012723
-6.317432256,-189.52296768,7.200083977820622,-0.5133816714444445,0.0429052,0.0,139,30,431.14544583439084,1869.4432,mp-1193680,Ti4Ni4Ge7,https://materialsproject.org/materials/mp-1193680,47.52294659519212,47.226894306384175,71.17529552246802,-5.879815320889673
-7.777496929473684,-295.54488332,8.10815307275259,-0.12555145065789475,55.224813100000006,0.0,2,38,495.54189825002226,2419.65378,mp-1224868,Ho4Fe29Si5,https://materialsproject.org/materials/mp-1224868,69.80702903578319,40.387603999676045,88.17692562634315,-19.625879361111533
-6.280731443333334,-37.68438866,9.205973080475623,-0.2555783475000008,3.8352687000000008,0.0,187,6,82.17021271701942,455.54892,mp-1223882,HoFeNi4,https://materialsproject.org/materials/mp-1223882,78.21924736598285,20.64632424227689,87.78861781616553,-15.104426923774064
-8.916802480689658,-258.58727194,9.31684065676777,0.01176793301724227,33.4647658,0.0,225,29,287.3936956551203,1612.4892,mp-641595,Fe21(WC3)2,https://materialsproject.org/materials/mp-641595,40.656489850255255,50.97074486296696,66.77302761885547,-9.345181335528736
-7.862829123684209,-149.39375335,8.048014688480464,-0.02406130263157916,34.5728421,0.0,166,19,256.8874739666254,1245.0379750000004,mp-1188210,Ce2Fe12Co5,https://materialsproject.org/materials/mp-1188210,74.24351690526066,38.667371089295685,86.0985224438599,-21.617659867786788
-8.195898076538462,-213.09334999,8.013504838231343,-0.07304060926282191,42.4859256,0.0,8,26,340.2394467832488,1641.943,mp-1219391,SmEr(TiFe11)2,https://materialsproject.org/materials/mp-1219391,70.5579799409255,39.704530292727775,83.45248487471277,-21.0076060747431
-7.109182980000001,-654.04483416,7.988290224481911,-0.3924078241123193,18.5131877,0.007800000000000473,129,92,982.0857077728607,4724.48131,mp-16085,Nd3Co29(Si2B5)2,https://materialsproject.org/materials/mp-16085,54.286554497161475,36.890781801329524,69.34369659432818,-5.5705920918855405
-6.314079754166666,-75.76895705,9.310845742478985,-0.1809649483333331,8.847615699999999,0.0,47,12,163.7192021368804,917.9936150000001,mp-1224084,Ho2(CoNi)5,https://materialsproject.org/materials/mp-1224084,78.19112289882244,20.702954042796694,87.86612554393702,-15.189023055935655
-8.49426301923077,-110.42541925,9.555051004606304,-0.02656620711538529,21.9253076,0.0,44,13,167.7791209136331,965.4323199999999,mp-1224069,HoFe11Re,https://materialsproject.org/materials/mp-1224069,69.95967324010735,40.53852987957072,83.54632887950031,-18.82531091070648
-8.068958003157894,-306.62040412,8.462831237692617,-0.028248459473684907,37.891726,0.0,194,38,505.15041301603554,2574.46684,mp-30640,Tm2Fe17,https://materialsproject.org/materials/mp-30640,69.89904392785284,39.70255486706736,88.40859626274619,-20.516026610217057
-6.402624094285714,-89.63673732,8.388222822424497,-0.5517338985714285,0.0006169,0.0,136,14,188.39562132576958,951.6816,mp-1104853,Zr(Ni2As)2,https://materialsproject.org/materials/mp-1104853,56.91615819692938,37.277539472185424,70.59519862159738,-4.743102945413741
-7.735121296315789,-146.96730463,7.439713331978424,-0.056512420000000486,30.098544800000003,0.0,166,19,257.7802062183233,1154.9326999999996,mp-1188725,Y2Ga2Fe15,https://materialsproject.org/materials/mp-1188725,71.87920172699744,38.47925446774322,82.13192388481284,-20.78873404848916
-7.947012328461539,-103.31116027,7.843301233576871,-0.252627342692308,20.5975112,0.0,71,13,165.0421629864136,779.55132,mp-1224130,Ho(Fe5Si)2,https://materialsproject.org/materials/mp-1224130,70.1507649225384,40.253721070012226,83.48216041640951,-19.22371333392668
-6.8904813890000005,-206.71444167,5.285481301350572,-0.7118976897777789,0.0,0.0,139,30,391.3552022076882,1245.6802,mp-18583,Ti4Si7Ni4,https://materialsproject.org/materials/mp-18583,41.4497580472306,47.06983755836554,69.30675624617544,-7.196815329198327
-7.8536057633333325,-47.12163458,8.925263547431955,-0.2442282066666669,3.2083477000000005,0.0,187,6,83.32563975706104,447.8686,mp-1224630,GdFeNi4,https://materialsproject.org/materials/mp-1224630,78.67885791723339,19.632909610692934,87.34642624821228,-14.911032793292133
-6.8949135099999985,-82.73896212,8.551089394744416,-0.06484199645833283,12.387383400000001,0.0,47,12,168.62585430503677,868.3534199999999,mp-1223000,LaCeCo10,https://materialsproject.org/materials/mp-1223000,78.6484546960247,18.866317031698234,86.26304744255128,-14.4788902293847
-7.117207909347826,-654.78312766,8.100943826204164,-0.4036118707427536,18.0086173,0.011100000000000776,129,92,975.9530365476217,4761.18931,mp-16086,Sm3Co29(Si2B5)2,https://materialsproject.org/materials/mp-16086,54.261918190400934,36.89677511016972,69.26682900895878,-5.5979749639321135
-6.2430398999999985,-37.4582394,9.111368339855623,-0.2303582483333327,4.1534443,0.0,65,6,85.28453824927512,467.95578,mp-1225686,DyGaCo4,https://materialsproject.org/materials/mp-1225686,77.6176747250431,18.806859085226765,86.11411829324673,-14.317081845818056
-6.28453248,-37.70719488,9.091147352568983,-0.2548156983333338,3.8527911,0.0,187,6,82.76415460778159,453.1186,mp-1225612,DyFeNi4,https://materialsproject.org/materials/mp-1225612,78.44389088582092,20.196944641981013,87.66264197492512,-14.941258914971275
-8.203769602307691,-106.64900483,8.09568198722721,-0.08582124012820512,21.4076512,0.0,44,13,169.64834947951945,827.09232,mp-1224104,HoTiFe11,https://materialsproject.org/materials/mp-1224104,70.43047706029881,39.848900332507135,83.46295069485062,-20.956257911887636
-7.280292103157893,-138.32554996,8.12840200438577,0.016249284736843308,28.780788,0.0,160,19,258.97632821817064,1267.6990150000001,mp-1219878,Pr2Mn4Co13,https://materialsproject.org/materials/mp-1219878,74.29602778352553,38.65681447447611,86.36460418168846,-21.950237516448983
-7.7374054704347826,-711.84130328,8.203193194532856,-0.4129142507971017,1.4657187,0.010600000000000165,129,92,972.1564786885893,4802.52931,mp-680293,Gd3Co29(Si2B5)2,https://materialsproject.org/materials/mp-680293,54.251977159704715,36.89721337476482,69.24763682297568,-5.614736811069687
-7.25537907875,-232.17213052,8.566567096558911,-0.4171801817708332,7.0304818,0.0,12,32,328.5646508951529,1695.0345999999995,mp-866774,Gd3Ni19B10,https://materialsproject.org/materials/mp-866774,53.667336213084184,37.83643056431698,65.37419661192557,-5.4400684842233265
-7.102090544565217,-653.3923301,7.922310909001247,-0.3841032659057968,18.7710883,0.0037000000000002586,129,92,986.0714681168753,4704.4752100000005,mp-16084,Pr3Co29(Si2B5)2,https://materialsproject.org/materials/mp-16084,54.287379794423295,36.88865986993936,69.35317063838112,-5.5618853963100445
-5.925741255,-82.96037757,9.09019776070272,-0.6348592407142866,1.055e-05,0.0,136,14,198.58158947044998,1087.0843,mp-1103784,Tb(Ni2As)2,https://materialsproject.org/materials/mp-1103784,69.11591655649464,11.689812982429926,64.8773889697878,-0.7355460673944793
-8.504226697241378,-246.62257422,7.685775013689859,-0.43480086637931015,4.8672473,0.0,225,29,355.9605048200918,1647.5567800000001,mp-542995,Nb6Fe16Si7,https://materialsproject.org/materials/mp-542995,62.152324577857094,44.63938767014945,73.71274772767349,-7.798982576628758
-6.752070386153847,-87.77691502,8.73984408615587,0.17379739749999928,18.158265300000004,0.0,139,13,162.93300985806587,857.5583399999998,mp-1094061,SmCo12,https://materialsproject.org/materials/mp-1094061,46.7315547461324,51.56322202316608,73.14895824956459,-3.5839364813489607
-5.820558908333332,-34.92335345,8.62235107612544,-0.4742226083333338,3.5799999999999996e-05,0.0,65,6,85.62590103993614,444.6126,mp-1226588,CeGaNi4,https://materialsproject.org/materials/mp-1226588,78.68363450350328,18.48044235457582,85.28441112684261,-13.740077887323794
-8.121592655526316,-308.62052091,8.081012335715558,-0.02149088407894863,78.2223325,0.0,187,38,511.5407639996661,2489.41285,mp-1216207,YEr3Fe34,https://materialsproject.org/materials/mp-1216207,70.11486412658715,39.44714564035018,88.2503536505483,-20.83972529882028
-5.549440097083332,-133.18656233,8.559396836761014,-0.21815600180555586,0.06694605,0.0,127,24,328.5547669837773,1693.5649,mp-672335,YIn2Ni9,https://materialsproject.org/materials/mp-672335,62.95604058370932,43.57780414330502,74.75699525218413,0.26432785391910657
-4.588737778333333,-27.53242667,6.81577274411579,-0.1563954883333333,4.84e-05,0.0,187,6,85.78325483403124,352.102032,mp-1215968,YBeCu4,https://materialsproject.org/materials/mp-1215968,79.8571847854853,20.96129100759176,87.43031178737165,-12.140012144443324
-7.116659949673914,-654.73271537,7.855336258875894,-0.3893524485688406,19.4591849,0.0,129,92,991.9392759007872,4692.46213,mp-6084,La3Co29(Si2B5)2,https://materialsproject.org/materials/mp-6084,54.30836453533415,36.89451463889421,69.43961077718164,-5.510700140346938
-6.339465817857144,-88.75252145,8.597803890797321,-0.8379406177551029,3.735e-05,0.0,136,14,178.3223379763047,923.302888,mp-1104221,Ho(Ni2P)2,https://materialsproject.org/materials/mp-1104221,68.21103203063161,11.847724222898064,64.14057825820271,-1.0883045285433182
-8.128161197105264,-308.87012549,8.067690286560667,0.030529986578946032,58.627867,0.0,8,38,512.2229533758339,2488.6233,mp-1219348,Sm4Cr3Fe31,https://materialsproject.org/materials/mp-1219348,74.0206842609233,37.60587995136993,86.41618778906273,-21.77355575094809
-5.734436645833332,-68.81323975,8.756278194138346,-0.07484668666666631,3.716108,0.0,47,12,169.27781048298488,892.6279750000001,mp-1226892,Ce2(CoCu)5,https://materialsproject.org/materials/mp-1226892,78.58226606812597,18.517415743075944,85.70744711442885,-14.336480632849398
-5.2728168225,-63.27380187,7.135529054889309,0.3862827720833337,2.8056427999999998,0.0,107,12,186.90348480783425,803.145975,mp-22732,Co5Ge7,https://materialsproject.org/materials/mp-22732,42.990482159189405,47.49658635229575,68.90799419959416,-13.803107591767269
-8.28127829375,-265.0009054,7.37276071944435,-0.008239303750000815,64.6487891,0.0,12,32,424.8267781352066,1886.22255,mp-13412,Y3Fe29,https://materialsproject.org/materials/mp-13412,71.86197832648818,38.51333275991708,81.82484211160147,-20.399091973684193
-6.2058761975,-74.47051437,8.911337959436516,-0.1680986943750007,7.599937400000001,0.0,47,12,167.18027996426858,897.1785299999998,mp-1217504,TbSm(Co2Ni3)2,https://materialsproject.org/materials/mp-1217504,78.6138053086353,19.738837686005756,87.23633332178828,-14.800169810730939
-8.06569331736842,-306.49634606,8.326320441450386,-0.01167141546052694,76.35544940000001,0.0,187,38,508.72582542713565,2550.867,mp-1219139,SmEr3Fe34,https://materialsproject.org/materials/mp-1219139,70.01021124003418,39.50410273859216,88.34724443993042,-20.610504729362713
-5.518717322380953,-115.89306377,9.078794299216405,-0.5219722892857142,3.4e-06,0.0,174,21,288.04521195593014,1574.852,mp-865923,Yb2Ni12As7,https://materialsproject.org/materials/mp-865923,56.707953986081925,37.08619328534211,69.83363144884547,-4.788495093983276
-5.886656106666668,-35.31993664,8.659685572036588,-0.2772597779166676,1.4660342,0.0,191,6,83.9329415153838,437.709,mp-1824,NdNi5,https://materialsproject.org/materials/mp-1824,78.75760596610766,19.288603451019608,86.80641882422803,-14.547548741447358
-8.15152903105263,-154.87905159,8.06788996247386,0.03813249447368381,28.604458500000003,0.0,166,19,255.70904635438282,1242.3872,mp-3890,Sm2Cr2Fe15,https://materialsproject.org/materials/mp-3890,73.92405890597166,37.48384567329061,86.36266570135916,-21.847128986352896
-6.140929726666666,-36.84557836,8.654744289373022,-0.6169652291666665,1.6e-06,0.0,65,6,81.61135302825133,425.3591,mp-1077126,DySiNi4,https://materialsproject.org/materials/mp-1077126,75.48664822480863,21.327400096503467,89.04464103017206,-14.229501783059668
-7.124022660326087,-655.41008475,8.25921867069867,-0.4162234315579717,17.4044096,0.010299999999999976,129,92,967.58296796702,4812.58141,mp-16088,Tb3Co29(Si2B5)2,https://materialsproject.org/materials/mp-16088,54.23168843251946,36.90603450895433,69.2215793942034,-5.622439649763009
-6.2842509500000014,-37.7055057,8.989449190056137,-0.2508640366666673,3.8458383,0.0,187,6,83.04015778814879,449.54395,mp-1217544,TbFeNi4,https://materialsproject.org/materials/mp-1217544,78.57171753845611,19.815485439792333,87.4994425671637,-14.867665915222233
-7.9379476136842095,-301.64200932,7.860052349039388,-0.1117343269736855,65.1458873,0.0,1,38,510.599995136756,2416.8915,mp-1219345,Sm4Fe31Si3,https://materialsproject.org/materials/mp-1219345,73.80404265682438,37.291915392926775,87.49731881096805,-21.727897550263968
-7.1052300807142865,-99.47322113,8.881033646843932,-0.29776906857142954,6.49671255,0.0,58,14,200.40784826752912,1071.838,mp-20480,Er(Fe2Ge)2,https://materialsproject.org/materials/mp-20480,68.94351523295147,11.91150286565778,64.41295909971825,-0.5092452725864425
-8.185056343684211,-311.03214106,7.966794774432173,0.008931616842104225,36.84716085,0.0,194,38,512.5759806238782,2459.194,mp-1195962,Ce2Fe17,https://materialsproject.org/materials/mp-1195962,73.70621715565497,37.529589925289656,86.99089111715324,-21.53580669566077
-5.902485109166666,-70.82982131,8.577437162483733,-0.2796307837500009,2.3375347,0.0,47,12,168.4424171866766,870.08147,mp-1222868,LaNdNi10,https://materialsproject.org/materials/mp-1222868,78.77411025090831,19.1186386437697,86.65040960336452,-14.483356870463696
-5.800788574285713,-121.81656006,9.139573351479926,-0.5186120211904766,0.00011999999999999999,0.0,174,21,286.82990385516763,1578.7060000000001,mp-973921,Lu2Ni12As7,https://materialsproject.org/materials/mp-973921,56.6706403601021,37.042572090516636,69.71392097676569,-4.905851187014632
-8.26408219631579,-314.03512346,7.2748182309403315,-0.01398256000000156,39.3442693,0.0,194,38,514.5753078387038,2254.3534,mp-1196012,Y2Fe17,https://materialsproject.org/materials/mp-1196012,71.89595247550295,38.40214545134405,82.21863386662932,-20.891181455399835
-6.47556706736842,-123.03577428,7.752740452946748,-0.14127268789473652,16.4931824,0.0,166,19,254.41702956473526,1187.8246458,mp-1106291,Pr2Al3Co14,https://materialsproject.org/materials/mp-1106291,73.96417593416265,37.37527913450367,86.34638223059437,-21.52358378383181
-7.850696396052631,-298.32646305,8.158860130661223,-0.2797276557894726,26.073576199999998,0.0,194,38,488.70813126394586,2401.209,mp-1204517,Er2Fe14Si3,https://materialsproject.org/materials/mp-1204517,69.8853179158676,40.279032440795504,88.25838850410551,-19.67735548771632
-5.805721786666667,-121.92015752,9.027797606637847,-0.5280871907142861,5.8200000000000005e-05,0.0,174,21,288.16192967587364,1566.64042,mp-972759,Tm2Ni12As7,https://materialsproject.org/materials/mp-972759,56.70056797416476,37.07445691254455,69.81193173643797,-4.82189352032036
-6.615281646666666,-39.69168988,9.295596431626672,-0.14923237583333324,5.9478229,0.0,187,6,82.0581451807152,459.3565,mp-1223872,HoCo4Ni,https://materialsproject.org/materials/mp-1223872,78.10968457301067,20.74483406184729,87.9003251762585,-15.17018859759592
-5.4825244600000005,-65.79029352,7.465617288683128,-0.11144255166666757,1.3356407,0.0,70,12,176.34556356872997,792.832,mp-1225119,GaFeGe,https://materialsproject.org/materials/mp-1225119,68.32132582084428,34.66767100079801,74.67546376673404,0.3140985416959034
-6.402931626923077,-83.23811115,8.43358258642906,-0.33031891692307624,1e-07,0.0,191,13,173.3990934325284,880.6631699999999,mp-10359,Zr(CoGe)6,https://materialsproject.org/materials/mp-10359,44.009444435560106,47.93319122907772,72.08986076500521,-9.388728479688163
-5.678571630909091,-437.25001558,9.747583090753468,-0.23876063418831175,8.327248599999999,0.0,229,77,936.4539587113733,5497.1082,mp-8792,Yb11(Ni10C)6,https://materialsproject.org/materials/mp-8792,61.524630283118725,45.48102855559976,66.86578236575946,6.981328683341974
-7.626957510344827,-221.18176780000002,8.299629275379944,-0.21954366275862028,26.7327592,0.0,225,29,380.70207832289816,1902.807485,mp-30569,Zr6Co23,https://materialsproject.org/materials/mp-30569,63.55023320273053,44.09492261338936,73.95575642356555,-7.363196196213296
-6.337994591428571,-88.73192428,8.428310912496848,-0.8325576606122453,7.15e-06,0.0,136,14,180.95075331500263,918.4422480000001,mp-866032,Dy(Ni2P)2,https://materialsproject.org/materials/mp-866032,68.23079015738242,11.833625713530092,64.16287820691291,-1.1028936109833731
-8.07459562763158,-306.83463385,8.383286795482107,-0.024493144473684413,38.4125319,0.0,194,38,508.61622566491616,2567.766,mp-1724,Er2Fe17,https://materialsproject.org/materials/mp-1724,69.96337548434143,39.53872923441847,88.41756067853693,-20.6258969384932
-6.503365878461538,-84.54375642,9.437805524486096,-0.3551662357692311,1.1e-05,0.0,71,13,155.03151163972703,881.13391,mp-1217045,U(SiNi5)2,https://materialsproject.org/materials/mp-1217045,70.22357958114355,41.94932533214447,83.45394833770597,-18.33298812351639
-6.140446286666666,-36.84267772,8.534803575798831,-0.6128116575,4e-07,0.0,65,6,82.06276096100706,421.78445,mp-1070859,TbSiNi4,https://materialsproject.org/materials/mp-1070859,75.43447298641749,21.336525111878476,89.03254978583533,-14.203792099834285
-5.793603868333333,-34.76162321,9.272419413188157,-0.10916564416666692,3.8335702000000005,0.0,191,6,83.95835448862623,468.821905,mp-1018723,HoCo3Cu2,https://materialsproject.org/materials/mp-1018723,77.81314298652316,20.799825447851397,86.08067065460867,-14.620332499190384