energy_per_atom,energy,density,formation_energy_per_atom,total_magnetization,band_gap,sgr,num_sites,cell_volume,weight,mp_id,formula,URL,tsne_cry_0,tsne_cry_1,tsne_xrd_0,tsne_xrd_1
-7.13475709,-28.53902836,7.162479991732117,-0.3529218099999998,4.0199655,0.0,225,4,46.31809222366581,199.7859736,mp-3623,MnAlCo2,https://materialsproject.org/materials/mp-3623,44.155885290539295,60.430381055307954,90.56614852107315,-7.362797539059048
-8.401635601111114,-75.61472041,12.203739293433257,-0.3524099518253981,1.99e-05,0.0,189,9,111.64676071005293,820.521486,mp-1079407,NiPW,https://materialsproject.org/materials/mp-1079407,60.1974848113539,24.542757486178537,66.75380468178045,15.95253496140088
-6.2244050091666665,-74.69286011,9.424200159610834,-0.5127832119444449,0.0,0.0,191,12,146.07598632492676,829.0376200000002,mp-10129,TmNi4B,https://materialsproject.org/materials/mp-10129,73.84368786753569,24.99285936666636,61.72144417216592,15.75618377765268
-7.484471128636364,-329.31672966,8.234709111970242,-0.08935938572090989,37.5320519,0.0,194,44,517.1343051459597,2564.49892,mp-1212422,Ho2Fe17H3,https://materialsproject.org/materials/mp-1212422,74.79564081979734,34.025306689910906,88.82071511421603,-21.29323952057005
-5.7133149366666665,-34.27988962,8.476670498126953,-0.4752248875000002,7.699999999999999e-06,0.0,187,6,84.04180934185008,429.0141386,mp-1225616,ErAlNi4,https://materialsproject.org/materials/mp-1225616,75.53214519942601,19.55960152986506,88.10836919258453,-12.097854894703664
-3.9578704278571433,-110.82037198,7.963462381684325,-0.0139137728571426,0.0,0.0,226,28,401.78624521200544,1926.85,mp-642,BaCu13,https://materialsproject.org/materials/mp-642,22.658500161616306,37.48261768602918,64.74878339310239,-21.603504546171823
-6.58754069375,-52.70032555,5.772806651521517,-0.7170592580357145,0.0,0.0,129,8,123.01532300646288,427.65852400000006,mp-20588,ZrCuSiP,https://materialsproject.org/materials/mp-20588,56.64406321654675,32.09638947591414,63.180995382111895,-1.6798175500235848
-6.4014613478125,-204.84676313,7.794194387515367,-0.07752649718749982,1.000013775,0.0,118,32,449.9698320297258,2112.05654,mp-1097859,Mn3Ge5,https://materialsproject.org/materials/mp-1097859,61.612479526363494,37.32006115245226,73.33327364820437,-1.3171421552958014
-8.828286459047616,-185.39401564,5.552793267259968,-0.7765887966241503,0.0023644333333333336,0.0,189,21,249.15671848878537,833.1726719999999,mp-29634,V4P2C,https://materialsproject.org/materials/mp-29634,51.98694045670349,47.515006024402524,71.31713785938359,0.215466545702304
-6.563732123055555,-236.29435643,7.5510634996583725,-0.8357962550000005,0.0001696,0.0,189,36,562.1628037839164,2556.35485,mp-1203300,Y5Zr3(Ni4As3)4,https://materialsproject.org/materials/mp-1203300,67.59980875911485,9.11248845165788,70.72289661552294,2.57309219643612
-7.789689589999999,-93.47627508,8.476259686707266,-0.1495421016666659,1.6795331999999998,0.0,160,12,156.73856466875398,800.075605,mp-1215872,Zr3MnCo8,https://materialsproject.org/materials/mp-1215872,64.55293514577396,46.19658479595423,78.06133164889688,-0.5602162173386601
-5.495669419166667,-65.94803303,8.674847257071013,-0.03907514708333319,5.7560337,0.0,47,12,174.78863657215766,913.115975,mp-1219221,Sm2(CoCu)5,https://materialsproject.org/materials/mp-1219221,77.54824200931925,17.321448934595423,85.23152711801488,-13.382811806089856
-7.528730321333332,-225.86190964,6.237438776283092,-0.8215779643333341,8.25e-06,0.0,139,30,424.47776072020486,1594.45456,mp-1194045,Zr4Co4Si7,https://materialsproject.org/materials/mp-1194045,64.22352806222912,27.72576584184195,63.277076282949096,9.895168215059947
-8.440734210625,-135.05174737,7.583189063769468,0.2492182415625006,18.5240641,0.0,6,16,156.19129552403822,713.2792999999998,mp-995285,VFe11C4,https://materialsproject.org/materials/mp-995285,40.14947939960654,54.778837195969345,78.35015398799094,-11.546867734617598
-8.639294336111114,-311.0145961,6.6369000269848515,-0.8658027801587294,6.988782725,0.0,189,36,495.5135804319442,1980.485864,mp-1196264,Zr2Mn4P3,https://materialsproject.org/materials/mp-1196264,57.73739371664237,35.22378689592729,70.9511233040497,1.6342847201097834
-7.36302716,-29.45210864,7.0867822487696825,-0.2437327474999993,3.008877,0.0,216,4,46.08923048302789,196.6977786,mp-1221633,MnAlFeCo,https://materialsproject.org/materials/mp-1221633,43.99531015235397,60.43122900855194,90.65579033261429,-7.490631013889739
-4.681890963214286,-131.09294697,8.076837569768701,-0.2571419710714287,1.275e-06,0.0,62,28,432.0291380835413,2101.3834,mp-1207691,YCu5Sn,https://materialsproject.org/materials/mp-1207691,68.3718516417051,32.470632314637186,64.32025918396509,17.494994744022133
-6.9242884759615375,-360.06300075,7.626137449396242,-0.5332680255769239,13.90155215,0.0,137,52,747.0607411138799,3430.9268,mp-1202253,Eu2Si3Ni8,https://materialsproject.org/materials/mp-1202253,65.09926112572192,9.639499155921332,60.910206724928884,-1.1601507817872354
-7.963282195454545,-175.1922083,5.139816881104771,-0.5449351168181832,0.00014835,0.0,72,22,288.2310635616828,892.153,mp-976,V6Si5,https://materialsproject.org/materials/mp-976,50.68286233367047,47.183686344601014,72.40039120888909,-5.500123499003492
-9.253878112,-92.53878112,8.466158509731523,-0.4056803986666651,0.03304925,0.0,127,10,105.30281806311052,536.88009,mp-1092278,Mn(BMo)2,https://materialsproject.org/materials/mp-1092278,59.35545286971279,28.738731916732522,65.71909156825178,13.8936684148346
-7.390353223333333,-44.34211934,10.871296902202156,-0.1865109644791675,3.1194321,0.024499999999999744,191,6,82.09553508108978,537.467,mp-21315,PuNi5,https://materialsproject.org/materials/mp-21315,77.06417867556256,20.840622446401632,89.75131482659883,-13.705795750038376
-6.19119246,-117.63265674,7.235484828525492,-0.3441245294736843,0.0,0.0,166,19,196.63660070550014,856.8068,mp-16830,Sr(Ni2B)6,https://materialsproject.org/materials/mp-16830,31.27282002676803,44.825543576446655,66.67963805359878,-20.5916951683712
-6.0838932075,-73.00671849,6.222592333799664,-0.4425735384722221,1.1e-06,0.0,119,12,193.9858524264606,726.9295386,mp-1217144,Ti4AlGe7,https://materialsproject.org/materials/mp-1217144,65.64993235558651,35.66514108010745,65.03385774101547,8.537775510676747
-5.900846942916668,-424.86097989,8.139505853791297,-0.5940248131944443,0.0,0.0,62,72,1072.4995950123923,5257.0981600000005,mp-582126,LaNi5As3,https://materialsproject.org/materials/mp-582126,23.34467590840633,39.7105394860406,65.12429354982706,-20.008975111141673
-7.007241219791666,-336.34757855,8.387704840381405,-0.7222531472916671,1.575e-06,0.0,55,48,806.3269788657732,4072.914,mp-31084,ZrGe2Rh,https://materialsproject.org/materials/mp-31084,64.07924098021105,34.880367583247235,60.93639002224472,4.501172035732983
-8.121222656029412,-552.24314061,7.687929217687763,-0.11234300200980256,31.0364066,0.0,136,68,906.138966679605,4195.2234,mp-1216335,YErFe14B,https://materialsproject.org/materials/mp-1216335,72.22655606584547,32.765512843008565,84.09173762879091,-6.858817521762955
-4.5245677592857145,-126.68789726,6.631564664200803,-0.21892829857142868,0.0,0.0,140,28,386.55439460862334,1543.7520000000002,mp-11142,SrCu9Si4,https://materialsproject.org/materials/mp-11142,22.743455807905768,37.47760624211651,65.07931007547842,-21.563065007380022
-7.105058552380951,-149.20622959999997,8.539135188508041,-0.8079047354761902,4.8483162,0.0,174,21,247.7348655845374,1273.948674,mp-1191153,Lu2Co12P7,https://materialsproject.org/materials/mp-1191153,55.496295683567766,34.64509601535337,62.9613676741164,-4.431429313045948
-6.6627312000000005,-193.21920480000003,8.289236921167978,-0.5904395146551725,3.229999999999999e-05,0.0,225,29,399.6314638268989,1994.9184,mp-672651,Zr6Ni16Ge7,https://materialsproject.org/materials/mp-672651,63.13528933639874,43.449215866319506,76.54941118812583,1.4327964449882282
-5.657475780344827,-164.06679763,4.564324690283909,-0.5609168024137932,4.45e-05,0.0,225,29,411.0161757915631,1129.7604176,mp-865235,Ti6Al16Ni7,https://materialsproject.org/materials/mp-865235,49.29374668188121,45.06407870677281,68.44098627750303,-3.627275203143903
-8.759591386034483,-508.05630039,5.693093412774659,-0.8090813028201966,0.01365185,0.0,51,58,711.5333917450058,2439.464516,mp-1195743,V18P9C2,https://materialsproject.org/materials/mp-1195743,51.366611413062614,47.295575886270285,72.5852097133965,-4.6338675679791415
-8.845285011,-88.45285011,5.846064289856191,-0.7263511696666669,0.0,0.0,127,10,99.10093672558152,348.8930000000001,mp-2091,V3B2,https://materialsproject.org/materials/mp-2091,35.73295361794443,54.81507744490921,75.55215155429869,-8.215982029011915
-8.283990734166666,-99.40788881,12.232425567990573,-0.4212581725000011,4.525e-06,0.0,62,12,169.69764270407632,1250.0843,mp-1095502,TaCoGe,https://materialsproject.org/materials/mp-1095502,59.484142866954286,23.37527749956116,58.10678885398188,10.760564882616237
-7.632388756842105,-145.01538638,7.579305030118394,-0.06257993447368455,30.2083756,0.0,166,19,261.23201652157354,1192.3580772,mp-1188423,Sm2Al2Fe15,https://materialsproject.org/materials/mp-1188423,74.23995241278993,35.73342252084672,88.48866348115091,-22.481070470687172
-7.436090176363637,-327.18796776,11.962359182409134,0.03069639136363765,5e-08,0.6958000000000002,116,44,695.9051576397114,5013.232,mp-1201064,Re4Ge7,https://materialsproject.org/materials/mp-1201064,35.34770583013721,33.60637719071584,58.33687303355941,-10.923882944123372
-6.461006626666666,-38.76603976,17.17661752180207,-0.6524140108333327,2.49e-05,0.0,191,6,110.46779654258086,1142.6789999999999,mp-1025030,ErPt5,https://materialsproject.org/materials/mp-1025030,76.76701061318134,12.111514014715608,62.12185798771843,22.791364509302387
-7.039297996388888,-253.41472787,7.682269971083782,-0.7545161965476197,1.455209,0.0,62,36,456.9412090228946,2113.979644,mp-1204625,PrCo5P3,https://materialsproject.org/materials/mp-1204625,56.6185216790499,35.30734642100811,62.00728482139093,-3.5895554683195594
-7.672261799545454,-168.78975959,4.8743626355976915,-0.5505822199999993,0.9094594000000001,0.0,72,22,298.64567340338465,876.6474479999998,mp-17334,Sc2Cr4Si5,https://materialsproject.org/materials/mp-17334,50.62042936305824,47.022436283446865,72.29262760062286,-5.5295625473902135
-6.443511180000002,-38.66106708,7.2317691421670505,-0.13271539666666735,5.565e-05,0.0,12,6,92.69157542709894,403.6786,mp-15681,CrAs2,https://materialsproject.org/materials/mp-15681,34.5717371429417,32.10188024692949,66.93075903419742,0.4207044740821686
-7.46580904375,-59.72647235,4.669734582397735,-1.4895166024479174,4.25e-06,0.0,26,8,115.88056477082024,325.8769999999999,mp-1216761,TiVS2,https://materialsproject.org/materials/mp-1216761,15.533074027833356,37.99349285064672,62.7396306097682,-20.47374628745617
-7.190069125789473,-136.61131339,7.919351808785769,-0.3397434830263146,6.670004,0.0,166,19,192.13219552659402,916.30634,mp-1105815,Nd(Co2B)6,https://materialsproject.org/materials/mp-1105815,31.088847985925568,44.642680116117994,66.02791099016174,-20.490861481847
-9.628302638275862,-279.22077651,9.79630664766167,-0.06220936077586078,16.635023399999998,0.0,225,29,291.9489335897194,1722.3451,mp-1193083,Mn20(WC2)3,https://materialsproject.org/materials/mp-1193083,40.64636905650388,50.77554564766358,66.42094858468752,-9.460881210622953
-9.184644494642855,-257.17004585,8.809261086890812,-0.11086138212571432,6.0130511,0.0,119,28,323.66579075864456,1717.0668,mp-1225260,Fe4Mo2N,https://materialsproject.org/materials/mp-1225260,63.25043899983164,42.76230105474527,78.27588832763936,3.087548456400056
-6.234320928333332,-74.81185114,9.335611552796044,-0.5078269769444445,3.5e-07,0.0,191,12,146.86620396257206,825.6872,mp-12965,ErNi4B,https://materialsproject.org/materials/mp-12965,73.9102096078069,25.091484424754313,61.697731324719754,15.811331643395965
-5.759162996666666,-34.55497798,8.573830839334518,-0.5359451016666661,1.8e-05,0.0,65,6,83.41387774778859,430.6893486000001,mp-1216573,TmAlNi4,https://materialsproject.org/materials/mp-1216573,75.35199424494856,20.976525140734715,89.71931860183494,-13.665599058908295
-8.847459019545457,-389.28819686,8.48452841595074,-0.10473107846590968,2.3971174,0.0,194,44,511.9274445513541,2615.69457,mp-1208144,Tm2Mn17C3,https://materialsproject.org/materials/mp-1208144,74.83619444247466,34.025819545124925,89.02627753525783,-21.352006474291024
-7.391275630000001,-214.34699327,8.31857143170962,-0.2714106431034489,20.0657248,0.0,225,29,296.41541993345487,1484.911095,mp-541854,Zr2(Co7B2)3,https://materialsproject.org/materials/mp-541854,40.426823532514184,52.569794217248756,79.41224858265537,-10.35811511617509
-6.906103318,-34.53051659,7.636761058641528,0.018893685999999837,5.0423652,0.0,164,5,68.01856386613218,312.815,mp-1225239,Fe3Ge2,https://materialsproject.org/materials/mp-1225239,43.44645780768864,59.78231568327713,68.94141799883793,-14.013255334280846
-5.706374651111112,-51.35737186,7.73101729871517,-0.12906651592888904,5.8231919,0.0,10,9,93.77594877871138,436.595265,mp-1222959,LaCo5H3,https://materialsproject.org/materials/mp-1222959,72.28031328611543,13.180471854620116,85.26439824429362,-10.99198162119411
-7.23032857125,-57.84262857,9.826555826898364,-0.2859459087500005,2.5e-08,0.1852999999999998,198,8,117.4174315883153,694.8399999999998,mp-1025397,GeRu,https://materialsproject.org/materials/mp-1025397,66.22762620257868,37.36108170722957,73.65063493656615,2.8422358220261112
-7.62428946111111,-68.61860515,7.893437165105964,-0.20198216944444405,4.199842833333333,0.0,189,9,117.19982302324483,557.1139350000002,mp-4238,MnFeAs,https://materialsproject.org/materials/mp-4238,45.27184249716275,50.81226259133135,74.68063065385509,-12.281417891220748
-6.89803026,-27.59212104,7.2378678473494364,-0.36276041374999934,3.7890159,0.0,225,4,45.97889998975856,200.410345,mp-999508,MnSiNi2,https://materialsproject.org/materials/mp-999508,43.63639530443493,60.345359313245055,90.67555326181207,-7.490692291490656
-8.08050834,-48.48305004,7.940036764519979,-0.5572009255555557,0.0,0.0,63,6,67.93153450169329,324.82156000000003,mp-9985,NbNiB,https://materialsproject.org/materials/mp-9985,59.20556975677229,29.135567218227855,67.8818288747797,2.5669861180706595
-6.820549533333333,-122.7698916,8.439891829566507,-0.1493125153240737,14.0812451,0.0,191,18,240.127949067878,1220.479535,mp-4603,Nd3Co13B2,https://materialsproject.org/materials/mp-4603,74.23111462418842,26.24155263780294,61.07214964385608,16.23183970893825
-7.56253416375,-60.50027331,5.7538693622945205,-0.5215909823214275,1.9436113999999998,0.0,6,8,97.71162198685032,338.5767479999999,mp-1226323,Cr3NiP4,https://materialsproject.org/materials/mp-1226323,16.95968779514718,37.78641777914629,68.10650514800002,-23.528683294458546
-6.351393670833333,-76.21672405,7.600998231715574,-0.40085527333333343,0.2597871,0.0,166,12,173.66916857487985,794.9581499999998,mp-569196,YNi3,https://materialsproject.org/materials/mp-569196,76.19118958500674,24.2905670462422,75.97782026638184,0.6965431789329408
-5.8812951700000005,-35.28777102,6.936132048008679,-0.34157322722222244,7.400000000000001e-06,0.0,63,6,88.12611692329693,368.106,mp-753490,TiCuGe,https://materialsproject.org/materials/mp-753490,47.21496378830871,46.922075265455454,67.26609200659175,-11.177781655400416
-7.796407477142857,-163.72455702,8.211596203023603,-0.7279185002380947,0.8066545,0.0,174,21,250.12246547746318,1236.8903340000004,mp-1192008,Lu2Fe12P7,https://materialsproject.org/materials/mp-1192008,55.52149949515487,34.412318263554,62.677811341110285,-4.409129784603535
-7.1646242475,-85.97549097,7.950961978162093,-0.20062764583333248,3.71931835,0.005700000000000038,62,12,155.8096724745754,746.04496,mp-21286,MnCoGe,https://materialsproject.org/materials/mp-21286,45.22117824792719,50.899753021186115,74.60317851376786,-12.19491665397131
-8.181045858095237,-171.80196302,7.319435559742713,-0.7032134326190468,16.4314954,0.0,174,21,270.8619659564321,1193.923574,mp-1191573,Tb2Mn12P7,https://materialsproject.org/materials/mp-1191573,55.5902715901983,33.798959753863656,61.51896873926477,-3.5119796836317767
-8.84894755318182,-389.35369234,8.417210299626731,-0.0981075280113634,2.15065985,0.0,194,44,514.6997389351601,2608.99373,mp-1213058,Er2Mn17C3,https://materialsproject.org/materials/mp-1213058,74.88976251969551,34.05547599269843,89.02714706329876,-21.371258659600038
-4.330157458333333,-103.92377900000001,7.161102300114329,-0.13074649083333334,7.12340205,0.0060999999999999934,194,24,358.2539190680297,1544.976,mp-13223,EuMg2Cu9,https://materialsproject.org/materials/mp-13223,68.2862142682526,40.2803672327712,63.86565430008332,-7.050959245506254
-8.182552501904759,-171.83360254,7.386664175370346,-0.7068172945238086,16.3844396,0.0,174,21,270.00393544519113,1201.0728740000004,mp-1190617,Dy2Mn12P7,https://materialsproject.org/materials/mp-1190617,55.55119360798368,33.791191268111845,61.6396331027905,-3.784420631815375
-6.922698003333332,-20.76809401,9.775483590332342,-0.4754588083333324,5e-07,0.0,225,3,47.687404699009406,280.7326,mp-2302,AsRh2,https://materialsproject.org/materials/mp-2302,37.312415252625854,49.574980468900534,50.51041596281225,48.65872369292473
-5.946084882307693,-77.29910347,7.9322071661194,-0.2967764600000005,7.7644829,0.0,2,13,178.75587283846218,853.896585,mp-1215402,ZrGa6(FeCo)3,https://materialsproject.org/materials/mp-1215402,44.355931526530135,47.82106758894447,75.7394602580838,-1.1386010778228224
-7.2438345800000015,-86.92601496,7.965908045776883,-0.19363129500000065,1.9078546000000003,0.0,164,12,148.26233244568718,711.2413971999998,mp-1220480,NbAlCo4,https://materialsproject.org/materials/mp-1220480,63.74179180014011,47.928917695682436,78.3429275320623,-4.224572978837541
-3.89962912,-23.39777472,9.333349086765145,-0.2287459183333335,0.0,0.0,191,6,87.31514669438471,490.77,mp-1607,YbCu5,https://materialsproject.org/materials/mp-1607,77.30194862743238,18.13540877359276,85.1537115099811,-13.362070185781784
-7.609730693214287,-213.07245941,7.807547696642547,-0.4829716739285713,2.4176771,0.0,140,28,340.2901735426679,1599.9815099999996,mp-1193590,GdCo9Si4,https://materialsproject.org/materials/mp-1193590,22.12080608221223,39.16986560294813,66.35846368193846,-22.49285081421556
-8.247215429999999,-313.39418634,8.46088182817844,-0.019077051578947433,29.8113272,0.0,194,38,529.3104468105389,2696.97552,mp-1197659,Dy2Nb2Fe15,https://materialsproject.org/materials/mp-1197659,72.94775519175215,36.50973887210772,88.3413007115259,-20.885947225851137
-6.3336791125,-25.33471645,6.557751693312523,-0.19042959316406272,0.02638,0.0,160,4,56.16573108191696,221.80804500000002,mp-1221700,MnFeSeS,https://materialsproject.org/materials/mp-1221700,24.854221438158465,39.698659169955214,61.686778249984656,-21.646782161447174
-6.08949989875,-48.71599919,5.930897549871825,-0.4877130762500004,2.5e-08,0.0,62,8,97.18579698033743,347.1156,mp-351,SiNi,https://materialsproject.org/materials/mp-351,17.12281159381698,37.62472286094413,68.05049422227104,-23.602539426105363
-7.591115002727273,-167.00453006,5.240698092687803,-0.3585843143939397,6.1029801,0.0,72,22,288.91664855351036,911.82736,mp-17553,Ti2Mn4Si5,https://materialsproject.org/materials/mp-17553,50.66450007089981,47.21095979292223,72.35612518642138,-5.450268554574508
-5.927633646206896,-171.90137574,4.6081530137920215,-0.5096207020689655,2.9156758,0.0,225,29,407.71185252790207,1131.4389826,mp-1192877,Ti6Al16Co7,https://materialsproject.org/materials/mp-1192877,49.320830021600955,45.08028853819224,68.42070171996349,-3.6796558475033305
-4.258770029166667,-51.10524035,6.1074049317997225,-0.4836344116666667,0.0,0.0,63,12,199.3677331311807,733.2675999999999,mp-11431,CaGa3Ni2,https://materialsproject.org/materials/mp-11431,40.78015139723091,46.69398845006996,23.051917971741453,-53.31574286140837
-6.939127199642857,-194.29556159,7.715712044220308,-0.4814438548214294,4.08264855,0.0,140,28,341.3747840207425,1586.20151,mp-567852,SmCo9Si4,https://materialsproject.org/materials/mp-567852,22.124325218844827,39.173144619877576,66.36120449798011,-22.492462962362172