energy_per_atom,energy,density,formation_energy_per_atom,total_magnetization,band_gap,sgr,num_sites,cell_volume,weight,mp_id,formula,URL,tsne_cry_0,tsne_cry_1,tsne_xrd_0,tsne_xrd_1
-4.4116316051851845,-119.11405334,6.696462587049818,-0.3098097818342151,2e-07,0.0,12,27,442.87250683029833,1785.9737719999996,mp-1228373,Ba3Cu17AgP6,https://materialsproject.org/materials/mp-1228373,30.76042398200934,21.498589817277878,55.94083511824047,-5.569286366607896
-5.6247446775,-22.49897871,6.074206652725822,-0.3123344762500002,0.0109066,0.0,225,4,46.54405568291207,170.25689,mp-1185849,MgCo2Si,https://materialsproject.org/materials/mp-1185849,45.74964499682921,60.292076250109574,89.8219646470281,-5.52473403311128
-7.03565820875,-56.28526567,8.683186339403663,-0.0412872037500005,9.8918928,0.0,160,8,93.63200341059758,489.61458499999986,mp-1225391,Fe3Co3Ge2,https://materialsproject.org/materials/mp-1225391,79.10866352525349,49.625243916672886,92.48201963041542,-5.308066626381661
-6.376168991818182,-140.27571782,8.332516429255815,-0.4951991322727271,6.671433400000001,0.0,167,22,386.2767892363221,1938.3210000000001,mp-1191926,EuGe7Rh3,https://materialsproject.org/materials/mp-1191926,68.55036091534909,13.490919053010753,49.364104678534524,-10.453880117822296
-4.602691417857144,-257.75071940000004,7.990395056194693,-0.3944851264285713,7.5e-08,0.0,230,56,756.4072563636004,3639.7776,mp-30655,Ga4Ni3,https://materialsproject.org/materials/mp-30655,45.70463882846472,59.125451146993655,88.02026223822048,-5.430794743329479
-3.6549863675,-43.85983641,6.752985847972424,-0.16638641250000022,3e-07,0.0,140,12,200.31183679231603,814.6168,mp-1095578,Ga5Ni,https://materialsproject.org/materials/mp-1095578,53.579013178731394,43.28968078781314,67.76743550715689,-3.241910165896457
-5.937088598333332,-35.62253159,9.332670975571114,0.14540633333333255,0.01717285,0.0,194,6,83.00262062840676,466.4968,mp-1025011,FeNiSn,https://materialsproject.org/materials/mp-1025011,53.37326830557116,56.15566845537104,81.88807523283977,4.803286907703937
-5.5650490999999995,-27.8252455,6.1352548489530765,-0.4714939229999999,7e-07,0.0,139,5,82.0692782731113,303.22439,mp-4259,Ca(CoGe)2,https://materialsproject.org/materials/mp-4259,31.146338362322272,19.762902079883627,19.54785629138546,-55.118413082115005
-1.84786155625,-44.34867735,7.313801668999138,-0.18657669749999992,0.49746525,0.0,141,24,390.3371547303488,1719.23,mp-640370,CeZn11,https://materialsproject.org/materials/mp-640370,71.39371498717375,17.918667185235012,68.26096753442152,3.5086572790501456
-8.018949765625,-128.30319625,6.2185164448032415,-0.460434546250001,2.55e-05,0.0,42,16,216.72039983240748,811.5915,mp-1216775,V10(SiGe)3,https://materialsproject.org/materials/mp-1216775,48.53343479032024,49.00772432286021,73.23653191841045,-6.609432359100008
-7.225775151034482,-209.54747938,7.859157160836773,-0.2586677437931032,21.088655300000003,0.0,225,29,294.1909499962418,1392.374919,mp-1193429,Sc2(Co7B2)3,https://materialsproject.org/materials/mp-1193429,39.57586499024577,53.53327495826158,79.21543878227595,-10.891394422141056
-9.418553016666666,-113.0226362,11.64010797419659,-0.8435255640476195,0.0,0.0,62,12,152.79478975155902,1071.066568,mp-21336,TaFeP,https://materialsproject.org/materials/mp-21336,60.32019751613862,24.385315523359708,58.57504794316112,11.246534174166746
-5.877280291,-58.77280291,15.46190108098299,-0.07528862850000095,3.4962512,0.0,123,10,137.77059259832728,1282.8336,mp-1220122,Ni4GePt5,https://materialsproject.org/materials/mp-1220122,54.027764046055154,59.19827363329899,87.1609401031312,2.7314379915529874
-9.165752136,-45.82876068,8.133305714465497,-0.3238477984759996,0.054617200000000005,0.0,221,5,55.71682046569924,272.9005,mp-21244,Cr3RhN,https://materialsproject.org/materials/mp-21244,52.067681827105645,62.45823634902968,86.30095352662006,8.184947890597037
-9.713249262413793,-281.68422861,7.8078537188399375,-0.04704400284482557,0.021703,0.0,225,29,297.70705059465354,1399.8184,mp-1193310,Cr22WC6,https://materialsproject.org/materials/mp-1193310,40.65932771201201,51.004480291630706,70.52485370961148,-13.020954862719238
-6.419872081666668,-38.51923249,7.964112449273511,-0.22006096291666685,4.3446910999999995,0.0,187,6,89.36783065319403,428.617115,mp-1222879,LaMnNi4,https://materialsproject.org/materials/mp-1222879,77.33814509132075,16.800899083939278,85.39603871138574,-12.566590656340333
-9.716538005,-116.59845606,15.61034682028141,-0.26063631166666684,4.275e-06,0.0,194,12,221.50354024522733,2082.304,mp-1102302,CeOs2,https://materialsproject.org/materials/mp-1102302,81.50965443079424,11.856547985200322,60.384510068574436,26.586957963808842
-6.937253743333333,-41.62352246,6.354563668846757,-0.09956182666666652,1.1033333333333333e-05,0.0,183,6,83.53730336458909,319.6812,mp-1216890,TiNi,https://materialsproject.org/materials/mp-1216890,15.916729244458821,38.95523435256809,84.18358288390627,-2.1416836461129223
-9.071421855714286,-507.99962392,7.7785837258577075,-0.5458853866326521,0.0,0.0,62,56,814.0791824703282,3813.4502880000005,mp-21833,Mo4P3,https://materialsproject.org/materials/mp-21833,67.2173500780127,22.070578009282517,62.99609348987185,0.6899286243954378
-7.34858221147541,-448.2635149,5.584185039082613,-0.6075539904508207,2.4571132,0.0,12,61,1016.2064047133102,3417.375,mp-1198191,Ti45Se16,https://materialsproject.org/materials/mp-1198191,36.517329766437506,29.898009427736906,61.11017360784424,0.7485597543259492
-5.81284326142857,-40.68990283,6.536288982289254,-0.10471972919642933,0.9950919,0.0,1,7,121.55530568342294,478.4715,mp-675747,V(FeSe2)2,https://materialsproject.org/materials/mp-675747,21.899569958918686,34.773254767606,56.47151203660186,-3.959199527038552
-5.322652340833334,-63.87182809,3.674594162689684,-0.2301898841666669,6.2e-06,0.0,108,12,174.39674779421338,385.9212316,mp-1228467,Al3FeSi2,https://materialsproject.org/materials/mp-1228467,42.73237426033766,43.870681548372396,66.2061817936921,-14.97911830228828
-7.792392585681817,-342.86527377,6.4591979418560745,-0.5731991679545455,5.765e-05,1.0490999999999993,116,44,605.2706834090817,2354.394,mp-1203760,Si7Tc4,https://materialsproject.org/materials/mp-1203760,28.84643566168581,28.680807711946827,58.03961015143226,-10.946728317716703
-6.07795150625,-145.87083615,9.347037591720984,-0.4214235862500004,3.839750925,0.0,62,24,369.14950461285207,2077.9121800000007,mp-1192666,MnGe2Pd3,https://materialsproject.org/materials/mp-1192666,66.8592397056954,35.0873138567268,70.32270737677308,3.025155989901088
-10.02427824,-60.14566944,8.109365833703247,-0.04194131444444457,4.55e-05,0.0,216,6,107.06318045175163,522.851,mp-1215177,ZrTiMo4,https://materialsproject.org/materials/mp-1215177,81.58290891021858,13.61606314586812,62.39290011470553,26.141041252473908
-8.28098492882353,-140.77674379,5.323198153756897,-0.6326035768627458,0.0168219,0.0,162,17,214.8479100037632,688.7389999999999,mp-1216643,V10Si6B,https://materialsproject.org/materials/mp-1216643,50.61318449817096,47.276660357517464,74.95915031318323,0.6730167821300531
-7.851920524375,-251.26145678,6.946661528751056,-0.4344765324999997,2.5e-08,0.0,62,32,458.45473797928827,1917.8892,mp-505541,V5As3,https://materialsproject.org/materials/mp-505541,45.747570117620384,49.50960494547925,63.6341626397892,-21.33702778657889
-7.118804677777778,-64.0692421,4.764735598951685,-0.5400823714814812,7.1e-06,0.0,21,9,125.5273378300513,360.18699999999995,mp-1217079,Ti2Si6Mo,https://materialsproject.org/materials/mp-1217079,41.579713328464976,39.51805633068281,59.41815043079997,-10.909601375824387
-5.1513415885714275,-144.23756448,8.207693549175026,-0.5367511346428577,5.45e-06,0.0,63,28,493.32515790883303,2438.402,mp-1210189,Nd2(Ga3Ru)3,https://materialsproject.org/materials/mp-1210189,69.61978332800209,15.661929878701866,64.93032038221375,4.899291091864722
-9.03654216,-108.43850592,7.462931782721065,-0.8091479007142853,1.0915381000000002,0.0,62,12,159.1517056409458,715.2727480000002,mp-20335,MnNbP,https://materialsproject.org/materials/mp-20335,62.57965672731704,28.668047317016768,72.52373136935287,0.7408865006064853
-8.863333459655172,-257.03667033,8.59991268471442,0.03279816586207132,7.164446400000001,0.0,217,29,330.432330858219,1711.30526,mp-1194487,YbMn28,https://materialsproject.org/materials/mp-1194487,46.58276424668161,54.00369446911835,77.79065646237449,-9.443994187305123
-5.361256046666667,-80.4188407,7.147569948685418,-0.19367149866666675,1.9333333333333336e-06,0.0,152,15,274.23228943563686,1180.3965,mp-1104286,Ge4Rh,https://materialsproject.org/materials/mp-1104286,35.81366999063025,33.543559776217606,62.48342309413339,-8.94728819774217
-9.263910606206895,-268.65340758,7.843043126262275,-0.09095976250000017,13.8766908,0.002400000000000624,225,29,282.783233161973,1335.6392349999999,mp-542830,Mn23C6,https://materialsproject.org/materials/mp-542830,39.56246880127626,54.19419308248172,79.1945737415226,-11.956977464328215
-5.29025745375,-42.32205963,4.552268077988872,-0.54422622375,0.0,0.0,194,8,135.3670354008818,371.1006,mp-10797,CaSiNi2,https://materialsproject.org/materials/mp-10797,31.562933745454696,19.552735808008887,68.55325551062515,-17.76756024988858
-5.491089529047619,-115.31288011,7.639420684273343,-0.31133158214285706,13.7484263,0.0,174,21,335.0481409847222,1541.411335,mp-1191913,Ce2Mn3Cu9As7,https://materialsproject.org/materials/mp-1191913,66.73037148753625,9.829572395455928,52.486874214141814,8.689194152471932
-6.559496770476192,-137.74943218,9.609038317643288,-0.3631775397619059,2.27e-05,0.0,65,21,261.10312666828287,1510.925,mp-865141,Lu4Ni13C4,https://materialsproject.org/materials/mp-865141,56.118544908895686,30.249724703385333,61.123186723681364,8.679818701339494
-7.328850570833333,-87.94620685,10.20692573883454,-0.2047164263888881,0.000229575,0.0,62,12,140.96675027399687,866.488,mp-21502,BRh2,https://materialsproject.org/materials/mp-21502,59.82539635660533,38.86929356377682,73.43936048418537,-0.1852480299707408
-3.9175522383333337,-23.50531343,8.432224673399075,-0.5660376375000004,0.9933036,0.0,191,6,108.14937302147476,549.183,mp-13118,CeZn3Pd2,https://materialsproject.org/materials/mp-13118,72.6241945914497,15.665498056441937,65.28175066924877,2.595108078091352
-6.05595997375,-48.44767979,6.97117705286569,-0.08129483304687568,2.385842,0.0,62,8,128.442564915307,539.22,mp-1078538,FeSe,https://materialsproject.org/materials/mp-1078538,21.568788903397614,35.82959419420108,62.027751702115914,-23.20409709898132
-8.1738409125,-228.86754555,8.861900817073506,-0.5538369160714284,3.75e-07,0.0,62,28,366.16700974672216,1954.146,mp-510412,Si3Ru4,https://materialsproject.org/materials/mp-510412,56.1065777337402,40.08617911170733,74.3985859412985,12.761808689434854
-8.295826159375,-132.73321855,5.3954164034633925,-0.5868288850000001,2.65e-06,0.0,140,16,208.6448618843396,677.928,mp-568671,V5Si3,https://materialsproject.org/materials/mp-568671,50.742933792400045,47.311402071865885,74.21063638187331,-6.233552140523452
-4.497785465142856,-157.42249128,8.386257808443492,-0.5064640014285715,7.8e-05,0.0,12,35,538.6097535333784,2720.153,mp-1184507,Er4Ga21Ni10,https://materialsproject.org/materials/mp-1184507,68.29223423025371,19.027036806390868,63.54237998072362,6.446793929518331
-6.157144124482758,-178.55717961,8.320992277618286,-0.1926248624137931,2.6833357999999996,0.0,225,29,282.3406313890754,1414.8141999999998,mp-20962,Ni23B6,https://materialsproject.org/materials/mp-20962,39.37503208674005,53.65170229481331,79.19568237401087,-11.981745497177725
-8.86585846625,-141.85373546,6.7181147352829385,-0.4120256431249985,0.19027049999999998,0.0,87,16,145.5050043613116,588.6759,mp-1226337,Cr9FeB6,https://materialsproject.org/materials/mp-1226337,35.85051566383135,54.99938777288514,76.95335425062514,-10.448324841902302
-7.3205636625,-29.28225465,7.351603443793915,-0.2897548162500003,4.5737135,0.0,216,4,44.82904432965148,198.4689,mp-1207121,Fe2SiNi,https://materialsproject.org/materials/mp-1207121,42.446407021361715,60.238734919811094,91.50023864532068,-8.589175791871215
-7.463983473333332,-89.56780168,7.8771573259506065,-0.7038959716666671,0.035719975,0.0,62,12,187.86647263280145,891.1887800000001,mp-1103148,ZrCoGe,https://materialsproject.org/materials/mp-1103148,62.4562965607018,35.596222146251954,71.25518506309524,2.742906023546803
-5.0481003475,-40.38480278,12.25412746167972,0.1039974199999998,1.59674965,0.0,194,8,101.10205326450064,746.093538,mp-976838,Ni3Au,https://materialsproject.org/materials/mp-976838,52.469869890284926,59.22759001046293,72.3315617843112,-16.147675342216026
-7.252182629722222,-261.07857467,5.885539079477434,-0.8242645903645843,3.605e-05,0.0,62,36,591.4555043535951,2096.328,mp-680576,Ti2Se,https://materialsproject.org/materials/mp-680576,36.36037347906173,29.91204279568326,69.34873620557667,-8.054275502113713
-6.086136248571428,-170.41181496,8.533216866333614,-0.2256400421428566,7.65302515,0.0,140,28,369.50355445368797,1898.8135100000002,mp-1006277,CeGa4Co9,https://materialsproject.org/materials/mp-1006277,22.209618997270113,37.993557825505036,65.50237617582555,-22.19237505449781
-7.64803672625,-61.18429381,8.293093951675242,-0.19325834750000048,3.0586344,0.0,6,8,128.8192467568575,643.3514,mp-1225013,FeMo3As4,https://materialsproject.org/materials/mp-1225013,34.96498371865771,31.85765157279203,70.51867973763905,-9.1256575779892
-5.543068276785714,-155.20591175,6.7212002717230845,-0.005844463750000679,0.005266725,0.0,227,28,331.73285647548363,1342.7224,mp-504735,Ti3Ni3O,https://materialsproject.org/materials/mp-504735,53.465410545837294,48.830217407390634,70.6674658951707,-11.852570415404546
-6.489557403103447,-188.19716469,10.281698703805182,-0.3415344156896553,0.0001991,0.0,225,29,483.62832158255964,2994.522,mp-1194111,Zr6Ga16Os7,https://materialsproject.org/materials/mp-1194111,59.587817898724154,18.215688205777475,60.299473040162866,-11.596031281372762
-7.625592075,-30.5023683,7.348172480233959,-0.3050896487500001,4.0000003,0.0,225,4,44.732260459142616,197.94799,mp-1008224,CrCo2Si,https://materialsproject.org/materials/mp-1008224,42.46780233480211,60.143582901699645,91.55237589341982,-8.596620144477647
-5.112663809230769,-66.46462952,3.6084398150397514,-0.250127563461538,5.4796406,0.0,12,13,206.03543667233447,447.7259824,mp-1227419,Ca(MnAl3)3,https://materialsproject.org/materials/mp-1227419,41.85753233864601,44.25290512535244,66.5274237618948,-12.043765901429124
-9.810017595833333,-117.72021115,8.286388663846099,0.020534697916667472,2.61e-05,0.0,156,12,214.2763398355337,1069.2775,mp-1215399,Zr3SiMo8,https://materialsproject.org/materials/mp-1215399,81.10627720483788,13.165697583486937,60.659723312429456,26.725665356351513
-7.085151715384615,-92.1069723,6.0003168191539045,-0.2283483438461535,15.137987300000002,0.0,139,13,178.10887013941849,643.5920044,mp-1207708,Y(AlFe2)4,https://materialsproject.org/materials/mp-1207708,41.49120194399921,43.51854742434777,67.87363433858171,-17.086196204274618
-7.616507147894738,-144.71363581,7.399452165827631,-0.041567118684211764,30.457231,0.0,166,19,264.83565772700786,1180.1220772,mp-1179971,Nd2Al2Fe15,https://materialsproject.org/materials/mp-1179971,74.4267580178159,35.75038636976296,88.4465296562113,-22.789030609770123
-7.2120186691666675,-173.08844806,10.367582577706381,-0.5105413360416655,7.941666666666667e-05,0.0,194,24,435.2925672570274,2717.7509999999997,mp-864699,NdRh3,https://materialsproject.org/materials/mp-864699,72.91546540491794,15.539683968431001,58.94613635018815,20.38891732462832
-7.276380418333333,-174.63313004,9.980648455348689,-0.5345290952083334,0.00010863333333333334,0.0,194,24,446.8409600871412,2685.73182,mp-974030,LaRh3,https://materialsproject.org/materials/mp-974030,72.81284544866692,15.579928463981574,58.869793408717726,20.387114097416124
-5.857252951785715,-164.00308265,8.627447890571997,-0.3979946396428581,0.054624400000000004,0.0,140,28,369.1285002472482,1917.8332,mp-1193206,CeNi9Ge4,https://materialsproject.org/materials/mp-1193206,22.275454399112977,37.93744340700961,65.42610416292075,-22.164837154564523
-6.188186165,-24.75274466,15.698403592876474,-0.019990929999999633,0.0064581000000000005,0.0,123,4,53.89991457904147,509.559,mp-1224981,FeCuPt2,https://materialsproject.org/materials/mp-1224981,53.37106255638217,59.18747511197985,87.50308485921784,2.7451678376934736
-8.870379415,-106.44455298,7.730798384714969,-0.8761246190476181,9.6e-06,0.0,62,12,154.41645217425852,718.9005679999998,mp-1102980,NbFeP,https://materialsproject.org/materials/mp-1102980,62.49582321307076,28.900224978827623,72.87273763483357,0.31116524299919035
-4.278996013333333,-25.67397608,8.128421494680978,-0.15330696666666613,7.9e-06,0.0,187,6,86.2343671485653,422.121532,mp-1217587,TbBeCu4,https://materialsproject.org/materials/mp-1217587,75.14923950876657,19.103451545064143,88.05928758363785,-12.001637858783967
-5.106551522,-25.53275761,5.9929738674095185,-0.545691489,0.0,0.0,139,5,83.88482424240804,302.7448,mp-2949,Ca(NiGe)2,https://materialsproject.org/materials/mp-2949,31.165498699417164,19.709792994470245,19.64327444932676,-55.1413899831395
-6.70878442,-26.83513768,6.9448808509348785,-0.09727906999999993,4.5021805,0.0,225,4,47.19046916814786,197.3649386,mp-31186,AlFe2Ni,https://materialsproject.org/materials/mp-31186,44.25291700568231,60.73304115228161,90.18612624901866,-6.901682005448973
-5.717130884285713,-40.01991619,7.188151860748796,-0.5346144583035704,1.0,0.0,166,7,110.50380905246391,478.34958499999993,mp-19807,Co3(SnS)2,https://materialsproject.org/materials/mp-19807,41.096753820121954,41.226883917972046,62.563593614868005,-9.239998419109858
-5.7011130675,-91.21780908,8.91751694007069,-0.5111873384374999,1e-07,0.0,139,16,266.94769310157415,1433.5770000000002,mp-622848,Sm2Ga9Ru5,https://materialsproject.org/materials/mp-622848,68.87156705807185,18.131765240589285,67.02067995027927,5.459874506961375
-6.827767160689656,-198.00524766,7.086987603330687,-0.3857953263793112,20.5210995,0.0,160,29,341.2687450178011,1456.495335,mp-1221908,Mn3Cr3Si7Ni16,https://materialsproject.org/materials/mp-1221908,46.6028407273222,53.07357756997482,72.34521527522625,-12.781435651179994
-7.59639006625,-60.77112053,7.237407187582513,-0.5826015904166661,1.15e-06,0.0,26,8,134.74925717608687,587.3004,mp-1216734,TiMoAs2,https://materialsproject.org/materials/mp-1216734,34.98667836455128,31.74805655781739,70.11700276049713,-9.038370570252756
-9.04320568375,-72.34564547,10.055119370621311,1.0320203565625017,2.165e-05,0.0,194,8,101.07144336692835,612.0214,mp-1187391,Tc3C,https://materialsproject.org/materials/mp-1187391,52.13988532938716,59.50361662753493,72.3501373436204,-15.49120848722901
-7.818576840714287,-218.92015154,7.157224101364617,-0.4061432892857145,9.393707000000001,0.0,140,28,350.3625348046498,1510.126,mp-1193262,CeFe9Si4,https://materialsproject.org/materials/mp-1193262,22.066369171147596,39.06613151308595,66.28834278128548,-22.501958935943584
-7.417133186111112,-133.50839735,5.421525049563306,-0.4766636761111111,0.00026163333333333337,0.0,3,18,238.18984763527664,777.6705,mp-1216278,VSi4Mo,https://materialsproject.org/materials/mp-1216278,41.60768954041082,39.58029827881138,59.21859193535072,-10.905303593374226
-6.648177359500001,-132.96354719,8.733214831083048,0.033782926023999946,2.97315935,0.0,62,20,237.72621142122944,1250.26514,mp-1245899,Co3SbN,https://materialsproject.org/materials/mp-1245899,50.974364488719566,61.56532338570193,77.90917242543993,7.9064975759186895
-5.364511836363637,-59.009630200000004,8.401783372504172,-0.29590955727272666,2.75e-05,0.0,187,11,137.47526711000285,695.5798,mp-1224913,Ga2Ni7Ge2,https://materialsproject.org/materials/mp-1224913,42.80513772383804,49.83707313989928,75.6220426007702,-15.05099548460883
-9.045250685769233,-235.17651783,9.749949354248916,-0.040673917980768685,3.1631109,0.0,227,26,320.61338961700244,1882.4997399999997,mp-1193869,Co6Mo6C,https://materialsproject.org/materials/mp-1193869,63.934415418884754,43.265320773547366,74.79510070199706,1.7769846382869494