energy_per_atom,energy,density,formation_energy_per_atom,total_magnetization,band_gap,sgr,num_sites,cell_volume,weight,mp_id,formula,URL,tsne_cry_0,tsne_cry_1,tsne_xrd_0,tsne_xrd_1
-6.92153530631579,-263.01834164,8.919187968952887,-0.06350362236842133,25.2135278,0.0,194,38,485.0199626868257,2605.16863,mp-1200096,Sm2Co17,https://materialsproject.org/materials/mp-1200096,72.7234837850983,41.276782297025434,85.61342168222473,-19.14624524252212
-7.922327966052633,-301.04846271,8.993305065660659,-0.07829002500000115,25.2539845,0.0,194,38,486.11146179544863,2632.72863,mp-1201816,Gd2Co17,https://materialsproject.org/materials/mp-1201816,72.60495632515524,41.32026937842733,85.6227464408676,-19.058617413078434
-6.921571765263157,-131.50986354,8.899644397896674,-0.06783511105263074,25.267236999999998,0.0,160,19,244.43196421482787,1310.030965,mp-1220026,PrErCo17,https://materialsproject.org/materials/mp-1220026,72.95281845140077,41.148989542928426,85.58158574193956,-20.008648414988834
-7.065492355000001,-268.48870949,8.763506832477272,-0.07925286868421129,23.13101785,0.0,194,38,485.87192885107135,2564.19263,mp-2216,Ce2Co17,https://materialsproject.org/materials/mp-2216,72.6720931445621,41.18665373481457,85.57687357236065,-19.224205897420827
-6.940065323157895,-263.72248228,9.059164497692887,-0.0913898936842103,25.30538565,0.0,194,38,483.8058310211241,2639.43003,mp-1199370,Tb2Co17,https://materialsproject.org/materials/mp-1199370,72.3318090172123,41.57471870121133,85.66157541493544,-18.867241843619336
-7.430555478421053,-141.18055409,8.873143204475975,-0.07952066592105211,18.2809942,0.0,160,19,245.05783033433795,1309.474315,mp-1219295,SmGdCo17,https://materialsproject.org/materials/mp-1219295,73.29400320674827,40.85486171306298,85.59445018406554,-20.09890567248529
-6.9416722397368416,-263.78354511,9.11326358252204,-0.0953147881578936,25.2781977,0.0,194,38,483.53917910725113,2653.72863,mp-569638,Dy2Co17,https://materialsproject.org/materials/mp-569638,72.18053866631844,41.72055030815381,85.66496058069187,-18.88196054379229
-6.32317849763158,-240.28078291,8.771553226999572,-0.06993519868421129,5.29842525,0.0,194,38,492.85453760490236,2603.4316,mp-1201182,Eu2Ni17,https://materialsproject.org/materials/mp-1201182,72.65471725460888,41.25258313302392,85.42032406666075,-19.46086236824184
-7.185846405526315,-273.06216341,8.666237015001057,-0.09596423499999973,18.14304385,0.0,164,38,488.26277400263467,2548.2092399999997,mp-1227655,Ce2VCo16,https://materialsproject.org/materials/mp-1227655,72.62930490448406,41.14231447451381,85.47810990234693,-19.45195658546155
-6.711070232894738,-255.02066885,8.892888223382387,-0.01725849105263116,26.1652365,0.0,194,38,491.39426523694016,2631.62393,mp-1215870,YbPrCo17,https://materialsproject.org/materials/mp-1215870,72.84184948369344,41.17712800909647,85.62297431899383,-19.202682812554013
-6.889661468421052,-261.8071358,8.695256093113553,-0.06187998578947354,21.77817065,0.0,164,38,491.44745226680743,2573.41824,mp-1227675,Ce2Co16Cu,https://materialsproject.org/materials/mp-1227675,72.80791069134038,41.04238186403417,85.46830749161062,-19.49610139900384
-5.8165023599999985,-221.02708968,8.826559620963108,-0.14489439657894745,0.00275865,0.0,194,38,483.9721548763556,2572.5436,mp-570596,Nd2Ni17,https://materialsproject.org/materials/mp-570596,72.48982759507358,41.38803123185947,85.57707077542509,-19.12683498985634
-6.913337915263157,-131.35342039,8.741127800513901,-0.051762423552630527,25.1811505,0.0,160,19,245.6543549938913,1293.131965,mp-1219785,PrSmCo17,https://materialsproject.org/materials/mp-1219785,73.60295139375125,40.64404396302212,85.58686120774074,-20.1820874115586
-6.811187623947369,-258.82512971,8.744194154746674,-0.031722103289473884,51.1687797,0.0,8,38,493.64837700888586,2599.49158,mp-1215883,YbPr3Co34,https://materialsproject.org/materials/mp-1215883,73.62724638609198,40.61585657832763,85.62160122039387,-20.322784538855746
-7.031451573684211,-133.5975799,8.454724467774021,-0.08126015065789416,25.34071,0.0,160,19,243.76253780470643,1241.130165,mp-1219047,SmYCo17,https://materialsproject.org/materials/mp-1219047,72.67766917389325,40.99774997177617,82.26181696447354,-19.732236641031772
-5.843046839473684,-222.03577990000002,8.969397974050366,-0.17657008289473713,6.90658525,0.0,194,38,480.79545625754247,2597.0156,mp-1203310,Sm2Ni17,https://materialsproject.org/materials/mp-1203310,72.14353396925918,41.87469010189122,85.60522888016496,-18.823879301779314
-7.104384627894738,-134.98330793,8.427933612175309,-0.0900893036842107,24.0333365,0.0,160,19,242.51905921822117,1230.8861650000001,mp-1226612,CeYCo17,https://materialsproject.org/materials/mp-1226612,72.60096956569555,40.94750770901912,82.11242219348925,-19.760853860992448
-6.9100930836842105,-131.29176859,8.660873739443463,-0.04693019289473754,25.3036463,0.0,166,19,247.3969505521741,1290.348315,mp-356,Nd2Co17,https://materialsproject.org/materials/mp-356,73.77446310971811,40.45945327293643,85.61609781542681,-20.352868566292056
-6.840154764473684,-259.92588105,9.140725967537046,-0.18767175078947373,7.224603999999999,0.0,194,38,476.79038434249617,2624.5756,mp-580102,Gd2Ni17,https://materialsproject.org/materials/mp-580102,72.06221817130948,41.99099611327614,85.62926653543855,-18.73974644674588
-6.944166909210527,-263.87834255,9.217538416523396,-0.10069178552631654,25.47748205,0.0,194,38,479.82035515156883,2663.4499100000003,mp-1023,Ho2Co17,https://materialsproject.org/materials/mp-1023,71.76244792693872,42.07201948445071,85.66392944347197,-18.773969366386858
-6.5959773944736835,-250.64714099,9.25218704574008,-0.10295960236842093,19.9543194,0.0,194,38,477.5930971999777,2661.0519600000002,mp-1204922,Ho2Co12Ni5,https://materialsproject.org/materials/mp-1204922,71.7782950478633,42.07975625487148,85.65994398547744,-18.699800439572734
-6.598890216578948,-250.75782823,9.26517684560508,-0.10699353921052678,19.9432604,0.0,194,38,478.5929288935877,2670.36668,mp-1203663,Er2Co12Ni5,https://materialsproject.org/materials/mp-1203663,71.75015726357223,42.079410440532094,85.67440630262422,-18.70912524139307
-6.94655129,-263.96894902,9.28113690774228,-0.10419728105263236,25.47695035,0.0,194,38,478.1989595632194,2672.76463,mp-2531,Er2Co17,https://materialsproject.org/materials/mp-2531,71.74701806029583,42.11832800713903,85.67459950725666,-18.765357729771832
-5.855406866315789,-222.50546092,9.205298930750713,-0.19828636421052626,6.8218512,0.0,194,38,474.65467622763566,2631.277,mp-569945,Tb2Ni17,https://materialsproject.org/materials/mp-569945,71.94445790113659,42.11867993455229,85.63287331746541,-18.71138761516566
-6.406085197894738,-121.71561876,8.94871860658831,-0.20151382473684154,17.6452347,0.0,160,19,250.89502532107474,1352.08443,mp-1217733,Tb2Ga3Co14,https://materialsproject.org/materials/mp-1217733,73.70708314615058,40.37225618007486,85.76346205857267,-20.888381822356074
-7.016000577105262,-266.60802193,8.881028031464211,-0.08230954473684224,21.3347497,0.0,164,38,499.1792036758684,2669.75024,mp-1219324,Sm2ZrCo16,https://materialsproject.org/materials/mp-1219324,72.6862034435803,41.02831989522864,85.35652926098815,-20.223341191879307
-7.304341503421052,-277.56497713,8.910374625210476,-0.10564624026315828,29.75399445,0.0,194,38,490.6058450858789,2632.5679600000003,mp-1197249,Ho2Fe5Co12,https://materialsproject.org/materials/mp-1197249,71.65793075372362,41.51756589552693,85.70506765474781,-18.906047895048168
-6.936170988333332,-166.46810372,8.463539203729171,-0.3138336483333326,9.31292205,0.0,141,24,292.5309840677408,1490.99021,mp-1191366,TbCo9Si2,https://materialsproject.org/materials/mp-1191366,73.68569249547096,41.968104484326666,66.4954409193619,-19.07925118794623
-6.722876392105262,-127.73465145,8.587010201567633,-0.016215096315789133,23.419261499999998,0.0,160,19,249.12743878603246,1288.29242,mp-1219957,Pr2Co16Cu,https://materialsproject.org/materials/mp-1219957,73.83389039265587,40.344713265101305,85.62845439286676,-20.374454160785962
-7.106729446315789,-135.02785948,8.533022987925728,0.0243592763157898,15.9376405,0.0,12,19,247.10603550464091,1269.805425,mp-1219992,Pr2Cr2Co15,https://materialsproject.org/materials/mp-1219992,73.86115682863705,40.349163886398586,85.54370591190202,-20.32271549642905
-7.216954912105262,-137.12214333,8.579170234651954,-0.07474711657894773,28.6188249,0.0,160,19,249.7304256596959,1290.231535,mp-1219231,Sm2Fe4Co13,https://materialsproject.org/materials/mp-1219231,73.87166682194024,40.21043016936647,85.73162676526891,-20.765931683670303
-7.052888600526315,-268.00976682,8.822122374420006,-0.04784553499999932,47.3829524,0.0,8,38,504.6984611894408,2681.3651950000008,mp-1224958,La4TaCo33,https://materialsproject.org/materials/mp-1224958,73.66237482776418,40.38606015669178,85.01671147377584,-21.048737494312924
-5.855458889210527,-222.50743779,9.320026067603193,-0.20065636500000114,6.92400465,0.0,194,38,471.3593647921181,2645.5756,mp-1197654,Dy2Ni17,https://materialsproject.org/materials/mp-1197654,71.87844349551695,42.203160898292545,85.63948942902522,-18.592492942690498
-7.657792037692308,-99.55129649,8.647570441053325,0.05625071519230792,14.6980701,0.0,44,13,160.8357629926286,837.58259,mp-1219042,SmMn5Co7,https://materialsproject.org/materials/mp-1219042,71.86314066024818,40.65576021265049,82.81369397060057,-20.054625810078555
-6.940093696052631,-263.72356045,9.326673479397307,-0.10713262657894744,25.16886275,0.0,194,38,477.05723043651216,2679.46547,mp-1196360,Tm2Co17,https://materialsproject.org/materials/mp-1196360,71.65160563203176,42.17964499647391,85.68316472886602,-18.673527799140906
-6.592563492631579,-250.51741272,9.281953885457064,-0.03222963421052626,49.8637233,0.0,156,38,488.0705631430274,2728.179435,mp-1216133,Yb4ZrCo33,https://materialsproject.org/materials/mp-1216133,71.57457183164453,41.950549927930716,85.7393005058445,-18.796107309384038
-6.5451314813157895,-248.71499629,9.400865755028144,-0.02262729710526245,26.601226300000004,0.0,194,38,476.1931969098429,2695.88863,mp-1199900,Yb2Co17,https://materialsproject.org/materials/mp-1199900,71.638052228399,42.176762070060896,85.68517054440855,-18.659274922355443
-7.03278327,-133.62288213,8.476587296198206,-0.04897812026315837,20.3001014,0.0,160,19,249.11914714230358,1271.68356,mp-1223090,La2VCo16,https://materialsproject.org/materials/mp-1223090,73.88318125670308,40.2797046196696,85.63494995407343,-20.48811974063806
-6.523234974210527,-123.94146451,8.751116809822648,-0.09460599447368467,21.0014407,0.0,166,19,251.2623177825795,1324.163925,mp-1188906,Sm2Ga2Co15,https://materialsproject.org/materials/mp-1188906,73.32200691313193,40.23787547866855,85.58894277083753,-20.84070283307963
-5.855744553684211,-222.51829304,9.394652461133926,-0.204945472105264,7.09972715,0.0,194,38,470.9798054310149,2664.6116,mp-30608,Er2Ni17,https://materialsproject.org/materials/mp-30608,71.82671469130132,42.23539833032537,85.6547164947806,-18.59531552521487
-6.9368815941666675,-166.48515826,8.596124861043437,-0.31954871208333196,9.34741465,0.0,141,24,291.2386912444523,1507.65751,mp-1191958,ErCo9Si2,https://materialsproject.org/materials/mp-1191958,73.40940770972583,42.08060424204831,66.53711422043888,-19.004319308637843
-6.608511862045455,-290.77452193,8.638771113640287,-0.13315912458454512,21.69686185,0.0,194,44,494.04993538677695,2570.24027,mp-1213920,Ce2Co17H3,https://materialsproject.org/materials/mp-1213920,73.96209574705244,40.1880296290186,85.59585148708473,-19.715601401886442
-6.899854018333333,-206.99562055,8.45770838737563,-0.058678864999999775,30.919406199999997,0.0,65,30,404.6010893521441,2060.7754136,mp-1227640,Ce4AlCo25,https://materialsproject.org/materials/mp-1227640,79.5058825924629,20.885362632468887,85.82551144652567,-18.572142267415877
-6.645431983684211,-126.26320769,8.882004200033732,-0.012732971666666591,24.1146825,0.0,160,19,252.6738947236401,1351.51932,mp-1219201,Sm2Co16Ag,https://materialsproject.org/materials/mp-1219201,73.35380404437878,40.278878686746616,85.49072941171579,-20.73420543697607
-8.809868832307693,-114.52829482,8.484269123631233,-0.000912292307692024,2.6539557,0.0,139,13,160.83398536293666,821.7565400000002,mp-20656,DyMn12,https://materialsproject.org/materials/mp-20656,71.09944646917859,40.50433070058889,83.16331262621289,-19.59014907631334
-9.521302058461538,-123.77692676,8.477955180186187,0.016728685384616318,7.2032449000000005,0.0,139,13,159.92547227119758,816.5065400000002,mp-639892,GdMn12,https://materialsproject.org/materials/mp-639892,71.39093235990427,40.50703790345198,82.92408052023181,-19.686931924597896
-6.927824930833334,-166.26779834,8.262172245808022,-0.2980805560416672,9.548264699999999,0.0,141,24,296.21765112340853,1473.85951,mp-17623,SmCo9Si2,https://materialsproject.org/materials/mp-17623,73.97164659493227,41.87427655938658,66.42468689222568,-19.20184248461733
-6.588577644210527,-250.36595048,8.119548047286518,-0.02160049315789455,20.2743705,0.0,194,38,488.1742910507618,2387.0288600000003,mp-1199930,Y2Co14Cu3,https://materialsproject.org/materials/mp-1199930,72.51732494330012,40.68053001601993,81.84288423286476,-19.843309917013272
-6.868070775833334,-164.83369862,8.277694801771156,-0.23426419562499964,0.0195591,0.0,141,24,293.20758475143515,1461.62351,mp-1191853,NdCo9Si2,https://materialsproject.org/materials/mp-1191853,73.9561996804098,41.91404767804253,66.4495531632331,-19.166553307918136
-6.029590095789473,-229.12442364,8.222018942131216,-0.2720570436842108,0.14270045,0.0,194,38,491.4974193684882,2433.6079999999997,mp-1202894,Ce2Si2Ni15,https://materialsproject.org/materials/mp-1202894,71.47965972785785,41.067766349327655,85.59970462100175,-18.768212275967947
-7.131582739736843,-271.00014411,8.020300263528085,-0.08923157763157974,25.387598999999998,0.0,194,38,488.48497265547934,2359.35203,mp-570718,Y2Co17,https://materialsproject.org/materials/mp-570718,72.52994091267054,40.729483953688295,81.85940373599462,-19.843610675529405
-5.8523094626315775,-222.38775958,9.402617928017234,-0.2003892663157896,6.8595155,0.0,194,38,468.93579700733255,2655.29688,mp-1202187,Ho2Ni17,https://materialsproject.org/materials/mp-1202187,71.82316905363912,42.25432110654169,85.64391755583107,-18.574827841208318
-5.849729945789473,-222.28973794,9.458454915466172,-0.20832380368421125,7.1052688999999996,0.0,194,38,468.97919737444056,2671.31244,mp-11527,Tm2Ni17,https://materialsproject.org/materials/mp-11527,71.78260334557042,42.270011546270275,85.65119751365279,-18.583624298567184
-6.795216740526316,-129.10911807,8.183775959674016,-0.16286053421052615,17.8389032,0.0,166,19,247.17893651727996,1218.1930022,mp-16484,Ce2Al2Co15,https://materialsproject.org/materials/mp-16484,72.01367905146323,40.267753934065716,85.54240470669127,-20.449293237021468
-8.804277279230769,-114.45560463,8.411275776922315,0.006373167692308139,0.38578229999999997,0.0,139,13,161.52400732045732,818.1818900000002,mp-972084,TbMn12,https://materialsproject.org/materials/mp-972084,71.1008732447312,40.46726698872668,83.17404624446174,-19.717781496874718
-8.107069885,-113.49897839,6.903404718192537,-0.5017156321428585,3.65209295,0.0,136,14,178.3717999130145,741.55,mp-19792,Zr(Fe2Si)2,https://materialsproject.org/materials/mp-19792,74.40474402234071,40.909967725465435,69.93808215259442,-5.6507092460778185
-7.165011658947368,-272.27044304,8.692793128559837,-0.10311282421052606,19.0244008,0.0,164,38,502.1610647243737,2628.77424,mp-1227870,Ce2ZrCo16,https://materialsproject.org/materials/mp-1227870,72.73062726529487,40.88648867294421,85.25931723917496,-20.27991675677176
-6.1704812504166675,-148.09155001,8.044737670395447,-0.5763589150000001,3.2e-06,0.0,15,24,294.2331896843405,1425.4580999999996,mp-1190542,TbSi3Ni8,https://materialsproject.org/materials/mp-1190542,73.63283264957535,42.051105398930545,66.60862989261007,-18.929018660045212
-8.81365385923077,-114.57750017,8.532678732505905,-0.0068036357692296155,2.5888702,0.0,139,13,160.39446698857262,824.1868599999999,mp-14015,HoMn12,https://materialsproject.org/materials/mp-14015,70.95422166111761,40.542828281659006,83.19750592935067,-19.562207182940085
-7.209310750526316,-136.97690426,8.493565405758076,-0.06453735157894644,28.6487081,0.0,160,19,251.05130234404663,1284.113535,mp-1220100,NdSmFe4Co13,https://materialsproject.org/materials/mp-1220100,73.97856786036176,40.039503889352545,85.7827328426193,-20.861160037399284
-6.9573354638235285,-473.09881154,8.930669212268533,-0.1647838912745101,18.230659925,0.0,136,68,858.0802772822357,4614.905720000001,mp-1196092,Tb2Co14B,https://materialsproject.org/materials/mp-1196092,74.50990272670731,40.29147039303758,83.38612705332703,-7.460421347868193
-8.0805336103125,-258.57707553,8.533155342476906,0.015381407968749984,43.188102799999996,0.0,12,32,411.4387753165152,2114.29596,mp-1198423,Ho3Fe29,https://materialsproject.org/materials/mp-1198423,70.79982397517556,40.42988717824065,84.04377543558101,-19.887896924906094
-6.9481119163157885,-264.02825282,9.485568973316118,-0.11013078894736708,25.08769935,0.0,194,38,473.29029657120805,2703.59663,mp-1204082,Lu2Co17,https://materialsproject.org/materials/mp-1204082,71.58340453460383,42.24279087936881,85.69934092264056,-18.59698667630315
-6.6720599794736835,-126.76913961,8.608657483810731,-0.11522319736842085,18.7656755,0.0,166,19,251.46833557284637,1303.675925,mp-1106200,Ce2Ga2Co15,https://materialsproject.org/materials/mp-1106200,73.28772888417298,40.031286335006,85.51485494794146,-20.842086310270208
-6.949666396666667,-166.79199352,7.951223837326389,-0.5675487395833336,7.0837573,0.0,15,24,296.99388485168606,1422.1074,mp-1190689,GdSi3Ni8,https://materialsproject.org/materials/mp-1190689,73.80077266656258,41.99065279725848,66.58464004094601,-18.976438583560547
-5.479717131842105,-208.22925101,9.531385364056213,-0.14876787500000058,8.14933315,0.0,194,38,468.2519615489026,2687.7356,mp-1199108,Yb2Ni17,https://materialsproject.org/materials/mp-1199108,71.77433200109749,42.276598749505155,85.6447753000637,-18.573376075248856
-7.2020306294736836,-136.83858196,8.446686512189222,-0.05469162710526414,28.596056400000002,0.0,160,19,251.241889438035,1277.995535,mp-1220336,Nd2Fe4Co13,https://materialsproject.org/materials/mp-1220336,73.97214294295762,40.023382202157336,85.76194352456774,-20.900370113926748
-5.9164106115384625,-76.91333795,8.354463548239309,-0.2809749330769237,1.55e-05,0.0,71,13,159.41211542188597,802.03035,mp-1217855,Tb(SiNi5)2,https://materialsproject.org/materials/mp-1217855,72.55224884688441,42.21180939376417,82.81139956981436,-19.568514639417753
-6.44034756,-38.64208536,7.049924952305148,-0.6060596875000014,1.7e-06,0.0,65,6,82.8547021890858,351.76495,mp-1072437,YSiNi4,https://materialsproject.org/materials/mp-1072437,80.21351370113969,20.318076967042963,85.84368955024576,-16.015828561789448
-7.302347564210525,-138.74460372,8.497733666996693,-0.017188821578946845,29.1611875,0.0,8,19,252.8699103802573,1294.050365,mp-1220103,PrErMn4Co13,https://materialsproject.org/materials/mp-1220103,73.87272174311954,39.95571723843822,86.06831342383823,-21.29812400372864
-7.2540990534210525,-275.65576403,9.403184113706908,-0.11816306868421048,18.80296825,0.0,164,38,495.0450184007428,2803.30624,mp-1227797,Ce2HfCo16,https://materialsproject.org/materials/mp-1227797,71.48285177826617,41.818804548936775,83.92753933746559,-18.912337410180925
-6.90037890736842,-131.10719924,8.466548328272452,-0.03525960789473677,25.85517,0.0,166,19,251.76731212194116,1283.679615,mp-1105621,Pr2Co17,https://materialsproject.org/materials/mp-1105621,73.99442809486254,40.095169438803175,85.75759156825362,-20.816137399341915
-8.818230103076921,-114.63699134,8.608002933333449,-0.0121991557692295,0.49396540000000005,0.0,139,13,159.4401549309412,826.5155400000001,mp-22482,ErMn12,https://materialsproject.org/materials/mp-22482,70.96264662488116,40.59815158648053,83.23497704702638,-19.529071991152502