energy_per_atom,energy,density,formation_energy_per_atom,total_magnetization,band_gap,sgr,num_sites,cell_volume,weight,mp_id,formula,URL,tsne_cry_0,tsne_cry_1,tsne_xrd_0,tsne_xrd_1
-8.009076956,-160.18153912,7.647608638585443,-3.061935662442,4.0000004,0.4350000000000005,62,20,232.64939915935415,1071.46626,mp-22081,HoMnO3,https://materialsproject.org/materials/mp-22081,9.276997844989262,-81.29606394265036,51.50800753966133,-52.73629896563139
-7.218765027142857,-101.06271038,6.929246407433037,-2.793777953035714,0.0,0.0,123,14,182.51981676057102,761.63508,mp-20087,Sr2SmTa(CuO4)2,https://materialsproject.org/materials/mp-20087,20.7311812378396,-77.16923784615163,40.32310835584333,-50.064473250340605
-7.13159202357143,-199.68457666,6.388106665552528,-2.5999686735714294,6.4e-06,2.7237,2,28,512.2650574908623,1970.68768,mp-1192451,HoWBrO4,https://materialsproject.org/materials/mp-1192451,-32.04280361632442,-34.085155694628504,-37.3302192543887,-24.177450355801795
-2.7227625513235294,-185.14785349,6.167599726727986,-0.664302351507731,0.0,2.2093000000000003,198,68,1786.5017026186026,6635.452192000002,mp-568612,SnHg6(P2Cl3)2,https://materialsproject.org/materials/mp-568612,4.771207228722781,-8.738578074848787,-20.721544727699467,-35.997745635359195
-4.3994389684615385,-57.19270659,4.631256887668333,-1.4795868131531835,7.9947062,1.5074999999999998,12,13,354.6492746681035,989.1197114,mp-505147,Cs6Fe2O5,https://materialsproject.org/materials/mp-505147,-5.355089009157054,-28.45838881992964,-6.428697721913828,-30.74643775627879
-5.7053026707142855,-399.37118695,4.678597178953637,-1.9636093678660709,0.0,1.6390000000000002,146,70,1625.6503508971098,4580.2977,mp-1220132,Pr9Ga5S21,https://materialsproject.org/materials/mp-1220132,11.920663321653244,-14.762135745438632,0.9504237148096191,-2.7282747347319565
-6.461090758500001,-129.22181517,5.898645506078168,-2.342572295250001,0.0,1.8133,14,20,251.7597161655966,894.3127999999998,mvc-5015,Mg2SnWO6,https://materialsproject.org/materials/mvc-5015,-34.727566166983955,-76.68139813473962,30.33783409325903,-61.98087769852695
-6.463464637272727,-71.09811101,6.491050666553639,-1.4002444057845458,0.0,1.3021999999999996,8,11,161.90043565698792,632.86915,mp-1216119,YBi2NO7,https://materialsproject.org/materials/mp-1216119,-27.51997833945755,-50.29259782156904,-13.544933321549523,-55.189776150181295
-4.9043551885714285,-68.66097264,3.444715964481691,-1.7831370358928578,0.0,2.327,11,14,362.63956793289896,752.28,mp-4578,Sr2GeS4,https://materialsproject.org/materials/mp-4578,-2.6184679832676934,-11.432629467814733,-6.08981072560171,0.9827433030288876
-6.335792866111111,-228.08854318,5.379548781609744,-0.8185443811111099,0.029565525,0.0,62,36,722.3989661069611,2340.3126239999997,mp-1208051,Tm2Sc3Si4,https://materialsproject.org/materials/mp-1208051,37.03671069021412,-14.293855845401133,14.406558669536095,-2.9386458586009847
-6.201244175454545,-136.42737186,5.032289164033141,-2.4587293558497723,0.0,3.0838000000000005,186,22,523.6922373730946,1587.0574,mp-559514,Nd4S3NCl3,https://materialsproject.org/materials/mp-559514,8.91104425480784,-9.897927045169324,-8.986852908859131,-11.388831006559501
-5.165076158571427,-108.46659933,6.27487336575634,-1.4650984523809525,0.5613645,0.0,139,21,309.5347989693656,1169.6754,mvc-13047,Ba2CaTl2(CuO3)4,https://materialsproject.org/materials/mvc-13047,7.477868251034588,-62.8109643042025,10.097873138806792,-44.11919329818043
-8.868292536153849,-461.15121188,5.037894248044597,-3.2419656281730767,0.0,1.7956,2,52,747.4965482552586,2267.82296,mp-1173450,NdNb3O9,https://materialsproject.org/materials/mp-1173450,-30.94425628645597,-70.75878841702236,32.570733697579776,-59.00042234306007
-4.384421248888889,-78.91958248,7.925871444307036,0.1628198072488887,0.00016815,0.07710000000000061,58,18,522.4036636429202,2493.47,mp-1246983,Bi4Te3N2,https://materialsproject.org/materials/mp-1246983,33.94818760707459,-30.67135894940027,6.281962324436146,-1.1355120903364486
-7.221744870666669,-216.65234612,7.425541216976116,-2.5738677165277783,0.0,1.9898,8,30,411.3574366623281,1839.494,mp-695325,Ti5ZnBi2(Pb2O9)2,https://materialsproject.org/materials/mp-695325,-2.361988109874753,-79.63508134760725,-7.154199779319997,-43.273659445212296
-6.204158638571428,-86.85822094,7.7958948844449365,0.1670608204085724,0.00117895,0.0,176,14,304.8549667152303,1431.2323999999994,mp-1245723,Cr(PbN)3,https://materialsproject.org/materials/mp-1245723,3.1215654460714943,-52.82537327209034,8.37753723566455,-35.76978346811505
-9.037194020869565,-415.71092496,7.077392668946568,-3.3928125536847817,0.0,2.5553,127,46,639.0421128664666,2723.66494,mp-1204933,K2LaTa5O15,https://materialsproject.org/materials/mp-1204933,-33.24978249624782,-69.39089418570971,-2.9558036088135533,-56.53767851931518
-3.98781557125,-31.90252457,5.521521587146298,-0.7174799890885417,0.0,0.045199999999999914,23,8,223.01131058164418,741.5434,mp-569790,BaAg2GeSe4,https://materialsproject.org/materials/mp-569790,9.583937473787664,-22.689429472184358,-6.303246974916493,-22.796713032695127
-8.307145749767443,-714.41453448,5.381107637511982,-3.75061020375,3.5e-07,3.3872000000000013,7,86,1227.8988492295155,3979.103,mp-531302,La10(Si2O9)3,https://materialsproject.org/materials/mp-531302,-18.98325145383285,-34.29725704031385,-10.70588808093876,-33.94537446322408
-5.892518148,-235.70072592,7.21043648214297,-1.7378891200000006,0.44732295,0.0,176,40,665.9776169672677,2891.8256,mp-1212615,Ge3Pb5O12,https://materialsproject.org/materials/mp-1212615,-27.687725895080533,-45.62445847299878,-23.91481101124177,-39.82355799896829
-6.6918229725,-240.90562701,4.09758097521878,-1.1119227483725922,0.001064725,2.4274,15,36,551.9628866720442,1362.0352,mp-1029510,Sr3(BN2)2,https://materialsproject.org/materials/mp-1029510,18.532118440702337,-46.3202556680284,0.5863239517288309,-31.344795773008627
-7.641541224166668,-91.69849469,6.6137190857476735,-2.9751671106808337,8.0000217,0.007500000000000284,139,12,162.6169346537102,647.68289,mp-18861,BaNd2Mn2O7,https://materialsproject.org/materials/mp-18861,16.70140096818492,-72.57621526208348,41.83751091301416,-45.09209888144312
-7.574988287692308,-196.94969548,6.12992202226036,-3.13240762642,2.04979325,0.0,63,26,372.34995453139817,1374.53931,mp-753578,SrLa3MnO8,https://materialsproject.org/materials/mp-753578,16.007047505095027,-69.51752158603526,38.92061375263713,-41.750761494711625
-6.4788086675,-155.49140802,4.8134410292531316,-1.87854052873512,0.000160925,0.3415999999999997,62,24,557.3331495715431,1615.553856,mp-1191492,LaPS,https://materialsproject.org/materials/mp-1191492,16.15594572565653,-8.033718436400356,3.62695708680226,-7.002294483573246
-5.0988441025,-40.79075282,5.554198513677024,-0.5889544993750002,2e-07,0.0,63,8,153.60990416769826,513.7969544,mp-1206051,NdAl2Ni,https://materialsproject.org/materials/mp-1206051,39.38873323359663,-13.792770319012762,11.464561782637153,-17.540110751291795
-7.764003451190478,-652.1762899,6.418932076257608,-2.7585246401133348,0.00055745,2.8157,38,84,1265.7535225952854,4892.860505600001,mp-1220828,Nb4Pb3(O6F)2,https://materialsproject.org/materials/mp-1220828,-49.12372219287065,-54.58165353220989,-15.084250363567573,-55.36869556817962
-6.8817803842857135,-48.17246269,5.723516612681619,-2.7492616192857144,1.9999982,0.0,107,7,88.17395946791244,303.9164449999999,mp-1227079,CaPrCoO4,https://materialsproject.org/materials/mp-1227079,23.32375106586394,-72.45989279986222,43.311324475609844,-39.72131359090411
-5.8504519819354845,-181.36401144,3.6933550470935215,-2.730886331208287,1.7e-06,0.0,25,31,400.8903367719848,891.6564519,mp-1098062,CsHfMg14O15,https://materialsproject.org/materials/mp-1098062,-12.306790026537742,-19.331312562868995,-12.538284428397233,12.834509656156714
-5.498113475277778,-197.93208511,6.2051053746352896,-1.7210075733188883,0.0,3.2301999999999995,19,36,458.71903939378717,1714.14216,mp-510279,ZnAsHPbO5,https://materialsproject.org/materials/mp-510279,-22.995333757261577,-45.22258845251554,-17.614976395470567,-37.36976364640137
-5.086061609642857,-142.40972507,5.324433647588612,-2.2512624660529563,0.000337675,2.3149,14,28,768.0131845276405,2462.5950628,mp-756459,Cs3TmO3,https://materialsproject.org/materials/mp-756459,-5.427826688190236,-27.23057637398476,-25.29791464522593,-53.40905094615631
-6.035026075172413,-175.01575618,5.764357040333171,-2.1727253443513797,14.9999891,0.17510000000000006,38,29,418.4362490339672,1452.5499731999996,mp-1228594,Ba6Co6O16F,https://materialsproject.org/materials/mp-1228594,-9.376623395938246,-82.57347643619522,19.359095310078448,-75.24329196956596
-3.029188533333333,-18.1751312,4.724331797898418,-0.16334794333333313,0.009257799999999998,0.0,166,6,154.0196446313286,438.19500000000005,mp-1094571,MgSb,https://materialsproject.org/materials/mp-1094571,5.236408889783953,-0.2107463333435705,7.6573233296640595,-19.44823543580421
-6.382644063888888,-229.7751863,5.073475333112548,-0.8322208188888891,0.0675815,0.0,62,36,739.7729188223146,2260.241744,mp-1208563,Tb2Sc3Si4,https://materialsproject.org/materials/mp-1208563,36.98463942403259,-14.355892702156984,14.352012651865227,-2.899442626231989
-6.407736700909092,-140.97020742,4.690021683317954,-2.606496077667955,0.0,2.9190000000000005,186,22,546.7946234273286,1544.3651600000005,mp-559256,La4S3NCl3,https://materialsproject.org/materials/mp-559256,8.929320175302584,-9.906037397464964,-9.00765256710124,-11.190925572383735
-6.533010225,-496.5087771000001,5.898055463012903,-2.526831031513157,10.9998329,0.0,6,76,1268.793786463885,4506.6186,mp-1229333,Ba20Ga5Ru7O44,https://materialsproject.org/materials/mp-1229333,-14.726269283122015,-81.49730442266217,0.3301055321347713,-31.7152625364922
-5.765332131166668,-345.91992787,4.7596060218794385,-1.9338316302708336,0.0,2.1729,41,60,1456.5090163567686,4174.7944,mp-1202783,Pr4GaSbS9,https://materialsproject.org/materials/mp-1202783,9.437073598507537,-6.417699850632565,-8.623839450366015,-18.45694498959434
-2.521306837,-50.42613674,5.757789933918129,-0.8875612639999997,0.0,2.7474,62,20,641.9827383505177,2226.0252,mp-28219,TlCdBr3,https://materialsproject.org/materials/mp-28219,12.444474056519725,-23.031001036596265,4.418669180149366,-26.24397111531749
-7.14948494,-42.89690964,8.569924643706264,-0.7818593441666657,4.26e-05,0.0,44,6,117.66598136956499,607.2658150000001,mp-1217302,Th2CoSi3,https://materialsproject.org/materials/mp-1217302,48.922805608020404,-16.939861647639674,21.194088765179913,21.842983456767392
-3.766104241666667,-22.59662545,5.47100724749096,-0.05459554000000052,0.21671525,0.0,139,6,189.87302421167846,625.578,mp-1186250,Nd2Mg,https://materialsproject.org/materials/mp-1186250,5.3242290449228795,-36.101304192791154,9.857659415570524,-23.80214957404664
-6.638615199318181,-292.09906877,4.170410697850203,-2.8560314982386363,0.00016395,3.3955,51,44,530.613138450408,1332.62432,mp-1208770,Sr3Li6Nb2O11,https://materialsproject.org/materials/mp-1208770,-20.046914148981646,-38.486465853053204,-15.89863519987026,-36.97651798718169
-5.860270829285715,-164.08758322,4.98612333913871,-1.886562115322144,3.0001067999999997,0.0,166,28,438.16070650179086,1315.6711599999999,mp-646670,Ba2Co4ClO7,https://materialsproject.org/materials/mp-646670,11.773387916035785,-95.5421932744077,18.297687751392374,1.9479133218084876
-4.1015776505,-82.03155301,5.019111533438481,-0.3879588428689992,15.866648399999999,0.0,108,20,464.8603642693603,1405.0774835999996,mp-1238368,AlFe4Hg2O2F,https://materialsproject.org/materials/mp-1238368,1.5938759972622212,-16.99188350085479,-4.5680808560748725,3.2137382259361504
-2.75682808015625,-176.43699713,4.13101635677984,-0.3044343307596984,0.0,1.1371000000000002,218,64,3236.528697923696,8051.6944607999985,mp-571056,CsSn,https://materialsproject.org/materials/mp-571056,2.06527720960512,-9.538998415280483,-21.8876923692343,-16.17691554583945
-5.969580274666668,-89.54370412,6.575196254137528,-2.0605309603333333,6e-07,0.0,65,15,207.53303078203132,821.76352,mp-6205,Ba2Ho(CuO2)4,https://materialsproject.org/materials/mp-6205,24.07254610505069,-77.63121567696788,42.70071934385475,-48.29187165013591
-7.1723738472916665,-344.27394467,6.24794557188073,-0.2221381499652774,7.15e-06,0.0,130,48,835.8194613829276,3144.855,mp-571510,Pr5B2C5,https://materialsproject.org/materials/mp-571510,10.16882593376101,-59.859935025795345,-1.8369639405572875,-32.92577612077722
-4.659455321666666,-167.74039158,4.8509925459622725,-1.8694589677586204,1.5175e-05,2.5335,14,36,915.0051867968403,2673.0376304,mp-771321,Cs4GeO4,https://materialsproject.org/materials/mp-771321,-5.37866536066274,-28.06483528992,-26.179309259558984,-54.81117463778547
-7.180297980263157,-272.85132325,3.995597428812825,-2.651274211390977,13.000000199999999,1.3668,74,38,490.2126568603692,1179.5521720000002,mp-1194498,BaFe3(PO4)3,https://materialsproject.org/materials/mp-1194498,-26.132750482143358,-34.24549121789189,-19.897045069253174,20.37133956832333
-6.680351459444443,-120.24632627,4.2954766114895,-2.7133134631944436,0.00086055,0.0743999999999998,46,18,241.6926476237259,625.2097,mvc-5240,Ca2YCuO5,https://materialsproject.org/materials/mvc-5240,13.322533071059597,-70.43748929551063,11.399088371889029,-34.477641716369824
-7.757374160499999,-155.14748321,7.884589883413223,-2.9935090677500007,3.00000025,1.3296,14,20,224.35545935863288,1065.28708,mp-1224186,Ho2VFeO6,https://materialsproject.org/materials/mp-1224186,9.162779175589296,-80.73633959255814,51.941458064520035,-52.25672716240903
-5.3023043025,-21.20921721,6.614429295782214,-1.82149156953125,0.0,1.5933000000000002,166,4,107.30760490288955,427.43865,mp-999119,TbTlS2,https://materialsproject.org/materials/mp-999119,4.627659330598201,-4.954430849884402,-2.3379454633710184,-5.379615504476352
-8.0113793535,-160.22758707,7.780920221848296,-3.0663681779420005,4.0000008000000005,0.4485999999999999,62,20,230.65125458298905,1080.78098,mp-19319,ErMnO3,https://materialsproject.org/materials/mp-19319,9.2143070757624,-81.25551221768772,51.53538673396859,-52.701552143688296
-6.43213171,-64.3213171,7.312612046490657,-2.199638190416666,0.0017119,0.9196,99,10,142.43135136424587,627.2332,mp-550469,TiZn(BiO3)2,https://materialsproject.org/materials/mp-550469,-1.2918527137225213,-78.41496654843225,1.5952224845196104,-47.59647806444625
-7.859401048928571,-220.06322937,6.523084622787478,-3.3662539475685715,4.00000075,1.7100999999999988,141,28,379.55215709043597,1490.99225,mp-770950,LiLa4MnO8,https://materialsproject.org/materials/mp-770950,17.043058866795963,-70.04345786638774,38.865835002123006,-41.92676278561097
-6.262286869423077,-325.63891721,5.394883663864699,-1.0170225805215376,0.0,1.4010000000000002,19,52,1018.0092700587154,3307.3848,mp-29060,Ba5(SiN3)2,https://materialsproject.org/materials/mp-29060,-3.314287119131218,-32.222988030353235,-0.2206951322046438,-31.186103478669
-5.145470851000001,-102.90941702,5.759623899055933,-0.40209283475000107,1.05e-06,0.0,63,20,514.8346016343659,1785.7175316000007,mp-569071,La5Al3Ni2,https://materialsproject.org/materials/mp-569071,18.30273537958393,-48.181838992759936,13.113744737218884,-22.03372414781581
-7.1888187674444435,-646.99368907,3.7896678852052736,-3.253452169666667,4.99999965,2.0782,9,90,1322.6099672832192,3018.449068,mp-1218733,Sr9Fe(PO4)7,https://materialsproject.org/materials/mp-1218733,-20.857859032877407,-32.67213402335671,-18.634592303599355,-29.360109560986942
-8.149116393068182,-717.12224259,5.3226690650093085,-2.9158027762878804,0.000399975,1.1115,142,88,1359.1678045137714,4356.65784,mp-1178119,LaNb2AgO7,https://materialsproject.org/materials/mp-1178119,-29.47990351429752,-69.14423139119116,1.4021475166186408,-51.831859400921815
-5.737241191875,-91.79585907,4.092201299866495,-2.308235224614225,0.0,3.9517,11,16,327.6601545588448,807.4795461599998,mp-19447,Cs2NaVO4,https://materialsproject.org/materials/mp-19447,-7.2158324687330495,-29.05019918138257,-6.696355889573348,-28.85513965465323
-5.9321676879166665,-142.37202451,5.102391376919214,-2.2700560954166664,0.0,2.1894,60,24,428.1852168276207,1315.6984,mp-754967,BaTeO4,https://materialsproject.org/materials/mp-754967,-45.27961966817827,-65.3078294364731,-29.194451325061184,-3.834646412783616
-7.11992218125,-170.87813235,5.0166349863885005,-2.624300557183908,0.0,3.5772,13,24,408.932755546053,1235.4219438,mp-1213347,CsHo(MoO4)2,https://materialsproject.org/materials/mp-1213347,-49.34698004301558,-51.78542795737224,-29.83630101909409,-54.92769878978406
-5.81606286234375,-372.22802319,6.219945578499456,-0.6143069612499996,0.75479155,0.0,176,64,1497.874608648973,5610.647099999999,mp-569462,Pr15Si10Ni7,https://materialsproject.org/materials/mp-569462,33.40049823748109,-39.30658696432453,18.51292609637179,0.3415242169021629
-3.865268215,-23.19160929,3.4364755441940127,-1.80605454896,0.0,4.0576,129,6,119.9142798138098,248.16187999999997,mp-23860,SrHCl,https://materialsproject.org/materials/mp-23860,23.51825423680034,-9.69614587734002,0.5698514009883084,-7.449330586775451
-7.5606673192307685,-98.28867515,7.331963808265197,-2.2110410983653845,2.0010558,0.0,12,13,209.23329116817678,923.85116,mvc-15204,Ta2Bi2O9,https://materialsproject.org/materials/mvc-15204,-24.28262546491277,-63.67271467549653,-17.951748761835187,-60.93688478617225
-6.01328393263158,-342.75718416,6.986570648773633,-1.8624331237500007,0.0,2.4115,174,57,1019.5676007094796,4289.7402,mp-557667,Ge3Pb5O11,https://materialsproject.org/materials/mp-557667,-26.94464148956117,-45.8457945206296,-23.760545078710262,-40.20029048926313
-5.143960388125,-329.21346484,4.7283516604988005,-1.5795549220312497,0.0,1.5334,14,64,2033.6517395236026,5790.7826,mp-29416,Pr5C2Br9,https://materialsproject.org/materials/mp-29416,25.989220283847466,-21.81895125419611,-16.384329245660947,-5.250235090752967
-3.632712451363637,-79.91967393,3.0484826285244324,-1.5077419760909092,4.9999987,2.3229,167,22,752.5226095596704,1381.51049,mp-29637,K4MnBr6,https://materialsproject.org/materials/mp-29637,4.162149997053232,-32.7052423802022,-2.658203053780607,-35.468324247190225
-5.9587995975000005,-143.01119034,5.034605693615688,-1.7785838344531255,3.02952155,0.0,173,24,545.5695406791847,1654.118,mp-510567,Ce3CuSnS7,https://materialsproject.org/materials/mp-510567,10.593603750886778,-16.263668345067362,1.2831178480776169,-1.6776619409263929
-6.764435407333334,-101.46653111,4.760939736945752,-2.549115203020833,0.0,1.285,1,15,324.29495579826516,929.78768,mp-1223144,La4As2S5O4,https://materialsproject.org/materials/mp-1223144,10.106395110185973,-30.144414272085477,-14.054518797199776,-51.9955404820446
-7.419619158571429,-207.74933644,5.766072449156692,-2.2555195177953573,2.83914905,0.000900000000000567,62,28,611.1601942421912,2122.1988,mp-543033,Ce3S3N,https://materialsproject.org/materials/mp-543033,11.263640006518438,-5.046457583004195,-5.740551889848809,-23.063227098550517
-6.841894784444443,-184.73115918,4.521211502239923,-1.1907233603170368,0.0,2.0378000000000003,221,27,521.233695639625,1419.1824,mp-1228031,Ba8Sr(BN2)6,https://materialsproject.org/materials/mp-1228031,-25.460486732677218,-19.679758834700188,31.964689113648664,-65.71636461479483
-2.2541562475,-81.14962491,4.833344449854236,-0.4308312419971265,0.00024819999999999996,0.010600000000000165,63,36,1451.8643027861497,4225.9532,mp-556433,Rb5Tl3O,https://materialsproject.org/materials/mp-556433,1.8264487903952182,-10.29093898944268,-21.505838245853155,-28.203985983720692
-5.755970566166668,-345.35823397,5.183655752677841,-1.942425357937501,5e-08,2.2433,41,60,1385.806729271771,4326.032,mp-1199065,Sm4GaSbS9,https://materialsproject.org/materials/mp-1199065,9.448880443801881,-5.989338249481139,-8.439826755395854,-18.388386679768104
-7.238370416666667,-260.581335,7.481158961432603,-3.0481710747222235,0.0,3.0071,19,36,487.0719866265271,2194.3856,mp-768313,Dy2TeO6,https://materialsproject.org/materials/mp-768313,-28.91050400394225,-59.52208436745161,-11.080932560553352,-49.023566049751594