energy_per_atom,energy,density,formation_energy_per_atom,total_magnetization,band_gap,sgr,num_sites,cell_volume,weight,mp_id,formula,URL,tsne_cry_0,tsne_cry_1,tsne_xrd_0,tsne_xrd_1
-8.586112105,-34.34444842,9.269429043178434,-0.3730404749999998,1e-07,0.0,123,4,55.1207519895489,307.694,mp-1251,VRh,https://materialsproject.org/materials/mp-1251,54.43982232313628,62.38520517362489,86.04371458415541,7.9056036172239015
-6.076259468333332,-36.45755681,5.975565607107332,-0.07374171999999864,1.0000248999999999,0.0,22,6,84.26549873319424,303.2352772000001,mp-1228945,AlCrGe,https://materialsproject.org/materials/mp-1228945,49.083345344052105,49.86692732450243,80.42952652126483,-2.4358327226782026
-7.177645299999999,-28.710581199999996,8.611942749513284,-0.014544728749999791,5.279236,0.0,225,4,46.905564057014026,243.26319500000002,mp-30044,Fe2CoGe,https://materialsproject.org/materials/mp-30044,79.20417521385382,49.606070052680934,92.42490749347664,-5.255060457080015
-9.060997313125,-144.97595701,7.622983536355385,-0.4604311787499995,0.00010215,0.0,140,16,226.0925830445464,1037.9160000000002,mp-1207805,VSi3Mo4,https://materialsproject.org/materials/mp-1207805,63.04367122971932,27.841171193727217,64.71352324585189,11.447942876993555
-4.306686969318182,-189.49422665,7.390162639656932,-0.3749579388636364,0.0002468,0.0,55,44,733.908883991125,3266.23216,mp-1199241,Pr(Ga4Co)2,https://materialsproject.org/materials/mp-1199241,68.47994339046735,18.683189143827267,64.39622471883465,6.536105713401235
-7.1112136425,-56.88970914,7.300072813424688,-0.3668891842857143,0.89990375,0.0,26,8,98.98777652439095,435.170724,mp-1224707,Fe2AsP,https://materialsproject.org/materials/mp-1224707,17.537747119406838,37.420103613426,67.82485274095892,-23.08472035020438
-4.833657095294118,-82.17217062,6.1112630095242215,-0.7856098655882353,5e-06,0.0,229,17,346.3722863737125,1274.75,mp-1105294,Ca5(GePd)6,https://materialsproject.org/materials/mp-1105294,32.69939165982832,18.771940281617926,49.900118245811036,4.378374665293974
-7.936994430833334,-95.24393317,7.729280215464581,-0.8365977648809526,0.0,0.0,62,12,156.89455458245772,730.2941679999999,mp-20932,NbNiP,https://materialsproject.org/materials/mp-20932,62.48799090319372,28.878227183550404,72.78364577884729,0.535297400654244
-6.922318173333332,-20.76695452,6.772118055748664,0.02458949587333355,6e-07,0.0,187,3,32.27678896202767,131.633295,mp-1246020,CoNiN,https://materialsproject.org/materials/mp-1246020,28.30568640515377,53.153362661672276,70.74510722346898,0.30626516526779285
-7.376675716666668,-88.52010859999999,9.27556879185576,-0.3193347444444458,5.53274145,0.0,35,12,148.70871743307978,830.6687800000002,mp-1222555,LuFe2Co2B,https://materialsproject.org/materials/mp-1222555,73.53842273944015,25.61960816129045,61.153751200434655,15.827492320291832
-7.673813380833334,-92.08576057,8.942866069728295,-0.2596845933333339,3.4e-06,0.0,38,12,147.0779817893681,792.0914,mp-1219330,SiNi3Mo2,https://materialsproject.org/materials/mp-1219330,64.68522162606732,46.434050971340774,78.12978083701344,-2.0737443107230336
-7.118946653125,-113.90314645,8.279294785848265,-0.280324120625,0.10840895,0.0,224,16,189.76147798939644,946.13326,mp-1188235,MnV2Ga2Co3,https://materialsproject.org/materials/mp-1188235,79.42453462012244,48.9116464935896,91.22804682383742,-4.824375359455618
-6.75923694375,-54.07389555,8.094157259134978,-0.2054006362500012,0.531946525,0.0,62,8,107.30853749252209,523.0663999999998,mp-427,FeAs,https://materialsproject.org/materials/mp-427,21.985469024719283,36.3075137208047,63.2590366736795,-23.289918819489635
-9.165028715,-109.98034458,9.955124343244764,-0.23304405277777696,1.30368585,0.0,164,12,150.85441950057486,904.3897599999999,mp-1217934,TaTiFe4,https://materialsproject.org/materials/mp-1217934,64.36655239414027,47.898121486510185,72.22895462707318,17.532110603222428
-7.36181390625,-117.78902250000002,5.822531752409639,-0.6925794835416665,8.825e-05,0.0,193,16,260.81086751342133,914.51,mp-568151,Ti5Ge3,https://materialsproject.org/materials/mp-568151,52.95164125177166,44.10837524020221,67.60579218800723,-4.0009141367538765
-4.892051452840909,-430.50052785,8.469848812954737,-0.5129406378409097,0.0,0.02120000000000033,62,88,1519.5085666505836,7750.5,mp-1213672,Dy3Ga15Ru4,https://materialsproject.org/materials/mp-1213672,69.29101366483103,15.986129505737226,60.19785699382114,10.785015712392036
-5.146793175833333,-185.28455433,9.108364284229825,-0.4596186791666668,0.00030685,0.0,51,36,667.2842792221658,3660.1779,mp-1209604,PrGa4Os,https://materialsproject.org/materials/mp-1209604,62.433872660326756,13.213892372612605,54.33543071190751,-8.957505599850148
-4.303480876428571,-60.24873227,6.356694828210332,0.10926823642857184,5e-08,0.0,71,14,256.1717466288395,980.6488,mp-1181754,Cu3As4,https://materialsproject.org/materials/mp-1181754,30.887153583409518,27.108817327332613,61.319509521711105,-9.670614232491165
-4.645999553928571,-130.08798751,8.6163039838738,-0.22560406017857154,0.00026715,0.0,72,28,477.4333317986025,2477.33454,mp-1211840,LaIn6Ni7,https://materialsproject.org/materials/mp-1211840,71.37354078959454,18.09498757167784,67.31323044640736,1.0435836208107248
-7.741505681666666,-92.89806818,8.952986188944156,-0.32737689416666643,3.9e-06,0.0,194,12,146.91173036461166,792.0914,mp-1219280,SiNi3Mo2,https://materialsproject.org/materials/mp-1219280,64.640429685008,46.63312428266019,78.1192183741226,-2.013250568798095
-8.223842973928571,-230.26760327,10.639685770584009,0.005006743214285133,2.8454662,0.0,62,28,397.0203343808265,2543.85564,mp-21701,UFe5Sn,https://materialsproject.org/materials/mp-21701,64.55584595397315,13.855582949402224,57.780272818836835,16.121939482503453
-7.9417407775,-31.76696311,6.8941260734227905,-0.37256204583333385,1.253371,0.0,63,4,32.1099118500127,133.312,mp-1007881,FeB,https://materialsproject.org/materials/mp-1007881,36.35089837421703,55.491534418712924,75.32311410595713,-3.941327194070064
-7.56128121875,-60.49024975,7.518412869715216,-0.3662674737499998,10.6778498,0.0,160,8,88.45685534369028,400.505585,mp-1225227,Fe3Co3Si2,https://materialsproject.org/materials/mp-1225227,42.26036378449935,60.18972946876971,91.62197379847305,-8.760225718097864
-6.180179175499999,-123.60358351,6.121558849888323,0.050371435547999256,6.585e-05,0.0,59,20,202.793933939384,747.5975999999998,mp-1246916,MgNi5N4,https://materialsproject.org/materials/mp-1246916,26.415777873938165,52.90814445797151,64.83587464955879,-4.855937460786862
-5.914340649310343,-171.51587883,7.62015500534012,-0.3717338782758622,0.0004216,0.0,225,29,459.85535886011735,2110.26,mp-1194115,Ti6Ga16Ru7,https://materialsproject.org/materials/mp-1194115,47.130991000207565,46.087608905145906,66.64457550781967,-10.393752750753269
-6.090385008333333,-36.54231005,15.0105696270275,-0.7996734234722217,0.0027148000000000003,0.0,216,6,114.98282069936519,1039.396,mp-1071890,NdInPt4,https://materialsproject.org/materials/mp-1071890,82.77145222160306,11.630413621176693,60.946866204054785,25.33851298393325
-8.991778007999999,-44.95889004,10.702687884934257,-0.4078954744759997,1.0426048,0.0,221,5,56.64258723619536,365.079,mp-10374,Cr3PtN,https://materialsproject.org/materials/mp-10374,53.665877171711976,58.15054500718895,87.44660080210224,1.9482643079196584
-1.9660824708,-98.30412354,7.282339531926548,-0.2719530902,0.00016375,0.0,141,50,849.0294377260489,3723.4419,mp-1200700,Pr3Zn22,https://materialsproject.org/materials/mp-1200700,71.47684520185366,17.340136399436332,66.14865497923083,4.4213316333809205
-5.456855071060606,-360.15243469,8.596883250886805,-0.3035764026515153,4.2999999999999995e-06,0.0,152,66,816.7849128084011,4228.6296,mp-1200997,ZnNi13Ge8,https://materialsproject.org/materials/mp-1200997,42.72885021643197,49.59692557649916,75.61803876168806,-14.958444352527955
-10.92012019,-65.52072114,10.984637843645034,-0.1302898100000031,1.1e-06,0.0,74,6,112.1687641896313,742.008,mp-1215220,ZrMoW,https://materialsproject.org/materials/mp-1215220,82.63630610968859,12.455702401013394,61.913726229714726,25.96602133352143
-9.287190818333334,-55.72314491,7.098895892621697,0.6671365816666667,3.03316285,0.0,227,6,111.25417306044106,475.61772,mp-1077258,Nb2Cr,https://materialsproject.org/materials/mp-1077258,82.89681008768878,13.460308454331301,62.580469624151505,25.340498605925283
-6.781399106923077,-88.15818839,8.146340928014986,-0.12134730730769352,12.713962400000002,0.0,187,13,220.98661853134624,1084.12527,mp-1215316,ZrMn6GaSn5,https://materialsproject.org/materials/mp-1215316,66.8606832964131,15.897421265862937,58.98447892864507,18.713645864271
-9.9197765,-39.679106,11.815730944922025,0.060624745625000635,3.7664644999999997,0.0,225,4,49.33120949094672,351.021135,mp-1185924,Mn3Re,https://materialsproject.org/materials/mp-1185924,83.74853371504625,38.2897268350566,50.08656473987523,49.19025195753455
-7.072408064090909,-155.59297741,6.094944700635406,-0.6636357781818186,0.00013959999999999998,0.0,72,22,354.3979365658516,1300.8039999999999,mp-1365,Ti6Ge5,https://materialsproject.org/materials/mp-1365,61.679859868034384,35.71424682418916,61.663267402297755,5.2571322513324406
-8.29588423625,-66.36707389,5.227343768917593,-0.3225145968750001,1.3e-06,0.0,129,8,81.26513192518586,255.82101400000002,mp-615314,ScCoC2,https://materialsproject.org/materials/mp-615314,13.909545042639062,39.54258960787255,60.6857305377129,-17.56779999510925
-10.70898336,-21.41796672,14.523350931806391,-0.14824522999999878,1.64e-05,0.0,65,2,32.244741720896265,282.01788,mp-1217908,TaRu,https://materialsproject.org/materials/mp-1217908,65.30456263353004,36.62304708167272,74.31206226525144,7.436823041229063
-6.8275641135,-136.55128227,8.590914178136686,-0.201214736,19.333100100000003,0.0,166,20,233.82216540224633,1209.69523,mp-1222191,Mn4Cr(GaCo2)5,https://materialsproject.org/materials/mp-1222191,79.0345419438453,49.48648310278079,92.29943183742455,-5.383633077543428
-9.985240349166666,-239.64576838,15.218494109469967,-0.2539297645633323,0.0,0.0,213,24,298.0595897428211,2731.6540000000005,mp-505341,Ni2W3N,https://materialsproject.org/materials/mp-505341,60.789709470429145,31.279278513506018,69.46147728253749,15.87257299339442
-7.442195946666666,-44.65317568,10.658263948316462,-0.03212458999999986,1.15e-06,0.0,12,6,103.2635891524132,662.8032000000002,mp-1224396,GeAsW,https://materialsproject.org/materials/mp-1224396,35.593312048707205,33.50811349816968,57.149308131206865,-8.36827494566863
-6.880158156190477,-144.48332128,10.264179755570762,-0.6976357921428582,0.000194,0.0,143,21,338.74066664110825,2093.8352,mp-1225165,Er2As7Rh12,https://materialsproject.org/materials/mp-1225165,67.77551153960094,9.070992700919444,52.45507179907104,9.007498237517543
-7.04428660625,-56.35429285,8.620293759725756,-0.242800264375,9.008324499999999,0.0,166,8,93.99869228848452,487.97187,mp-1222096,Mn2GaCo4Ge,https://materialsproject.org/materials/mp-1222096,79.08847803096545,49.414928160828644,92.16881883432308,-5.279066238161168
-5.254359557619048,-220.68310142,7.358721215578938,-0.5184908425170074,0.5998223333333333,0.0,58,42,617.7297413317477,2737.485144,mp-1214035,Ce(Cu2P)2,https://materialsproject.org/materials/mp-1214035,65.18867117403893,9.544677981828427,60.940688473617314,-0.6566545005417082
-8.172275697222222,-294.20192510000004,9.94582673689266,-0.9969628057142852,0.500074575,0.0,189,36,457.8893897372038,2742.5362640000008,mp-18581,Hf2Co4P3,https://materialsproject.org/materials/mp-18581,56.78027690845124,33.196601826560304,62.7855122123971,-2.6880214448963398
-8.64974536,-172.9949072,9.070685805166212,-0.4475300436666672,0.035042199999999996,0.0,10,20,249.11200096810254,1360.773,mp-1217239,Ti2FeB2Ru4Rh,https://materialsproject.org/materials/mp-1217239,58.73587985853993,39.91565898239829,71.45984616636329,11.785492774956346
-6.354736614827586,-184.28736183,8.297226928997581,-0.15704543689655331,0.7349332,0.0,225,29,281.6461941165175,1407.30349,mp-1193061,Mn2(Ni7B2)3,https://materialsproject.org/materials/mp-1193061,39.237730659539416,53.633384406853494,79.18305240773729,-12.0476253108621
-9.183881676666667,-110.20658012,15.26553310523443,-0.1177225358333338,0.0017334,0.0,194,12,228.3020578082064,2098.808,mp-569630,NdOs2,https://materialsproject.org/materials/mp-569630,82.64267795738215,11.263720802855802,60.06756993535865,26.071579003551317
-7.395883953125,-118.33414325,8.15182208727965,-0.3011045556249998,0.03880035,0.0,215,16,191.10120332631308,938.14296,mp-1190398,MnVGaCo,https://materialsproject.org/materials/mp-1190398,79.73258269128934,48.62604082742918,91.00530342627073,-4.606146154465889
-6.155942500344827,-178.52233251,7.6455694438797375,-0.4014390968965519,4e-07,0.0,225,29,286.6206209850404,1319.6786158,mp-505472,Al3(Ni10B3)2,https://materialsproject.org/materials/mp-505472,39.17425395327192,53.46954500967588,79.3274917990973,-11.857076369486018
-6.671439205,-26.68575682,15.544805331679152,-0.08802758500000074,2.23489175,0.0,123,4,54.26963672155929,508.03439,mp-949,CoPt,https://materialsproject.org/materials/mp-949,53.372119999059905,59.177640563580034,87.5233326955088,2.690592176098408
-7.65456915375,-61.23655323,12.033462404785375,-0.3570125087499996,0.0,0.0,59,8,98.53507581998669,714.05616,mp-891,TaNi3,https://materialsproject.org/materials/mp-891,49.86889973706912,67.52265326729002,72.89827713859378,-16.833169177228008
-9.578993258333332,-114.9479191,11.376613772329677,-0.7708263423809509,0.0006203,0.0,62,12,155.80415660887363,1067.438748,mp-21066,TaMnP,https://materialsproject.org/materials/mp-21066,60.43971374452239,24.30822596579786,58.2369962791731,11.52083568613075
-7.833682910909091,-172.34102404,7.827161677120287,-0.10332294232954614,30.638015399999997,0.0,166,22,278.73930118669944,1313.8730999999998,mp-1191783,Sm2Ga2(Fe5C)3,https://materialsproject.org/materials/mp-1191783,78.09767261664214,34.272031419028565,88.59636536355103,-25.99218871470639
-7.691664584,-115.37496876,11.594660982099668,-0.20270516937500055,3.8490595666666665,0.0,12,15,205.70388095401836,1436.3208,mp-569318,PuNi4,https://materialsproject.org/materials/mp-569318,73.44306471454571,24.702251829437103,58.27112655796735,15.382272059406636
-4.266458526666667,-25.59875116,7.609719293076964,-0.1178309995833331,1e-07,0.0,187,6,88.9082739508066,407.438182,mp-1220198,NdBeCu4,https://materialsproject.org/materials/mp-1220198,74.8338415640837,18.224560647561287,87.23614902260411,-11.36448538205065
-7.2673052844444435,-65.40574756,5.8885833184275125,-0.5624611111111099,2.120881966666667,0.0,189,9,145.9600836898856,517.6018710000002,mp-1079729,ScMnGe,https://materialsproject.org/materials/mp-1079729,47.35108388565241,44.80701206130409,63.76345129195664,-8.94788001689684
-6.674556205,-13.34911241,6.715869236475136,-0.4069004525000004,0.4794242,0.0,221,2,21.51589543652184,87.018695,mp-22746,CoSi,https://materialsproject.org/materials/mp-22746,42.394272170650474,58.959753710193475,92.55686218182035,-8.033906446946464
-8.419159851666667,-50.51495911,7.457396545903113,-0.31995761055555505,2.85008125,0.0,69,6,54.15070997262214,243.18809,mp-1221654,MnFeB,https://materialsproject.org/materials/mp-1221654,36.39327370110079,55.54777709993026,79.78509419174553,-7.784782695190186
-6.940870395,-111.05392632,8.626072650761216,-0.2388889003125003,17.126976000000003,0.0,166,16,187.3099096367274,973.02674,mp-1222222,Mn4Ga3Co8Ge,https://materialsproject.org/materials/mp-1222222,79.06272135611566,49.47188578523703,92.17651693260521,-5.4106623335337805
-7.2030149250000015,-216.09044775,7.004313748895402,-0.2298873807777776,4.64601895,0.0,160,30,429.06675803532005,1809.844948,mp-1216380,Y2Sc2TiCo10,https://materialsproject.org/materials/mp-1216380,67.10813529486582,48.56627383316452,74.46568164883797,22.541958084034725
-4.846096197142857,-33.92267338,6.773083021621944,-0.5936214563988099,0.0,0.0,166,7,115.19096331832864,469.8462,mp-20708,In2Ni3S2,https://materialsproject.org/materials/mp-20708,40.826702105681626,41.4375412330302,62.637447955777844,-9.156211374460284
-8.28416547375,-132.54664758,9.227287133040887,-0.4584095868750016,1.12e-05,0.0,55,16,212.2107174885551,1179.213,mp-1105935,Si3Ru5,https://materialsproject.org/materials/mp-1105935,56.67527058106514,41.25917922429248,77.83935919853148,8.278102928779196
-6.55712402875,-52.45699223,15.292536137944774,-0.1790582675000003,7.752307400000001,0.0,99,8,110.13394236435434,1014.2654,mp-1224737,Fe2CuNiPt4,https://materialsproject.org/materials/mp-1224737,53.58935962584274,59.0394728959271,87.4334566615111,2.634894878899253
-4.148952235,-49.78742682,5.172745194466465,-0.5103643720208334,0.0,0.22389999999999954,1,12,196.5202710460905,612.1803,mp-1223529,KCu7S4,https://materialsproject.org/materials/mp-1223529,13.469124871759483,25.508908007724358,26.03219485397165,-48.153207729648464
-7.90067285,-71.10605565,7.0835951899253,-0.4575208207142857,3.0240862666666666,0.0,189,9,100.32987771429949,427.99128600000006,mp-778,Fe2P,https://materialsproject.org/materials/mp-778,43.69477287912319,53.70137489132079,76.34708774519565,-11.745038037459805
-9.325678661666666,-111.90814394,16.308697060008694,-0.30539648166666683,6.6e-06,0.0,194,12,219.67921238181032,2157.5414,mp-1095666,TbOs2,https://materialsproject.org/materials/mp-1095666,81.25164859365557,11.618918946040075,60.35856008375104,26.642555719225307
-6.485285435,-25.94114174,6.672939591726072,-0.3893300650000002,1e-07,0.0,225,4,48.60221008047639,195.3098386,mp-10899,AlVNi2,https://materialsproject.org/materials/mp-10899,82.4751011760853,43.72168439802884,89.21620552330583,-3.7994570006410084
-5.022234808333333,-30.13340885,8.542682118865182,-0.37340071749999976,3e-07,0.0,191,6,111.22079618658869,572.178,mp-11826,CaPd5,https://materialsproject.org/materials/mp-11826,49.704781624455954,43.3883379489449,62.32352775273149,22.814070366379763
-8.295345337272728,-182.49759742,8.263330013601134,-0.09307706119318353,34.3754283,0.0,166,22,265.9138691821784,1323.26552,mp-1191478,Tm2Fe17C3,https://materialsproject.org/materials/mp-1191478,76.06559469573929,33.89653826666175,88.8703464783028,-24.555529153150978
-8.014972512058824,-272.50906541,12.054388592603226,-0.5171984255882361,5.5e-07,0.0,64,34,505.9326054117242,3672.728,mp-1198091,Hf7Ni10,https://materialsproject.org/materials/mp-1198091,73.6571951789724,14.619329685071895,65.74211892937711,1.4326710607842312
-6.204678715,-74.45614458,8.11817816754879,-0.4183213740277776,6e-07,0.0,191,12,157.29163823466817,768.98014,mp-4634,LaNi4B,https://materialsproject.org/materials/mp-4634,74.22794593799983,26.465005204582763,61.09978154254088,15.979978034487493
-5.167143212142856,-144.68000994,4.338445301004188,-0.4584997007142846,0.0,0.0,194,28,386.99691156603575,1011.0963320000001,mp-196,Al5Co2,https://materialsproject.org/materials/mp-196,43.652255589000426,43.9488538243541,67.05306269915111,-13.421935851611984
-7.71006221,-23.13018663,7.177316514690276,-0.2617359083333343,2.3242571,0.0,139,3,32.33836408223888,139.7755,mp-1225177,Fe2Si,https://materialsproject.org/materials/mp-1225177,42.747882102810934,58.193461007402675,91.71062614407968,-8.861871135958667
-7.080958632222222,-254.91451076,8.299003791205934,-0.8824934076587306,7.4423056,0.0,189,36,457.41188680562783,2286.042599,mp-1217664,Tb5Co19P12,https://materialsproject.org/materials/mp-1217664,56.9127411132577,33.50487654617785,62.7069763414331,-2.997083424627155
-6.5159432960000006,-32.57971648,8.874604994622763,-0.10908058714266672,2.8677917,0.0,221,5,57.185762873061705,305.624285,mp-1068786,InCo3N,https://materialsproject.org/materials/mp-1068786,50.891558745829926,62.14147129989336,85.53118273925253,9.353183960675175
-7.53626298,-30.14505192,8.29300156670643,-0.21831879125000064,1.993725,0.0,216,4,47.727662406216936,238.35969500000002,mp-1063914,VFeCoGe,https://materialsproject.org/materials/mp-1063914,79.68925543449024,48.6572027259073,91.07569747658287,-4.684054347383492