energy_per_atom,energy,density,formation_energy_per_atom,total_magnetization,band_gap,sgr,num_sites,cell_volume,weight,mp_id,formula,URL,tsne_cry_0,tsne_cry_1,tsne_xrd_0,tsne_xrd_1
-8.64090681,-86.4090681,7.0786709275559465,-0.08422142874999991,1.2770469,0.0,63,10,113.97030432646449,485.8412,mp-1079324,Cr3AsC,https://materialsproject.org/materials/mp-1079324,51.426288787577974,48.88485665753939,73.59070702131575,-3.181343871570455
-7.8155455675,-31.26218227,6.696733332005311,-0.3788030025000007,4e-07,0.0,123,4,47.01693161104912,189.6130386,mp-1228816,AlVFe2,https://materialsproject.org/materials/mp-1228816,44.78054982464492,60.148049364070346,88.43001778440802,-5.696362667311968
-7.0265872725,-56.21269818,8.082652727846737,-0.2996341581249995,10.8287504,0.0,166,8,91.47045495620729,445.23127999999997,mp-1225089,GaFe2Co4Si,https://materialsproject.org/materials/mp-1225089,43.41738980881872,59.710934523579944,91.64007619262104,-6.703252484655522
-7.639419135,-30.55767654,7.020375471045767,-0.18266559000000004,2.0090282999999998,0.0,225,4,45.79474038274666,193.60958359999998,mp-31185,MnAlFe2,https://materialsproject.org/materials/mp-31185,43.75092095468311,60.41563859319744,90.75460167164313,-7.621001532670674
-8.26572404275862,-239.70599724,10.61037309764544,-0.5805560277586206,0.0013885,0.0,225,29,348.2497270277658,2225.2169,mp-570661,Ta6Co16Si7,https://materialsproject.org/materials/mp-570661,60.456240097401704,45.916677458506896,61.86890103758058,-7.187627053218942
-7.025976850769231,-91.33769906,8.253174284982256,-0.32058061538461513,11.5564853,0.0,191,13,188.00182130361432,934.40248,mp-5641,Tm(MnGe)6,https://materialsproject.org/materials/mp-5641,68.28845356451025,34.25229527485107,68.80180410102192,2.207730558253344
-7.579228922413793,-219.79763875,9.890774713312263,-0.26999329655172466,17.2823795,0.0,225,29,298.591717880207,1778.5209149999996,mp-541853,U2(Co7B2)3,https://materialsproject.org/materials/mp-541853,40.633510519562996,50.80512018983435,66.50508016390933,-9.24853620106592
-5.6986141450000005,-34.19168487,8.49689832415804,-0.4753962500000005,5.2e-06,0.0,187,6,84.16912268199188,430.6893486000001,mp-1216638,TmAlNi4,https://materialsproject.org/materials/mp-1216638,75.51250984348547,19.569959065032386,88.14112943242313,-12.09903702723421
-7.793124799375,-249.37999358,7.418646122609251,-0.027244232500000187,4.4908621,0.0,62,32,434.008298443222,1938.9812,mp-505539,Cr5As3,https://materialsproject.org/materials/mp-505539,45.999808000508345,49.49113789685374,63.67861298350878,-21.116464391112093
-8.918909088,-44.59454544,8.759426180201167,-0.4805623586666655,0.00047939999999999994,0.0,71,5,51.645994596089324,272.435195,mp-1069105,Co(BMo)2,https://materialsproject.org/materials/mp-1069105,59.37989508888511,28.94493342159822,66.04933921427948,13.784833760176172
-8.168342955,-65.34674364,7.695537580510818,-0.13694557374999938,2.66687845,0.0,63,8,103.4601008924369,479.47147000000007,mp-2668,Mn3As,https://materialsproject.org/materials/mp-2668,43.002951043052036,49.874174612758296,73.61492024807997,-13.770402347862582
-6.177247796428572,-86.48146915,9.072348125287089,-0.1867089397619048,0.77073175,0.0,166,14,205.08810371328664,1120.498,mp-1006242,EuInNi5,https://materialsproject.org/materials/mp-1006242,71.47484294119613,22.018294405588986,63.383638576686295,17.265494755635842
-8.182470991428572,-171.83189082,7.454708442469273,-0.7093436045238093,16.4334615,0.0,174,21,268.62213258847254,1205.933514,mp-1192228,Ho2Mn12P7,https://materialsproject.org/materials/mp-1192228,55.49658321495379,33.79459142970353,61.673599078976004,-3.78057505195628
-6.248102166976745,-268.66839318,7.103888734139179,-0.2606702693798456,0.0030426,0.0,139,43,369.2324822959686,1579.5994,mp-1197569,Zn2Ni21B20,https://materialsproject.org/materials/mp-1197569,36.56314685488777,54.846532716035405,73.91790454945595,-3.5275934724933755
-8.019746488823529,-545.34276124,8.514447136696878,-0.12751728803921564,30.710559025,0.0,136,68,891.3275815411502,4570.3,mp-4214,Lu2Fe14B,https://materialsproject.org/materials/mp-4214,72.7754749760013,31.92086652041397,83.45096223057156,-6.671163887086483
-7.106957558611112,-255.85047211,8.395616124028455,-0.8450223887698406,1.163992275,0.0,62,36,437.1219455406118,2210.0703240000007,mp-1199038,HoCo5P3,https://materialsproject.org/materials/mp-1199038,55.68454863670897,34.49984183837964,62.01801600740826,-4.132356028884228
-6.9979685175,-1007.70746652,8.304040722572106,-0.12203455930555485,0.0010669,0.0,118,144,2333.973759645433,11671.76,mp-569901,Ge23Mo13,https://materialsproject.org/materials/mp-569901,66.02001202735096,35.51346557099864,72.200858595902,1.6771574154937705
-6.7007634760000006,-368.54199118,8.551164110827205,-0.7869643856493512,1.1202446000000001,0.0,174,55,659.2194689085408,3394.737328,mp-568202,Yb6Co30P19,https://materialsproject.org/materials/mp-568202,55.48659641485386,34.49454194915063,61.9554579909856,-4.11824184922596
-6.274562573214285,-175.68775205,7.287735990250247,-0.5986032480357143,6e-06,0.0,69,28,348.79630629662614,1530.7893,mp-1227027,Ce2Si9Ni17,https://materialsproject.org/materials/mp-1227027,22.10862791721288,39.03136201565085,66.19662137525874,-22.536712818127178
-6.231093226666666,-74.77311872,9.23850933322043,-0.5028241769444447,2.5e-07,0.0,191,12,147.5727363745278,821.0298399999998,mp-10398,HoNi4B,https://materialsproject.org/materials/mp-10398,73.90751345770619,25.18621824725237,61.62871507154033,15.838341945052953
-6.857005430909092,-75.42705974,8.198944701740142,-0.7365381698701299,0.0,0.0,187,11,155.06429336550588,765.633048,mp-10440,Mg(P2Rh3)2,https://materialsproject.org/materials/mp-10440,48.19455183299679,40.15612663093386,65.7484531423496,-7.92361740216116
-5.968428513076924,-77.58957067,8.265382480622911,-0.31296244346153823,10.9156611,0.0,71,13,184.49680167409352,918.3383199999997,mp-1104739,Ho(GaFe)6,https://materialsproject.org/materials/mp-1104739,68.41529379907925,34.35927483805554,68.95454556730276,2.1714487790037547
-7.108850138888888,-255.91860499999999,8.458696272905394,-0.8480983679365091,1.223937975,0.0,62,36,435.6907248412483,2219.385044,mp-1195740,ErCo5P3,https://materialsproject.org/materials/mp-1195740,55.66201482831355,34.51073428924478,62.035224158140345,-4.17500033822765
-7.8695997575,-31.47839903,6.753705815010625,-0.6465323254166666,0.9999998999999999,0.0,216,4,46.8951082337504,190.730695,mp-998971,TiFeCoSi,https://materialsproject.org/materials/mp-998971,44.86877514073503,60.36978452665896,90.36677353895979,-6.789077658441852
-8.5469179625,-68.3753437,6.552641524938693,-0.538986460937501,0.0,0.0,194,8,95.69733848739584,377.6306,mp-10046,V2AsC,https://materialsproject.org/materials/mp-10046,66.42422031731067,35.696318693113604,71.07689010643819,0.0019637990152292987
-6.572644451666666,-39.43586671,15.318828341134546,-0.6826809883333335,0.5625111999999999,0.0,187,6,111.31145327244994,1026.872,mp-1226749,CePdPt4,https://materialsproject.org/materials/mp-1226749,76.7780044022106,12.082988083387756,62.1232867258223,22.77800403121298
-5.96417321142857,-250.49527488,7.8841107195706845,-0.4611291761734692,0.0008555333333333334,0.0,164,42,473.625010497213,2248.734858,mp-1212709,GaNi10P3,https://materialsproject.org/materials/mp-1212709,43.29246727299635,54.16059865106502,76.03755111410274,-11.444280747103589
-6.742282111666667,-40.45369267,16.554085443520794,-0.7058708233333336,0.0154526,0.0,191,6,111.8993305214852,1115.536,mp-542777,CePt5,https://materialsproject.org/materials/mp-542777,76.78104038158673,12.0922134707986,62.12111198708032,22.802839247145297
-7.60369175,-30.414766999999998,7.14426676289887,-0.4225639537500001,2.8160220000000002,0.0,225,4,45.763851163962144,196.89338999999998,mp-20586,VCo2Si,https://materialsproject.org/materials/mp-20586,43.52561107576179,60.19537320196881,90.78579998889865,-7.589556070105224
-6.5377531075,-26.15101243,6.485549472906943,-0.21964899066406215,0.22329829999999998,0.0,166,4,56.55879821068428,220.90108999999998,mp-1221540,Mn2SeS,https://materialsproject.org/materials/mp-1221540,24.85720697251791,39.701124393342845,61.663314269624564,-21.636707634430064
-7.027865291538461,-91.36224879,8.337221135483338,-0.3188005523076913,11.5372545,0.0,191,13,187.30815160720903,940.43527,mp-3400,Lu(MnGe)6,https://materialsproject.org/materials/mp-3400,68.3037861120194,34.26140693189249,68.76033634068396,2.1882069279631677
-6.06596004875,-48.52768039,7.436764070394727,-0.5866095037499992,1.5e-07,0.0,129,8,135.01394425681096,604.6632000000002,mp-1078698,ZrCuGeAs,https://materialsproject.org/materials/mp-1078698,61.42139593602593,35.53765053467251,71.69895004980773,-0.02152247589783025
-6.786981925625,-108.59171081,7.960088309697079,-0.4902121406249993,2.5e-08,0.0,62,16,251.53381075642253,1205.77192,mp-504835,NbNiAs2,https://materialsproject.org/materials/mp-504835,34.88625347382627,31.892630766788773,70.24826463175762,-8.380311996507059
-5.960706961666666,-71.52848354,7.31009739338687,0.008087463333334691,3.572597025,0.0,62,12,175.73370465319286,773.62258,mp-20107,MnCuAs,https://materialsproject.org/materials/mp-20107,46.79881686360208,46.4684658683146,73.70679340347529,-10.28470775443956
-8.722146586666666,-52.33287952,12.427444462020853,-0.6180665155555545,1.95e-06,0.0,63,6,66.93021881819507,500.90455999999995,mp-1076987,TaNiB,https://materialsproject.org/materials/mp-1076987,59.13632132428907,28.49215769107078,67.48822415830703,2.5663404907964456
-6.110577646,-30.55288823,5.725028638957197,-0.33720417900000044,3.7335254,0.0,119,5,85.89542473598327,296.141045,mp-1227251,CaMnFeGe2,https://materialsproject.org/materials/mp-1227251,31.376640114139697,19.61021091346936,54.17122923169469,-13.255143419164925
-6.848090512727272,-75.32899564,10.24721362302901,-0.7434837740909098,6.3e-06,0.0,187,11,173.86492809932986,1072.92332,mp-1095528,Ho(Ge2Rh3)2,https://materialsproject.org/materials/mp-1095528,67.85957569283322,9.207044410463453,70.89511531244679,2.5461682767913465
-7.475302979090909,-164.45666554,7.939994092763401,-0.06761966140272788,36.7520976,0.0,166,22,262.07023489788605,1253.10882,mp-1190514,Sm2Fe17H3,https://materialsproject.org/materials/mp-1190514,76.24126290295355,34.83878721474407,88.43901687090597,-24.68147770359567
-4.326123893928572,-121.13146903,8.384226899019113,-0.13171686642857086,1e-07,0.0,62,28,416.3261160428815,2102.072,mp-1193079,NdCu6,https://materialsproject.org/materials/mp-1193079,69.52327567709108,31.109094859492835,67.93031445527993,5.619585396767325
-6.2596076720000005,-31.29803836,5.136941494029272,-0.8512332378571429,1.0479530000000001,0.0,139,5,71.08103298465204,219.891914,mp-3210,Ca(CoP)2,https://materialsproject.org/materials/mp-3210,33.91934474648889,45.85478727190727,60.111134798353405,-6.017668453321653
-6.542614516666667,-39.2556871,16.401572774158016,-0.7010745045833341,0.0,0.0,191,6,113.35757175274462,1119.662,mp-2359,NdPt5,https://materialsproject.org/materials/mp-2359,76.77702632172308,12.092098014213569,62.097236474744435,22.78962485224057
-5.66836607357143,-79.35712503,8.332455587039863,-0.5370293360714291,5e-08,0.0,139,14,216.96638031366524,1088.7204000000004,mp-17658,Sm(NiGe)3,https://materialsproject.org/materials/mp-17658,68.9716946650329,11.753057803657168,88.63710600060652,-24.01930529380735
-5.909229981111111,-106.36613966,9.676559673071703,-0.3915985188888887,0.51610465,0.0,166,18,252.5513206998021,1471.7076,mp-865205,Dy2Ni7,https://materialsproject.org/materials/mp-865205,74.43543034140953,23.861927355245943,62.81198734289839,17.196128783323957
-5.147058030795455,-452.94110671,7.382688532812041,-0.5140462726136367,0.00013085,0.013499999999999623,62,88,1544.6319140446033,6867.3702,mp-1210366,Y3Ga15Ru4,https://materialsproject.org/materials/mp-1210366,69.48572008079877,18.26159392662504,59.25477601584682,3.543463831897532
-5.119257426486487,-378.82504956,7.901417471283313,-0.2638028476351353,46.8779805,0.0,225,74,1173.3005736243215,5582.9688,mp-1196262,Eu7Cu44As23,https://materialsproject.org/materials/mp-1196262,66.75558075260126,10.287676455020783,70.11459685518977,-8.644006981550124
-4.401930229310344,-127.65597665,9.813017944668609,-0.21438074206896532,7.58e-05,0.0,225,29,424.96725747455366,2511.36,mp-1193217,Lu6Cu23,https://materialsproject.org/materials/mp-1193217,71.70716323563056,28.35933909987969,62.712427609607595,12.402804086398074
-9.26520025,-92.65200250000001,8.410539870610762,-0.3662012841899994,0.012484700000000001,0.0,8,10,101.18310096980456,512.4869,mp-1220138,NiMo4N5,https://materialsproject.org/materials/mp-1220138,31.97962224784528,48.23514686065393,67.94432474601625,8.946026004291124
-8.497548288214286,-237.93135207,9.447122341409033,-0.2297953156971419,0.283822075,0.0,227,28,336.01049557997516,1911.6276,mp-581805,Ni3Mo3N,https://materialsproject.org/materials/mp-581805,63.406596748838545,42.783225792648636,74.60273624897135,1.7662190399085906
-7.532882223333332,-135.59188002,7.034064751089775,-0.5396474138888886,0.04009236666666666,0.0,46,18,249.7896091190041,1058.112,mp-1208403,TiFeGe,https://materialsproject.org/materials/mp-1208403,45.99194893655394,49.75603181617353,73.56777639619591,-10.704127252779136
-9.031275340714286,-252.87570954,9.422884254565158,-0.010920229107142632,0.9446399,0.0,227,28,335.9749199955976,1906.52114,mp-1194380,Co3Mo3C,https://materialsproject.org/materials/mp-1194380,63.39104294356578,42.61015688594768,74.58549487660125,1.7857817938243703
-5.90747346,-212.66904456,9.564253338930387,-0.3849484888888889,1.3509768,0.0,194,36,506.0686822036876,2914.8179999999998,mp-1197090,Tb2Ni7,https://materialsproject.org/materials/mp-1197090,74.45213260158323,23.837924048428842,62.875635428088614,17.16798189502238
-8.155636769200001,-203.89091923,7.597456170767255,-0.10998189835000176,39.70021679999999,0.0,2,25,320.2664878882903,1465.3137000000004,mp-1227651,Ce2Fe20Si2C,https://materialsproject.org/materials/mp-1227651,77.1030783731472,35.31707398332319,66.01635141848585,-19.560772589335613
-5.239334633333333,-31.4360078,8.728182523828371,-0.03363220041666596,2.0294223999999996,0.0,191,6,87.29907189504696,458.86439000000007,mp-1219079,SmCo2Cu3,https://materialsproject.org/materials/mp-1219079,77.70761019584863,17.749492399518168,85.15753882974458,-13.380624827599945
-7.040035803333333,-42.24021482,6.818075029226178,-0.2524281683333325,2.14065785,0.0,194,6,69.03019365239847,283.43388999999996,mp-567353,MnSiNi,https://materialsproject.org/materials/mp-567353,46.562623432194144,57.30719824358704,75.71705805925309,-15.086980635694893
-7.35932197,-88.31186364,11.439634151301405,-0.5370726575000001,0.0,0.0,166,12,154.4046737159755,1063.7106,mp-7285,HfNi3,https://materialsproject.org/materials/mp-7285,52.4634447272007,59.1729598686768,72.63935994426248,-16.36002393606308
-4.470166355999999,-134.10499068,6.611070559551153,-0.25414171788888873,5e-08,0.0,186,30,526.992951578843,2098.1064,mp-21677,Ca3(InNi2)4,https://materialsproject.org/materials/mp-21677,41.218127050710365,42.192240177141926,62.15917059084249,-9.468225608813613
-6.57720560137931,-190.73896244,8.440622702476944,-0.31372891241379314,0.0170413,0.0,225,29,291.80053157133443,1483.24016,mp-1210179,Nb2(Ni7B2)3,https://materialsproject.org/materials/mp-1210179,40.25058907285832,52.745394472462166,79.43234425068667,-10.642460831092722
-7.52887208,-30.11548832,7.369237042721495,-0.32773330374999965,5.0298245,0.0,123,4,45.267315717580395,200.889935,mp-1221634,MnCo2Si,https://materialsproject.org/materials/mp-1221634,43.528685920683095,59.63418973018986,91.80548893518906,-8.419446538094622
-7.980842175,-175.57852785,5.66976061417489,-0.1717803927272725,3.9909035000000004,0.0,72,22,312.92358334949716,1068.44932,mp-569796,Nb2Cr4Si5,https://materialsproject.org/materials/mp-569796,49.531126714911906,45.37592561101713,64.13756948762592,-7.122992565849074
-7.755028356388888,-279.18102083,7.896915791068428,-0.7376947915476203,1.5470538,0.0,62,36,446.6884074474122,2124.286544,mp-1203752,TbFe5P3,https://materialsproject.org/materials/mp-1203752,55.85519538636295,34.3435576831507,61.898662969238885,-4.022675045757132
-6.906922981666668,-41.44153789,15.339366351761765,-0.6554935233333327,0.1677185,0.0,187,6,110.78196071845088,1023.3575,mp-1226629,CePt4Rh,https://materialsproject.org/materials/mp-1226629,76.77700313167674,12.082381024364972,62.124551761097706,22.77098991457603
-7.813343055500001,-156.26686111,7.015881111445707,-0.5535023608333347,5e-08,0.0,127,20,217.695706333234,919.77795,mp-504617,Ti3Co5B2,https://materialsproject.org/materials/mp-504617,40.66568255942269,53.57967482576186,73.88424600382969,-3.421732217810129
-5.966247498333334,-35.79748499,7.757414558223464,-0.5003387766666663,3e-07,0.0,65,6,86.02385623276209,401.87113860000005,mp-1226626,CeAlNi4,https://materialsproject.org/materials/mp-1226626,74.89610932287748,21.27586198175759,89.35526910068329,-13.47057445459426
-7.423491062499999,-89.08189275,7.314343524522586,-0.32573263416666504,7.2371212,0.0,26,12,149.14090440277485,656.9359599999999,mp-1222109,Mn2Co2SiGe,https://materialsproject.org/materials/mp-1222109,44.33324935211386,52.58579451117241,74.7630374608759,-10.47996728777014
-7.1338968975,-28.53558759,7.024892728236822,-0.2326979674999992,2.996685,0.0,225,4,46.52984848684186,196.84402859999997,mp-10883,AlCrCo2,https://materialsproject.org/materials/mp-10883,44.30366987421138,60.47986371447035,90.50714362779809,-7.256720335885426
-6.54664188,-39.27985128,16.275149889002492,-0.7020042208333331,0.0,0.0,191,6,113.89791534325896,1116.3276500000004,mp-1037,PrPt5,https://materialsproject.org/materials/mp-1037,76.77586389431683,12.090484063528109,62.0988873516416,22.779000562850534
-7.000254320000002,-35.0012716,7.599806473475366,-0.07525731600000114,5.706921400000001,0.0,187,5,68.34930884234228,312.815,mp-1225197,Fe3Ge2,https://materialsproject.org/materials/mp-1225197,42.81023413114547,49.70826294743516,75.5269043463313,-15.191508763522455
-8.076002760277778,-290.73609937,6.894135962883228,-0.7748937584920633,5.290903,0.0,6,36,431.9897614560752,1793.5116719999999,mp-1219445,Sc4TaFe19P12,https://materialsproject.org/materials/mp-1219445,43.86855623952432,52.11444286932965,70.23219970281947,-16.894854002288398
-7.8968242080833315,-947.61890497,4.591098291492327,-1.1212245597182544,0.454948525,0.0,10,120,1806.9433954395115,4995.880576,mp-1217600,Ti17CuP12,https://materialsproject.org/materials/mp-1217600,51.68176731197251,46.66367459383415,72.11543667600358,-5.041685387519348
-5.872266147586206,-170.29571828,8.234091675483823,-0.6583214717241376,0.00026510000000000005,0.0,225,29,480.6213791780481,2383.2505,mp-1193205,Zr6Ga16Rh7,https://materialsproject.org/materials/mp-1193205,69.31486209696365,18.44610196628661,65.86704954024061,6.626417793621209
-8.74836139,-69.98689112,11.35395734116195,-0.006626269999998158,2.4e-06,0.0,194,8,102.69005642625244,702.1446,mp-1183705,Cr3Pt,https://materialsproject.org/materials/mp-1183705,52.367469174138996,58.55431999950247,71.93261648777025,-15.911006841385245
-6.38038672,-38.28232032,8.15540156252611,-0.20439394749999928,4.3440983,0.0,187,6,87.67933071627795,430.619295,mp-1219805,PrMnNi4,https://materialsproject.org/materials/mp-1219805,77.74791750538989,17.186471108202404,86.09759372344497,-13.364750064374096
-7.96424473625,-63.71395789,5.893260092912474,-0.5603592823214285,1.11106215,0.0,26,8,95.17129741214791,337.763338,mp-1221673,MnCrP2,https://materialsproject.org/materials/mp-1221673,17.021637957255493,37.780470339936926,68.11313545424126,-23.580383256875287
-8.53892320111111,-76.85030881,7.616653293614994,-0.12175765666666727,0.0,0.0,187,9,104.36062313382291,478.68714000000006,mp-7705,NbFeB,https://materialsproject.org/materials/mp-7705,45.266624442837106,49.30679167235177,88.2072707511013,3.964277084457007
-8.3391233625,-333.5649345,7.1817270080420075,-0.040255028937501436,38.02098095,0.0,38,40,526.7995147846284,2278.3748,mp-1216410,Y2Fe17C,https://materialsproject.org/materials/mp-1216410,71.32681963337565,37.742177919957854,82.12721368134507,-21.300443296058162