energy_per_atom,energy,density,formation_energy_per_atom,total_magnetization,band_gap,sgr,num_sites,cell_volume,weight,mp_id,formula,URL,tsne_cry_0,tsne_cry_1,tsne_xrd_0,tsne_xrd_1
-8.14017748,-195.36425952,7.518726859345892,-2.6395631155172405,7.00000015,3.1041000000000007,15,24,347.1072964132448,1571.6613037999996,mp-1213254,CsGd(WO4)2,https://materialsproject.org/materials/mp-1213254,-47.51150965102306,-56.346181769880545,-20.982309001465023,-61.25090416354493
-5.075309159,-50.75309159,5.505455255355781,-0.6977756579999991,8.599999999999999e-06,0.0,127,10,229.95040756204781,762.3919999999999,mp-1208848,Sm2MgSi2,https://materialsproject.org/materials/mp-1208848,31.00382305048843,-38.81466118378107,19.751140528311137,5.37969804511907
-3.7516555768181816,-82.53642269,3.920422437814172,-0.5967115351398061,1e-07,1.7961,14,22,693.8391820516705,1638.108248,mp-541897,Rb2Cd(PSe3)2,https://materialsproject.org/materials/mp-541897,0.07606108208499286,-0.16016749998569987,-3.2491271637876364,-25.50225141358435
-7.4647682665,-149.29536533,7.408374774561737,-2.8860270367500007,2.99999875,0.31910000000000016,14,20,233.94220048525773,1043.7161999999996,mp-1210924,LiTb2RuO6,https://materialsproject.org/materials/mp-1210924,9.064732273010367,-82.66337407167687,50.360107202461,-54.164115787164576
-4.786730167142856,-268.05688936,6.083193447710222,-1.5999779672614294,0.0,3.1718,14,56,1212.5825774040845,4442.1565599999985,mp-707734,AsHPb4(ClO)4,https://materialsproject.org/materials/mp-707734,0.11277314736153325,-18.0560500567149,-17.877385689937686,-41.35433713428796
-8.053525463814433,-781.19196999,4.5466887418645445,-2.071862780944021,0.0,1.9121,160,97,1249.5401404509748,3421.3408732000003,mp-1265516,La13Al12Si18(N13O5)3,https://materialsproject.org/materials/mp-1265516,-25.835940731508913,-30.482196877384897,7.776928583323128,-1.7017125906328332
-6.0728301253333345,-546.55471128,4.591730728017766,-2.1687110266293113,0.0,2.8753,165,90,1313.8054145498022,3632.9412,mp-557372,Rb2Ge4O9,https://materialsproject.org/materials/mp-557372,-6.940045389966105,-42.89824579102996,9.323454213825503,-36.67023981706832
-7.549508630833333,-181.18820714,6.547064200960796,-3.3097135171875007,0.0,4.4623,113,24,267.6620467678377,1055.320328,mp-20778,Dy2Be2GeO7,https://materialsproject.org/materials/mp-20778,-16.391288238344828,-35.941797108831246,-14.69573836086453,-34.71273735635405
-5.3323775421666655,-319.94265253,4.24423395854402,-1.3487654856684441,1.000000075,0.3652,14,60,707.805139506564,1809.1056800000001,mp-1213465,CuAgAs2H3O8,https://materialsproject.org/materials/mp-1213465,-30.789903710218073,-29.17683421661323,-19.57516448349576,18.92207191499563
-6.5004952603125,-208.01584833,5.858231660109423,-2.462725007031251,0.0,1.8132,64,32,411.12617799680066,1450.4160000000002,mp-28288,BaGe2O5,https://materialsproject.org/materials/mp-28288,-27.432379430099825,-30.92953704450811,25.12315589807836,-12.363322135779793
-7.802403101999999,-117.03604653,5.817319589408075,-3.02196226,1.0,1.6970999999999998,1,15,219.39217228126708,768.5904099999999,mp-674986,La3(MoO5)2,https://materialsproject.org/materials/mp-674986,-11.656674314131966,-61.128921837689546,-21.61986697553633,-58.14508661545535
-3.160019950909091,-34.76021946,5.325851067279219,-0.3663987165625002,0.0001216,0.8885999999999998,8,11,396.07499990186113,1270.33235,mp-1219041,Sn3SbSe2I5,https://materialsproject.org/materials/mp-1219041,19.39055700991519,-12.962582218994072,4.8581460486326185,4.068799962393228
-3.55485834,-17.7742917,4.5661645283789,-1.3594204447,4e-07,2.0773,139,5,113.02073908082191,310.7854,mp-5860,K2HgO2,https://materialsproject.org/materials/mp-5860,1.947878576258249,-33.011357237739084,-17.772487891144156,-51.58894015674137
-8.008083147999999,-160.16166296,7.345677972006949,-3.051061273442,4.00000065,0.4026000000000001,62,20,236.7821748958954,1047.44638,mp-22055,TbMnO3,https://materialsproject.org/materials/mp-22055,9.645884574416831,-81.37301881542773,51.38773752700745,-53.463938774304765
-9.269533932,-185.39067864,7.200068925055312,-2.7996039302499995,14.052871900000001,0.0,14,20,239.16487166746987,1037.0148,mp-1211045,LiGd2RuO6,https://materialsproject.org/materials/mp-1211045,9.075880635110854,-82.69955312284209,50.285699453666446,-54.34113445187896
-7.239331759444443,-130.30797167,4.9966674820360915,-1.045767269391111,0.0008368000000000001,0.0,74,18,378.7828288910728,1139.7816,mp-1246136,Ba3(VN2)2,https://materialsproject.org/materials/mp-1246136,-6.331215804490827,-29.392235838306608,-4.830913717416747,-29.997988650574626
-6.778507026904761,-284.69729513,4.038398315662976,-2.805701750294761,3.00000855,1.0282,176,42,662.0773093047085,1610.1590064000002,mp-18859,Sr5Cr3O12F,https://materialsproject.org/materials/mp-18859,-22.718762454927052,-33.16591861344045,-7.259996590652765,-26.350860474164673
-7.558977519,-453.53865114,5.989716808131369,-3.3483470982500005,0.0,3.6011999999999995,14,60,954.12996401576,3441.6344,mp-559770,Nd4Ga2O9,https://materialsproject.org/materials/mp-559770,-11.99269225061213,-60.15823642921475,-19.832456755724717,-58.35087941792154
-7.254821422857143,-203.13499984,8.1469714060376,-1.9352117088392864,8.0,0.9843000000000002,85,28,374.8027704668876,1838.8652,mvc-10479,CaW4O9,https://materialsproject.org/materials/mvc-10479,-14.892956074435597,-46.25894948470485,-9.297093982594744,-35.957640632736165
-4.211645066428572,-117.92606186,5.798967224563893,-0.9169503882738104,0.0,1.4146999999999998,62,28,647.262819746948,2260.384,mp-619279,In2PbS4,https://materialsproject.org/materials/mp-619279,7.949072830199447,-5.236088847866826,-7.072813474758807,-13.144964144158664
-5.207450700000001,-41.659605600000006,8.029159889289888,-1.7946892818749998,0.0,1.1787,12,8,151.50844849656607,732.584738,mp-997009,BaAuO2,https://materialsproject.org/materials/mp-997009,5.748995828250214,-63.58938455955349,3.4013061982015245,-82.26672048366216
-3.7394032179545458,-164.53374159,4.3997958322985475,-0.467443215030909,0.00010555,0.7088999999999999,19,44,454.3914383904325,1203.9642,mp-1180682,LaMg2H7Pd,https://materialsproject.org/materials/mp-1180682,-25.555174690073304,-18.311175020971653,-5.380999358031417,2.7523226362653115
-7.003953752222222,-252.14233508,3.963466603430756,-3.240207403445,0.0,3.9640999999999993,20,36,544.6334078396784,1299.9612,mp-555203,Sr5B3ClO9,https://materialsproject.org/materials/mp-555203,-18.420761543328034,-31.964228919439503,-2.8062880308738536,-21.88204617099416
-7.877176014375,-126.03481623,5.067274530676864,-1.9846365164493536,13.99999975,1.0162,63,16,387.84695472889325,1183.5476,mp-12322,RbGd2CuS4,https://materialsproject.org/materials/mp-12322,15.639470714909693,-12.142564892943366,-12.573069514536044,-5.216253087953306
-2.4656155319999997,-24.65615532,4.756538255432577,0.1902277070000004,4e-07,0.11609999999999987,140,10,360.9060219699237,1033.79882,mp-1096939,CuGeI3,https://materialsproject.org/materials/mp-1096939,10.058535917652826,7.2530896388039885,-5.77396054866068,-6.520186012006398
-4.2933688173611095,-309.12255485,5.4063714031239005,-1.036552819305555,0.0,3.2428000000000003,29,72,1135.7388832774925,3697.7307200000005,mp-556578,Cd(IO3)2,https://materialsproject.org/materials/mp-556578,-50.69032360085585,-46.737822031820485,-27.84215430069983,-53.71843330305533
-8.245254302083334,-197.88610325,9.346995108276843,-0.4739529538888891,0.0048527375,0.0,91,24,362.2165851613887,2038.8780800000002,mp-570254,ThBC,https://materialsproject.org/materials/mp-570254,9.13218480725793,-60.5790635119251,8.271575727760858,-48.34963474478322
-8.454901724444445,-304.37646208,5.3460112928771535,-0.8031576216666676,15.28470585,0.0,62,36,697.8967268691304,2246.838944,mp-1213579,Gd2Sc3Si4,https://materialsproject.org/materials/mp-1213579,37.13083699006777,-14.329874044453065,14.449858464795264,-3.1404019862525065
-8.107008942391305,-372.92241135,5.790677494308362,-2.7820001640978265,0.0,1.7480000000000002,26,46,664.150063144666,2316.0424,mp-1224036,KNb5Pb2O15,https://materialsproject.org/materials/mp-1224036,-29.81225881218473,-56.258563526418705,-13.082564664276564,-49.74544989655719
-6.0869509891666675,-146.08682374,5.330864328574038,-2.0124024340364586,2.0000001,0.3699000000000003,173,24,551.0902105152816,1769.1768000000004,mp-1191745,Sm4NiS7,https://materialsproject.org/materials/mp-1191745,9.121694302190388,-6.829097378067477,-7.602025310567657,-10.593790684086008
-8.672498689444447,-468.31492923,6.8524856114936785,-3.7196991943364197,0.40488125,0.0,31,54,657.1875300916308,2711.9917,mp-778664,Tm5Ti5O17,https://materialsproject.org/materials/mp-778664,6.164994674227952,-89.38002328634016,-3.113419192736857,-50.67261567958096
-6.795267607142858,-190.267493,5.214718301510746,-2.741188757857142,2.0000001,1.891,62,28,497.5806701184826,1562.5908,mp-17520,Ba2CrO4,https://materialsproject.org/materials/mp-17520,-9.544929276112398,-31.46503277678865,-6.393103612314004,-25.857063999114605
-7.486890596666668,-134.76403074,5.058908201409913,-3.0286709604496314,0.0,2.5927,9,18,293.5462776488712,894.3021727999999,mp-677378,TiNbTl(O2F)2,https://materialsproject.org/materials/mp-677378,-48.448265787251145,-42.56733944297434,-29.989111797051983,-53.24799497792018
-4.303663393181818,-94.68059465,6.279217986905242,-0.2952477936363642,0.000122,0.010099999999999556,11,22,470.0643263092726,1777.5169999999996,mp-1178782,Yb4Si7,https://materialsproject.org/materials/mp-1178782,32.70189402669455,-24.245726825408372,3.614052926990965,0.6310824495260833
-6.879332467173913,-632.89858698,5.7111017286310615,-2.8267773464130443,0.9274024,0.0,1,92,1239.32012899955,4262.40104,mp-1224232,La12Ga23MoO56,https://materialsproject.org/materials/mp-1224232,-7.9171857921821225,-46.434493539692106,8.284044379402204,-35.46347544008287
-7.45130711625,-59.61045693,6.252208342063451,-0.6118392687499998,8.975e-05,0.0,63,8,143.37021993465788,539.8129544,mp-630019,GdAl2Ni,https://materialsproject.org/materials/mp-630019,39.74511407916203,-14.271646132021484,20.154660790238207,10.220395498671195
-7.075845786458332,-339.64059775,5.367031236699688,-2.4460702925,0.0,3.5068,60,48,834.8975863573289,2698.474,mp-19480,SmTl(MoO4)2,https://materialsproject.org/materials/mp-19480,-51.87328264649678,-51.820746212505675,-27.891563760951986,-55.210076551989204
-6.209921136749999,-248.39684547,6.222273411957465,-2.2204063604374995,0.0,3.0031,2,40,630.0858687601519,2361.0204,mp-559304,Er2Te5O13,https://materialsproject.org/materials/mp-559304,-32.10008767667841,-57.88199561016543,-24.102274240639364,-53.1538275723007
-7.551675064583333,-181.24020155,6.4161597065648355,-3.3082098192708336,0.0,4.4703,113,24,269.42241151876993,1041.021728,mp-1208513,Tb2Be2GeO7,https://materialsproject.org/materials/mp-1208513,-16.539900967902447,-35.932987001289185,-14.722233841137346,-34.661547188540055
-6.2054064470000005,-496.43251576,8.093458622495984,0.2276821984290009,4.5e-06,0.008299999999999308,14,80,1599.0779807120944,7793.89774,mp-1245542,Mn3Pb8N9,https://materialsproject.org/materials/mp-1245542,-21.0372130953137,-57.36828415160645,-11.968235701830164,-54.484983145246524
-8.03219770173913,-369.48109428,6.396210890481767,-3.1989559974078263,10.99999975,0.06289999999999996,7,46,634.6178609560569,2444.4771100000007,mp-772266,La6Mn3O14,https://materialsproject.org/materials/mp-772266,12.679027012132886,-82.70770733765008,39.665894302887416,-44.790897129176614
-4.079364212727273,-89.74601268,4.6586659174351,-1.0907734334196977,14.5232976,0.0,87,22,397.4552748244584,1115.066432,mp-1212957,Fe4AgXeF5,https://materialsproject.org/materials/mp-1212957,12.211070635728705,-18.667317181347784,4.428638975718547,-23.0435145904957
-7.754026427857142,-217.11273998,4.902449188667903,-3.3714238545952377,3.1725e-05,2.3542000000000005,57,28,399.9627470957985,1180.8195999999996,mp-1211538,KNdTiO4,https://materialsproject.org/materials/mp-1211538,12.56813539060545,-64.01522112129348,15.148750415409575,-42.660693667611255
-8.197440927666667,-245.92322783,5.033915542836867,-2.6444523346426667,0.5149007000000001,0.016300000000000203,193,30,423.96311552834527,1285.2420000000004,mp-651175,CeSiNO2,https://materialsproject.org/materials/mp-651175,-24.58663136103085,-36.59521597287972,-11.521217959164904,-21.2727420583608
-2.579446899090909,-56.74783178,8.815088946122243,-0.6083430286363636,0.0,0.0,72,22,462.17924261211976,2453.5112,mp-23543,Hg5(BrO2)2,https://materialsproject.org/materials/mp-23543,2.9810927464618477,-52.90355801675054,6.3564494928848525,-33.587760518529755
-6.0330359875,-144.7928637,4.924235991423638,-1.8633096550781252,3.99999995,0.0,173,24,527.9134774550807,1565.4979999999998,mp-1191574,Nd3GaFeS7,https://materialsproject.org/materials/mp-1191574,11.976782476940091,-14.368968029309528,0.8842791453127822,-3.650054244968093
-7.171274014807692,-372.90624877,3.8727728046216576,-2.7275336051373644,8.00087855,3.659,14,52,667.6036806052614,1557.010896,mp-542976,SrFe2(PO4)2,https://materialsproject.org/materials/mp-542976,-24.515938093191977,-33.711271947298414,-12.958745162340408,16.701669044546563
-7.24096376173913,-166.54216652,5.709964848144442,-2.9272216010869574,0.9987821,0.0,150,23,314.7277085102162,1082.22939,mp-1211276,La3NbGa5O14,https://materialsproject.org/materials/mp-1211276,-7.9117541180590365,-46.43329182821873,8.139880536225348,-35.462589501320856
-4.14602404625,-99.50457711,7.574232651963192,-0.8463406638802086,4e-07,0.0,62,24,596.9040129273982,2722.664,mp-1178694,YbCuPbSe3,https://materialsproject.org/materials/mp-1178694,33.17500338114209,-17.757386019282038,14.930225647385726,0.3820502418398144
-5.26456002625,-168.46592084,5.411799490807032,-1.6460950880729168,3.525e-05,1.9753000000000005,4,32,791.2907739814335,2578.8656,mp-1205094,SmAgS2,https://materialsproject.org/materials/mp-1205094,18.364918928953465,9.07533583313216,-6.432625412692858,-21.720398549265852
-7.786763873888888,-140.16174973,5.968729110654326,-3.5151794248611106,1e-07,3.9214999999999987,15,18,209.1179551677568,751.664608,mp-28072,La2Be2O5,https://materialsproject.org/materials/mp-28072,-17.624755953045106,-33.067381263474964,-17.887522414342502,-34.91176518031053
-4.416888958,-66.25333437,7.543003983098531,-2.2228970113013338,0.0,2.9883999999999995,160,15,317.4012404163715,1441.7961655999998,mp-540938,Pb5(IF4)2,https://materialsproject.org/materials/mp-540938,9.179035348544158,-22.693982781615404,-19.756264425057726,-51.681106571090936
-7.710768181500001,-154.21536363,8.058723979700982,-2.9490332067500007,0.99999975,0.8577000000000004,14,20,221.42689659665973,1074.6018,mp-1225732,Er2VFeO6,https://materialsproject.org/materials/mp-1225732,9.059289830467538,-80.636644238937,52.057890168184954,-51.95786451993187
-3.71437454609375,-237.71997095,4.816508462016691,-1.3014440090786636,0.0,1.2244,19,64,1883.24584919155,5462.484982399999,mp-559984,Rb8AlAu3O4,https://materialsproject.org/materials/mp-559984,3.989121266170636,-31.780406377972827,-2.7322168965272415,-27.648120117233816
-8.3117285545,-166.23457109,7.190607321098152,-3.3009311960000005,8.0000007,1.4955999999999996,6,20,222.99126009964317,965.6157119999999,mp-1222459,Lu3ScV4O12,https://materialsproject.org/materials/mp-1222459,8.166875841691747,-84.84671342688728,-3.407076470227272,-50.215332697112906
-6.686606674285714,-93.61249344,5.110857369597563,-1.896350801071428,12.0000001,0.0,162,14,223.91104547774097,689.1601999999998,mvc-966,BaCa(MoO2)4,https://materialsproject.org/materials/mvc-966,-3.6161414896040047,-45.50438910747382,18.267076735730754,-71.3861476429897
-6.972900597333332,-104.59350896,6.276143992955816,-2.5196669547499986,2.999998,0.0,121,15,249.59361135069042,943.3596,mp-1226848,Ce4Cu3(SO)4,https://materialsproject.org/materials/mp-1226848,19.979452996050167,-40.80859310873819,14.689924658882004,-43.13583671403329
-7.134077793777777,-642.06700144,3.8794080937081716,-3.2648216967407415,0.0,4.0292,9,90,1342.5002808351705,3136.395068,mp-1218791,Sr9In(PO4)7,https://materialsproject.org/materials/mp-1218791,-20.975751947360035,-32.899056719404946,-18.734391378919454,-29.35292359025839
-5.317527579285715,-74.44538611,4.522757117688219,-2.1985561671243845,0.0,2.2607,12,14,393.30813976590883,1071.2408114,mp-755541,Cs3YO3,https://materialsproject.org/materials/mp-755541,-5.474480625062072,-27.568718904961273,-25.945033900369523,-49.607973492924486
-5.83941786482143,-327.00740043,4.2201457775566285,-1.5237546214285729,7.0000000125,0.3843999999999994,70,56,1321.0508937826826,3357.36,mp-1181942,Eu(GaS2)2,https://materialsproject.org/materials/mp-1181942,-2.624340176786835,-11.367845434093434,-9.642498525254108,-11.204300656422891
-7.0994761089999985,-141.98952218,5.389646187882358,-2.954953074375,0.0,2.3612,14,20,446.0577067358371,1447.7787999999996,mp-753879,Pr2S2O,https://materialsproject.org/materials/mp-753879,10.630278726243425,-5.8833845881578,-7.743964621479597,-19.700055290754648
-5.779125157999999,-231.16500632,4.570626889099039,-2.7772654092916675,9.82e-05,3.7496,2,40,1032.5206320557506,2842.0088,mp-1200496,Ba3B(BrO)3,https://materialsproject.org/materials/mp-1200496,6.292844710808831,-29.436144852465898,4.7510517317530585,-27.872925500873514
-2.774594885625,-88.78703634,3.8961347961694086,-0.2616299282974137,6.25e-09,0.7438000000000002,142,32,1392.334611562838,3266.8448,mp-11054,RbSn,https://materialsproject.org/materials/mp-11054,2.0254991184382165,-9.022275912238918,-9.888555645611499,-20.9017928344317
-6.926320220510204,-678.77938161,5.0962788828000525,-2.3538717497339645,3.99999835,0.9569,31,98,1455.655550799274,4467.48102,mp-1217668,Tl6V7P5O31,https://materialsproject.org/materials/mp-1217668,-32.96477844840889,-30.457389975088887,-22.1133106668373,-29.18369688093174
-5.657466335,-101.83439403,4.664438921883789,-1.9542971530266664,0.0,2.1032,4,18,313.8212319150928,881.5209599999997,mp-696946,BaSn2(HO2)2,https://materialsproject.org/materials/mp-696946,-25.83941047051617,-48.21503464641502,-17.300067867724106,-52.8066445468234
-6.89401838,-68.9401838,5.517988162169126,-2.477570711442,3.0000001,1.9077,186,10,144.6057825694032,480.52649,mp-1205336,BaMnO3,https://materialsproject.org/materials/mp-1205336,-8.485986589904103,-81.80395135821287,7.706687216787118,-19.569154609809942
-4.5940214474999985,-91.88042895,5.965355699527406,-0.90616675375,4.510040900000001,0.0,5,20,309.03586442406584,1110.187,mvc-370,BaTl(NiO3)2,https://materialsproject.org/materials/mvc-370,7.407166486358912,-62.79801410955948,9.224295748698623,-44.138963169900414
-5.15089153,-77.26337295,3.156934404312851,-2.349939609830461,1.205898,0.0,99,15,209.17453923101016,397.6722519,mp-1099243,CsLiMg6O7,https://materialsproject.org/materials/mp-1099243,-12.398066845508758,-19.7448579024164,-15.709593250297791,-9.548658228321012
-4.5100737366666666,-40.59066363,4.739382046162514,-1.0453092809626443,0.0,1.3521,69,9,249.93001253348785,713.3309038,mp-510268,Cs2Pd3S4,https://materialsproject.org/materials/mp-510268,-3.9745328580296366,-10.477531866361367,-24.11785839984481,-33.51061764601275
-2.380571568333333,-28.56685882,2.84269638231627,-0.008501601666666579,0.117713275,0.0,15,12,472.5045722970314,808.8861544,mp-1102672,Sr2Al,https://materialsproject.org/materials/mp-1102672,2.8093201583949807,-28.7778653205966,-5.563548099742995,-29.543553809335176
-4.026225453888888,-72.47205817,5.951823689213435,-0.8316934551388893,3.6000000000000003e-06,1.9781000000000004,9,18,543.4178450229477,1947.7574,mp-8479,Tl4SiS4,https://materialsproject.org/materials/mp-8479,-0.621054224254303,-21.996741599374648,-13.898894370548556,-29.148912269983764
-5.2704792975,-42.16383438,4.412899279648814,-1.8713020294612068,0.0,2.2566,15,8,180.03814885984778,478.4532,mp-10418,RbSbO2,https://materialsproject.org/materials/mp-10418,-6.1235708828193465,-31.117395336975257,-29.30891276023825,-8.534272657207811