energy_per_atom,energy,density,formation_energy_per_atom,total_magnetization,band_gap,sgr,num_sites,cell_volume,weight,mp_id,formula,URL,tsne_cry_0,tsne_cry_1,tsne_xrd_0,tsne_xrd_1
-7.979409857692307,-207.4646563,6.555696221964731,-3.4579890186369235,2.0,0.0,176,26,407.1251259369751,1607.3025600000005,mp-558609,Ce3Ta(ClO2)3,https://materialsproject.org/materials/mp-558609,-1.5429479878290224,-59.87152792404696,-0.8130129731695152,-49.55542260496054
-6.941355371,-138.82710742,5.8182795560286245,-2.7296359551875002,0.0,1.7863000000000009,62,20,515.695994253311,1806.92136,mp-752418,La2Se2O,https://materialsproject.org/materials/mp-752418,28.33222820991356,-19.22419010077905,16.055177510835186,1.950769731711255
-4.8265793225,-19.30631729,7.254864198757697,-0.25445849999999925,3.0384455000000004,0.0,164,4,117.09351718881815,511.5794,mp-4638,TlCrTe2,https://materialsproject.org/materials/mp-4638,5.187603014546446,-31.69182910596364,3.8156674079427417,-58.61016705124065
-7.037321283461537,-182.97035337,5.895960290491713,-2.6739775049999994,0.9999998999999999,0.5230000000000001,8,26,348.46573219823614,1237.2730000000001,mp-1209738,Pr2Cu(GeO4)2,https://materialsproject.org/materials/mp-1209738,-8.815149121326408,-47.684587508386,-3.8310755045393803,-51.859504113467224
-4.3894182925,-140.46138536,6.487252771586674,-1.036685698955078,1.5e-07,1.9291,4,32,511.2448697312498,1997.2879999999998,mp-542115,Hg3Se3O10,https://materialsproject.org/materials/mp-542115,-24.76131793418428,-47.43520190130712,-13.835729023443749,-56.693052807100926
-6.626895563333334,-39.76137338,6.66802886649295,-0.6636103255555561,0.03137205,0.0,129,6,121.13390593024572,486.423,mp-20918,ErTiSi,https://materialsproject.org/materials/mp-20918,37.7990192391045,-14.131830844174033,14.463810817480498,-17.013567932678008
-5.457571042173912,-125.52413397,6.511940627652166,-1.7594384249999997,11.3775094,0.0,139,23,301.93454264452635,1184.0611800000001,mvc-29,Ba2Mg3Tl2(CoO3)4,https://materialsproject.org/materials/mvc-29,9.330576480164517,-63.960845501214024,10.533665979220006,-45.395522778462926
-3.2816668640000004,-65.63333728,3.246622931321633,-1.5756941486088971,0.000106775,1.2271999999999998,62,20,629.8317795498724,1231.4232,mp-755428,Rb3ClO,https://materialsproject.org/materials/mp-755428,-1.5295350606983091,-29.97065028770978,-6.429415262597676,-31.08761891063607
-6.3359673914583325,-912.37930437,6.374871071520604,-1.802849164375,3.99999985,0.3849999999999998,1,144,2124.5538346320327,8156.2411084800015,mp-1099945,KNaW2O5,https://materialsproject.org/materials/mp-1099945,-31.692744130586387,-74.65827947971836,-22.353819428528496,-24.3403933064308
-7.43315167016129,-921.7108071,5.644530826293327,-0.33385045596774204,9.025e-06,0.0,92,124,1918.6566709560461,6521.928400000002,mp-570357,La10(B3C4)3,https://materialsproject.org/materials/mp-570357,9.871121826561227,-59.65215146287561,-1.2947130332295589,-32.94169718573438
-7.2018582150000015,-100.82601501,7.974344250819257,-0.26696556595238163,0.88544505,0.0,140,14,276.68910403279585,1328.73369,mp-569743,Ti4MnBi2,https://materialsproject.org/materials/mp-569743,39.533471504303826,-8.180464177332583,1.1347744860805271,-12.209975371053838
-7.965291340555557,-143.37524413,6.451665353999176,-2.6853143086388886,1.95e-06,0.0,46,18,251.13856774708316,975.74459712,mp-1075952,Na2Ta2O5,https://materialsproject.org/materials/mp-1075952,-36.28456263707768,-82.70581928797847,33.64536691473267,-63.71314232017729
-9.285427926666664,-55.71256756,10.481104363380826,-2.3998378286979167,2.9999981,0.0,129,6,105.18577514042966,663.9187999999998,mp-1018828,NpSeO,https://materialsproject.org/materials/mp-1018828,9.733482753348738,-68.76922329069143,3.17662248898839,-49.27887062590091
-5.866419557894738,-222.9239432,7.33412309978404,-1.6790569218421056,9.999999699999998,1.5309,9,38,534.5527335111767,2360.9655999999995,mp-1225390,Fe2Te2(PbO4)3,https://materialsproject.org/materials/mp-1225390,-14.752424957829936,-51.983389521404725,-13.899079421610875,-49.291817995456256
-3.730680764166667,-44.76816917,7.096506848464786,-0.9925071635416672,0.0,2.3235,28,12,269.9251163910662,1153.5564,mp-29510,Hg2TeO3,https://materialsproject.org/materials/mp-29510,3.741563575048212,-7.7126733990856975,-21.764768102044506,-38.74353354478018
-7.945518742380951,-333.71178718,5.291578406878059,-3.533465426372023,0.0,3.1152,143,42,598.6786765759216,1907.78721928,mp-1221010,NaPr9Si6(SO12)2,https://materialsproject.org/materials/mp-1221010,-19.33829695222345,-34.37673341052419,-11.132426193688193,-34.11956540083279
-6.067262838611112,-218.42146219,5.187723629688429,-2.7708982179022223,0.000248,4.0392,62,36,645.2607958063869,2015.8723144,mp-707218,Ba3AlHO4,https://materialsproject.org/materials/mp-707218,-9.131114563949373,-32.14513647228132,-5.7508573105779455,-24.528174299234113
-6.962050425238094,-292.40611786,4.420913124111259,-2.8433307094047624,14.999982000000001,2.8965,1,42,652.2600729042912,1736.535575,mp-1120751,Ba6ZnCo5(SiO4)6,https://materialsproject.org/materials/mp-1120751,-25.746517471568648,-28.29459657087035,-9.836678770684005,-25.143207673002962
-8.895601881764705,-151.22523199,6.857603792209034,-3.580799718455882,0.0,3.0179,71,17,250.1322382376424,1032.98251,mp-557028,Sr2LaTa3O11,https://materialsproject.org/materials/mp-557028,-32.176651206249545,-68.06531371265905,-6.176214877553142,-55.538978220013256
-5.224313962619048,-219.42118643,7.721340844049652,-1.632398595573096,0.0,0.6150000000000002,8,42,836.6856529440689,3890.5048,mp-1228274,Bi13Pb3Cl7O19,https://materialsproject.org/materials/mp-1228274,-19.352829819495284,-55.434221981928246,-11.905373459158506,-58.880543411397724
-5.9548144320833325,-142.91554637,6.166046922510349,-2.252185922708333,2e-07,0.33409999999999984,129,24,430.6103138399877,1598.9768,mp-556060,NdTeBrO3,https://materialsproject.org/materials/mp-556060,18.758033086498887,-58.56852336097122,17.067526039281212,-64.5902776090374
-3.815073845,-68.67132921,6.152731261009297,-0.7097163973611116,0.0,1.8848000000000005,9,18,549.7227219882543,2036.8664,mp-17207,Tl4GeS4,https://materialsproject.org/materials/mp-17207,-0.6413561860780475,-22.28597369854832,-13.901997319105678,-29.17802376905401
-5.710811026071428,-159.90270873,5.497665656637055,-1.887284145357143,0.0,1.4629000000000003,62,28,400.9006120545757,1327.2904,mvc-5732,Mg(SbO2)2,https://materialsproject.org/materials/mvc-5732,-1.4240628768287669,-49.54134639143335,-6.1690065292108685,1.1660741376468933
-5.839082958333332,-210.20698650000003,5.32686188352325,-0.6908355891666665,1.955e-05,0.014499999999999956,92,36,1006.0993396496617,3227.4774,mp-18345,La5Si4,https://materialsproject.org/materials/mp-18345,33.43289053223645,-39.95134637276338,20.1918399653968,-18.320747074128988
-6.8456164589999995,-136.91232918,6.998729659453915,-0.589312945333333,1e-07,0.0,127,20,199.7782263613788,842.012,mp-2847,ErB4,https://materialsproject.org/materials/mp-2847,7.956909122624934,-59.27659973054975,4.563421703778486,-48.84491133288137
-5.550727486666666,-33.30436492,5.248067215509324,-0.9344464646875004,0.0017442,0.0,129,6,142.53431459382782,450.474,mp-1096808,BaFeS,https://materialsproject.org/materials/mp-1096808,18.31028994452923,-46.99493455046108,15.557039026776824,-17.584874160628537
-7.478005633333333,-717.8885408,5.549496946493171,-0.3387922304600697,0.00673885,0.0,14,96,1474.0575915515574,4926.2787,mp-679949,La15B14C19,https://materialsproject.org/materials/mp-679949,9.862284246683995,-59.64770687090199,-1.3179103097227478,-32.96991491957467
-4.044990413055555,-145.61965487,8.291579118286155,-1.0793249629166672,2.2225e-05,1.4238,14,36,606.1624419174141,3026.7544,mp-1203433,Hg3AsO5,https://materialsproject.org/materials/mp-1203433,-21.431068133263718,-56.899107625002145,-14.60680466076632,-48.323669376943776
-4.600552723333333,-13.80165817,4.141738968949261,-0.3421433933333334,0.0,0.0,164,3,77.57876234373963,193.498,mp-7655,BaSi2,https://materialsproject.org/materials/mp-7655,0.6685973907112847,-24.927259368810862,-10.84686612824066,-5.479941124902604
-4.271079373,-42.71079373,3.605934445262148,-0.7347578810848212,3e-06,2.3394,146,10,276.342722742874,600.0905240000001,mp-1227124,CaMg(PSe3)2,https://materialsproject.org/materials/mp-1227124,-1.3972125578025747,-25.503721858094767,-8.15284327371458,-26.95818355474902
-6.809259329166667,-245.13333585,5.5772929793972095,-2.7812653115005563,0.0,3.3658,20,36,618.2475716809843,2076.5232,mp-1195317,Ba3B3Pb2ClO9,https://materialsproject.org/materials/mp-1195317,-23.773176896797317,-26.266681086248642,-20.214784878113967,-35.61446541900506
-4.7243931755,-94.48786351,6.175814340477793,-2.0342069099375,1.635e-05,1.7523000000000004,62,20,475.6716205682969,1769.1,mp-1105888,Yb2S3,https://materialsproject.org/materials/mp-1105888,8.546804186319983,-6.1857839096082925,-4.342362534777049,-12.178650319046884
-6.619935946666666,-39.71961568,7.0915338278444935,-0.6704981672222216,5.2e-06,0.0,129,6,117.50959263884,501.83900000000006,mp-20478,LuTiSi,https://materialsproject.org/materials/mp-20478,37.79722482961905,-14.119944118584733,14.467577368019926,-16.907099542845398
-7.376401744642857,-206.53924885,4.021503179044984,-2.8337260688392854,1.0,1.7399,1,28,389.84057942404297,944.1182,mp-675355,Sr2V3O9,https://materialsproject.org/materials/mp-675355,-23.515296468852124,-33.236938524089425,-0.02307793024815217,-31.74645950974851
-7.592874492000001,-37.96437246,6.706178770172813,-3.2983703042187513,0.0,2.1752,164,5,98.90734893573669,399.4428,mp-13971,Nd2SeO2,https://materialsproject.org/materials/mp-13971,24.483184240206032,-41.03420953496219,20.1444294108948,-36.71207460046973
-9.482683031785713,-265.51512489,6.62789574770092,-3.3523629675000004,13.999999300000002,0.3787999999999992,62,28,396.8631474334514,1584.0444,mp-504653,Eu2SiO4,https://materialsproject.org/materials/mp-504653,14.26854988062393,-64.94834596642487,15.974211692803431,-39.19640918458954
-6.340421196153847,-82.42547555,6.378491070355755,-2.3204723454807694,5.2554176,0.0,123,13,181.81511465269352,698.39134,mp-1239306,Sr2YTlCo2O7,https://materialsproject.org/materials/mp-1239306,10.693454980875085,-67.73849193677324,39.8115354435584,-50.04342008712875
-6.506185977142858,-91.08660368,6.434336133981308,-2.4754416885267863,1.9999153000000003,0.0,137,14,300.6888642338007,1165.1236,mp-1103370,Ce2Cd(SeO)2,https://materialsproject.org/materials/mp-1103370,21.67264493695628,-40.355498287984226,19.40854419282886,-39.798221077812855
-6.845227615500001,-136.90455231,5.5841885623421765,-0.545670049833334,0.0,0.0,127,20,219.0406005753917,736.6066,mp-12569,PrB4,https://materialsproject.org/materials/mp-12569,8.021882559117735,-59.58155397988846,4.370026324516467,-48.843487184543115
-6.4913830315384615,-84.38797941,5.280596768357091,-2.309637689326924,13.000097300000002,0.3605,1,13,182.75385080754933,581.1663386,mvc-1357,Ba2AlFe3O7,https://materialsproject.org/materials/mvc-1357,18.412644702026345,-48.42715807367823,17.749021120601338,-23.379501730302447
-7.661685687499999,-214.52719925,4.38530579825812,-2.356971009251429,0.0,3.0104999999999995,60,28,383.9764919522084,1014.0408,mp-6764,BaSi2(NO)2,https://materialsproject.org/materials/mp-6764,-27.591169661070882,-30.09345550203672,13.405655233741502,-17.83331477282129
-6.9322622575,-194.10334321,5.337985205170373,-2.5831079160714294,1.7225e-05,1.9096,2,28,503.66537157481997,1619.08768,mp-1193901,HoMoBrO4,https://materialsproject.org/materials/mp-1193901,-31.773501654274426,-34.04380665532243,-37.430986213765976,-24.66576745584465
-7.3056055935,-146.11211187,7.116867617214817,-0.6283616088333333,0.05488775,0.0,65,20,214.02478926931943,917.2841199999999,mp-1226547,CeThB8,https://materialsproject.org/materials/mp-1226547,7.883111600690472,-59.407789187130156,4.4411529163489964,-48.78997520545008
-5.8147527766666665,-87.22129165,3.8210300655794764,-2.4693076847729887,0.8410521999999999,0.0,99,15,226.75614254826442,521.7836,mp-1033646,RbHfMg6O7,https://materialsproject.org/materials/mp-1033646,-12.318848431450732,-19.30036270570236,-19.882526193276703,8.266360829270718
-5.6012522125,-89.6200354,4.5775789505881646,-1.2533330079687506,0.0,0.07540000000000012,1,16,264.44924066377143,729.0025999999998,mp-677647,BaSrCuCO4,https://materialsproject.org/materials/mp-677647,12.64277566373553,-18.48355535795164,-2.2515979752212494,-25.90615966258757
-6.760196315384616,-87.8825521,5.610202337256402,-2.2200219016346154,17.0018054,0.0,216,13,188.01087452990842,635.2028,mp-1104410,BaDyFe4O7,https://materialsproject.org/materials/mp-1104410,-3.2443749277877414,-44.504418470450176,8.451263070760943,-39.21777309889632
-8.448640305833333,-202.76736734,5.749939098805612,-1.5711246805649992,9e-06,2.1399,2,24,307.96227504784787,1066.37922,mp-29597,LaBN2,https://materialsproject.org/materials/mp-29597,11.660637504887012,-60.3128284322048,-0.577935112690814,-35.42087855378357
-5.532193456666668,-16.59658037,7.8402292552053705,-0.2264355441266671,0.0,0.0,187,3,45.7549211956266,216.0317,mp-1245578,LiPtN,https://materialsproject.org/materials/mp-1245578,-64.24475714015435,-55.49692823620195,-36.936862612644255,-59.79677468178637
-8.836899098846152,-229.75937657,6.697221227600106,-3.3290657091346163,2.00000005,0.20150000000000026,14,26,388.62882384283597,1567.4026,mp-1180706,La2Ta2O9,https://materialsproject.org/materials/mp-1180706,-32.13601187911928,-54.50509628959826,-23.581678101395568,-33.93115542547069
-5.379622673571428,-75.31471743,4.497805419409046,-2.279915132124384,0.0,2.7287,12,14,363.0383844120044,983.3409354,mp-756505,Cs3ScO3,https://materialsproject.org/materials/mp-756505,-5.636936251958183,-28.854662630002252,-6.336700044858418,-30.478372915301534
-6.763484326458332,-324.64724767,4.713947246256637,-3.5265650935291664,0.0,4.3625,186,48,728.3913187321158,2067.761232,mp-1182538,Ba3Sr4B3O9F5,https://materialsproject.org/materials/mp-1182538,-18.13462936716972,-32.269855630314744,-0.6619735663025891,-14.100750345809535
-3.923334301666667,-70.62001743,7.7812010015402695,-1.135002915925926,3.5000000000000004e-06,1.3413,125,18,349.2317251179309,1636.4820000000002,mp-557862,BaAg2(HgO2)2,https://materialsproject.org/materials/mp-557862,23.839577925075485,-23.02311876849717,15.126675515415453,-2.0808824229937466
-5.093121311428571,-35.65184918,5.410371231605409,-1.210554544072857,0.0,0.4722999999999997,123,7,160.0277814408683,521.4028,mp-545788,Ba3ZnN2O,https://materialsproject.org/materials/mp-545788,-0.056299096593274436,-31.526286463367306,17.738266620090023,-70.94614403728393
-4.031269203333333,-72.56284566,6.129353826777575,-0.6090964845833334,0.0,0.22280000000000036,72,18,424.1613353269108,1565.6572,mp-18240,Tl2Cu2SnS4,https://materialsproject.org/materials/mp-18240,9.072564603072706,-23.77346430117501,4.168230593114884,-34.94938749860469
-6.774727515384615,-176.14291540000002,5.319865074567083,-1.1491847359702565,0.0,1.4765,2,26,540.8807483081688,1732.8184,mp-28926,Ba5(TiN3)2,https://materialsproject.org/materials/mp-28926,-3.364152496771968,-32.15270189526829,-2.2437292976569365,-30.43401404131429
-8.837522737692307,-114.88779559,6.700895927310215,-3.3296893479807697,2.0000011000000004,0.2240000000000002,12,13,194.20785197467305,783.7013,mp-1104362,La2Ta2O9,https://materialsproject.org/materials/mp-1104362,-32.15410312417449,-54.492661901573655,-23.596607517002784,-33.9083969903826
-5.742885705625,-91.88617129,3.41196150367118,-2.6330082988254304,7.7e-05,0.0,1,16,211.61704042546663,434.81615189999997,mp-1257226,CsMg6SiO8,https://materialsproject.org/materials/mp-1257226,-12.334654191549854,-19.54252220809867,-19.044017000411092,-10.560494122530903
-7.127184079791667,-342.10483583,4.77892819848089,-2.6223548035704014,0.000836525,3.5969,60,48,795.8503964837352,2290.408,mp-1209587,RbEr(MoO4)2,https://materialsproject.org/materials/mp-1209587,-50.6677830868974,-53.29322581062204,-24.57350097097513,-56.694062654817756
-5.8755372533333325,-70.50644704,6.981489860517763,-2.0458985143750006,5.0,0.33420000000000005,10,12,191.4748073372633,805.0274,mp-1218844,Sr2FeCu(PbO3)2,https://materialsproject.org/materials/mp-1218844,10.414559562117304,-66.96953729907732,41.10915132884175,-51.72882745421441
-6.8678757315909085,-302.18653219,3.7238009789871582,-2.713075288457792,2.0000006999999997,3.7059,14,44,571.2429810565758,1281.026896,mp-17551,SrNiP2O7,https://materialsproject.org/materials/mp-17551,-24.69519512080081,-32.555068587236775,-2.760862693903908,-25.92676532092566
-10.286096804285714,-288.01071052,6.1526075011976,-1.0338512923057144,34.51352695,0.0,12,28,520.7150006334465,1929.3464,mp-866789,Gd5(C2Cl)3,https://materialsproject.org/materials/mp-866789,17.991164951511625,-42.94026242230675,-3.4353135295031625,-25.8953344986943
-5.799918573333334,-69.59902288,5.862031530620196,-0.6571196288766673,0.0007116000000000001,0.0,194,12,198.1199377572489,699.4025999999999,mp-567730,Pr2B3Cl,https://materialsproject.org/materials/mp-567730,7.244162874605753,-34.29827903853697,13.180091686743832,-17.216413923473834
-3.8291497633333336,-11.48744929,8.187822488115552,0.2652333370833333,0.0116486,0.0,166,3,72.62292118252577,358.0907,mp-1215848,Yb2C,https://materialsproject.org/materials/mp-1215848,25.433258548739246,-41.64201280011288,20.263024065887393,-35.2681882732357
-6.76129361375,-162.27104673,8.676420300079206,-1.9868129575,1.15e-06,2.8187,15,24,347.95331026434377,1818.0778,mp-1208096,TlBi(WO4)2,https://materialsproject.org/materials/mp-1208096,-47.34767046412639,-56.34246551743365,-19.97661111741841,-61.460849177443244
-6.608904334999999,-39.65342601,5.338145771049022,-3.062533859583333,0.0,3.5535,166,6,147.32980720049386,473.6221,mp-756702,PrBrO,https://materialsproject.org/materials/mp-756702,23.13145839578187,-8.8071348280619,11.291208947551446,-16.278851099180546
-7.495459096666668,-179.89101832,7.843242300771681,-2.5068835058333327,0.0,3.0698000000000003,15,24,334.0725822570405,1577.9287,mp-1207646,YTl(WO4)2,https://materialsproject.org/materials/mp-1207646,-47.5642369151006,-56.47065967955631,-20.874122051236668,-61.427432246423336
-6.452553889722222,-232.29194003,4.473199809738509,-1.8828568726215291,0.0,2.305,173,36,524.993924810555,1414.2412,mp-645272,TlV3(SeO6)2,https://materialsproject.org/materials/mp-645272,-32.64238940235312,-30.600572035848568,-30.054802190856837,-19.74290253306472
-8.108814031052631,-308.13493318,5.161299507294659,-3.315827511907896,4.5e-07,0.6413000000000002,5,38,614.8097592328556,1910.9561600000002,mp-1223217,La4Ti3(SO2)4,https://materialsproject.org/materials/mp-1223217,13.34970661523758,-17.166780861981927,-17.10615152816139,-28.47972348380187
-6.625869519999998,-39.75521712,6.5616765404766015,-0.6590340855555551,0.11168965,0.0,129,6,121.91863594856184,481.76564,mp-22274,HoTiSi,https://materialsproject.org/materials/mp-22274,37.81673386410671,-14.122743463080607,14.457938333451624,-16.999728521545688
-6.840167514999999,-150.48368533,5.014812315492291,-2.146681747386364,0.0,2.1395,157,22,361.540527585423,1091.849,mp-1192129,Tl3V5O14,https://materialsproject.org/materials/mp-1192129,-33.83799169280324,-29.131738088397583,-34.3541463627296,-19.37920861654288
-6.1705718491666675,-148.09372438,7.972321703231,-1.7060528975,0.0,2.1413,64,24,260.9820465405733,1252.9864,mp-645124,ZnWO4,https://materialsproject.org/materials/mp-645124,7.802514392497954,-77.49906273821698,15.689527418976278,-35.14403969536392
-5.7044800875,-68.45376105,6.756781645713249,-1.6143643749999992,0.0,2.2196,15,12,177.20571307119926,721.0552,mp-19363,HgMoO4,https://materialsproject.org/materials/mp-19363,-28.429732165253586,-56.47248993484281,-13.258328724472587,-53.88578427473009
-9.859428110714287,-276.0639871,5.9959632784222245,-3.5350569471428592,20.999999600000002,2.1819,46,28,407.5602573877427,1471.6404,mp-1224744,Gd3Si2BrO8,https://materialsproject.org/materials/mp-1224744,-21.09930268626244,-36.77301879050061,-16.20970807662654,-33.28057747025719