energy_per_atom,energy,density,formation_energy_per_atom,total_magnetization,band_gap,sgr,num_sites,cell_volume,weight,mp_id,formula,URL,tsne_cry_0,tsne_cry_1,tsne_xrd_0,tsne_xrd_1
-7.485291529583333,-179.64699671,7.757557533333904,-1.823570205138889,1.00000005,0.4934000000000001,12,24,325.7022939619515,1521.5867999999996,mp-1212867,GdAg(WO4)2,https://materialsproject.org/materials/mp-1212867,-31.64492552070912,-55.22281394979312,-12.580635582219776,-50.79265812204913
-6.940608643999998,-69.40608644,6.85798555269844,-0.27324100216666664,3.929999999999999e-05,0.0,131,10,105.900579786743,437.3668,mp-1086653,Yb(BC)2,https://materialsproject.org/materials/mp-1086653,6.770964340139176,-57.00904577234667,7.380754699791305,-51.306641268007716
-5.271270991111111,-284.64863352,4.507007387684483,-1.7650815989236108,4.666778833333333,0.3849,174,54,1388.5966923842914,3768.906,mp-1228708,Ba3FeS5,https://materialsproject.org/materials/mp-1228708,4.1067282456206335,-21.193940385948736,-0.17189824136663198,3.280320973969888
-6.434202763725492,-328.14434095,4.167786283700657,-2.018484287454511,28.0000005,0.4822,1,51,820.1707966164529,2058.5463600000003,mp-698650,Sr13Mn8O30,https://materialsproject.org/materials/mp-698650,12.306211640907607,-18.14879906417857,2.7334346704640886,-23.736059652211424
-3.3777698909375,-216.17727302,7.6262541032870805,-0.38455834603515626,1.25e-08,0.6625000000000001,4,64,2043.4848836102544,9384.9856,mp-531170,Tl4SnSe3,https://materialsproject.org/materials/mp-531170,39.377729521764884,-43.98778070838612,4.899421016087065,-33.02973853373197
-6.040410446071428,-169.13149249,3.628279944895656,-2.525436959283955,0.0,3.7028,4,28,450.06501936276,983.392648,mp-18463,RbZnPO4,https://materialsproject.org/materials/mp-18463,-34.9757365123372,-22.041706030741988,-7.3128742119017875,-28.568214905087558
-7.213939523055557,-259.70182283,6.7658143292298565,-2.9990945794444457,0.0,3.0346999999999995,19,36,514.7335171471432,2097.2656,mp-772900,Sm2TeO6,https://materialsproject.org/materials/mp-772900,-29.25018285727595,-58.636180469912205,-11.091835622489253,-48.97821762610725
-5.26187523,-126.28500552,5.2581100635178695,-2.006155486354167,0.000138875,2.0454000000000003,61,24,757.6222771261089,2399.01696,mp-1209328,PrSI,https://materialsproject.org/materials/mp-1209328,18.06342750682781,-15.188188810347919,3.5885088285292204,0.6674697753115023
-7.331585978571428,-205.2844074,6.013157046497072,-2.8037674936799992,0.0,3.1704,62,28,466.35938582577245,1688.78428,mp-558773,LaWClO4,https://materialsproject.org/materials/mp-558773,-52.42471358581335,-49.928611586110364,-29.28242774898245,-51.5926464569191
-5.1945434155555565,-187.00356296,6.052504817181112,-0.4070560373540744,0.002673575,0.9989,52,36,765.6101405325238,2790.5752,mp-1246176,Ba3(InN2)2,https://materialsproject.org/materials/mp-1246176,-2.6994438602988886,-32.56623451374673,-0.09907478160836124,-30.636306678244253
-7.5098639533333325,-45.05918372,4.967870408645916,-1.5035128241266662,1e-07,1.2218,59,6,155.18501113522547,464.27034,mp-23052,ZrIN,https://materialsproject.org/materials/mp-23052,22.6664721255261,-10.155039716503254,-0.7037066290086432,-6.4235076233792014
-5.427297049615384,-141.10972329,6.023620087747656,-1.84979427158654,1.9999995,1.2614,155,26,374.2017044304715,1357.42,mp-541426,Ba6(NiO3)5,https://materialsproject.org/materials/mp-541426,-8.505235121812033,-81.27015686254947,17.779981739539803,-73.03810979289194
-6.365189004166666,-305.52907220000003,5.460276426028623,-2.488232060114791,5.000000166666667,0.0,150,48,753.7447959840148,2478.50537784,mp-554477,Ba4NaMn2O9,https://materialsproject.org/materials/mp-554477,-16.47289075723976,-81.62856132184564,16.457995591822026,-72.5216105237874
-5.230132225,-209.205289,5.337929529350769,-1.2459416302500004,0.0,0.001000000000000334,62,40,595.1495284545152,1913.1536,mp-4320,CuTeO3,https://materialsproject.org/materials/mp-4320,-41.55592461578343,-44.872804650851116,-17.956645799526218,18.208489614804503
-6.779836588148148,-366.11117576,5.721605863393308,-2.790788574305555,19.99999915,2.3754,9,54,908.4801287056987,3130.28788,mp-1228690,Ba6La2Fe4O15,https://materialsproject.org/materials/mp-1228690,14.979844879791903,-66.28740320178464,1.5214331050671437,-32.705743258219925
-6.28672126,-100.58754016,3.9871798718396256,-2.7227411698706034,0.0,3.9078,4,16,263.11367250215284,631.77168,mp-995192,RbBaSiHO4,https://materialsproject.org/materials/mp-995192,-9.278749833757928,-30.68982608788,-8.503464772602848,-22.670272918857087
-5.998471213928572,-167.95719399,5.0310402694710215,-2.0255927169642867,0.0,1.5942000000000007,14,28,620.0047870396631,1878.4677600000002,mp-31273,La2CuS4,https://materialsproject.org/materials/mp-31273,10.056084571273217,-16.655062110379866,3.7774358750772437,0.9436286648365472
-3.715631110833333,-44.58757333,5.6309478683218535,-1.079725846867816,0.0,1.5502000000000002,63,12,467.73124386192734,1586.0935437999995,mp-12490,CsHoCdTe3,https://materialsproject.org/materials/mp-12490,18.634799031550003,-10.603251501692103,3.2036811844925235,2.3207923653426663
-5.985559478928572,-167.59566541,5.997628014378657,-2.4072489102678576,0.0,2.3646,194,28,449.17382300675047,1622.3512,mp-17009,Ba3Te2O9,https://materialsproject.org/materials/mp-17009,-14.043948725453891,-82.84577354719634,14.927000519067152,-72.91536307189062
-5.648723975833333,-203.35406313,5.745739738401196,-1.7406336480902778,0.00023225,1.0925000000000002,62,36,821.5356863038994,2842.649360000001,mp-1195675,La2CuBiS5,https://materialsproject.org/materials/mp-1195675,6.931890468998902,-6.824461631676548,-3.914723088265908,-11.570585895411124
-6.64877076,-186.16558128,4.456014267054481,-3.0406877253553835,0.0,4.995900000000002,62,28,473.66375955592315,1271.064648,mp-17832,RbBaPO4,https://materialsproject.org/materials/mp-17832,-10.54673300194678,-31.70283381946705,-6.6442947281873845,-24.680709712010874
-7.080130135555557,-127.44234244,5.8774298392242805,-1.9601513867268057,0.0,1.7092,15,18,463.63723349400544,1641.0305600000004,mp-1205351,La4Se3N2,https://materialsproject.org/materials/mp-1205351,28.088022593503364,-19.508593181237302,19.392594282654013,-1.1268521165107137
-4.268138786000001,-149.38485751,3.804292702548968,-1.533076282364532,0.0,0.9066999999999998,225,35,1238.8390448361347,2838.178582,mp-1209491,Rb8Zr6BeBr20,https://materialsproject.org/materials/mp-1209491,8.04210213424884,-0.6097553461218893,-8.252359344887209,-20.219302899214398
-7.185169705681817,-316.14746705,5.161265025609035,-2.8812062964772736,0.0,3.2668,14,44,551.4461100749355,1713.9973544,mp-6016,NdAlGe2O7,https://materialsproject.org/materials/mp-6016,-22.212996546723307,-43.56143786905172,-8.631446186845853,-37.66579547200328
-8.366661040506328,-660.9662222000001,4.145125618665803,-3.2863382867906115,2.37e-05,0.0,2,79,1176.8001314683486,2937.5909,mp-774838,Li2Y14Ti14(S2O5)7,https://materialsproject.org/materials/mp-774838,10.465544085353867,-95.35062063838484,9.828821239766931,10.806368356358519
-6.0918668925,-48.73493514,6.004271198431531,-0.6639796193749996,0.57424445,0.0,26,8,185.40141307888518,670.38494,mp-1223099,LaCeSi2,https://materialsproject.org/materials/mp-1223099,32.21950463949643,-39.98560874390704,12.955603893873954,-18.520497445399453
-5.9276125465384615,-154.11792621,7.078545143115479,-1.757503253461539,0.0,3.3085,14,26,421.99422256358696,1798.8767999999998,mp-505368,As2Pb3O8,https://materialsproject.org/materials/mp-505368,-27.1056629223554,-45.86388338152793,-22.863310230326114,-40.68571062661549
-5.4122663847500005,-216.49065539,5.7721542282761575,-1.4605722544375006,3.00000025,0.0002999999999993008,148,40,594.0758546574622,2065.05079,mp-1198962,CoTe6O13,https://materialsproject.org/materials/mp-1198962,-45.205535211804865,-47.78893280461533,-23.24300334994577,-55.771881207136964
-8.252623858571429,-346.61020206,5.367344861714924,-3.688228304107143,0.87701265,0.0,176,42,610.5738300700311,1973.5521,mp-1211451,La5Si3O13,https://materialsproject.org/materials/mp-1211451,-18.981550597574216,-34.186671982584386,-10.626721908207656,-33.92467583470425
-5.635874465185185,-152.16861056,8.248316251970186,-1.370210536574073,3.5666666666666663e-06,0.0,150,27,346.0003851008837,1718.6711850000002,mp-765403,Co(BiO3)2,https://materialsproject.org/materials/mp-765403,-29.217717663022352,-48.63799502836552,-19.27459338353394,-50.45040449385323
-7.651413692727274,-168.33110124,3.9642406890101562,-3.128019177386364,0.9999998999999999,2.4363,87,22,298.60685932866454,712.8706,mp-558509,BaVSi2O7,https://materialsproject.org/materials/mp-558509,-27.013432778562702,-28.23207454829703,-10.690906970726024,-22.982758966715387
-4.7649299439999995,-23.82464972,4.447733408336986,-0.4932366129519998,0.004981899999999999,0.009799999999999807,139,5,122.07351146198887,326.9724,mp-1247488,Ba2MgN2,https://materialsproject.org/materials/mp-1247488,-2.0486129631628525,-25.14879656405789,-28.98251835962281,-60.24648430041635
-7.512790722916668,-180.30697735,4.234059832992876,-3.5713781651041683,0.0,4.2742,35,24,330.5877597291697,842.9361316,mp-1218014,SrPrAl3O7,https://materialsproject.org/materials/mp-1218014,-22.08743978721044,-36.16835613661216,-18.95574143117061,-28.419881695517358
-5.47586430475,-219.03457219,6.227361893257672,-0.3567413805000001,0.0,0.0,127,40,815.3279460102552,3057.6469804000003,mp-5711,Pr7Al7Co6,https://materialsproject.org/materials/mp-5711,39.33762311487046,-14.222528251987065,29.944186638554047,3.930277377643665
-4.025268908571428,-28.17688236,7.430639876889725,-1.951641602108572,1.0000004999999998,0.0,139,7,122.53101850093327,548.3062127999998,mp-1025338,Tl2CuF4,https://materialsproject.org/materials/mp-1025338,-3.213216225063148,-62.23902818820868,3.4390274609935165,-59.41910223417182
-5.2604085337500015,-210.41634135,5.514563214080166,-1.6492095269020006,0.0,3.3366,19,40,842.1051757113436,2796.5872000000004,mp-560394,AsPbClO2,https://materialsproject.org/materials/mp-560394,0.03076221094060332,-18.070361815633113,-19.921722189875148,-41.0829145801066
-5.549726999615384,-144.29290199,5.5590048308649385,-0.522296513790769,0.00235535,1.1106000000000005,15,26,602.259392307867,2016.1904,mp-1246390,Ba5(SnN3)2,https://materialsproject.org/materials/mp-1246390,-2.5083334475401027,-32.124327997331235,-2.195116750964233,-28.665848568237127
-4.844920210714285,-67.82888295,4.433093863548345,-0.6078831099999995,2e-07,0.0,63,14,284.6446015881754,759.9076,mp-1210780,Li2Pr2Si3,https://materialsproject.org/materials/mp-1210780,32.9399440059983,-23.173972635874538,19.24355615106747,4.959878841130227
-1.5679018816666668,-9.40741129,5.9949706561631215,-0.013898321666666824,0.00281105,0.0,63,6,205.18490835250716,740.77,mp-1187899,Yb2Mg,https://materialsproject.org/materials/mp-1187899,1.4636614996577708,-34.03391593435789,-1.9515147470407863,-34.75758442788161
-5.348779073014706,-727.43395393,4.722792514920407,-1.6286310470358454,0.0,2.3391,14,136,2119.6432601250813,6028.5456,mp-561273,V2Cd6Se5O21,https://materialsproject.org/materials/mp-561273,-33.53340952034713,-58.65891438347025,-9.085437025886202,-49.914104084684794
-6.502693861428571,-182.07542812,7.469278491440347,-1.8973649868801783,0.0,1.1709999999999998,62,28,656.6202844742652,2953.5468,mp-567391,Dy3Se3N,https://materialsproject.org/materials/mp-567391,29.722137667839217,-18.60885842382072,15.82863405990392,2.059174923575234
-3.68040736,-22.08244416,3.252074683300266,-1.39005861454,4e-07,4.1139,129,6,123.55713714014207,241.97988,mp-24422,CaHBr,https://materialsproject.org/materials/mp-24422,33.87891598366584,-9.011839889345644,12.283413188940505,-18.412190481765748
-3.500602384,-17.50301192,5.35086062260009,-0.5858721708571426,6.1e-06,0.6835999999999998,164,5,131.61038653406337,424.09652400000004,mp-8279,Ba(CdP)2,https://materialsproject.org/materials/mp-8279,21.521130574437684,-7.833610632142247,-2.8575345680642577,-7.630568198244879
-6.409215464107143,-717.83213198,4.814844448267492,-0.6076809607490635,0.0,1.7780000000000002,14,112,1930.1487776761944,5596.5959864000015,mp-581834,CsNa5(WN3)2,https://materialsproject.org/materials/mp-581834,-39.64452423033401,-33.06125603651001,-39.37568344326369,-23.017308932128273
-6.443379786666666,-115.98083616,5.581697355644459,-2.622906892745556,2.9999999,1.0126,140,18,325.41192632255826,1093.83209,mp-1214549,Ba3MnO5,https://materialsproject.org/materials/mp-1214549,-9.006822568574286,-32.124464267879425,-2.2210913716047065,-33.63324557356867
-8.05507905765625,-515.52505969,4.809548113899991,-3.381117864241173,0.0,1.7070999999999996,12,64,983.4866419198075,2848.5487,mp-1223572,La5Ti6S3(ClO5)3,https://materialsproject.org/materials/mp-1223572,5.935244839277171,-41.71093850508269,3.817880787474544,-23.40310555930613
-5.35473543125,-42.83788345,7.413280378215191,-1.2421435343749998,0.0,0.6383999999999999,71,8,136.4243512898277,609.0504000000002,mp-997055,CuBiO2,https://materialsproject.org/materials/mp-997055,-14.739937100661312,-52.64078716523673,-1.9985385538254528,-44.612041522944295
-6.742944966666666,-161.8306792,7.296233850802688,-1.2476112601041671,8.0,0.0,186,24,448.2049958518332,1969.3656,mvc-1351,BaW4O7,https://materialsproject.org/materials/mvc-1351,2.507713895652284,-10.529663447056693,-27.71490066071661,-35.765958301276804
-8.366669849367089,-660.9669180999999,4.144355745415268,-3.2863470956513723,8e-07,0.0,2,79,1177.0187388944712,2937.5909,mp-774554,Li2Y14Ti14(S2O5)7,https://materialsproject.org/materials/mp-774554,10.465578604929624,-95.34851352744379,9.836572950682738,10.806122473705416
-1.6444984033333334,-19.73398084,2.48439665307998,-0.0003042433333331947,0.002889283333333333,0.0,8,12,448.8554558828334,671.55,mp-1094271,SrMg,https://materialsproject.org/materials/mp-1094271,0.37826970317769737,-34.45239630816836,-28.770761983880657,-58.50657802650512
-7.131637514642858,-199.68585041,6.4254266368027215,-2.6015356775,0.0,2.7559,2,28,511.6969612043898,1980.0024,mp-1192576,ErWBrO4,https://materialsproject.org/materials/mp-1192576,-32.04008259321539,-34.120243329699214,-37.331105889627146,-24.20043496497889
-8.353382922619048,-350.84208275,5.543628858201833,-3.7293107287103178,5e-08,4.1504,6,42,580.8091466057157,1939.0031000000006,mp-1223205,La5Si2BO13,https://materialsproject.org/materials/mp-1223205,-18.674596339013924,-34.33282222879289,-11.511685135660345,-34.184578260690685
-6.4206379325,-25.68255173,3.224934892583633,-2.2251328982812506,1.1e-06,0.0,129,4,176.06751737843732,341.94094,mp-20215,LaS,https://materialsproject.org/materials/mp-20215,18.53471906775396,7.678640389877619,6.527872025802178,-10.311386066344088
-7.309264030740741,-592.05038649,4.553829514211294,-1.2107622100766668,0.7969354000000001,0.0,174,81,1313.3621652845068,3601.7385,mp-1214762,Ba6Si6CN14,https://materialsproject.org/materials/mp-1214762,-25.72031878665781,-29.45137453124543,-1.5224191654133792,-0.07637024345387862
-5.99133119,-131.80928618,7.82644702344453,-1.6813730555681818,0.0,2.3998000000000004,2,22,373.78274972764814,1761.7116,mp-757196,Hg2W2O7,https://materialsproject.org/materials/mp-757196,-24.89713690419508,-48.29041446607436,-21.39600363478666,-38.789063565692246
-6.37873086,-127.5746172,4.671140611230335,-1.6493020411607504,4.9999996,3.2396000000000003,62,20,258.6484468703233,727.58498,mp-22224,MnSeO3,https://materialsproject.org/materials/mp-22224,22.54116764350225,-51.45355763296237,12.682866192124855,-20.314333247526893
-7.0095210250000015,-168.22850459999998,4.64846866349195,-2.0199399223333336,5e-08,0.0,2,24,365.03705937114114,1021.875,mp-556949,KEu(MoO4)2,https://materialsproject.org/materials/mp-556949,-51.620760170904475,-52.80497577763853,-24.92322505103817,-59.41887106124371
-2.8544001125,-45.6704018,5.51095626637405,-0.8676963482758622,0.0,1.935,140,16,712.2071411042242,2363.6556038000003,mp-1238789,CsPb2I5,https://materialsproject.org/materials/mp-1238789,6.974941935052392,-25.18557213026356,-13.274089447598946,-39.412097337661045
-8.33630589,-383.47007094,4.883224848515156,-3.0846521394456516,0.0,1.9246,127,46,642.8431742587239,1890.439,mp-1212064,K2DyNb5O15,https://materialsproject.org/materials/mp-1212064,-30.09519798571678,-69.88141353434555,-3.0030474321509217,-56.07115760188436
-6.722375836666667,-181.50414759,7.124575746618468,-1.7211826602777782,6e-07,0.0,146,27,431.94583780056325,1853.2722,mp-674187,Ba(IrO3)2,https://materialsproject.org/materials/mp-674187,-13.970032995383043,-51.179564422660036,1.363231479104929,-42.242867005583406
-3.4857147612962964,-188.22859711,4.24848357353236,-0.4914349215385183,0.0,1.4489999999999998,159,54,913.8663357738473,2338.1239600000004,mp-707874,Ba7Cu3H17,https://materialsproject.org/materials/mp-707874,-24.74719623740447,-17.68633720503012,-21.09458818895804,4.617526843742064
-5.22334947875,-41.78679583,5.469413008559184,-2.135825492332975,0.0001204,2.3567000000000005,194,8,225.88332363600392,744.0049038,mp-1087532,CsLuS2,https://materialsproject.org/materials/mp-1087532,4.756187538532133,-4.027419206090221,-3.2323413587198697,-6.240764623072955
-7.598151303125,-243.14084169999998,6.305901272090718,-3.23488989375,0.0,1.7848000000000006,14,32,548.152993077556,2081.6124,mp-17812,Sm2SiTeO4,https://materialsproject.org/materials/mp-17812,17.635409810764028,-16.871551608585502,-0.6530524869178203,0.988268158524538
-3.0776780725,-24.62142458,3.922248171175263,-1.519736677348391,0.0,2.2017,129,8,263.9079463441904,623.3593038,mp-567558,CsAgCl2,https://materialsproject.org/materials/mp-567558,1.84271137255424,-3.8420333647970577,-26.21503703635517,-33.28838302551665
-7.070701046428572,-197.9796293,4.267867002832381,-2.661579878601191,0.0,2.9868,188,28,425.7373478680656,1094.2172,mp-1214320,BaTi(GeO3)3,https://materialsproject.org/materials/mp-1214320,-31.28538278372486,-28.950663145343967,-31.037800270691687,11.227161470041564
-5.727902273333332,-85.91853409999999,5.1342934466280505,-1.3887402418333332,3.0000006,0.017500000000000068,2,15,205.8343340213619,636.4282,mp-1104343,FeCuAs2PbO10,https://materialsproject.org/materials/mp-1104343,-23.32202992512059,-43.26298067555521,-17.20111538044807,-36.924893450746104
-3.683160505833333,-44.19792607,5.709550835874418,-1.063902494367816,0.0,1.5519999999999996,63,12,463.62096738914187,1594.1013237999996,mp-12496,CsTmCdTe3,https://materialsproject.org/materials/mp-12496,18.64795526036468,-10.578895116884855,3.2021618138348726,2.311426632933749
-3.513987091428572,-49.19581928,8.999981387263395,-0.7852198192857145,5e-08,0.0,148,14,335.0975731276017,1816.200552,mp-12699,Ca3Au4,https://materialsproject.org/materials/mp-12699,39.899012796749396,-12.836181532014795,11.472654009134093,-17.621943405477005
-8.754024631111111,-78.78622168,6.723408335197378,-3.2862974270833325,13.973809699999999,0.0,123,9,108.149053439841,437.8880772,mp-861959,Eu2Al2O5,https://materialsproject.org/materials/mp-861959,36.34111801197374,-78.4027180918566,67.03698528725252,-36.31155971553945
-7.6026291852083325,-729.85240178,5.3735909383354725,-3.3267223929427088,0.0006389,3.8533,185,96,1401.0916336535986,4534.0056,mp-1214885,Ba3Er(BO3)3,https://materialsproject.org/materials/mp-1214885,-22.69705325672103,-25.809408240027608,-7.3122309064930855,-21.923926345201192
-7.241376253333333,-260.68954512,7.765817447273237,-3.059628623611111,0.0,3.0129999999999995,19,36,477.3590192036188,2232.4576,mp-774557,Er2TeO6,https://materialsproject.org/materials/mp-774557,-28.876650559690194,-59.7743850597165,-11.029687149914675,-48.94669068909987
-6.965736742142856,-292.56094317,4.100496857079612,-3.0153615090476187,0.0,3.7966,176,42,698.8169985887808,1725.6426,mp-1195674,Sr5V3BrO12,https://materialsproject.org/materials/mp-1195674,-22.445422366100303,-33.076132208122914,-6.959282125480282,-26.431332504172765
-6.604954573333334,-79.25945488,3.9564741071409886,-2.7283158278232773,0.0,3.1698,9,12,260.3475324309301,620.3156,mp-752401,Rb2ZrO3,https://materialsproject.org/materials/mp-752401,-4.612000188772819,-29.861930926825643,-6.0653964071649895,-31.395432605831317