energy_per_atom,energy,density,formation_energy_per_atom,total_magnetization,band_gap,sgr,num_sites,cell_volume,weight,mp_id,formula,URL,tsne_cry_0,tsne_cry_1,tsne_xrd_0,tsne_xrd_1
-7.1520523716666675,-42.91231423,10.026904149044439,-0.20799653000000026,5.811947900000001,0.0,191,6,86.08458764679918,519.80826,mp-1217336,ThFe2Ni3,https://materialsproject.org/materials/mp-1217336,75.10209843895198,19.96808846400349,89.85605592555059,-12.859455767395382
-4.2013566569230765,-218.47054616,6.853922288691398,-0.210122568461538,0.0,0.0,215,52,658.8350843740691,2719.3606176,mp-593,Al4Cu9,https://materialsproject.org/materials/mp-593,47.57520619539819,57.22220228848257,86.99402113985751,-4.705143383492092
-8.4089816095,-168.17963219,8.491572800929235,-0.5196843528333333,2.67295715,0.0,127,20,263.8240102871476,1349.128648,mp-1219435,Sc2FeB2Ru4Rh,https://materialsproject.org/materials/mp-1219435,58.51683648049153,39.80948435114843,70.16515136329943,12.327879668869913
-7.766475626666666,-93.19770752,8.625243867015357,-0.2522654152777785,7.6162308,0.0,191,12,154.57496805563954,802.9,mp-3045,ErFe4B,https://materialsproject.org/materials/mp-3045,73.61982831888133,26.086280763773647,61.01502980956333,15.800950348786428
-5.729976815,-22.91990726,12.34611155753566,1.3064591762500006,1.235e-05,0.0,186,4,71.58330012071309,532.222,mp-974474,ReBr,https://materialsproject.org/materials/mp-974474,35.002002585165464,34.01522320849826,27.39125416118547,26.710650975745875
-9.165466508333333,-219.97119619999998,13.083590952601723,-0.4074329174999996,3.5e-07,0.0,227,24,349.43785520809547,2753.2637600000007,mp-505600,Ta3SiNi2,https://materialsproject.org/materials/mp-505600,60.90155619561337,30.88489765911229,66.48945488856279,16.60667836289258
-10.0788620525,-40.31544821,8.727796511232983,-0.3532040802824987,0.0014184,0.0,25,4,41.4568716111577,217.8974,mp-1221519,Mo2CN,https://materialsproject.org/materials/mp-1221519,31.764134876856232,48.204261929830025,68.01180962646559,9.74448569231898
-4.840298735999999,-24.20149368,11.709544229005985,-0.5991659859999998,1e-07,0.0,164,5,84.9924187613717,599.337,mp-21400,Ga3Pt2,https://materialsproject.org/materials/mp-21400,90.784473004367,19.92192312920997,48.7690016321311,56.5844685873095
-8.998542273846152,-233.96209912,9.86754462723879,-0.012373573846153143,0.12176157692307693,0.0,166,26,338.8126379365521,2013.3515350000002,mp-1226395,CoMo,https://materialsproject.org/materials/mp-1226395,64.18720779341182,43.470751453446674,77.31511996474029,-0.5941229076821116
-10.7467050375,-42.98682015,16.577630746053266,1.2793829478125005,7e-07,0.0,139,4,56.44743461373761,563.5307,mp-979413,W3C,https://materialsproject.org/materials/mp-979413,44.871994317403306,41.21316124279968,63.502699868299544,-11.367270354725644
-3.992896958333333,-95.829527,2.579451395148768,0.15875947166666707,1.72625e-05,0.0,11,24,414.45569405763587,643.808,mp-1073599,MgSi2,https://materialsproject.org/materials/mp-1073599,39.09205887825309,25.20607508199302,60.64802382866494,2.3063293127346696
-4.735240215,-56.82288258,7.118623218062639,-0.2972157232683331,0.009440500000000001,0.0,156,12,102.26889192967093,438.42010999999997,mp-1222987,LaNi5H6,https://materialsproject.org/materials/mp-1222987,72.29663154355845,12.954394827827912,64.66558494821341,2.0429329536569947
-8.148602861,-162.97205722,7.925376665159947,-0.08848810136900198,38.9805494,0.0,12,20,264.85474529147893,1264.0917,mp-1219234,Sm2Fe17N,https://materialsproject.org/materials/mp-1219234,76.50127021464856,34.75908043519936,87.67855491293386,-24.27366936247181
-6.96550173875,-55.72401391,6.135435990961912,-0.526228129821428,0.74336685,0.0,26,8,95.039939478446,351.157938,mp-1221342,MnNiP2,https://materialsproject.org/materials/mp-1221342,17.364203659810535,37.47411228339764,68.06683729278579,-23.693332299545457
-8.742560664166666,-104.91072797,6.64687662576971,-1.0370388082142852,1.98677825,0.0,62,12,177.01000904095687,708.543228,mp-20147,ZrMnP,https://materialsproject.org/materials/mp-20147,62.99303646666347,27.272844044034606,61.592724291056115,7.189742596683469
-7.003644845,-28.01457938,11.773781315069881,-0.11499558750000015,4.8388387999999996,0.0,225,4,65.99813918393683,467.949045,mp-4652,MnRh2Pb,https://materialsproject.org/materials/mp-4652,94.6217427698415,9.964537847545094,60.8542329397581,66.14266595155937
-4.924894614607843,-502.33925069,3.9814547438700414,-0.38575822049019576,0.0,0.0,58,102,1467.6457076748675,3518.9566908,mp-30751,Al13Co4,https://materialsproject.org/materials/mp-30751,43.32112104043011,43.887303612361116,66.75823077623619,-13.937879152320766
-8.1231977875,-32.49279115,9.06954157945118,-0.1486371350000013,0.035893800000000003,0.0,225,4,48.17972239743248,263.148282,mp-867837,BeCrRu2,https://materialsproject.org/materials/mp-867837,84.72747986355199,35.991289998338736,51.16288848507802,48.62649482338897
-6.22890903875,-49.83127231,9.780603627997493,-0.4041559162499997,5.5e-07,0.0,129,8,131.51608290833494,774.6320000000002,mp-1080469,HfCuGe2,https://materialsproject.org/materials/mp-1080469,59.05652018629336,21.303746854430123,63.17212118981005,-1.7845871462964278
-6.425062893829787,-301.97795601,7.163936122159894,-0.42687205106383097,0.2350219,0.0,216,47,744.4622981121097,3211.77655,mp-1200338,Y15Ni32,https://materialsproject.org/materials/mp-1200338,68.83759177701761,31.104250820589762,69.33556695050667,5.5014816563405295
-5.095476362619047,-856.04002892,4.067769206501003,-0.3871882411904762,1.0975e-05,0.0,62,168,2379.3543971834342,5828.6281232,mp-645302,Al14Co5Si2,https://materialsproject.org/materials/mp-645302,43.07400296585868,43.900680957596066,66.94945362089749,-14.632465604665475
-6.514129785384616,-84.68368721,5.036531703631218,-0.3925804503846159,10.1971856,0.0,71,13,178.66883507676926,541.9151436000001,mp-1219472,Sc(AlFe)6,https://materialsproject.org/materials/mp-1219472,42.155989601644684,44.01976220438813,67.89202224107851,-16.53166773659257
-8.027155315,-32.10862126,12.303103419395725,-0.3203193224999996,1.2709819,0.0,221,4,55.0451937566754,407.835465,mp-864655,PaCo3,https://materialsproject.org/materials/mp-864655,53.21058685571445,58.480403580774876,87.56378873734599,2.197196373973992
-7.1180116775,-28.47204671,9.01736521214691,-0.03238035374999981,0.525678,0.0,123,4,60.6739318770565,329.48277,mp-1220370,NbCo2Sn,https://materialsproject.org/materials/mp-1220370,65.4839316536562,36.747631512904356,73.28319722979522,3.3158039302791678
-7.123807579285715,-99.73330611,9.849690651978431,-0.6629488877551017,0.09551045,0.0,136,14,180.30481148562095,1069.5000679999996,mp-20048,U(Ni2P)2,https://materialsproject.org/materials/mp-20048,64.96089869550653,13.749603520677484,57.38233169412401,13.381773270545821
-7.30223042875,-116.83568686,9.919660279694432,-0.35661077249999984,1.915815225,0.0,139,16,251.4078594333497,1501.85,mp-1178762,VSnRh2,https://materialsproject.org/materials/mp-1178762,95.63523392409449,9.982864000672787,62.20883899222173,65.48719540271125
-6.825259631111113,-122.85467336,5.630119720951296,-0.33302893888888874,2.3e-06,0.0,5,18,266.57553122160306,903.8343088,mp-1228192,Al4Si2Mo3,https://materialsproject.org/materials/mp-1228192,41.01971804277077,38.79117810117331,57.77103517764285,-10.570617470236902
-8.173461258970589,-555.79536561,8.622007016046544,-0.10913926848039067,30.6854642,0.0,136,68,918.2361731825237,4767.752239999999,mp-1226123,ErThFe14B,https://materialsproject.org/materials/mp-1226123,72.8759904257834,31.65023363580429,83.39543826176887,-6.195114671175591
-7.106130938888889,-127.91035690000001,6.200686536226053,-0.3917825383333333,3.4831074,0.0,2,18,256.82878874181563,959.034852,mp-1219441,Sc3(MnNi2)2,https://materialsproject.org/materials/mp-1219441,63.76943180974275,49.99604787947129,79.65538229803877,-3.6062625505083545
-6.8982817005555574,-248.33814122,7.622479059582678,-0.9393698497420644,2e-07,0.0,189,36,550.5618947661711,2527.279644,mp-10582,Ca5P12Rh19,https://materialsproject.org/materials/mp-10582,48.1702553535901,40.08202787998229,49.3647403419848,8.038184932173639
-7.143105907142857,-200.0069654,5.892816917767742,-0.8554617436309532,0.346964825,0.0,216,28,377.10246400081513,1338.2376,mp-1217206,Ti4Cu2O,https://materialsproject.org/materials/mp-1217206,54.49106957861676,47.691872409116364,76.25639832699534,3.688400290343276
-7.102533236666668,-85.23039884,7.727679818012293,-0.7863583550000008,2.5e-07,0.014599999999999724,62,12,191.29428757101644,890.2295999999999,mp-1102687,ZrNiGe,https://materialsproject.org/materials/mp-1102687,62.40495435049394,35.59390963050611,71.23190459342216,2.9836732542836164
-8.980499920833333,-107.76599905,6.948484081369902,0.03371204166666667,0.00497235,0.0,164,12,157.2365856427987,657.9525600000002,mp-1220471,NbCr4Si,https://materialsproject.org/materials/mp-1220471,64.21073648285457,49.52514469462746,78.58642961445891,-2.8139993607739657
-6.328223848333334,-37.96934309,7.394271996650603,-0.16626351583333351,4.313814900000001,0.0,187,6,90.64178820654007,403.6219686,mp-1219821,PrAlCo4,https://materialsproject.org/materials/mp-1219821,74.78916162728366,18.06874322726245,86.96522748095725,-11.135821544646351
-6.086666043823531,-206.94664549,7.7609478798158245,-0.1557497838235294,0.00025975,0.0,64,34,545.1842390425446,2548.056,mp-1188077,Zr7Cu10,https://materialsproject.org/materials/mp-1188077,65.05415920987268,33.764938723356124,72.43592365913588,3.847233916711145
-8.5281482125,-102.33777855,7.004554650056129,-1.0557658198809534,3.68e-05,0.0,62,12,168.8312658610262,712.1710479999998,mp-20892,ZrFeP,https://materialsproject.org/materials/mp-20892,62.6826364049121,28.293648033536247,72.03972400066245,1.0784093049366197
-4.1874361675,-16.74974467,11.909292877820695,0.2221788050000004,0.7704843000000001,0.0,221,4,52.51995888601111,376.6702,mp-973884,Ni3Hg,https://materialsproject.org/materials/mp-973884,52.951337376555564,59.08692387049066,88.05091744487778,2.9409412028167363
-9.580477613333334,-57.48286568,8.40113699580337,-0.11513304000000107,0.07790570000000001,0.0,166,6,104.60003744149395,529.201195,mp-1215484,Zr2CoMo3,https://materialsproject.org/materials/mp-1215484,80.66910633248857,13.056819549487116,62.35297530643028,27.678796469422327
-7.283458366666667,-43.7007502,7.1483056846825885,-0.3877787475000005,2.3218261,0.0,160,6,85.29949641369095,367.198157,mp-1215226,ZrScMnNi3,https://materialsproject.org/materials/mp-1215226,67.1169845310814,48.571406133264325,74.36340438080309,22.381725134165464
-9.954862221666668,-119.45834666,13.500909853676152,0.0049003983333323715,0.012468525,0.0,194,12,145.39437943364297,1182.12,mp-20868,Fe2W,https://materialsproject.org/materials/mp-20868,69.01646542433546,50.18487917531866,72.14702767736105,17.720402476049387
-3.895171945,-23.37103167,3.4254403949293293,0.03548033583333362,3.3e-05,0.0,166,6,95.21421674036422,196.4125,mp-1222135,Mg2CuSi3,https://materialsproject.org/materials/mp-1222135,48.38002392660752,42.020276736511576,50.27775638782916,4.043193962956614
-8.281704792777777,-298.14137254,7.29662834672501,-0.8823303550000013,6.25e-07,0.0,15,36,544.3622992615186,2392.0,mp-510274,Zr2Si4Ru3,https://materialsproject.org/materials/mp-510274,67.62408553938414,22.09481282786196,58.507585674042815,16.945820071309672
-3.994411416666667,-47.932937,2.6290636919055217,0.1572450133333335,1.0300000000000001e-05,0.0,2,12,203.3173105611353,321.904,mp-1073277,MgSi2,https://materialsproject.org/materials/mp-1073277,39.328732950043104,25.31206880526588,61.205542376575224,4.0742950930190815
-6.4792514125,-103.66802259999999,5.582887066200385,-0.4070460729166667,0.35610640000000005,0.0,193,16,266.8004538744966,897.0079999999998,mp-30674,Ti5Ga3,https://materialsproject.org/materials/mp-30674,53.26076473056445,44.257121076759006,67.63323440247164,-3.960297630561464
-8.07074872375,-129.13197958,7.4017767711782625,-0.29599171812500114,15.1067807,0.0,166,16,174.68112054133232,778.6330999999999,mp-1226343,CrFe11Si4,https://materialsproject.org/materials/mp-1226343,42.167449187290465,60.17362717399325,91.66004507422731,-8.809104202564221
-7.0338358066666675,-42.20301484,6.3227635937497535,-0.6963581635788689,3e-07,0.0,71,6,106.54327642523424,405.680284,mp-7524,NbPSe,https://materialsproject.org/materials/mp-7524,35.904070161029104,33.56743661621069,59.374635380494134,-8.31509595567138
-6.6102298600000005,-79.32275832,7.9625234036316215,-0.7108913572222223,0.0,0.0,62,12,189.2973489073657,907.708,mp-20268,TiGePd,https://materialsproject.org/materials/mp-20268,46.93028250878872,44.94287197119975,65.21047180482104,-8.533259119833248
-8.2466752225,-32.98670089,7.289776473842911,-0.25125453125000075,1.9999982,0.0,225,4,43.68367530964793,191.7716,mp-1018068,CrFe2Si,https://materialsproject.org/materials/mp-1018068,42.20252239336015,60.150978175349124,91.65764564498258,-8.750282025938226
-7.896450445,-31.58580178,7.425827502521805,-0.40062676000000064,7e-07,0.0,38,4,67.10169065204803,300.07459500000004,mp-1215600,Zr2CoNi,https://materialsproject.org/materials/mp-1215600,66.47042257936742,33.49806851719807,66.82278100306516,-0.1968101826132113
-5.0280167425,-20.11206697,7.5077020066743305,-0.00173940791666638,0.6373425,0.0,123,4,64.95314263995044,293.66900000000004,mp-1216855,TiCu2Sn,https://materialsproject.org/materials/mp-1216855,65.26417466350661,34.98445519127994,75.30196114618872,7.334990023975023
-8.624646587142857,-241.49010444,7.759873359945407,0.05393934321428467,8.474807825,0.0,13,28,259.567373116511,1212.9856,mp-645339,Fe5C2,https://materialsproject.org/materials/mp-645339,39.496271351293814,55.920549806441024,79.31252679238236,-13.981165307879927
-4.0102066600000015,-176.44909304,7.935865657760678,-0.37437250181818177,0.0,0.0,55,44,710.3363823149664,3394.7615600000004,mp-21795,Yb(Ga4Co)2,https://materialsproject.org/materials/mp-21795,68.32385974096192,18.926554062773015,64.38751567404245,6.552719056913888
-8.459459728125,-135.35135565,8.211623556308906,-0.4052179200000001,0.229275,0.0,193,16,276.0082741497619,1364.9038,mp-17910,Nb5Ge3,https://materialsproject.org/materials/mp-17910,65.14746920191234,32.93511595474944,69.94906151297621,5.247859266385116
-3.91362845,-46.9635414,2.533059748117424,0.2380279800000006,2.5e-08,0.0,2,12,211.02311523817272,321.904,mp-1248532,MgSi2,https://materialsproject.org/materials/mp-1248532,39.652146674052844,25.466811197233483,61.46551266345857,2.3092464571540545
-4.699783887307691,-244.38876214,3.2129677543150947,-0.18003509384615385,1.748692175,0.0,129,52,855.6241160195303,1655.542344,mp-18142,Ca(Al5Cr)2,https://materialsproject.org/materials/mp-18142,50.577589430123126,43.378387873143254,66.50421651578306,-4.515042050481469
-6.209775689285713,-86.93685965,7.837699565854749,-0.3448395667857146,2.9765702999999997,0.0,71,14,257.1766193613887,1213.86672,mp-1207776,Y3Co6Sn5,https://materialsproject.org/materials/mp-1207776,68.48410832513622,13.688606255430658,44.29194452108382,-3.8289866881950703
-8.41806553625,-67.34452429,6.499320459413591,-0.4991776095833327,1.932904325,0.0,62,8,67.19401312614616,262.99618,mp-8365,MnB,https://materialsproject.org/materials/mp-8365,35.71124851576463,55.14733819266444,75.09890177783019,-3.742565094563827
-4.420112575306122,-216.58551619,6.5123959950869255,-0.10195116681760172,0.0060694,0.0,12,49,915.0015834772133,3588.505,mp-1225257,Ga40Mo8S,https://materialsproject.org/materials/mp-1225257,52.52118219942422,43.342602921668615,58.391802080436705,-1.2556203403398754
-7.383968915625,-118.14350265,9.14319555312598,-0.7576387787499996,0.0,0.0,55,16,217.4959953005524,1197.568,mp-21012,Si3Rh5,https://materialsproject.org/materials/mp-21012,56.69528996243182,41.15348501813775,72.05114657528345,11.837919201152873
-6.727724272272727,-148.00993399,10.642518960130753,-0.43305742090909133,6.604198299999999,0.0,167,22,386.04479848886484,2474.19,mp-1191379,EuGe7Ir3,https://materialsproject.org/materials/mp-1191379,44.78788644167375,10.211367956547011,57.816128845142146,-11.36883997540683
-8.669630672777778,-156.05335211,9.131402171901767,-0.06902761763888697,0.0,0.0,193,18,258.0916838727107,1419.2614,mp-18021,Ge3Mo5C,https://materialsproject.org/materials/mp-18021,65.79504024021837,35.174640083426716,70.89282298999261,5.018938981070445
-6.999508575833333,-83.99410291,7.541052724066407,-0.4510732941666665,0.561742075,0.0,62,12,128.55436511314932,583.80756,mp-19905,Co2Si,https://materialsproject.org/materials/mp-19905,42.68782463305423,55.29276573232545,76.18804521054483,-13.858646637441714
-7.483932218333332,-44.90359331,8.51929888287207,-0.8842108408333331,0.0,0.0,166,6,108.99026302426195,559.1682000000002,mp-10214,Y2GeRh3,https://materialsproject.org/materials/mp-10214,80.60447343975336,12.631021259230895,57.631655658765574,21.686702491329136
-6.239341562000001,-31.19670781,6.712359843336258,-0.1776723217499999,1.15e-05,0.0,221,5,53.20575610645373,215.0724386,mp-1207084,AlNi3C,https://materialsproject.org/materials/mp-1207084,52.90434683595328,63.142395045881145,87.1303175616119,7.275441355773616
-6.796368803999998,-33.98184402,4.868178588833744,-0.8480597578571427,0.0,0.0,139,5,72.89851113310847,213.715524,mp-5597,Ca(FeP)2,https://materialsproject.org/materials/mp-5597,33.71252145507287,45.91754716877934,59.996935521477134,-6.09655770545616
-6.2056149476470575,-105.49545411,7.5228555602070495,-0.4631526608823536,0.0008912000000000001,0.0,204,17,318.792280222381,1444.2468499999998,mp-1179919,Pr(As3Ru)4,https://materialsproject.org/materials/mp-1179919,21.17332128611601,33.43377631739941,17.422788185564283,-50.18888593919643
-6.9206712925,-55.36537034,8.204398837891336,-0.09564989937500012,12.6426427,0.0,166,8,104.90148520525558,518.297735,mp-1221827,Mn3Ni4Sn,https://materialsproject.org/materials/mp-1221827,82.84700785484112,45.51322092135428,87.08196865658894,-3.04310172471218
-8.256209523333334,-49.53725714,16.994038961571242,-0.8245211983333327,0.0,0.0,227,6,107.81518939274194,1103.386,mp-1495,ErIr2,https://materialsproject.org/materials/mp-1495,80.6217055462282,10.987754278428831,61.375109342817716,27.652676972309905
-6.339798300000001,-38.038789799999996,7.227710629545538,-0.4846265995400003,2.25e-06,0.0,63,6,69.34904620303864,301.8506799999999,mp-1188036,ZrNiH,https://materialsproject.org/materials/mp-1188036,74.31248499258737,26.260246674497946,66.78426956352705,-0.1227061919444118
-6.6582229225,-26.63289169,8.568649585712233,0.1068582599999992,0.5114618,0.0,216,4,46.57726237030837,240.346195,mp-1224895,GaFe2Co,https://materialsproject.org/materials/mp-1224895,79.11272421320467,49.710763838971424,92.65773569710306,-5.46515995751798
-6.624890055,-26.49956022,6.736489772850431,0.5917676449999991,0.0850946,0.0,139,4,57.36737870933013,232.7285,mp-1187734,V3Br,https://materialsproject.org/materials/mp-1187734,55.9273883917522,51.542123395152906,77.19585973532405,6.760768458499702
-6.587778340714286,-184.45779354,14.872011521298564,-0.7796021253571429,4.5e-07,0.0,15,28,480.4500473676153,4302.9754,mp-1207911,Y2(GePt3)3,https://materialsproject.org/materials/mp-1207911,65.51076576853004,20.22074269459248,64.45470963372846,18.073889045718683
-8.07956437,-48.47738622,6.945393932814946,-0.6630732016666675,5e-08,0.0,139,6,102.71351696019735,429.611,mp-10311,ZrVGe,https://materialsproject.org/materials/mp-10311,36.27752523228912,28.86294536184162,68.8031986261413,-1.6312886554088029
-10.0161307225,-120.19356867,15.471702167304935,-0.17773769083333354,0.00011335,0.0,194,12,228.10928613342514,2125.3574,mp-1102249,TbRe2,https://materialsproject.org/materials/mp-1102249,82.44518778674379,11.205782596672439,59.84397148706727,25.90306809972849
-6.3754486451282055,-248.64249716,8.248132630050797,-0.12292910358974404,13.043296133333332,0.0,71,39,686.2513270088979,3408.70755,mp-1201703,Y(FeSn)6,https://materialsproject.org/materials/mp-1201703,66.71220958347071,15.870558197135693,58.59218583517046,18.789802312607986