energy_per_atom,energy,density,formation_energy_per_atom,total_magnetization,band_gap,sgr,num_sites,cell_volume,weight,mp_id,formula,URL,tsne_cry_0,tsne_cry_1,tsne_xrd_0,tsne_xrd_1
-5.94220955,-427.8390876,4.215748780680038,-2.6263190756106334,0.0,3.4146,14,72,1616.0241989096487,4102.7352456,mp-505734,Cs2SiO3,https://materialsproject.org/materials/mp-505734,-6.803359729742813,-28.621935160841023,-7.005568363395272,-30.21463426630032
-6.904364276,-207.13092828,3.8654355659900377,-2.8806209026293113,0.0,3.8034,176,30,444.9628893590949,1035.7934,mp-17382,Rb2Si3SnO9,https://materialsproject.org/materials/mp-17382,-32.024239422692105,-30.78181507698192,-8.870928551452895,-27.781924312174358
-6.26856593125,-100.2970549,4.761689565417947,-2.546141569739584,0.0,1.5235,194,16,380.6110146574137,1091.4236,mp-9793,Ba3BAsO3,https://materialsproject.org/materials/mp-9793,-1.644006234290451,-24.862209016622014,-0.4612561719178062,-36.88025710104578
-6.582221905555556,-118.4799943,4.9172409293357715,-1.6827844072569451,8.00000425,0.0,36,18,371.3494830516787,1099.6518800000001,mp-2995,La2Fe2S5,https://materialsproject.org/materials/mp-2995,11.878086752484762,-5.604566481534746,-2.5907955829514497,-14.489062096191802
-6.1748462142000005,-308.74231071,4.75656930125891,-2.7438825591000007,0.0,2.9142,14,50,754.3653491169548,2160.8592,mp-1020709,Sr5(Ga3O7)2,https://materialsproject.org/materials/mp-1020709,-7.0875755908650815,-44.101719371483966,16.106297923862122,-25.33442267281448
-3.832829936875,-61.32527899,4.8338892609022865,0.04975073062500002,6.5e-07,0.0,60,16,550.2920227138757,1601.92,mp-628781,GeTe,https://materialsproject.org/materials/mp-628781,22.223615339386445,-7.505572042726952,-14.468963593450086,-5.832586641593868
-5.4726115633333325,-197.01401628,5.396646876639666,-1.7236553192939814,0.0,0.9346000000000004,62,36,763.7124593777044,2482.0172,mp-1220176,Pr2InCuS5,https://materialsproject.org/materials/mp-1220176,12.286117028318666,-5.6725025196239125,-2.820434280971573,-14.308122294281628
-8.394587258695653,-386.1510139,5.344196613368166,-3.285035394257247,0.0,2.4294,100,46,665.8470090656035,2142.92904,mp-557072,Ba3TiNb4O15,https://materialsproject.org/materials/mp-557072,-28.36624708131691,-70.24914868487039,-4.046437750144732,-55.23836966762255
-9.515041356461538,-1236.95537634,7.351057790788044,-3.4866410707884614,6.9e-07,2.6205,14,130,1877.3368720103979,8310.8024,mp-1220985,NdTa3O9,https://materialsproject.org/materials/mp-1220985,-32.77622297575351,-70.04080619823634,-2.8076011849500686,-56.52722882480054
-6.882053038333333,-41.29231823,6.911877601054054,-3.520149682336667,9.05e-06,5.168800000000001,129,6,102.8016794879344,427.9048,mp-755323,DyClO,https://materialsproject.org/materials/mp-755323,0.7317019932953753,-51.699447936484326,4.13091801588293,-38.574583636161655
-5.0693256525,-81.10921044,6.559289918837629,-1.2142548557812507,6e-07,1.2374,15,16,423.0025976766908,1670.9011999999998,mp-1188093,ZrTl2PbS4,https://materialsproject.org/materials/mp-1188093,5.553158765595257,-6.947462397407329,-2.4405642187169487,-9.238129474191892
-6.1738576625000015,-74.08629195,4.383810044189695,-2.5793229653600007,0.0,3.4185,72,12,301.64986569724414,796.3532799999999,mp-1103604,La2NCl3,https://materialsproject.org/materials/mp-1103604,8.425032715697794,-10.165037636430123,-10.458410379444297,-21.07385483702901
-4.5672907460714285,-127.88414089,6.333020898182093,-1.622030489821429,0.000597625,0.01560000000000006,62,28,714.8081748136747,2726.16,mp-1192965,Yb2PbS4,https://materialsproject.org/materials/mp-1192965,6.2206530164319345,-7.08004998552175,-4.1785218576733945,-10.968224115715143
-6.464069232682927,-530.05367708,5.117470767719193,-1.9269012744029577,0.0012760999999999998,2.2341999999999995,4,82,1161.218601813078,3578.6585600000008,mp-1195119,V6H2Pb4Se3O26,https://materialsproject.org/materials/mp-1195119,-26.579672891692127,-42.02384786381366,-20.709313140515246,-34.59515734469009
-4.33393796,-8.66787592,7.24061424610004,-0.7509927270312504,9.000000000000001e-07,0.0,187,2,54.872260819529174,239.265,mp-1009551,PbS,https://materialsproject.org/materials/mp-1009551,4.8169276603345885,-5.948627196234822,1.1375471884426858,-7.1593511961717935
-3.6789728285714287,-51.5056196,5.165062550154449,-1.6151897725000002,3.095e-05,2.0842,15,14,585.6052738152995,1821.5096399999998,mp-1178521,BaLaI5,https://materialsproject.org/materials/mp-1178521,3.733079747639469,-28.408543842987658,-4.186836212842699,-28.864741057180144
-4.37466022625,-34.99728181,6.490216495860211,-0.79171499328125,1.75e-07,0.7614000000000001,11,8,244.8663299038013,957.06,mp-1078696,PbS,https://materialsproject.org/materials/mp-1078696,5.166453942731098,-6.290992612233507,-21.04526227859661,-36.23465165886814
-6.069835022857142,-84.97769032,6.114310355654005,-2.306685557142857,9.0032964,0.0,25,14,191.98933394886163,706.9284999999999,mp-1218508,Sr3Tl(FeO4)2,https://materialsproject.org/materials/mp-1218508,10.58463768909885,-66.8001917247198,11.683687761246278,-48.14576914552832
-4.0541818584375,-129.73381947,5.470036313884363,-0.7581423582366069,0.0,2.2893,62,32,937.8900987210361,3089.534648,mp-16848,Tl3PS4,https://materialsproject.org/materials/mp-16848,-0.4697945689696732,-22.990509860241264,-14.007611789843436,-28.15463337509456
-5.1454797175,-41.16383774,5.837663494663955,-0.7065754395312505,2.49e-05,0.0,12,8,184.52917698677211,648.7166,mp-3849,TlFeS2,https://materialsproject.org/materials/mp-3849,-0.5130343931268756,-21.02863370239752,-13.72183404328192,-27.299141661535344
-8.542824607045453,-375.88428271,7.5624698477584715,-3.2864729623863638,0.0,3.5361,2,44,599.5583026044269,2730.5239300000007,mp-1223362,La7Ta3(W2O15)2,https://materialsproject.org/materials/mp-1223362,-29.26951630433925,-57.606231777844044,-14.502202293696804,-51.66424269352316
-5.3539201405000005,-214.15680562,4.944850262237606,-1.4813032040625005,7.190000000000001e-05,0.21079999999999988,2,40,1223.312432079078,3642.8513,mp-1202671,Pr7C3Br10,https://materialsproject.org/materials/mp-1202671,26.860031914380368,-6.9982600674248525,6.556960124298441,7.236233738793478
-7.086865730909091,-155.91104608,4.604070415983993,-1.12580012199091,2.7000000000000004e-06,2.0193,2,22,371.08909317053764,1028.895,mp-1246449,Ba3B3N5,https://materialsproject.org/materials/mp-1246449,-24.175559572642587,-25.87605348310869,-16.271573973352318,-28.200455367762352
-7.184498292083332,-172.42795901,6.002595338409778,-2.8061896891666662,0.0,3.8530000000000006,14,24,320.1011415753545,1157.1168,mp-754876,SmAsO4,https://materialsproject.org/materials/mp-754876,-29.04050294550445,-54.11244337398297,-15.454336128650331,-51.13617396545922
-1.5377059192592593,-41.51805982,6.0793514059925,0.013501451851851963,0.0001281,0.0,204,27,951.1424260470087,3482.2,mp-1193911,Yb19Mg8,https://materialsproject.org/materials/mp-1193911,1.4219403842904033,-33.965610554833724,9.536585871979891,-23.912336270946643
-3.6242101925,-115.97472616,4.7737478892721095,-1.4325061157596983,0.0,1.6753,14,32,897.4884086017997,2580.1160304,mp-1019612,Cs4ZnO3,https://materialsproject.org/materials/mp-1019612,-5.32359185087171,-28.240347341069807,-6.312249902477364,-30.865714280521733
-5.798906404615384,-75.38578326,4.4355849730246835,-1.7458504517666666,7.2000000000000005e-06,0.0,12,13,290.5582091713844,776.1308799999999,mp-569894,La4B4Cl5,https://materialsproject.org/materials/mp-569894,9.403379683494334,-9.093324081994874,-7.658408473039169,-9.161321233273476
-6.6904750605555545,-361.28565327,6.00143319809135,-2.872377702638889,18.0000002,0.6347999999999998,1,54,859.1117265403284,3104.9565908000004,mp-1229173,Ba12Sm4Al3(CoO6)5,https://materialsproject.org/materials/mp-1229173,14.976385560092922,-66.25201380572582,1.4910610656480292,-32.619573050359804
-5.62105317875,-89.93685086,5.78112016750074,-2.3343409006250004,1.9999999,2.29,167,16,307.1528367758206,1069.344,mp-27957,Ba3NiO4,https://materialsproject.org/materials/mp-27957,-8.693238877613975,-32.31728448312352,5.1947456263882,-33.70070904142149
-7.7807245525,-217.86028747,4.605780648033905,-2.6634195195535706,10.00043045,1.1067,36,28,417.3713515832805,1157.64872,mp-1096902,BaNb2Fe2O9,https://materialsproject.org/materials/mp-1096902,-30.17495328779405,-70.31919190400647,-1.425988395869251,-54.02341523166822
-5.566345701,-55.66345701,6.59699374319144,-1.7316375082500002,2.5e-07,2.4341,148,10,188.3514192734716,748.283,mp-30058,TlSbO3,https://materialsproject.org/materials/mp-30058,-44.67409566692139,-65.8096942631711,-23.02782695384783,-54.38753443171978
-1.5615109608333333,-18.73813153,2.471943161846088,0.08268319916666685,0.06741609999999999,0.0,8,12,451.1167609044856,671.55,mp-1094332,SrMg,https://materialsproject.org/materials/mp-1094332,0.4162372280058623,-34.35509447315949,-28.845165442043477,-58.506794642846366
-9.66983813392857,-270.75546775,9.383203994707877,-0.3777466509347615,2.675e-05,0.9246,173,28,308.71632469609193,1744.4626,mp-1246918,BW4N9,https://materialsproject.org/materials/mp-1246918,-0.8274922881383419,-44.34551123720064,9.802059276633411,-42.624251972632976
-7.147993467222222,-257.32776482,4.764879035953762,-1.5188448021955565,0.00087675,0.9958999999999998,62,36,823.3374818322427,2362.548192,mp-1245883,Sc4Te3N2,https://materialsproject.org/materials/mp-1245883,29.712263903829626,-16.7769185640766,5.654592033718231,-20.67896393792807
-7.109379106923077,-184.84385678,4.390983617433409,-2.8381452918910277,0.00025435,0.0,1,26,362.7970564814153,959.3486772,mp-1256741,Sr2Ti2AlGaO7,https://materialsproject.org/materials/mp-1256741,19.02521870006369,-51.040204083607435,9.470264180179642,-35.44629840652543
-5.122871978,-179.30051923,6.481309553999878,-1.4573713048571433,2.0988167,0.0,1,35,540.1254912923719,2108.1832,mvc-11885,Ba4CaTl4(Cu3O10)2,https://materialsproject.org/materials/mvc-11885,7.519002576393138,-62.980116083846376,9.651418016273304,-44.29684163083184
-6.84817073625,-164.35609767,8.641001662337725,-2.271140669583333,0.33316735,0.0,15,24,335.5662229147654,1746.1970000000001,mp-1207513,YbTl(WO4)2,https://materialsproject.org/materials/mp-1207513,-46.939593636560346,-56.563078104422615,-19.93428016848141,-61.647221989428395
-5.9593012945,-119.18602589,3.742464408709016,-2.3250933384687498,0.0,4.2341,14,20,296.457201354044,668.1448,mp-557997,CaSeO3,https://materialsproject.org/materials/mp-557997,-7.49370324753832,-32.14452224839005,-5.978383714846935,-28.380760633950647
-5.06089182125,-40.48713457,4.818885149117225,-1.5529986507812508,8.7e-06,0.3844000000000003,63,8,212.18259501857383,615.754,mp-4009,BaPdS2,https://materialsproject.org/materials/mp-4009,0.2611243330914192,-22.382693672950445,-14.728267642965946,-25.66164056048783
-5.7891560207894734,-219.98792879,4.387990127288351,-1.6218637067763164,3.99340315,0.0,161,38,880.3480299150798,2326.328,mp-606703,Ce4(GeS4)3,https://materialsproject.org/materials/mp-606703,-2.1922359950326,-11.489807867782273,-9.11848024696916,-11.902668873427807
-7.134156963076923,-92.74404052,8.144033893070548,-2.2505887161538465,3.9998258,0.0,115,13,194.55164703006747,954.1692,mvc-1181,Ba2W3O8,https://materialsproject.org/materials/mvc-1181,-31.82627736594805,-67.11352856845896,2.2559457621861188,-50.439613316878244
-8.6900780285,-173.80156057,7.313118389952135,-3.6537146630833335,0.995709725,0.0,62,20,234.66077167128475,1033.4607999999996,mp-779599,DyTiO3,https://materialsproject.org/materials/mp-779599,9.626911117424623,-81.51144035924057,51.04923922092678,-54.081371688678104
-5.57126927125,-89.14030834,3.489160036976941,-2.2744109340280607,0.0,3.4607,167,16,319.25309311980607,670.8214063999999,mp-8774,Rb3CO3F,https://materialsproject.org/materials/mp-8774,-4.90917577026021,-33.38945112207323,-2.9584368912752814,-34.232070436338304
-7.272687961875,-349.08902217,4.402332214880729,-2.5353228547508344,8.775e-06,0.0,123,48,730.8952038765988,1937.7102400000006,mp-1232359,SrNb2CuClO7,https://materialsproject.org/materials/mp-1232359,-29.562149131405807,-70.41612025227813,0.5879965980821298,-51.584768990508614
-5.850092144583333,-140.40221147,4.288727525094271,-1.4789057001490669,7.0,0.3857000000000004,14,24,706.2072714528745,1823.9442075999998,mp-1190817,CsEuAsS3,https://materialsproject.org/materials/mp-1190817,-0.2788936157088116,-22.65953352827169,-13.55579734294321,-28.444394529972172
-7.962939154857143,-278.70287042,4.96517361555079,-3.05491731078,18.9999991,0.9863,12,35,432.9761518913074,1294.640905,mp-541464,La4Mn5(Si2O11)2,https://materialsproject.org/materials/mp-541464,-22.76594673782534,-35.351475891739064,-17.455496904413007,-30.02510714022728
-6.924579997857142,-193.88823994,5.898658075256442,-2.2824692667239295,8.75e-07,1.3056,62,28,632.0286162693354,2245.1268,mp-4038,Sm3S3N,https://materialsproject.org/materials/mp-4038,11.435230789881823,-4.640455007622538,-5.129909261882988,-18.529671834760233
-4.226287021891892,-156.37261981,5.86223183783495,-0.916011232666104,0.0,1.0556,8,37,868.1213675821331,3064.745,mp-662823,In10(Pb2S7)3,https://materialsproject.org/materials/mp-662823,7.9060175798696815,-5.21759717058816,-17.639330363165683,-34.62370735583336
-6.711227472857144,-93.95718462,4.373072437280878,-2.978472514308587,0.0,4.724,164,14,232.11332856985973,611.2764440000001,mp-1209402,Rb3Ho(PO4)2,https://materialsproject.org/materials/mp-1209402,-8.182189067563616,-33.576207604956764,-29.32593434704103,-60.78413886890311
-6.323393352499999,-151.76144046,5.009687100529477,-1.7707619062351183,0.0002443375,0.3266,62,24,540.8097909478316,1631.5712959999996,mp-1190998,PrPS,https://materialsproject.org/materials/mp-1190998,16.14863010114056,-7.874454495259045,3.627779254867685,-7.207811244890269
-8.509538995,-272.30524784,5.767367201749861,-3.67748737953125,0.0,1.9460999999999995,63,32,427.06678857903336,1483.2839999999999,mp-1197030,BaSm2Ti3O10,https://materialsproject.org/materials/mp-1197030,6.598957124538442,-90.92116903055752,2.2891842556519824,-37.46012254721988
-7.048650179166668,-169.1676043,7.629649214232222,-2.36924745109375,4.9999998,1.5938,8,24,323.05585602766075,1484.339,mp-1217245,Ti3Fe(BiO3)5,https://materialsproject.org/materials/mp-1217245,-15.314878455640898,-56.91809287634428,-8.982534243491646,-55.016737332530546
-4.34157439,-34.73259512,5.367492164938959,-1.9241562658332143,1.3e-06,1.1477,129,8,185.442443027808,599.4203303999999,mp-1079603,BaCdPF,https://materialsproject.org/materials/mp-1079603,16.152518185980828,-5.815093156202897,-0.2316537271714864,-14.424967703878664
-8.47722362388889,-152.59002523,5.22990144259741,-3.1984054963888897,0.0,1.7859,51,18,266.158727614578,838.27232,mp-640553,BaNb2O6,https://materialsproject.org/materials/mp-640553,-47.66921790701539,-53.666811131243534,-25.806050376692504,-57.53034263921258
-5.3673156048648645,-397.18135476,7.648357289723798,-1.6381060732916215,5.5e-07,1.9593000000000005,15,74,1504.3351026925022,6928.8899999999985,mp-680722,As2Pb14Cl4O17,https://materialsproject.org/materials/mp-680722,-20.224865313273234,-55.14987287305726,-12.134023030895975,-58.65388628543416
-5.744741523846152,-298.72655924,4.4051731955274045,-1.7927993169390446,13.000000225,1.2363000000000004,3,52,1194.8359649350082,3169.729370400001,mp-1226457,Cs4Mn3O6,https://materialsproject.org/materials/mp-1226457,-5.452965139400798,-28.556386818048693,-6.677067232117178,-29.93029927438213
-6.468660828500002,-129.37321657,5.893681094639777,-2.3886227854166675,1.00000005,0.0,14,20,263.6385576696386,935.7212,mvc-5044,Ca2AgWO6,https://materialsproject.org/materials/mvc-5044,-32.31446311459335,-77.07059359539245,29.39101300831544,-63.061500312527244
-9.85795331,-197.15906619999998,9.35422500585633,-2.9763088966250013,6.9999999000000015,0.0,62,20,243.5112518073351,1371.7588,mp-1209729,PuVO3,https://materialsproject.org/materials/mp-1209729,9.772394181683172,-82.2108033528222,50.357293267549956,-55.14014720533071
-4.613025077142859,-387.49410648,4.341269469330052,-3.0749923153093355,0.0,5.8466000000000005,185,84,1627.4980234036773,4254.887907,mp-556103,Cs3Ga2F9,https://materialsproject.org/materials/mp-556103,-54.222615753511036,-62.81524889241684,-23.85865238963825,-14.041371222805445
-6.8955212729166675,-165.49251055,8.55684766332005,-2.0262281370833333,1.3e-06,1.8925000000000003,14,24,353.2177872965561,1820.1504,mp-1179954,PbWO4,https://materialsproject.org/materials/mp-1179954,-23.71063702170897,-63.37093126380779,-19.240478133617707,-61.15264884317212
-7.529719997241379,-436.72375984,6.916743700155259,-2.874434574166667,0.00032439999999999997,1.7439,9,58,786.4384396510575,3275.7996000000007,mp-1229191,Ba2Ti5(Bi2O9)2,https://materialsproject.org/materials/mp-1229191,-15.37612778627105,-56.94460395735179,-8.79965332127397,-55.08625697428853
-7.877528102272728,-173.30561825,4.648387412414183,-3.2568354670292217,0.0,2.246,1,22,315.84924901744364,884.1645019999999,mp-1249497,Sr4Nb3PO14,https://materialsproject.org/materials/mp-1249497,-14.126034212184868,-79.07654861787783,-1.9788677171704585,-31.869352059793247
-7.124243140000001,-206.60305106,7.478817458706914,-2.40768164566092,3.9993285000000003,0.4728000000000003,42,29,397.25677147099,1789.1846,mp-1208356,Ti4Fe(BiO3)6,https://materialsproject.org/materials/mp-1208356,-15.210769005796545,-56.88006527374571,-9.147125862381346,-54.68122671097249
-6.12992843125,-245.19713725,4.7700560752402446,-1.9414114098214283,8.0000004,2.8039,36,40,504.1232727746231,1448.1419720000001,mp-705059,TlNi4(PO4)3,https://materialsproject.org/materials/mp-705059,-25.77530008738959,-31.003158383138103,2.7372676471992303,0.9479368691739288
-8.21094036804348,-377.70325693,5.492099890844697,-3.1110650513586964,3.2153701,0.0,35,46,664.8791721006457,2199.034615,mp-1228527,Ba6Nb9CoO30,https://materialsproject.org/materials/mp-1228527,-28.48027838595692,-70.26911713711573,-4.037210336121062,-55.328115782135896
-6.119669121923077,-159.11139717,6.049847896780688,-1.9671833358653856,14.00022005,0.4117000000000002,159,26,361.2630999278354,1316.19116,mp-22245,BaYbCo4O7,https://materialsproject.org/materials/mp-22245,-3.0422255237640026,-44.05298565018526,7.940673070508586,-38.31629468321693
-7.52344525392857,-210.65646711,7.0007527768531785,-2.6673667831249994,0.0,2.2153,36,28,419.8791513262631,1770.1903200000004,mp-555867,BaNb2Bi2O9,https://materialsproject.org/materials/mp-555867,-17.114105593421552,-57.617391987348306,-11.640449009567005,-57.44059303847104
-7.159810397307693,-186.15507033,6.764324517007676,-2.5147525027884616,2.0000096000000003,0.8197000000000001,46,26,378.4409762153137,1541.6063772,mp-1249696,Sr2YAlW2O7,https://materialsproject.org/materials/mp-1249696,16.15485033329763,-46.12230939459936,37.767885410561036,-51.70050369316279
-6.64691585,-93.0568219,3.719150112074893,-1.230842430627143,0.0,1.9873,229,14,218.7514360395297,489.94296928,mp-10811,NaSr4(BN2)3,https://materialsproject.org/materials/mp-10811,6.482178412455387,-55.83660858044985,71.57372353923618,-39.98995383556709
-5.7386053650000015,-34.43163219,6.048974898815158,-2.300651171041668,0.0,0.0,71,6,106.01749866797131,386.1982,mp-8790,Ba2CuO3,https://materialsproject.org/materials/mp-8790,14.767713125894929,-67.34929046314797,20.664027034765507,-71.17081215371483
-5.99267242125,-143.82413811,4.606050711670296,-2.451969710776668,0.0,3.343,60,24,589.5817747921354,1635.3988,mp-28970,Nd2NCl3,https://materialsproject.org/materials/mp-28970,8.385074758146903,-10.130910679973864,-10.431712242627217,-21.039181380617077
-3.294778965185185,-88.95903206,7.607768634919179,-0.562006673206019,4.4444444444444434e-08,1.0118999999999998,143,27,865.9783246498482,3967.4844,mp-1187792,Tl2S,https://materialsproject.org/materials/mp-1187792,-3.6410944267082734,-26.479398274760452,-21.216403252804266,-65.1971201714818
-4.2294824075,-84.58964815,5.033575729846187,-0.5799026016904761,0.0,0.4954000000000001,11,20,565.9775141919803,1715.6420959999996,mp-1105940,Ba(InP)2,https://materialsproject.org/materials/mp-1105940,3.23377505800862,-4.4967370927417285,-2.340018651685955,-14.29212997647156