energy_per_atom,energy,density,formation_energy_per_atom,total_magnetization,band_gap,sgr,num_sites,cell_volume,weight,mp_id,formula,URL,tsne_cry_0,tsne_cry_1,tsne_xrd_0,tsne_xrd_1
-9.3156694875,-74.5253559,16.20923479488387,0.9917846481250016,0.0003466,0.0,194,8,157.2723337021398,1535.2028,mp-974568,Re3Bi,https://materialsproject.org/materials/mp-974568,69.54659539399034,10.658185420673302,56.27411206054738,-7.197042189998536
-4.188920622857142,-58.64488872,5.82128664046946,-0.31636897216517873,0.0,0.1490999999999998,166,14,208.87331636576167,732.2389999999999,mp-542333,Cu9S5,https://materialsproject.org/materials/mp-542333,15.397930665642251,25.136455222048035,20.595196301136816,-48.162623855373155
-9.445650554615383,-245.58691442,14.949378866133035,-0.08774523298076857,2.675e-05,0.0,227,26,325.9481659122014,2934.4222,mp-1194082,Ni6W6C,https://materialsproject.org/materials/mp-1194082,60.76639909490317,31.44789574453634,66.63277820492614,16.66030749533122
-6.46932409,-25.87729636,7.1659303522018645,-0.2409325533333329,0.0,0.0,63,4,32.212082445460176,139.0088,mp-14019,NiB,https://materialsproject.org/materials/mp-14019,36.52393371404357,55.41880406535141,75.28108934089427,-3.939681326141847
-5.328067835714286,-37.29647485,6.978916487695415,-0.5048482978273816,0.5884305999999999,0.0,166,7,111.9647335156708,470.565585,mp-19804,In2Co3S2,https://materialsproject.org/materials/mp-19804,40.87074497769924,41.42067044972772,62.641039154864615,-9.156511895550956
-8.072714073448276,-234.10870813,8.226365682243197,0.16731446534482794,25.3473936,0.0,225,29,437.1660238343085,2165.735035,mp-1193387,Sm6Mn23,https://materialsproject.org/materials/mp-1193387,70.97771086979796,28.52095777642943,62.45260717062557,11.8834649179426
-5.07671172125,-40.61369377,9.58220639085099,0.04258442124999995,5e-07,0.0,194,8,105.25192366060564,607.3604,mp-976953,Ni3Te,https://materialsproject.org/materials/mp-976953,54.31343613400495,64.53419723870604,83.11836729369095,5.25541563715488
-8.07168434,-32.28673736,7.341946234375168,-0.3582318337499988,3.0000001,0.0,216,4,44.531990132822244,196.894785,mp-13082,Mn2CoSi,https://materialsproject.org/materials/mp-13082,42.364741307987344,60.173087921360036,91.57943279777555,-8.664203224164734
-6.735026069166668,-80.82031283,4.873667368024472,-0.8896558358333332,0.0,0.0,62,12,179.5369127472731,526.9392479999998,mp-22426,ScSiNi,https://materialsproject.org/materials/mp-22426,48.336678119864885,45.156548967620715,67.206378034563,-4.412744894454719
-6.7049393980000005,-67.04939398,6.640332547357953,-0.2410888990000004,6.8111218,0.0,123,10,122.54780926096308,490.05665439999996,mp-1228777,Al4Fe5Rh,https://materialsproject.org/materials/mp-1228777,45.851395506693905,59.517716773993826,87.64544468462566,-4.058135681765733
-6.591775040000001,-39.55065024,8.051427197454801,-0.40454083666666796,5.5e-06,0.4949000000000003,58,6,103.49746797264432,501.8264,mp-766,As2Ru,https://materialsproject.org/materials/mp-766,24.061324090252302,28.143111900677503,17.14194097021364,-49.50990273073634
-9.123279006029412,-620.38297241,8.063189308216176,-0.10663336642156863,16.96455545,0.0,136,68,912.0216743076128,4428.5639999999985,mp-1198327,Gd2Fe14B,https://materialsproject.org/materials/mp-1198327,72.11445794417442,32.32968259048782,84.01877997257365,-6.7257578074303614
-6.349279196666667,-38.09567518,8.661244775739569,-0.062334678333333685,1.31311345,0.0,194,6,71.77191008741485,374.3568,mp-1024972,FeNiGe,https://materialsproject.org/materials/mp-1024972,46.556255660419176,56.4302882424903,84.88510539725011,-2.541864105854448
-7.884453728333334,-47.30672237,6.895856317220927,-0.25568827999999993,3.18581395,0.0,129,6,87.0747144192802,361.60229,mp-20791,MnVAs,https://materialsproject.org/materials/mp-20791,45.09297474480557,49.45104038924799,73.17269531461774,-14.801781699079152
-5.080494797857143,-71.12692717,7.280148252188963,-0.3470497114285718,2.5e-07,0.03639999999999954,140,14,233.68946933944508,1024.5431999999996,mp-510484,Ca(Ni2Sn)2,https://materialsproject.org/materials/mp-510484,33.20980256534569,30.886550688873548,68.02920499974569,-10.092449475054954
-6.671631136666666,-40.02978682,16.432744034121644,-1.1112748049999996,4.55e-06,0.0,227,6,112.65669245843105,1114.854,mp-480,ErPt2,https://materialsproject.org/materials/mp-480,81.85700356038227,11.443897328841196,61.53057304985175,26.44425700530933
-5.045235904999998,-110.99518991,8.532835142656229,-0.3909926281818182,0.0,0.0,12,22,270.6034629691513,1390.5212,mp-21589,Ga9Ni13,https://materialsproject.org/materials/mp-21589,42.75661818521312,49.58687988911678,75.7046236296646,-14.833681698971105
-6.955045111315791,-264.29171423,9.996929015130759,-0.13662932644736933,1.25e-06,0.0,58,38,646.972330255351,3894.962,mp-504815,Re5(NiAs6)2,https://materialsproject.org/materials/mp-504815,34.89570796532744,33.080198739943384,32.05825836139438,-50.50678668891052
-5.546197327777778,-49.91577595,8.924079440806162,-0.057449646157406976,0.0344617,0.0,123,9,110.49205448244072,593.8071,mp-1224072,In2Ni6C,https://materialsproject.org/materials/mp-1224072,54.20387037868929,62.532258990928995,86.49564406041166,7.858844588570613
-5.383008047142856,-37.68105633,7.9804212580969525,-0.40465140785714176,1.75e-05,0.0,139,7,114.03305951099259,548.034,mp-11436,Er(VGa2)2,https://materialsproject.org/materials/mp-11436,69.26672604321338,17.661624670087058,57.138378618099715,14.283657472549551
-6.403041597760417,-1229.38398677,7.01944987045753,-0.20196611578125,0.1011263,0.0,118,192,2950.262068386771,12471.382,mp-680383,V17Ge31,https://materialsproject.org/materials/mp-680383,61.97606091098601,37.279770360530364,72.26630417741602,1.8077432028518128
-8.48942030625,-67.91536245,6.4018108743642905,-0.4785306274999997,0.000121,0.0,40,8,96.39477859135586,371.62699999999995,mp-1216581,V2FeSi,https://materialsproject.org/materials/mp-1216581,49.81220970277249,55.11718447819406,78.61837545200575,-6.491675639643537
-6.891010349523809,-144.71121734,10.230614337082189,-0.7048658230952375,9.6e-06,0.0,143,21,338.30716008894177,2084.3172,mp-1225463,Dy2As7Rh12,https://materialsproject.org/materials/mp-1225463,67.79019584818357,9.096190338066933,52.491683550277,9.001173817362488
-9.768708673333334,-58.61225204,7.487903955976592,-0.8153088795233335,0.9177530999999999,0.0,71,6,62.05567209922836,279.82896,mp-1247280,Nb2CrN3,https://materialsproject.org/materials/mp-1247280,30.40701128652263,47.96866259742749,64.58042581314754,-1.7134064215968767
-5.851806035,-35.11083621,15.437762330949754,-0.4836830083333332,0.0,0.0,191,6,119.69091086721005,1112.747,mp-811,BaPt5,https://materialsproject.org/materials/mp-811,76.76657371346656,12.07460004432329,61.949929144410035,22.55736156458615
-7.491769467894738,-142.34361989,6.939212375988974,0.11504044268210425,1.064948,0.0,12,19,180.46469171748961,754.142355,mp-1246235,Fe2Co9N8,https://materialsproject.org/materials/mp-1246235,27.04150295275086,53.60879928976326,69.49620032191181,-0.2554663887797418
-7.502255528499999,-150.04511057,7.255809407902486,-0.14756927449999893,7.551462525,0.0,36,20,288.0454872041095,1258.62934,mp-568856,Mn3As2,https://materialsproject.org/materials/mp-568856,23.077749133595468,35.816697846429854,63.725644256140136,-21.37475487942702
-6.2161547666666666,-18.6484643,3.916223105559408,-1.2741666249305572,0.0,0.0,139,3,47.48845656900197,111.997,mp-1008682,TiS2,https://materialsproject.org/materials/mp-1008682,93.00181360698821,39.02523934642887,62.31088420394149,61.197041463149745
-5.783133677241381,-167.71087664,10.009464643568087,-0.6416755420689664,0.48554140000000007,0.0,225,29,495.13386267867753,2984.5879999999997,mp-672275,Ce3(Ge3Pd10)2,https://materialsproject.org/materials/mp-672275,70.93615998979318,8.252250254818133,55.42369230374362,24.07544688452697
-6.03102121,-12.06204242,6.142634620480892,-0.601972449999999,6e-07,0.0,221,2,23.225338648391052,85.91473359999999,mp-284,AlCo,https://materialsproject.org/materials/mp-284,45.80859093235792,60.27612487997672,89.83313354293324,-5.535458628968628
-8.324518381136365,-366.27880877,8.05942727637565,-0.2842716014609101,39.5154857,0.0,194,44,542.4476889646464,2632.7702,mp-1200240,Dy2Fe17N3,https://materialsproject.org/materials/mp-1200240,76.59119627263362,33.840494901914475,89.19320427375807,-24.69534854464209
-7.18136755,-172.3528212,8.4341752194942,-0.20300541619791565,18.5406487,0.0,187,24,305.5592258925957,1551.9900400000001,mp-1220278,Nd4Fe4Co12B3C,https://materialsproject.org/materials/mp-1220278,74.12969999922116,26.44571952175344,60.79053091522879,15.869948306163723
-8.298364249999999,-365.128027,8.13272466422209,-0.08701565437499942,35.16229265,0.0,194,44,537.0984301338268,2630.51548,mp-1212484,Ho2Fe17C3,https://materialsproject.org/materials/mp-1212484,76.21012097040166,33.79341005023842,89.30786022374048,-24.52912353401048
-3.187834792,-15.93917396,5.100668773621726,-0.36284091299999977,3.3e-06,0.0,139,5,103.84170411691204,318.97,mp-1976,CaGa4,https://materialsproject.org/materials/mp-1976,32.113385865596584,18.71987768503133,54.84823142232853,-12.709850937116506
-5.171733289285714,-144.8085321,7.989723798696287,-0.5340719839285717,4.5e-07,0.0,63,28,502.34723398779704,2417.05588,mp-1211948,La2(Ga3Ru)3,https://materialsproject.org/materials/mp-1211948,69.71743213954757,15.63340586390236,64.88010451352581,4.8368179207406605
-7.987446644444446,-287.5480792,7.0077840334622366,-0.6111188251587313,8.6538549,0.0,6,36,408.93627425047384,1725.787244,mp-1221995,Mn3FeCo2P3,https://materialsproject.org/materials/mp-1221995,43.88066433102008,53.38530216777653,75.60381308122842,-10.887806859690242
-4.4543546475,-17.81741859,6.9932529889432695,-0.33056608249999986,2.2800000000000002e-05,0.0,225,4,46.07711599347173,194.0508,mp-867197,LiGaNi2,https://materialsproject.org/materials/mp-867197,42.95741949575885,61.503388527083004,61.83861675685411,-30.650757793261146
-6.687011041666668,-40.12206625,15.929004846245158,-1.1066368783333331,1.35e-06,0.0,227,6,114.481846553561,1098.1867,mp-1697,TbPt2,https://materialsproject.org/materials/mp-1697,82.59109309492004,11.316963969494305,61.33220715949714,26.091574049489946
-8.410851712777777,-151.39533083,6.8264031077050635,-0.8813638333333339,0.0,0.0,46,18,258.36690353953253,1062.135,mp-11560,TiSiRu,https://materialsproject.org/materials/mp-11560,47.38531714181586,44.21876925105237,65.44602118414605,-8.206970974427843
-3.9681125991666666,-47.61735119,2.5962190350221417,0.1835438308333336,3.9175e-05,0.0,12,12,205.8894692325531,321.904,mp-1073254,MgSi2,https://materialsproject.org/materials/mp-1073254,39.14010718610939,25.230798196652003,61.14487287553563,4.209609881115925
-6.277813424444443,-56.50032082,7.316373894761507,-0.16958084111111146,0.2045960333333333,0.0,180,9,133.60448738301443,588.6645000000002,mp-1084800,VGe2,https://materialsproject.org/materials/mp-1084800,54.45067329365058,54.434176529221325,80.43252889540683,-1.019517090484537
-9.49294222,-37.97176888,14.527587156054366,-0.5214261049999998,1e-07,0.0,65,4,55.58723245925492,486.31699999999995,mp-569250,VIr,https://materialsproject.org/materials/mp-569250,54.78578539752029,41.16133472552298,72.50826734464947,15.356071928913071
-8.38216031,-100.58592372,12.403139438948516,-0.5155895549999995,0.0,0.0,62,12,191.59022197454826,1431.05352,mp-22287,NbGeIr,https://materialsproject.org/materials/mp-22287,57.860359338584054,18.31137742434175,55.36157489114778,15.384967334091124
-7.863846389,-78.63846389,6.022291960453826,-0.6188904969999995,0.0,0.0,63,10,78.47759118676312,284.61539,mp-10057,VCoB3,https://materialsproject.org/materials/mp-10057,34.91877244204497,54.7609534367859,70.91473403141059,-1.7287029426752358
-8.517768704444443,-76.65991834,10.070600134457518,-0.3772686992592595,2e-07,0.0,8,9,156.1407941690576,946.9404,mp-1217145,Ti2As4W3,https://materialsproject.org/materials/mp-1217145,35.517627240667665,33.52417918836886,33.06732031251362,-50.46132940592455
-7.0158716455555545,-63.14284481,7.353130743865387,-0.4665777462698407,1.1698852,0.0,189,9,98.5819377674163,436.536486,mp-1080653,FeNiP,https://materialsproject.org/materials/mp-1080653,43.155654294877415,54.289117024189366,76.55447962758855,-12.17075924503372
-6.607825077586208,-191.62692725,8.000136569391668,-0.4241122768965511,0.0001014,0.0,225,29,286.92275612401755,1382.335,mp-1193912,Ti3(Ni10B3)2,https://materialsproject.org/materials/mp-1193912,39.287078867544366,53.56992710425649,79.29817206204878,-11.676290991526626
-4.828255031818182,-106.22161070000001,8.899859430241607,-0.2641649140340909,0.0,0.0,18,22,395.84144371219145,2121.56,mp-2503,Pd7Se4,https://materialsproject.org/materials/mp-2503,30.853982500332407,27.137476881397014,56.864647982966396,-2.1781160357682974
-5.779130245,-23.11652098,10.0229295719488,0.08621072845249955,0.0003657,0.0,139,4,54.293845611409715,327.7149032,mp-974386,Rh3F,https://materialsproject.org/materials/mp-974386,85.36834396601914,40.23760327748486,77.20371070501594,-2.8169031064767243
-6.4982866066666665,-38.98971964,8.521146570723536,-0.5989763940476179,5.535e-05,0.0,129,6,76.51753763348765,392.653914,mp-1018673,CoPPd,https://materialsproject.org/materials/mp-1018673,62.4331191132643,28.87881210033395,72.87774472772216,0.2852739408005356
-7.6598576925,-30.63943077,8.506951276353236,-0.14704792624999907,3.0177249,0.0,216,4,47.130393827112606,241.449285,mp-22289,Mn2CoGe,https://materialsproject.org/materials/mp-22289,79.15745072647238,49.25849054732379,91.92535358466831,-5.232620586154511
-6.879703156666667,-82.55643788,8.241531346631112,-0.2055205756944455,3.24686345,0.0,191,12,155.32393208098497,770.8984999999999,mp-1095566,LaCo4B,https://materialsproject.org/materials/mp-1095566,74.1116929545587,26.4962789070737,60.85053606284434,15.941862541240274
-7.36803107875,-58.94424863,6.7903875772276026,-0.5045075362500002,0.0,0.0,62,8,123.1155593806357,503.4524,mp-19940,VAs,https://materialsproject.org/materials/mp-19940,34.73184510643165,31.912406883196233,62.775486688232355,-23.052913804059468
-5.735314545517241,-166.32412182,7.230819564444918,-0.5164161120689655,4.8e-06,0.0,225,29,480.6046163841626,2092.7934720000007,mp-979260,Sc6Ga16Ru7,https://materialsproject.org/materials/mp-979260,51.07236729018778,43.82510385835253,66.59049018270765,-10.330813743605884
-8.27872301,-33.11489204,8.087685110348064,-0.27361049375000057,0.9193524,0.0,225,4,47.93280612313922,233.45759,mp-865554,Mn2VGe,https://materialsproject.org/materials/mp-865554,79.99658404657616,48.39312867665527,90.83802915931528,-4.524309091522087
-8.27549169232143,-463.42753477,6.5946325805654045,-0.18308017374999966,3.9999977375,0.0,92,56,666.4910885908604,2646.8898,mp-1198479,Mn5Si2,https://materialsproject.org/materials/mp-1198479,46.62754472847024,53.938711242388976,76.38739184276788,-9.789973182737238
-4.482734491142857,-156.89570719,8.349078178111084,-0.5016110760000003,0.0001685,0.0,12,35,542.3409819739344,2726.85384,mp-1203076,Tm4Ga21Ni10,https://materialsproject.org/materials/mp-1203076,68.28726617109619,19.022947819907014,63.51806582612515,6.47079028048052
-7.900145468125,-126.40232749,6.9569142784334606,-0.538407352708334,0.3575137,0.0,38,16,272.0355211899392,1139.7069,mp-1217195,Ti5Nb5Ge6,https://materialsproject.org/materials/mp-1217195,66.98147014341279,27.97137680699357,66.63927020838828,-6.8959641830751295
-6.8514379492592585,-739.95529852,9.898064054243653,-0.7048515800925931,0.00010689166666666666,0.0,176,108,1777.2400467660752,10593.69,mp-1211968,SmGe3Rh5,https://materialsproject.org/materials/mp-1211968,67.95551926342607,9.270836557538065,52.67517304282868,8.557631139691749
-4.582156791428573,-128.30039016,8.801539376930121,-0.463746897857143,5.96e-05,0.0,63,28,435.52871170893934,2308.48117,mp-1194094,Lu2(Ga3Co)3,https://materialsproject.org/materials/mp-1194094,68.47254848831179,18.604755016714627,64.75776468011784,6.4808461187067685
-8.4151883725,-67.32150698,7.6436128815530475,-0.52329136,1.6675e-05,0.0,198,8,109.56593347798098,504.342,mp-1079910,SiTc,https://materialsproject.org/materials/mp-1079910,55.92367316049919,39.57745822243841,70.34488273980911,18.63265147468401
-8.099596988,-40.49798494,8.465283418455435,-0.21167350547599995,3.0513672,0.0,221,5,58.36326354344839,297.530835,mp-505571,Mn3SnN,https://materialsproject.org/materials/mp-505571,51.20955171056747,61.814454233830006,84.04386634808897,10.270057544836762
-1.4951202641666663,-35.88288634,6.439706528692732,-0.16150444166666636,0.0,0.0,141,24,391.72818101762994,1519.154,mp-18567,CaZn11,https://materialsproject.org/materials/mp-18567,50.597288096547224,50.59407034420769,72.91127940685303,-6.335078798423293
-5.0796859225,-60.95623107,10.564101007785252,-0.36378409750000057,0.5850006666666666,0.0,166,12,164.63144038249226,1047.3606,mp-1095559,YbNi3,https://materialsproject.org/materials/mp-1095559,74.36769835898527,23.95063721356931,63.14265970558203,17.055506613920432
-8.179662356666666,-49.07797414,7.5087348955578515,-0.3135995788888894,3.6996114999999996,0.0,140,6,54.18161535024532,245.002,mp-1915,Fe2B,https://materialsproject.org/materials/mp-1915,36.37729009419996,55.530670872885686,79.80106294320234,-7.783214955771438
-9.101033201666667,-109.21239842,7.080158210253298,-0.7144874090476184,1.4471018999999998,0.0,62,12,164.99595482290175,703.504968,mp-20144,NbCrP,https://materialsproject.org/materials/mp-20144,62.72663185879803,28.380056912920004,71.88851888284813,1.2044877109659449
-1.894427081052632,-35.99411454,7.3766768242086025,-0.2539930194736841,2e-07,0.0,166,19,315.24768767540064,1400.437,mp-30711,Nd2Zn17,https://materialsproject.org/materials/mp-30711,71.33712535631065,17.443710862164778,66.46171424107878,4.301273911596843
-7.18464091,-21.55392273,10.839342114364188,-0.246405380833334,0.0,0.2171000000000003,107,3,43.78766184180797,285.82853860000006,mp-1228817,AlReGe,https://materialsproject.org/materials/mp-1228817,40.60153109846471,38.745166821122176,57.25680523864096,-10.592866567505435
-9.533169140625,-152.53070625,8.59770121353495,-0.3964084341666663,0.0,0.0,140,16,204.4969463313919,1058.815,mp-4984,SiB2Mo5,https://materialsproject.org/materials/mp-4984,60.217278602559226,28.75578116639778,64.57469319355293,17.051372288028794
-8.208008997931032,-238.03226094,8.903663294725893,-0.017257184137929864,13.1998582,0.0,225,29,424.69561750005835,2277.180295,mp-1192498,Tm6Mn23,https://materialsproject.org/materials/mp-1192498,71.48879475617021,28.31757380505525,62.67599219084949,12.4788709642063
-3.979268985,-47.75122782,2.568177764009306,0.1723874450000006,2.0375e-05,0.0,12,12,208.13752327551998,321.904,mp-1073413,MgSi2,https://materialsproject.org/materials/mp-1073413,39.38223882142311,23.922855329953393,58.88895778568502,2.2541733033632187
-8.262694964000001,-165.25389928,9.02477616111869,-0.444295887666668,0.0358462,0.0,55,20,251.7301624052681,1368.115,mp-1217361,Ti2FeB2Ru2Rh3,https://materialsproject.org/materials/mp-1217361,58.7506024508185,39.91757686309089,71.48595936967132,11.790960677764694
-7.12068186125,-56.96545489,7.639573809115862,0.00904317125000098,0.94490555,0.0,198,8,108.36369410889748,498.5444,mp-20861,CrGe,https://materialsproject.org/materials/mp-20861,79.12773368092533,46.83494592477204,82.42428332576826,-0.8010233106870139
-7.608108856666667,-136.94595942,5.8798044238537095,-0.4953170416666666,1.2933333333333334e-05,0.0,3,18,255.1794382932345,903.56514,mp-1220436,NbSi4Mo,https://materialsproject.org/materials/mp-1220436,41.05931074037827,38.915702607762974,57.733202870694434,-10.728215072971322
-7.118772815384616,-185.08809319999997,7.670222308210832,-0.7596777945054947,13.73260915,0.0,31,26,363.13305979602006,1677.3536960000001,mp-1213320,Eu2Ni7P4,https://materialsproject.org/materials/mp-1213320,64.84393377847074,9.36771634391854,60.94345065679153,-1.2837205512697116
-7.7768886625,-31.10755465,8.587299656014615,-0.10147436125000107,3.0113194,0.0,225,4,46.2676214482273,239.268045,mp-1018071,MnFe2Ge,https://materialsproject.org/materials/mp-1018071,78.9571147223878,49.575495076766074,92.45654864345852,-5.6590178218252465