energy_per_atom,energy,density,formation_energy_per_atom,total_magnetization,band_gap,sgr,num_sites,cell_volume,weight,mp_id,formula,URL,tsne_cry_0,tsne_cry_1,tsne_xrd_0,tsne_xrd_1
-5.5518447823076915,-288.69592868,4.324089644835143,-2.068451846826924,14.00964115,0.2261,4,52,824.4010638154183,2146.7632,mp-694875,Ba2Ca2Zn5Fe3O14,https://materialsproject.org/materials/mp-694875,-6.908665910562793,-43.034040731126964,-0.4467952637731221,-26.64087961570633
-7.239356397317072,-296.81361229,7.665334228649329,-2.2795043460670734,2.37e-05,0.3586999999999998,1,41,656.2630506473357,3029.42328,mp-675506,Nb6(Pb2O5)5,https://materialsproject.org/materials/mp-675506,-22.860087528246712,-63.27847267720528,-2.9773706220579323,-76.58590148434357
-6.5576910527272725,-144.26920316,4.733942950295418,-2.8942221965018176,0.0,2.7462,36,22,540.7426255086317,1541.5745600000002,mp-1223145,La4S4Cl2O,https://materialsproject.org/materials/mp-1223145,9.346289615076788,-9.600414576342782,-8.78266429439984,-11.094630021377917
-6.58045581375,-157.93093953,5.64672627824616,-2.328840982112068,0.99999965,0.0,15,24,340.17145660923484,1156.7659999999996,mp-1209110,RbYb(MoO4)2,https://materialsproject.org/materials/mp-1209110,-48.31094652925511,-55.1964721934027,-20.739853300868987,-58.90726962692272
-5.2462585115625,-167.88027237,5.986792473510955,-1.6555198752604168,0.0,1.6764,4,32,742.2302641921855,2675.9856,mp-1200233,DyAgS2,https://materialsproject.org/materials/mp-1200233,18.51332117400068,9.273353275376603,-6.460530884880182,-21.685232444620446
-8.152862901111114,-73.37576611,7.258729450406582,-2.7224266259722234,8.9999974,0.0,71,9,132.72573021350846,580.185195,mp-541429,BaEu2CoO5,https://materialsproject.org/materials/mp-541429,15.660867697206982,-63.35598004570963,17.080323745513958,-38.40915191365663
-8.267627119166667,-99.21152543,6.560849611556723,-3.3220914042708336,12.000598599999998,0.0,139,12,141.10397120342253,557.5068772000001,mp-983228,SrEu2Al2O7,https://materialsproject.org/materials/mp-983228,17.72874587980495,-68.30585670350615,37.89344962369126,-41.393211396875174
-9.576246933333334,-57.4574816,9.813354279120453,-2.6990171271874988,3.00000005,0.0,129,6,96.47273534622705,570.1288,mp-8137,NpSO,https://materialsproject.org/materials/mp-8137,-2.021966911951175,-57.80329381222397,3.659536972807089,-51.20006902791311
-8.12047121,-32.48188484,5.3810493126773835,-0.0014140249999989862,22.9277442,0.0,44,4,148.18408437779846,480.19699999999995,mp-1184342,Eu3Mg,https://materialsproject.org/materials/mp-1184342,0.8262933222309709,-34.12712701376189,-28.99021960978671,-60.328242552021536
-6.3989108646875,-204.76514767,3.7410853857572968,-2.7549955744700005,0.999999975,1.1315999999999995,57,32,580.0199281887882,1306.7468,mp-693892,Sr2CrClO4,https://materialsproject.org/materials/mp-693892,-22.232725453707147,-29.52027159128827,-17.297769339598904,-28.480914673639216
-5.866814382222223,-211.20531776,6.303673998560628,-1.6634029037500002,5e-08,2.8936,14,36,678.8333302018357,2576.9608,mp-505465,As2Pb2O5,https://materialsproject.org/materials/mp-505465,-25.79146431262156,-47.45300912494334,-19.45700727002548,-47.34198650187645
-5.988596307083332,-143.72631137,5.233551557589501,-1.6260436080555558,2e-07,2.1233000000000004,5,24,362.4520438454917,1142.3467999999998,mp-1190916,Ag2Te3Mo3O16,https://materialsproject.org/materials/mp-1190916,-44.28653977710687,-47.06847253709406,-27.26927021944144,-21.82105000245297
-8.852186755,-53.11312053,10.440944516080464,-2.5157498124479183,1.9999997999999999,0.0,129,6,105.91763757905615,665.9766199999998,mp-3217,USeO,https://materialsproject.org/materials/mp-3217,9.705588703338284,-68.76525110491434,3.1459338447710263,-49.35556220086015
-7.0839814352173915,-325.86314602,5.745587703573202,-2.9242060250000006,6.3e-06,3.1643,5,46,618.8525144051547,2141.2754,mp-1223199,La6NbGa11O28,https://materialsproject.org/materials/mp-1223199,-7.914332509702687,-46.438010174775116,8.146436154948152,-35.46158324783455
-7.41635692025,-296.65427681,5.990722343228903,-2.7640748105,0.999999975,0.012699999999999713,14,40,583.2768601753811,2104.2864,mp-1195015,CeAsO3,https://materialsproject.org/materials/mp-1195015,18.765473484131448,-46.48643819829795,9.08533828598866,-32.7600558239009
-6.617516207272727,-145.58535656,6.849772425894844,-2.0522634378030307,1.0000001,0.4230999999999998,14,22,288.75643613954946,1191.1288,mp-554812,CuB2(PbO3)2,https://materialsproject.org/materials/mp-554812,-26.502220775364385,-44.83419280829322,-18.045109657604804,-37.060936689007114
-7.417410772894738,-281.86160937,5.774704636499632,-2.1811622407894737,15.0000003,0.0,87,38,522.5087624771244,1817.0809,mp-561129,Pr(MoO2)6,https://materialsproject.org/materials/mp-561129,-4.146114176769543,-47.05111512829587,3.3841473058656986,-26.141380157287642
-6.527561033269231,-339.43317373,6.024713071186683,-2.14820290798077,13.00000065,0.9032,33,52,721.0139737609101,2615.9591600000003,mp-1203002,BaTmCo4O7,https://materialsproject.org/materials/mp-1203002,-3.0560994446713297,-44.0317713836937,7.873043364269093,-38.194289536038106
-7.36023295,-44.1613977,9.250516780273154,-0.7118278250000003,9.429999999999999e-05,0.0,109,6,114.54629189647731,638.11351,mp-1025025,ThCoSi,https://materialsproject.org/materials/mp-1025025,49.08017580610868,-16.55078351773778,21.506168207393628,22.391671984745766
-5.249794354230769,-136.49465321,4.2341146894676776,-2.0322901139390392,1.99999995,3.6501,14,26,438.266739460041,1117.5115999999996,mp-553947,Sr2NiSe2(ClO3)2,https://materialsproject.org/materials/mp-553947,14.190559361817572,-42.067248176766356,1.1760855863209267,-28.761870347649253
-6.92779441125,-55.42235529,9.340255876643814,-0.7108266337499991,1.4e-06,0.0,26,8,200.82429266429187,1129.60324,mp-1217344,Th2SiGe,https://materialsproject.org/materials/mp-1217344,32.436107256422076,-39.512023483304894,10.778402383349777,-18.272501291392754
-7.555125014583332,-181.32300035,4.1618754694503615,-3.6018032836458342,0.0,4.3953,35,24,334.7238447819633,838.9317716,mp-1218220,SrLaAl3O7,https://materialsproject.org/materials/mp-1218220,-22.067292883283084,-36.13579087162171,-18.933663151902515,-28.431654935130137
-7.202241284444446,-129.64034312,6.292806108870996,-2.5994269807340755,0.0,2.8106,46,18,282.39570218344625,1070.1714063999998,mp-690560,TiTlWO5F,https://materialsproject.org/materials/mp-690560,-48.41344827728346,-42.52600325830926,-30.204154955922984,-53.48042154694278
-6.193473108472222,-891.86012762,4.5266407821831685,-1.9087154763888892,16.001143525,0.4502999999999999,1,144,2089.1514370342734,5695.04110848,mp-1076754,K4Na4Mo7WO20,https://materialsproject.org/materials/mp-1076754,-31.14623499419925,-74.75248856846756,-22.19594157849077,-24.291946362069254
-6.157476149,-61.57476149,6.5552621136711275,-0.4990953400000002,1.96882265,0.0,194,10,261.62534126098467,1032.81082,mp-30223,La2Fe2I,https://materialsproject.org/materials/mp-30223,43.152715841204405,-12.260524709405804,22.87274453351757,17.023373676497993
-7.238754005,-260.59514418,7.632298123859477,-3.0546395775,0.0,3.0135,19,36,481.6567733431805,2213.82816,mp-768762,Ho2TeO6,https://materialsproject.org/materials/mp-768762,-28.866550812055998,-59.70786317886306,-11.05318173677345,-48.95969598609268
-3.7466352955,-74.93270591,5.84478550914756,-0.5299600654999999,5.00004405,1.3887999999999998,62,20,727.3510351892047,2560.13902,mp-23443,MnTlI3,https://materialsproject.org/materials/mp-23443,-0.5213169907311455,-26.479423141045853,-3.592525305547217,-31.25599968686851
-6.5353087357142865,-91.4943223,4.284986803738038,-2.209034997857143,9.99999855,1.7500000000000002,182,14,242.60189690038544,626.0292,mp-19285,Ba(FeO2)2,https://materialsproject.org/materials/mp-19285,-5.516639265677589,-42.2317611357897,-9.891569933352995,-25.25677391488498
-5.347272938461538,-69.51454820000001,6.865170669576669,-1.7489914793269228,0.0027055,1.2377000000000002,123,13,177.8779957036034,735.4014386,mvc-13310,Ba2AlTlNi2O7,https://materialsproject.org/materials/mvc-13310,8.766140422340097,-63.65752914436524,10.311020545512386,-44.24361827151853
-4.884054240833334,-117.21730178,5.578499436393008,-1.5169652707638892,2.5e-07,2.8969,14,24,440.92943373905945,1481.2808,mp-1191326,InTeBrO3,https://materialsproject.org/materials/mp-1191326,-33.359156085365235,-58.34009365947026,1.0107514436138516,-50.70011577927778
-5.878062544464287,-329.17150249,5.969395929714512,-0.7965470761985713,0.00636015,1.0086,60,56,1361.7455323314489,4895.2768,mp-1246932,Ba7HfN6,https://materialsproject.org/materials/mp-1246932,-2.1169242947195714,-31.31388408007145,-3.0642073238219343,-32.28373155059787
-7.748369910769231,-100.72880884,6.7939802246029135,-3.2288559107692314,0.9999996999999999,0.3003,65,13,181.4891536385511,742.550275,mp-25232,La4CoO8,https://materialsproject.org/materials/mp-25232,16.238354246048587,-69.55257045975736,39.072383132427284,-41.57356162513037
-7.481248194615384,-97.25622653,6.80909642701895,-3.0864832607692314,0.0018021,0.8567,65,13,181.02776852299505,742.31048,mp-510747,La4NiO8,https://materialsproject.org/materials/mp-510747,16.1755231585851,-69.53272763307297,39.09155568092246,-41.573297291578825
-7.5699657965625,-484.47781098,5.403112861516175,-2.37318932484375,6.9999999000000015,0.5003000000000002,1,64,766.7048014990094,2494.7276,mp-768045,V5BiO10,https://materialsproject.org/materials/mp-768045,-20.337188295865825,-41.54924471776472,-12.384597077618954,-40.40162919238794
-7.770176513571428,-108.78247119,5.00744249291421,-3.3549929112380954,3.1e-06,2.4499000000000004,129,14,185.10463885206985,558.19273856,mp-20980,NaNdTiO4,https://materialsproject.org/materials/mp-20980,12.467975924695759,-64.00814558801085,11.62933452797636,-44.222783387985785
-7.052994067435898,-550.13353726,5.164103750427093,-3.1900671998397443,0.00012585,2.6786,14,78,1618.9264749421982,5034.693,mp-779544,Ba4Y2O7,https://materialsproject.org/materials/mp-779544,-4.882863357645576,-62.135819536324604,-2.91262874608202,-32.09499092557164
-6.4391195325,-154.53886878,3.233635453962698,-2.776012933043583,0.0,4.3740999999999985,198,24,346.28144876161315,674.328,mp-1020633,RbMgBO3,https://materialsproject.org/materials/mp-1020633,-22.77974265189816,-31.903473945326837,9.96622532947909,-20.119065704509822
-6.248873247857143,-174.96845094,6.322344693965912,-2.369662882142857,0.0,3.4486,19,28,505.50398096993825,1924.6584,mp-1192417,BaGePbO4,https://materialsproject.org/materials/mp-1192417,-26.80877452502193,-45.94054518614625,-20.052122091883433,-42.990490945295726
-5.785300998235294,-393.40046788,4.8865555081253085,-1.6602574165152957,15.000557125,1.9869000000000003,14,68,1013.7202978826964,2983.128,mp-1200464,Fe3Te3ClO10,https://materialsproject.org/materials/mp-1200464,-41.74120908853938,-44.61039672476478,-19.365833320929184,17.849630441819887
-6.984994155384616,-181.60984804,3.8285932787337336,-2.5982639580219784,5.9999937999999995,2.9570000000000003,14,26,386.1292342107238,890.2722279999999,mp-1194023,BaCo2(PO4)2,https://materialsproject.org/materials/mp-1194023,-29.71852317587827,-27.746406763285304,-23.95879471440195,-12.606581385345994
-6.230738827692307,-323.99841904,5.7720582836925685,-1.78911854119391,0.0,1.5046999999999997,14,52,851.1822324817882,2958.72204,mp-558289,UAg2(SeO4)2,https://materialsproject.org/materials/mp-558289,-23.937082339104013,-46.908632924096786,-18.19168664714172,-42.707733756295134
-5.370987576607144,-300.77530429,4.300775939518644,-2.2712800351600992,0.0012933125,2.4365,14,56,1518.6803830981014,3933.3637416,mp-1178539,Cs3ScO3,https://materialsproject.org/materials/mp-1178539,-5.669423629823152,-27.669572825743252,-6.4096811296031175,-29.871852905835148
-7.6514391144,-191.28597786,7.426715683639975,-2.7698543587166666,0.0033905999999999997,2.1728000000000005,35,25,348.505864871855,1558.683,mp-1215414,ZrTi4(PbO3)5,https://materialsproject.org/materials/mp-1215414,-2.4662683432806634,-79.83808629420827,26.10384422339077,-66.66416369837418
-5.534715516666666,-33.208293100000006,4.139995569181621,-0.3799042961165841,1.3757511,0.0,129,6,175.53381154997902,437.6345178,mp-1077378,CsMnP,https://materialsproject.org/materials/mp-1077378,-8.358763163754274,7.630655850440028,1.6971987194236813,-50.72967990761859
-7.904799505384616,-411.04957428,5.660286154169178,-3.1877755002564103,0.0,4.5252,60,52,599.3376863547871,2042.9648,mp-1197137,Nd2Ge(BO4)2,https://materialsproject.org/materials/mp-1197137,-17.11889542293775,-36.56012392666511,-16.303647261979187,-35.667333069104295
-6.600854545588236,-224.42905455,6.034068121468332,-2.458551107205882,5.999999900000001,0.23030000000000014,194,34,577.2297671767011,2097.538,mp-28908,Ba5(RuO5)2,https://materialsproject.org/materials/mp-28908,-14.801428119937333,-81.10146410899624,15.711026520816748,-70.75716684495684
-5.34093930826087,-245.68320818,6.505399450876127,-0.4696955269565224,6e-07,0.0,14,46,762.7697112995786,2988.2595599999995,mp-1202639,Yb5(Co2Si7)2,https://materialsproject.org/materials/mp-1202639,53.64263582984229,-0.20433868023509347,15.289651753583415,6.262266722082834
-7.092936125,-255.3457005,5.309473897592804,-1.1620556319837034,0.862305525,0.0,52,36,705.2414498576103,2254.9672,mp-1246374,Ba3(TiN2)2,https://materialsproject.org/materials/mp-1246374,-3.3462172943485418,-32.44823439845826,0.06524295101605257,-30.387495764267968
-3.8519715691666665,-92.44731766,5.95815978518157,-0.1738404883333331,4.625e-06,0.2639999999999993,6,24,772.4002851456517,2771.44,mp-1219050,Sn2GeTe3,https://materialsproject.org/materials/mp-1219050,26.75986130618989,-18.94979208228005,6.553237660539585,-22.46074182093016
-3.6867351375,-14.74694055,3.0590885696722614,-0.3795972480949996,2.3e-06,0.0,107,4,106.49490120932016,196.1877,mp-1218743,Sr2LiN,https://materialsproject.org/materials/mp-1218743,-1.2418520705038771,-39.016475480806896,-27.76270376545051,-68.57313231527667
-4.7228258855555545,-42.50543297,5.653770669475311,-1.4615983444252874,2.9999999,0.3660000000000001,12,9,231.3912587605116,787.8364076,mp-561672,Cs4IrO4,https://materialsproject.org/materials/mp-561672,-4.1638738341894435,-28.722174311494413,-27.297485176686248,-58.45235618436902
-6.72089321,-94.09250494,3.740877284463379,-1.2641361388771426,0.0,2.0894,229,14,210.35702593020238,473.8942,mp-9723,Sr4Li(BN2)3,https://materialsproject.org/materials/mp-9723,6.496930871245151,-55.86722138118283,71.68216936969769,-38.21744350990411
-7.11735062375,-56.93880499,8.898155807682295,-0.6997401062500002,0.0,0.0,62,8,194.17296614692168,1040.49424,mp-21238,ThSi,https://materialsproject.org/materials/mp-21238,32.314614256595505,-39.68340228250643,10.706642913695251,-18.26664697681924
-7.864403781212121,-519.05064956,3.9786681281774996,-3.5130540305909093,0.0,4.6896,40,66,993.4760909856384,2380.37863856,mp-1019523,Ba3NaY3(Si3O10)2,https://materialsproject.org/materials/mp-1019523,-24.6786486757829,-36.61046606063895,-19.003197741885632,-14.267008634981865
-7.575863113,-151.51726226,7.859471877957464,-2.9811655852499994,5.000000475,1.5703,62,20,229.11248690510257,1084.4088,mp-19935,ErFeO3,https://materialsproject.org/materials/mp-19935,9.414464946315453,-80.8160449794916,51.858583255102914,-53.00519366762826
-6.713124410681817,-295.37747407,3.919776158166595,-2.2896410189393945,3.9529553999999996,0.0,16,44,584.1993866934529,1379.0286,mp-1228284,BaSr3Cu8(BO3)8,https://materialsproject.org/materials/mp-1228284,-21.964164304958114,28.805963148669097,-17.94053267506777,-21.617018380625648
-5.1074172075,-40.85933766,6.656076473329367,-0.6469486987500002,3e-07,0.0,63,8,139.66503529618603,559.8309544,mp-31182,ErAl2Ni,https://materialsproject.org/materials/mp-31182,39.73753820623074,-14.408593033420267,20.167916483600077,10.287921624348753
-7.5729764985,-151.45952997,7.7380552634933935,-2.97614885275,5.000000525,1.5675,62,20,230.70857350105393,1075.0940799999996,mp-19785,HoFeO3,https://materialsproject.org/materials/mp-19785,9.537911968867736,-80.8509067928117,51.869553647604725,-53.225492137495024
-5.84753561,-29.23767805,7.533288800573767,-1.4848386402500005,3.9999995000000004,0.8266999999999998,99,5,69.63543847595783,315.91179500000004,mp-545522,CoBiO3,https://materialsproject.org/materials/mp-545522,-1.2977409591728064,-78.43646433783033,1.6948905884426064,-47.596024598086395
-4.3872006775,-17.54880271,3.92817836073933,-0.7471217852500001,0.0,1.8409,166,4,80.42538506364681,190.25464,mp-690794,Sr2HN,https://materialsproject.org/materials/mp-690794,6.854152145420077,-39.093724318698996,6.521773385803707,-56.08244140563859
-4.8036099960000005,-48.03609996,7.341656689814812,-1.9428579636400003,0.0,2.5771999999999995,67,10,219.32752273908497,969.7016064,mp-23104,Pb2ClOF,https://materialsproject.org/materials/mp-23104,-19.97867125124699,-55.31151886837856,-11.374710438546087,-60.212243335185974
-7.909829236428571,-110.73760931,8.856647745654278,-2.8048481984821434,1.62e-05,1.9258,139,14,198.9610305930926,1061.17816,mp-23611,BaTa2Bi2O9,https://materialsproject.org/materials/mp-23611,-18.14047474796498,-57.38814051350968,-9.139650104101614,-61.87821346540513
-10.178871128928572,-285.00839161,7.549915521587669,-3.3520771943154752,20.99999965,3.1839,173,28,356.47909643397924,1620.7912,mp-561177,Gd3BWO9,https://materialsproject.org/materials/mp-561177,-28.31106594531236,-58.67797683738435,-11.458947288058484,-53.11285255484304
-7.467095767272728,-328.55221376,3.7668821522714064,-2.9391423305905198,5.000002375,4.2123,14,44,645.7364673673618,1464.833476,mp-18703,BaMnP2O7,https://materialsproject.org/materials/mp-18703,-27.012795472499324,-26.049665861117052,-19.65764126991911,-13.686359560940973
-8.70122535,-174.024507,9.407428340391544,-0.4920498447083333,4.893090975,0.0,127,20,202.80988969442745,1148.976,mp-20467,PuB4,https://materialsproject.org/materials/mp-20467,7.726431968715349,-59.166931611826904,4.565889532465617,-48.71560394826772
-6.421158262083334,-154.10779829,8.09712348853935,-1.7347883152641674,8.99999975,0.06380000000000052,36,24,348.14518405283525,1697.62618,mp-1190266,Mn2Bi3O7,https://materialsproject.org/materials/mp-1190266,0.7678205781602903,-79.43643510178177,5.876558232623931,-34.71507838713658
-8.256317382333332,-495.37904294,5.435838168455444,-1.9448896561041653,27.99999235,1.5642,41,60,1355.1917146481294,4436.272,mp-1199284,Gd4GaSbS9,https://materialsproject.org/materials/mp-1199284,9.49625795598779,-5.60488335105432,-8.301273366086633,-18.361958819267148
-6.33253224875,-50.66025799,6.016046837728669,-0.65271205125,0.843536525,0.0,62,8,185.70677048918088,672.806,mp-21115,CeSi,https://materialsproject.org/materials/mp-21115,32.20316616796424,-39.99007850970628,12.92654520798083,-18.53431631568689
-8.401742313529411,-571.31847732,6.4622303938127414,-1.4888118821423533,5.00000015,0.0,64,68,936.2586015251268,3643.5872,mp-571312,Ce5(SiN3)3,https://materialsproject.org/materials/mp-571312,18.59961736814705,-48.12889668065082,15.024220163611481,-25.574184859925012
-6.377149966538463,-663.22359652,5.458255111797078,-2.0286140668681316,1.9825714875,0.4118,56,104,1275.8835305358486,4193.877791999998,mp-582882,Cu2P2PbO8,https://materialsproject.org/materials/mp-582882,-25.132118603124283,-40.79626652516864,2.146248624219632,1.334426419092806
-2.91511343875,-23.32090751,9.849066293204164,-0.6500606181249999,0.0,1.1911,62,8,146.06670059611122,866.3576,mp-1224,HgO,https://materialsproject.org/materials/mp-1224,5.844430816927053,-61.37877053224391,27.206875096908878,-33.269927043522145
-6.525839793035713,-365.44702841,7.283784755318301,-2.0477725656547614,0.0,2.8919,14,56,928.8238336352632,4074.1908,mp-1201529,VB(PbO2)4,https://materialsproject.org/materials/mp-1201529,-26.995394838678738,-47.58922049130968,-14.745922828003238,-47.89244866860261
-4.2778932075,-34.22314566,4.789230996010276,-1.0967666580729172,0.0,0.3815,23,8,208.0456939400043,600.0334,mp-555166,BaAg2SnS4,https://materialsproject.org/materials/mp-555166,-1.6428970682516983,-22.357319867340344,-20.07377100771935,-52.85857087590732