energy_per_atom,energy,density,formation_energy_per_atom,total_magnetization,band_gap,sgr,num_sites,cell_volume,weight,mp_id,formula,URL,tsne_cry_0,tsne_cry_1,tsne_xrd_0,tsne_xrd_1
-5.5532063957142865,-38.87244477,7.1265593675234316,-0.5503384137797624,0.0,0.19460000000000036,166,7,110.55199319702123,474.457585,mp-1077901,InCo3SnS2,https://materialsproject.org/materials/mp-1077901,41.086626040153476,41.27100162230913,62.548052462273475,-9.192849884400989
-6.9594089475,-55.67527158,3.4290038249887402,-0.27572071837750034,0.0,3.8457,122,8,62.304381919675926,128.65820000000002,mp-15702,MgCN2,https://materialsproject.org/materials/mp-15702,28.986343016241797,53.129029221158426,73.89580150754007,-1.7082340793763562
-7.225007869285713,-202.30022034,8.389763983732987,-0.7082743373469397,4.135e-05,0.0,62,28,399.44571761366944,2018.173144,mp-621581,P3Rh4,https://materialsproject.org/materials/mp-621581,30.105407092022585,28.765672249648556,64.11274785816988,-2.445843624321974
-7.229701138333334,-43.37820683,11.175215818609553,8.206583333366287e-05,7.5e-07,0.0,12,6,98.51212069405344,662.9739999999998,mp-1025067,ReGe2,https://materialsproject.org/materials/mp-1025067,35.583258476447924,33.59642116526207,57.18253902657188,-8.336642410047888
-9.070363353928572,-253.97017391,7.168126489958148,-0.23570875232142896,0.396721425,0.0,227,28,307.98211700409337,1329.4808,mp-1193313,V3Fe3C,https://materialsproject.org/materials/mp-1193313,46.254147775768146,54.39188010352965,77.80301594764623,-9.823350126410258
-7.536220793333332,-67.82598714,7.364339420263191,-0.7957866666666654,3.3333333333333334e-08,0.0,189,9,147.91684475899442,655.997736,mp-9223,ScGeRu,https://materialsproject.org/materials/mp-9223,47.18689554707881,44.8081227830049,60.11825118673295,-7.8380429459479695
-8.667861865277779,-312.04302715,6.288461052232307,-0.3341367528422615,18.336592899999996,0.0,25,36,422.663996933466,1600.6284819999996,mp-1226632,Cr24P11C,https://materialsproject.org/materials/mp-1226632,44.259544419379985,53.30727631263943,76.36355895842381,-11.37833057613924
-7.187191428333333,-86.24629714,6.389802615133637,-0.4262650999999996,4.75e-07,0.0,38,12,143.15941482310282,550.8815999999998,mp-1216307,VSiNi,https://materialsproject.org/materials/mp-1216307,47.56655191535923,53.67285786388549,78.28666861048,-4.668163442081816
-6.577995168571428,-184.18386472,8.744295470596253,-0.2626196607142859,6.290096299999999,0.0,140,28,365.01560506557627,1922.14951,mp-1194086,CeCo9Ge4,https://materialsproject.org/materials/mp-1194086,22.227688761885794,38.01634766130146,65.44665307937818,-22.155226466629895
-6.775667228333332,-81.30800674,7.085255602984335,-0.6762905488888885,0.0,0.0,62,12,167.99352167804852,716.8016,mp-16356,TiNiGe,https://materialsproject.org/materials/mp-16356,45.401518563408146,50.50350799247784,73.44227420835416,-10.631319504331266
-5.197292151428571,-145.52418024,10.339851510804463,-0.6758495274999997,1e-06,0.0,63,28,483.3548464068222,3009.7560000000008,mp-1208926,Sm2(Ga3Ir)3,https://materialsproject.org/materials/mp-1208926,62.366978922039955,13.305715183141048,54.65874007767074,-9.270308675610064
-4.352004813571429,-121.85613478,8.115304203672169,-0.1345269346428571,1.5e-07,0.0,14,28,425.7544102554914,2080.72588,mp-30590,LaCu6,https://materialsproject.org/materials/mp-30590,69.43548217981017,31.07590857465252,67.93904953482163,5.620128738787232
-7.395580534426229,-451.1304126,5.6222568714957335,-0.6545523134016401,1.8475592,0.0,1,61,1009.325032904503,3417.375,mp-680260,Ti45Se16,https://materialsproject.org/materials/mp-680260,36.51659633282891,29.9014488816715,61.108011246342144,0.7265605646540647
-6.88231249625,-55.05849997,6.63392219417539,-0.6146567437500003,0.0,0.0,198,8,87.12670183815092,348.07478,mp-7577,CoSi,https://materialsproject.org/materials/mp-7577,43.18576099968645,58.176215782354,78.13592399924873,-7.622044101232321
-7.708045706666668,-92.49654848,9.156881495345964,-0.29650405535714225,0.0002499,0.0,194,12,144.68799637072252,797.867924,mp-1220086,Ni3Mo2P,https://materialsproject.org/materials/mp-1220086,64.61866617044561,46.48863313738625,78.07611441567123,-1.9927751728843068
-6.1819763275,-74.18371593,8.385802968841142,-0.4225349798611121,5e-08,0.0,191,12,154.38528439928731,779.6532,mp-8048,NdNi4B,https://materialsproject.org/materials/mp-8048,74.27803063062308,26.324002945715627,61.10134650468019,15.949250012663569
-7.6366149425,-30.54645977,7.4657079387080145,-0.4354761662499991,5.0,0.0,225,4,44.68237741808733,200.889935,mp-4492,MnCo2Si,https://materialsproject.org/materials/mp-4492,42.4466968042707,60.146876818519104,91.54047773885249,-8.613595449676314
-7.256968985277778,-261.25088347,5.914803774889947,-0.8290509459201397,0.00016269999999999997,0.0,58,36,588.5291578772429,2096.328,mp-620032,Ti2Se,https://materialsproject.org/materials/mp-620032,36.395893846067096,29.964402304286494,69.42427594932218,-8.020790571144401
-4.535313948125,-145.13004634,6.615688506068829,0.5272733012800002,0.1952899,0.0,123,32,410.92686074002097,1637.1576,mp-1203286,Cu3N,https://materialsproject.org/materials/mp-1203286,50.27924538654469,60.440268587146605,85.35069003459488,6.631422409139148
-7.7213102262068976,-223.91799656,8.778598663409529,-0.06460399448275995,49.28022429999999,0.0,225,29,430.14768279815115,2274.01692,mp-2759,Ho6Fe23,https://materialsproject.org/materials/mp-2759,71.47672250979322,28.37723779882888,62.63084810294375,12.245544747892325
-6.07669434125,-48.61355473,8.747531752903983,-0.21032406874999945,0.0,0.0,198,8,99.90586285897233,526.29278,mp-10692,CoGe,https://materialsproject.org/materials/mp-10692,79.13865627624885,47.28507333999689,83.68830981300295,-1.6978528224318377
-8.19185573097561,-335.86608497,8.30873767702331,-0.06445613576219572,74.88968179999999,0.0,2,41,521.7200942251453,2610.49894,mp-1217051,Tm4Fe34C3,https://materialsproject.org/materials/mp-1217051,74.97376205156709,34.18812151132853,87.85508381330395,-23.556697604383377
-8.157256979,-163.14513958,8.200964136182389,-0.047320881937501724,37.662467299999996,0.0,12,20,261.4507656455661,1291.2363400000004,mp-1224201,Ho2Fe17C,https://materialsproject.org/materials/mp-1224201,75.06904396672063,34.320345359138926,87.7843174706954,-23.6381735630434
-5.6175564836111125,-202.23203341,7.411809690216383,-0.4629736743253972,3.7086900999999997,0.0,62,36,505.92029751361525,2258.173324,mp-1195036,DyMnCu4P3,https://materialsproject.org/materials/mp-1195036,64.80725588189205,9.754466219439198,60.942282371421975,-2.3091553721958693
-6.984297420727272,-384.13635814,7.97172319778926,-0.8896065301948056,0.017796400000000004,0.0,143,55,815.7451062039411,3916.134478,mp-1227454,Ca6P19Rh30,https://materialsproject.org/materials/mp-1227454,48.186778642180464,40.14508824107549,64.55344238477193,-5.566060080076517
-5.744021527857143,-160.83260278,8.504104005966544,0.026401643571428428,1.2459377,0.0,140,28,379.109313766388,1941.5292,mp-1193573,EuNi9Ge4,https://materialsproject.org/materials/mp-1193573,22.33111805596456,37.89853223039831,65.30488152957093,-22.0159884755192
-6.84309357375,-109.48949718,8.352255980776555,-0.26580599156249995,20.828556699999996,0.0,166,16,185.3138292670522,932.10006,mp-1225352,Ga3Fe4Co8Si,https://materialsproject.org/materials/mp-1225352,78.91906179132387,49.58729333269728,91.75817367937636,-6.373442224447256
-6.831490577931034,-198.11322676,7.121917919881028,-0.3401268884482759,18.0745915,0.0,225,29,337.5371281739564,1447.6695,mp-541940,Cr6Si7Ni16,https://materialsproject.org/materials/mp-541940,46.617181360080735,53.04932688053329,72.39774383187209,-12.788272498469924
-2.0043599868421054,-76.16567950000001,7.504762097868508,-0.2408493297368417,0.013095500000000001,0.0,194,38,616.0828320084893,2784.370000000001,mp-978252,Ce2Zn17,https://materialsproject.org/materials/mp-978252,71.11794105378131,17.526208246306016,66.57223829000276,4.350680875413993
-2.846927504210526,-54.09162258,7.993441870902505,-0.22561839236842104,14.1668646,0.038799999999999724,166,19,296.3280315889358,1426.4530000000002,mp-542437,Gd2Zn17,https://materialsproject.org/materials/mp-542437,70.83944444541075,17.545831364246098,66.70471239211,4.268578898638058
-5.882190966944445,-211.75887481,9.050796003422567,-0.3399139030555555,1.202442575,0.0,194,36,522.2064774388153,2846.2952,mp-1200995,Sm2Ni7,https://materialsproject.org/materials/mp-1200995,74.22176007887006,23.644393086226536,62.68083204940254,17.252209499304012
-8.014280692647061,-544.9710871,8.185552511195175,-0.1126897177450985,30.848574,0.0,136,68,906.9083660101821,4470.564,mp-4023,Dy2Fe14B,https://materialsproject.org/materials/mp-4023,72.46020083947259,32.15405164304437,83.7426647668099,-6.694352475947549
-7.23195462375,-57.85563699,6.028017728329036,-0.9456128398214291,1.4e-06,0.0,129,8,116.72493126729886,423.729848,mp-1078514,ZrNiP2,https://materialsproject.org/materials/mp-1078514,56.688518520035046,32.39804607611789,63.11265790342182,-1.6729194662086533
-6.48841127875,-51.90729023,9.196488491783393,-0.4910214462500005,3.3725e-05,0.0,62,8,128.4354749897463,711.3084,mp-22079,AsRh,https://materialsproject.org/materials/mp-22079,35.01811794716343,31.730415120222265,70.68259291996908,-9.23859373965039
-8.355120821904762,-175.45753726,6.2091673314348075,-0.7149005521428567,18.9491679,0.0,174,21,258.33662026643225,965.984698,mp-1190950,Sc2Mn12P7,https://materialsproject.org/materials/mp-1190950,44.109391889759046,52.720178874006606,74.97494147535272,-11.170536803406284
-7.884217825625,-126.14748521,8.231836065118745,-0.158642839375001,12.0257489,0.0,166,16,184.0745151316821,912.51768,mp-1222097,Mn4Fe8SiGe3,https://materialsproject.org/materials/mp-1222097,78.87507339460286,49.602688038181675,91.6799615562572,-6.607435476190027
-4.192885519444443,-75.47193935,2.8242895530014653,0.01875693499999977,9.4e-06,0.0,189,18,301.6916614548032,513.1253088000002,mp-571315,Mg3Al8FeSi6,https://materialsproject.org/materials/mp-571315,45.53372156008789,43.656326898578946,63.206325022143275,-8.973429686772358
-7.72789235,-23.18367705,6.180832672836013,-0.4902332200000004,0.0,0.0,139,3,40.86605596419475,152.111,mp-2592,Si2Mo,https://materialsproject.org/materials/mp-2592,40.70035907321322,38.92122587107696,56.37387398881413,-10.622874248033613
-6.971169664482759,-202.16392027,8.42380977995716,-0.10072506528735732,26.9100211,0.0,225,29,290.99795982849787,1476.2142900000001,mp-1194097,In(Co11B3)2,https://materialsproject.org/materials/mp-1194097,39.669391124219935,53.285540602071286,79.25935417206402,-10.827519668106687
-7.729058823888887,-278.24611766,4.8026876091944075,-1.3095010763541666,0.0004409583333333334,0.0,58,36,530.2411800426632,1533.588,mp-616559,Ti2S,https://materialsproject.org/materials/mp-616559,51.619798542881774,46.9253261506844,72.30360282433855,-4.714818222063049
-6.174171742222222,-222.27018272,8.465176619110126,-0.41473039458333394,6.666666666666667e-08,0.0,74,36,458.8130766243917,2338.9596,mp-680551,NdNi4B,https://materialsproject.org/materials/mp-680551,74.27051306003301,26.346011329039978,61.26091002831958,15.909387913206778
-9.541635527,-95.41635527,8.88621809261694,-0.3528190536666657,3.485e-05,0.0,127,10,115.6488657514722,618.884,mp-1079053,B2Mo3,https://materialsproject.org/materials/mp-1079053,59.87960342025021,28.91045021627268,67.58762332412573,2.6492982001028773
-7.370983432272728,-324.32327102,5.610258967455083,-0.6759364267376898,0.036714699999999996,0.0,12,44,733.8190066356362,2479.264,mp-679962,Ti8Se3,https://materialsproject.org/materials/mp-679962,36.516258657840645,29.92758089017963,61.122985704610656,0.6999632047365282
-6.300178685,-37.80107211,14.643366537540262,-0.7681274383333339,0.6127307,0.0,187,6,112.28457880343343,990.175,mp-1226944,CeGaPt4,https://materialsproject.org/materials/mp-1226944,76.76731055422323,12.066976801412014,62.107929999711466,22.724169178472835
-5.5058726657142865,-77.08221732,7.662187558710173,-0.3569392451600005,1.06e-05,0.0,1,14,180.97069347909098,835.0489586,mp-568788,La2AlNi9H2,https://materialsproject.org/materials/mp-568788,74.31499709396387,21.65279265495082,88.90454706354694,-13.362695246066565
-7.50308753375,-60.02470027,6.75523358274314,-0.4090538805357129,3.1817384,0.0,26,8,106.0798017936162,431.542904,mp-1221923,Mn2AsP,https://materialsproject.org/materials/mp-1221923,18.42027817702337,37.39513397143301,67.4877546040468,-22.737568956595112
-5.8945257025,-47.15620562,8.7100491451059,-0.2271651243750004,1.0330143,0.0,146,8,99.77967986194236,523.3757800000002,mp-1224863,GaCo4Ge3,https://materialsproject.org/materials/mp-1224863,79.15670914814105,47.29888715206567,83.5679696002049,-1.5889371001752008
-8.133249489117647,-553.06096526,7.788634579055984,-0.07531976950980379,28.84483425,0.0,136,68,914.9472777950514,4291.492,mp-4459,Ce2Fe14B,https://materialsproject.org/materials/mp-4459,71.95592590258184,32.41778269284373,84.21589617426328,-6.768515160147536
-8.25786477,-33.03145908,7.965167836935095,0.13162356125000052,0.0026158,0.0,225,4,48.13896097637501,230.9099,mp-1183682,Cr3As,https://materialsproject.org/materials/mp-1183682,80.10630372776467,48.16900026998489,90.5917385767886,-4.3867972261071815
-6.578419962222222,-59.20577966,8.12134169408227,-0.2500089772222225,3.8533589,0.0,189,9,144.9335305639461,708.838935,mp-1079035,MnAsPd,https://materialsproject.org/materials/mp-1079035,47.116014904620826,44.807018579864256,63.936808587110654,-8.873412240716396
-7.3344178173611105,-528.07808285,4.727277578605434,-0.7713028669907405,0.00513385,0.0,62,72,1018.6853432208464,2900.0272,mp-1199666,Ti4Si4Ni,https://materialsproject.org/materials/mp-1199666,49.28649652395137,46.231625834377915,71.8871187705725,-7.059520138237856
-7.085238377777778,-63.767145400000004,4.879520255196908,-0.4330647188888885,0.8890583000000001,0.0,21,9,110.71372891387173,325.334045,mp-1221935,Mn(VSi3)2,https://materialsproject.org/materials/mp-1221935,47.84103688498128,50.414356759395474,77.09041315628015,-6.8289981758443234
-9.07211548047619,-190.51442509,8.222558849194717,-0.12502565832190546,37.797512100000006,0.0,12,21,260.8937871381521,1291.8784,mp-1225193,Gd2Fe17N2,https://materialsproject.org/materials/mp-1225193,76.20135927375874,34.669492865674584,87.67053898992049,-23.77386842908482
-6.894720502,-34.47360251,8.968625801997343,0.01825030724999976,1.8335433,0.0,221,5,56.937311256837454,307.52028499999994,mp-20679,Co3SnC,https://materialsproject.org/materials/mp-20679,51.26977378966882,61.889342255889524,84.73849255108247,9.566924805337617
-4.508655089142857,-157.80292812,8.357208165745662,-0.5161164151428571,9.350000000000001e-05,0.0,12,35,538.6311679439676,2710.83828,mp-581730,Ho4Ga21Ni10,https://materialsproject.org/materials/mp-581730,68.29758036761444,19.02418853970495,63.60049751217322,6.432640456895657
-7.377763885357143,-413.15477758,10.974746303576119,-0.1130831182142852,3.14654615,0.0,58,56,788.488927192235,5211.239079999999,mp-642894,UCo5Sn,https://materialsproject.org/materials/mp-642894,64.58312059481162,13.868087443463118,57.86242958713778,16.141587952820373
-9.148433151,-91.48433151,5.894541935671579,-1.0284566399045716,0.00021075,0.0,63,10,111.44644156960905,395.60992400000003,mp-1079048,V3PN,https://materialsproject.org/materials/mp-1079048,52.11780779825427,47.84362811615446,73.24063063067302,-2.166887258536609
-8.06355452736842,-306.41507204,7.691359883602169,0.03959329302631581,79.5922301,0.0,8,38,531.4445563574974,2461.56895,mp-1227066,CePr3Fe34,https://materialsproject.org/materials/mp-1227066,74.90190055615678,36.99526794776422,86.86261608042126,-23.12602651072557
-8.254450586666666,-49.52670352,16.46010169502295,-0.8027444299999994,0.0,0.0,227,6,109.63108614290563,1086.7187,mp-2725,TbIr2,https://materialsproject.org/materials/mp-2725,81.38121500819159,11.612105288762402,61.59973138791666,26.927710799995516
-6.9992351983333325,-41.99541119,7.264792456119587,-0.5296276450000003,0.0,0.027499999999999858,12,6,110.97224235058523,485.49916,mp-7598,NbAs2,https://materialsproject.org/materials/mp-7598,35.451947847945775,31.14430637014647,61.52391287200673,1.8485132478240407
-6.442785104482758,-186.84076803,8.146738562276354,-0.2008615951724139,8.6588497,0.0,225,29,286.63796651764284,1406.269,mp-1193589,Fe3(Ni10B3)2,https://materialsproject.org/materials/mp-1193589,39.39595551049176,53.6114271129572,79.30690286934089,-11.688053918000795
-7.820351576842105,-148.58667996,7.53066941374337,0.0045305289473680285,34.751180100000006,0.0,160,19,265.1150833020374,1202.3168386,mp-1219949,Pr2AlFe16,https://materialsproject.org/materials/mp-1219949,74.85857949872397,36.67440846060352,87.91972975285185,-22.95371847530391
-5.23808927,-94.28560686,7.868836307217292,-0.5176395579166666,0.00014099999999999998,0.0,189,18,287.69242347382794,1363.2950099999996,mp-1223449,LaGa2Ni3,https://materialsproject.org/materials/mp-1223449,76.44827962571469,15.480271218316537,63.108318349970475,0.7093494357219582
-7.9365679825,-63.49254386,5.826265902681762,-0.592364353571428,5.551958900000001,0.0,6,8,97.1041200325818,340.705283,mp-1221731,Mn3CrP4,https://materialsproject.org/materials/mp-1221731,17.111517754972798,37.67380641247096,68.09835951065183,-23.618258109052864
-6.3786240633333335,-76.54348876,3.8977817265407415,-1.4366359215972235,3.6000000000000003e-06,0.07840000000000025,62,12,190.85254527880608,447.988,mp-1101969,TiS2,https://materialsproject.org/materials/mp-1101969,47.99799146129672,44.6318149728232,65.95454634093545,-7.288880590836262
-6.826672194827586,-197.97349365,7.156298841044596,-0.4340922156896552,22.870905800000003,0.0,225,29,340.01137500964137,1465.32117,mp-22290,Mn6Si7Ni16,https://materialsproject.org/materials/mp-22290,46.593991967797,53.06485756340778,72.36076753385619,-12.784746443424954
-5.783350434642857,-161.93381217,8.537902182539518,-0.4062808207142865,0.00061715,0.0,140,28,373.3078646401331,1919.4165,mp-1186507,PrNi9Ge4,https://materialsproject.org/materials/mp-1186507,22.291291542043442,37.92472014665936,65.36987224558216,-22.094770330187178
-5.4659173533333325,-81.9887603,4.068218921776024,-0.2748418853333324,1.0246381,0.0,2,15,210.84164120914213,516.5491046,mp-2856,Mn4Al11,https://materialsproject.org/materials/mp-2856,45.001810330748604,44.418237211903495,66.84072223703667,-13.119853687508815
-4.345689393928572,-121.67930303,8.071342317582339,-0.12821151499999978,1.9675e-05,0.0,62,28,428.07335128778067,2080.72588,mp-636256,LaCu6,https://materialsproject.org/materials/mp-636256,69.48219412093096,31.08666088736422,67.86895204205122,5.648258081360256
-6.054986945,-24.21994778,7.047648823718532,-0.08032180429687498,2.26058635,0.0,194,4,63.524437975356186,269.61,mp-1090,FeSe,https://materialsproject.org/materials/mp-1090,21.555758311478527,35.831050800189146,61.951909777125216,-23.22386070340197
-6.7881231917241385,-393.71114512,9.055716470970747,-0.3385272303448281,0.0002032,0.0,160,58,581.8552796563063,3173.13614,mp-1218307,Ta3V3(Ni10B3)4,https://materialsproject.org/materials/mp-1218307,40.601648487944736,50.960761180884354,70.50027938414203,-13.084109506143065
-7.6580793950000015,-45.94847637,15.428392152963537,-0.8143156472222218,6.968191099999999,0.0,216,6,113.26895962496536,1052.404,mp-1072097,GdInPt4,https://materialsproject.org/materials/mp-1072097,82.41750553649901,11.924802973103885,61.65806486763194,26.032832471127872
-7.207988482,-252.27959687,8.224984480910647,-0.2679727525714286,4.2000000000000004e-06,0.0,12,35,563.9455197143517,2793.3358,mp-1220354,Ni5(Mo2As3)6,https://materialsproject.org/materials/mp-1220354,34.599756130531865,32.12388065433507,63.99114703792388,-21.190525301998502
-8.27665459736842,-157.25643735,7.86196183027271,-0.2630023603757889,14.2604459,0.0,83,19,209.48759324684943,991.83664,mp-1222504,Mn12Ge4N3,https://materialsproject.org/materials/mp-1222504,51.082326970045315,49.62156680091258,86.08009562369391,4.985951704171353