energy_per_atom,energy,density,formation_energy_per_atom,total_magnetization,band_gap,sgr,num_sites,cell_volume,weight,mp_id,formula,URL,tsne_cry_0,tsne_cry_1,tsne_xrd_0,tsne_xrd_1
-7.594054620833332,-273.38596635,7.1554844762498355,-0.6136496474999996,0.121274075,0.0,62,36,580.9358134729409,2503.33,mp-1202025,Zr2V3Ge4,https://materialsproject.org/materials/mp-1202025,36.09532951151744,29.12753984298817,68.21650934851023,-0.7293043596237591
-7.998544817058824,-543.90104756,7.915765564682996,-0.08756256730392205,31.029589675,0.0,136,68,922.4974522021124,4397.531999999998,mp-1220576,NdDyFe14B,https://materialsproject.org/materials/mp-1220576,72.10097820825213,32.329311875132014,84.14566250744961,-6.7033891408522175
-7.7496277986363635,-340.98362314,4.7329752390815605,-1.0614210318655315,0.303107325,0.0,12,44,672.402191504919,1916.524,mp-680850,Ti8S3,https://materialsproject.org/materials/mp-680850,51.676106595746276,46.912943264037544,72.63229260982884,3.2038849559684897
-6.115651646153848,-238.51041419999999,8.32290583975113,-0.6901898085897438,0.39306779999999997,0.0,174,39,596.2575341759941,2988.5448,mp-1214373,Ce6Ni20As13,https://materialsproject.org/materials/mp-1214373,66.9283301658753,8.484774040925501,51.707776648321676,8.969439265365189
-9.786022096428573,-137.00430935,13.685489213264209,-0.4513917753571418,2.8499999999999998e-05,0.0,136,14,230.86770753130563,1902.7179999999998,mp-1104658,Sm(Re2Si)2,https://materialsproject.org/materials/mp-1104658,64.16674085759333,13.865573619561784,56.16830344934741,-7.980133414232245
-4.35470758,-13.06412274,4.441553501718334,-0.11900972937500025,7.03e-05,0.0,139,3,45.919305181538675,122.8234,mp-1094089,NiS2,https://materialsproject.org/materials/mp-1094089,15.052744930430254,38.732320960179614,69.02365172849164,-18.073086445752658
-7.727388348928572,-216.36687377,6.935711970913646,-0.3869356330357152,14.46458295,0.0,140,28,360.97273418651736,1507.70494,mp-662529,LaFe9Si4,https://materialsproject.org/materials/mp-662529,22.036211721697427,39.007356252746455,66.23367855401226,-22.45223553142957
-5.6682989133333335,-34.00979348,8.86627579850936,-0.2752125250000006,5e-08,0.0,194,6,71.1791347838115,380.0536,mp-1594,Ni2Ge,https://materialsproject.org/materials/mp-1594,46.532632562591594,56.42376846113924,84.96358795691035,-2.6497763307511764
-7.400891664137932,-214.62585826,8.266472304300231,-0.24435885793103446,18.1158855,0.0,225,29,282.0999612139211,1404.346095,mp-1193908,V2(Co7B2)3,https://materialsproject.org/materials/mp-1193908,39.19602414080303,53.69446018431219,79.1880449754417,-12.053505041895376
-7.284194726666668,-43.70516836,13.902145828325455,-1.0905140766666672,2e-07,0.0,227,6,114.44576122158637,958.1477,mp-2674,YPt2,https://materialsproject.org/materials/mp-2674,82.84863423921865,12.466253627976984,62.07931527397936,25.128113500812024
-7.391834546875,-354.80805825,9.07433872558208,-0.5960001799305559,0.9617934000000001,0.0,15,48,671.6253090804637,3670.2272,mp-1196249,Ti11Ni9Pt4,https://materialsproject.org/materials/mp-1196249,50.17403495160293,43.74177071850318,62.018856192625464,-8.226718048068618
-7.04045212,-63.36406908,7.661609982723376,-0.4971911107142854,1.0610770333333333,0.0,189,9,96.77661105414856,446.520456,mp-13446,Co2P,https://materialsproject.org/materials/mp-13446,42.871016131161646,54.53476705560279,76.62382575745178,-12.240279912146988
-5.673752741666667,-34.04251645,9.085223314772582,-0.028426729999999626,1.2e-06,0.0,129,6,87.83178213720858,480.54959,mp-1226053,CoAsPd,https://materialsproject.org/materials/mp-1226053,45.75089300130106,47.098332354931784,85.27188309868208,6.003112981565358
-6.207348286428571,-86.90287601,7.260891566802374,-0.5380167135714292,4.5e-07,0.0,63,14,245.41582968729927,1073.108,mp-18279,Zr2CuGe4,https://materialsproject.org/materials/mp-18279,61.664461077358226,35.4616455967613,70.52872391907336,4.846655930238144
-6.7606005375,-54.084804299999995,8.44454665184564,-0.2555566787500005,6.9999883,0.0,166,8,94.77384593400437,481.96528,mp-1216459,VGa2FeCo4,https://materialsproject.org/materials/mp-1216459,79.31833643561866,49.18866371867436,91.61125363470482,-5.013383301038856
-5.557100005,-44.45680004,4.089562012818257,-0.6553500312499994,0.0,0.0,63,8,127.99489267258387,315.2247784,mp-12781,ScAl2Ni,https://materialsproject.org/materials/mp-12781,45.05542030399656,43.19600812632414,58.24841630163932,-2.45862621928834
-8.764292945238095,-184.05015185,7.792544766533437,-0.01722743440476073,0.7768304,0.0,12,21,265.6105987820687,1246.4521650000004,mp-1220651,Nd2Mn17C2,https://materialsproject.org/materials/mp-1220651,77.25612398759411,34.731143723489126,88.0264864085042,-25.466266744384214
-6.253298864444443,-112.55937956,7.110943714543604,-0.20403041222222226,1.98458345,0.0,10,18,286.39478827777015,1226.4314,mp-1226104,Cr(FeAs3)2,https://materialsproject.org/materials/mp-1226104,21.116533404796776,34.67764176640914,63.97291749012901,-24.398730220050798
-5.63944376625,-90.23110026,7.492958679029617,-0.3955175780357143,0.0,0.0,62,16,236.74551729580537,1068.282248,mp-504909,Ni2SnP,https://materialsproject.org/materials/mp-504909,34.43657822267684,32.046903169570705,64.46886724798786,-21.017270792741467
-7.98187442875,-63.85499543,6.501386902135677,-0.18541717874999894,5.990088500000001,0.0,166,8,96.9534651486618,379.5948022,mp-1221708,Mn5Al2V,https://materialsproject.org/materials/mp-1221708,82.4476720462553,43.732461720084814,89.1913527815628,-3.9710810981231583
-6.3472749408333335,-76.16729929,5.577715178362527,-0.5400293447222223,0.0,0.0,62,12,166.1201390634251,557.994,mp-20255,TiCuSi,https://materialsproject.org/materials/mp-20255,48.38226155045714,45.417601184956204,66.98064384964036,-6.16895039296598
-6.283302271666668,-37.69981363,9.091881861522898,0.4762447433333345,0.02417465,0.0,194,6,84.95715955704662,465.16248,mp-1024996,MnCoSn,https://materialsproject.org/materials/mp-1024996,53.425282574796206,55.97523965095039,81.89246421410384,4.893440889912243
-2.3746537347826084,-109.23407179999998,7.890065574500853,-0.04119310586956498,0.07767260000000001,0.0,227,46,697.8410606182089,3315.79782,mp-1197936,U(Zn10Fe)2,https://materialsproject.org/materials/mp-1197936,51.407303025871094,43.859847169750175,70.34937573768259,14.523074649639465
-8.335952524166666,-300.09429087,12.160223276038542,-0.9598100555555568,0.00044125,0.0,194,36,607.9438337988195,4452.0078,mp-1207756,Y4Si5Ir9,https://materialsproject.org/materials/mp-1207756,64.29199028625179,13.809586005589555,57.10818562833727,16.131063660148932
-2.9694609783333337,-71.26706348,7.645796091249634,0.3770344391666664,0.0,0.0,227,24,445.93216882822463,2053.2528,mp-11310,CdNi,https://materialsproject.org/materials/mp-11310,28.10282542974718,21.838937184493762,59.49981218088096,-11.925198260539466
-4.394614553103448,-127.44382204,8.955365647206213,-0.18604523068965467,9e-06,0.0,225,29,447.81919186062635,2415.1101,mp-1192934,Tb6Cu23,https://materialsproject.org/materials/mp-1192934,71.22113590574641,28.8285542084452,62.56969342151147,11.686002046913021
-1.4927668021052631,-28.36256924,7.773414489838383,-0.19299144710526311,1e-07,0.0,166,19,311.4616776544302,1458.033,mp-568437,Yb2Zn17,https://materialsproject.org/materials/mp-568437,70.93747726446081,17.286169890564825,66.3414930836773,4.234018624661652
-7.065291835,-42.39175101,10.78808772085357,-0.2278336966666667,5.65e-06,0.6307,58,6,104.69043998708747,680.1464,mp-2455,As2Os,https://materialsproject.org/materials/mp-2455,24.54980019354177,28.015072190985247,16.861256000771654,-49.384193808396596
-8.349420991666667,-50.09652595,7.375768805887862,-0.2872127155555558,4.586576999999999,0.0,42,6,54.2918504776561,241.1531,mp-1226213,CrFe3B2,https://materialsproject.org/materials/mp-1226213,36.321696883840616,55.51189462027467,79.78185055819965,-7.740710825517505
-7.7253742675,-30.90149707,7.4842742169088385,-0.3616309562500009,4.943669,0.0,216,4,44.0875809827335,198.708695,mp-1207117,Fe2CoSi,https://materialsproject.org/materials/mp-1207117,42.226292263403884,60.189395882808064,91.62831488608377,-8.734677379895277
-6.319396099375,-101.11033759,7.94850701502433,-0.3835543036607145,0.8124398,0.0,1,16,173.17457397045303,828.9352329999998,mp-1226652,Co3Ni9P4,https://materialsproject.org/materials/mp-1226652,43.24052879094509,54.34907771955957,77.36989270223715,-12.958631052766805
-6.67381827,-33.36909135,4.784256684608444,-3.05153784725,0.4569348,0.0,221,5,56.43577082887906,162.5997386,mp-978862,SrAlO3,https://materialsproject.org/materials/mp-978862,35.752779954302774,-79.68367941693893,67.3598959901843,-37.35196674660063
-8.397453439166666,-100.76944127,6.9171874466787004,-0.5620104132142849,0.93470965,0.0,62,12,133.29550454434542,555.259448,mp-21495,CrFeP,https://materialsproject.org/materials/mp-21495,43.770944246601275,53.46623921814079,75.83942626707386,-11.116001347829618
-5.416542405,-10.83308481,5.934804427935497,-0.6533625750000001,2e-05,0.0,221,2,23.971570086664556,85.67493859999998,mp-1487,AlNi,https://materialsproject.org/materials/mp-1487,45.88921191729264,60.286373835226705,89.72375236700817,-5.405240241335747
-8.176158403823527,-555.97877146,8.605062173927468,-0.10959919539215647,30.167564275,0.0,136,68,916.3709159817712,4748.716239999999,mp-1226066,DyThFe14B,https://materialsproject.org/materials/mp-1226066,72.87825603491746,31.67816235333223,83.41572947198132,-6.183023900885162
-6.173455914,-30.86727957,5.968636936935103,-0.6603168748571434,0.0,0.0,164,5,77.97232902709511,280.263524,mp-8219,Zr(CuP)2,https://materialsproject.org/materials/mp-8219,44.63988838977701,26.422116371809526,60.15424766751398,-22.38492514146179
-9.450284896,-94.50284896,8.469912366921935,-0.4113092006666662,9.85e-06,0.0,127,10,120.14364615157406,612.8167599999998,mp-1079120,Nb(BMo)2,https://materialsproject.org/materials/mp-1079120,60.14270418051203,28.762838183612924,64.44907985358321,15.715541592863849
-6.288613045,-25.15445218,8.278231914027929,-0.14560783374999975,1.00108,0.0,225,4,46.98180646682876,234.21688999999998,mp-1187698,VZnCo2,https://materialsproject.org/materials/mp-1187698,79.09484836134328,49.31562286374852,91.98263271071285,-5.308989038464047
-8.108294075714285,-170.27417559,8.206235329783715,-0.13180429957761844,35.093179299999996,0.0,2,21,264.383336775128,1306.5587899999996,mp-1225868,Dy2Fe15Co2CN,https://materialsproject.org/materials/mp-1225868,76.16167205901816,34.419588065853105,87.76480364938665,-24.12097975059635
-7.601354685,-30.40541874,8.399630149373593,-0.10079498125000086,5.692524,0.0026000000000001573,225,4,47.48065770035628,240.175,mp-20711,Fe3Ge,https://materialsproject.org/materials/mp-20711,79.50166531834202,49.19006815053794,91.62985554192622,-4.42541388778546
-9.24743302,-46.2371651,9.708772886718757,0.12441190100000055,0.00029489999999999996,0.0,69,5,71.84928322323492,420.0855,mp-1219219,SiTc4,https://materialsproject.org/materials/mp-1219219,54.052054459096134,51.06733819531721,74.9140931275762,5.692436863244978
-8.439170185833332,-101.27004223,9.410314601977515,-0.19868955250000064,5.44178855,0.0,164,12,152.2172548310969,862.6188371999998,mp-1218027,TaAlFe4,https://materialsproject.org/materials/mp-1218027,64.17329132544013,48.237145971509065,72.20159308511269,17.565762601430574
-4.9428965636,-247.14482818,3.994717893143629,-0.3879395051999995,4.65e-06,0.0,12,50,720.1706506746056,1732.4968067999996,mp-1215090,Al19Co6,https://materialsproject.org/materials/mp-1215090,43.25045124925194,43.8813647349348,66.92516476956064,-14.152275901600465
-2.28926062,-105.30598852,7.9563997203691414,-0.07317708065217386,0.1863828,0.0,227,46,694.6011005644922,3328.1506,mp-1202337,U(Zn10Co)2,https://materialsproject.org/materials/mp-1202337,51.42424895281602,43.863233065136434,70.35171902972895,14.521397258890069
-10.034796941666666,-120.4175633,15.695793174595675,-0.20374417333333264,2.365e-05,0.0,194,12,226.3652611019936,2139.656,mp-1102210,DyRe2,https://materialsproject.org/materials/mp-1102210,81.97355829116427,11.381441881696073,59.85472669999991,25.95463118602248
-6.986038008214287,-195.60906423,8.387663398676954,-0.03200101160714297,20.19831665,0.0,226,28,358.3475416250562,1810.07401,mp-30559,LaCo13,https://materialsproject.org/materials/mp-30559,21.835016061019424,38.33226293958863,66.38300846220854,-22.59088034347598
-7.354854465,-29.41941786,15.208108597609074,-0.1397654649999991,3.1441301,0.0,123,4,54.71368223374688,501.097295,mp-570863,CrCoPt2,https://materialsproject.org/materials/mp-570863,53.41206681667764,59.01370673800382,87.48603366820184,2.6133204125751983
-7.490031455,-44.94018873,10.627902817103477,-0.07159491833333458,2.265e-05,0.0,12,6,104.27155575800428,667.3664,mp-1077179,As2W,https://materialsproject.org/materials/mp-1077179,35.593127158504885,33.496805490975774,57.15302015315568,-8.36466334163827
-6.2706036719444445,-225.74173219,9.01473345416322,-0.8189463983333335,4.26e-05,0.0,189,36,544.5949271730211,2956.49665,mp-1195749,Tm5Zr3(Ni4As3)4,https://materialsproject.org/materials/mp-1195749,66.5850189294878,8.181646419025355,51.38014973803839,9.357716978748424
-5.372898003333334,-48.35608203,9.899234498190818,-0.3715227883333346,6.666666666666666e-07,0.0,189,9,144.81100667941354,863.2847999999998,mp-1080831,AsPd2,https://materialsproject.org/materials/mp-1080831,62.66445932626889,35.91224170291473,71.90345763944062,3.34987405964044
-8.415870990909092,-185.1491618,6.421768604492892,-0.5201846068181818,8.905e-05,0.0,72,22,318.5935841723371,1232.09044,mp-3276,Nb4Cr2Si5,https://materialsproject.org/materials/mp-3276,63.76921465877072,27.830781445943323,63.198732801025656,9.891636694868598
-7.26930603,-101.77028442,3.9955685417850497,-1.3985502923214292,0.0001227,0.0,176,14,233.634728528699,562.169,mp-799,V3S4,https://materialsproject.org/materials/mp-799,14.49749855972448,38.37964524846107,24.152632351290716,-60.20773357601443
-7.619617801944445,-274.30624087,7.3664818337176525,-0.537052456388889,0.002878875,0.0,62,36,602.5805473573062,2673.167296,mp-1199518,Sc2Ge4Mo3,https://materialsproject.org/materials/mp-1199518,37.28400627740467,28.983425614737808,59.05097502836069,-1.7070094561993103
-10.341819652692307,-268.88731097,13.882558091258645,-0.1841756476923072,0.9495284076923076,0.0,166,26,368.2066120408372,3078.30744,mp-1218218,TaFe,https://materialsproject.org/materials/mp-1218218,60.93110474250154,31.224417929488663,66.20918131093342,17.21900315017884
-10.528084882142858,-294.7863767,14.296001348385424,-0.030392803392857107,0.0003883,0.0,227,28,339.6650870607344,2924.2628,mp-20696,Fe3W3C,https://materialsproject.org/materials/mp-20696,60.77769323334019,31.077792196934713,66.56560392699082,16.610089390366053
-9.973288968,-49.86644484,14.159912228542927,-0.42606170866666704,1e-06,0.0,71,5,52.202581492621505,445.147,mp-1068296,Fe(BW)2,https://materialsproject.org/materials/mp-1068296,59.41569177559668,28.363043087651178,65.74909322187666,13.624319864117627
-4.465791937857143,-125.04217426,10.106113981330363,-0.222305336428571,0.547319825,0.0008999999999996787,62,28,430.36990745044267,2619.250276,mp-12562,CeCu5Au,https://materialsproject.org/materials/mp-12562,70.42626768934326,23.987322723113962,57.69898556237461,16.611454704845162
-7.087257560277778,-255.14127217,8.499231652231062,-0.8971330989087305,7.3927416,0.0,189,36,454.7769606422492,2327.710849,mp-1225819,Er5Co19P12,https://materialsproject.org/materials/mp-1225819,56.779196147972065,33.52989087104824,62.69481058958194,-2.962375307452421
-6.910937104166668,-165.8624905,8.084536873288558,-0.11207383083333274,3.75157735,0.0,225,24,387.18346314321417,1885.04992,mp-570203,MnCoSb,https://materialsproject.org/materials/mp-570203,51.99914437608646,41.393944777243036,62.306402791845464,-14.442706061611135
-4.003850311052632,-152.14631182,7.128488853026749,-0.29166546052631537,0.0040665,0.0,68,38,663.5571900523263,2848.5690000000004,mp-1200062,Ga16Rh3,https://materialsproject.org/materials/mp-1200062,52.953208280278474,43.26230419736807,66.53559141801057,-4.055886922713275
-7.818889776666666,-46.91333866,6.245199210809656,-0.8964585249999999,2.27e-05,0.0,107,6,102.27961382575602,384.6682,mp-1215208,ZrTi3As2,https://materialsproject.org/materials/mp-1215208,36.2644550569231,28.937612189411613,68.80177368586912,-1.9237261343021541
-7.9481671503571425,-445.09736042,6.625802223770485,0.02014680826571537,1.98520845,0.0,60,56,548.9467853141919,2190.3808,mp-1245330,Fe7GeN6,https://materialsproject.org/materials/mp-1245330,25.98660312781791,52.99930807253863,60.47567388823607,1.9053007202755845
-4.877666491590909,-429.23465126,8.588496580400145,-0.5037419545454553,1.2725e-05,0.00509999999999966,62,88,1509.5584857777606,7807.607999999998,mp-1213476,Er3Ga15Ru4,https://materialsproject.org/materials/mp-1213476,69.27658508718946,15.991375068952365,60.22573019831869,10.79841062531844
-5.720125224166666,-68.64150269,7.06297588902547,-0.2932531183333336,6.434082,0.0,160,12,164.50564791954903,699.7121999999998,mp-1224816,GdMg3Ni8,https://materialsproject.org/materials/mp-1224816,63.53878118704997,48.317570516811244,63.03248233847498,-7.127114254648043
-8.463986628333332,-101.56783954,9.166044248973103,-0.5909615190476174,1.125e-06,0.0,62,12,166.53808178495004,919.277048,mp-1103150,MoPRh,https://materialsproject.org/materials/mp-1103150,62.376305664974176,28.8025717366038,72.31932855296014,1.2591749061524824
-7.4767873185000004,-149.53574637,8.581843697135206,-0.8980387638333326,1e-07,0.0,127,20,269.260796210422,1391.568648,mp-542024,Sc2GaB2Rh5,https://materialsproject.org/materials/mp-542024,58.42486405104083,39.80993542058473,69.9392791318395,12.459418967499097
-4.151473425555555,-37.36326083,8.064159341319067,-0.03805638652777788,1e-07,0.0,38,9,107.97561185849143,524.3674,mp-704745,Cu8O,https://materialsproject.org/materials/mp-704745,52.28442473310179,53.26326939227929,86.02605441921641,4.94712729686501
-8.372563888421054,-159.07871388,8.915574000134821,-0.02325165000000221,38.1692785,0.0,166,19,263.2555302065612,1413.44112,mp-843,Th2Fe17,https://materialsproject.org/materials/mp-843,74.12895802500206,33.923210602369664,89.51190238649751,-20.91639786374662
-3.996478035833333,-47.95773643,2.5978372963497463,0.15517839416666726,1e-05,0.0,12,12,205.7612152551819,321.904,mp-1260852,MgSi2,https://materialsproject.org/materials/mp-1260852,39.184372336795505,25.249669221495328,61.10746931087229,4.266771982729604
-6.4621870225,-51.69749618,8.0772268485961,-0.2435475137500003,1.32e-05,0.0,6,8,108.11904549462794,525.9148,mp-1224770,Fe3NiAs4,https://materialsproject.org/materials/mp-1224770,21.893233326460198,36.40002046973039,63.57177287007607,-23.370618257915478
-5.802055095,-116.04110190000002,2.5044156397335278,-0.13836682833333355,0.0,0.3705999999999996,62,20,179.1519743502237,270.19599999999997,mp-365,MgB4,https://materialsproject.org/materials/mp-365,25.625736062937825,52.920874191934395,51.262391583546155,8.730217365560469
-7.4549595838461515,-290.74342377,7.164269355913526,-0.14654417615384593,55.999365100000006,0.0,1,39,570.7182882564475,2462.320635,mp-1222233,Mn23As16,https://materialsproject.org/materials/mp-1222233,23.075011299558245,35.80813413140624,63.705602021416986,-21.41458183993386
-3.9181153166666665,-47.0173838,2.5773917255793024,0.2335411133333339,7.43e-05,0.0,12,12,207.39344889920312,321.904,mp-1073635,MgSi2,https://materialsproject.org/materials/mp-1073635,42.179195606383246,25.21740706235908,74.63780093708915,7.6577688076152315
-8.78325335111111,-79.04928016,7.009998471357437,-0.5506848194444431,0.7240969666666667,0.0,189,9,125.02364014504614,527.789775,mp-7829,MnNbSi,https://materialsproject.org/materials/mp-7829,62.74343936722793,28.369752293690823,62.50230960495554,7.143493018533577
-4.967719385,-19.87087754,9.308776673709287,0.7445411800000006,3.8602833,0.0,139,4,54.176016635798476,303.704055,mp-1183714,Co3I,https://materialsproject.org/materials/mp-1183714,54.42397082160689,62.58017655898684,86.25636579794613,7.679869053515003