energy_per_atom,energy,density,formation_energy_per_atom,total_magnetization,band_gap,sgr,num_sites,cell_volume,weight,mp_id,formula,URL,tsne_cry_0,tsne_cry_1,tsne_xrd_0,tsne_xrd_1
-7.123698480108696,-655.38026017,8.285634508938088,-0.4173353898188403,18.8833134,0.0,129,92,968.7965817343344,4834.02931,mp-758934,Dy3Co29(Si2B5)2,https://materialsproject.org/materials/mp-758934,54.22095807098679,36.91327925718174,69.20015329886907,-5.626583391894074
-6.298687591666668,-37.79212555,9.291086588801967,-0.11246568916666652,5.241569,0.0,187,6,82.96525125514506,464.2091,mp-1223858,HoCo4Cu,https://materialsproject.org/materials/mp-1223858,78.05442815781177,20.735095133595763,87.80854311737644,-15.102096625271734
-6.3832104940625,-204.26273581,8.663597327995781,-0.4335707830208335,4.6e-06,0.0,12,32,327.903584363376,1710.7845999999995,mp-1197227,Dy3Ni19B10,https://materialsproject.org/materials/mp-1197227,53.63360227863697,37.852740604552274,65.37720299896813,-5.480569898786527
-7.506834379166666,-90.08201255,9.426438219344345,-0.10177406458333377,10.8575455,0.0,47,12,161.4073744083993,916.26671,mp-1215820,YUCo10,https://materialsproject.org/materials/mp-1215820,70.2404957120671,42.05026832631672,87.68245758849086,-18.365313742321717
-6.307314348888888,-227.06331656,7.720419509792738,-0.3759183866666665,1.298170775,0.0,194,36,506.45022230267983,2354.6620000000003,mp-1201276,Y2Ni7,https://materialsproject.org/materials/mp-1201276,76.33623978751781,24.232130004088106,75.98965945009323,0.6411880705756696
-7.660826568157893,-291.11140959,8.51810845201379,0.06942609026315656,38.26386885,0.0,194,38,505.0738691086384,2590.89,mp-1195706,Yb2Fe17,https://materialsproject.org/materials/mp-1195706,69.88497169644079,39.656262375930254,88.37949529749535,-20.370082397925767
-7.8239821615789475,-297.31132214,8.23449228724563,-0.10269511315789707,29.9090845,0.0,194,38,496.7664815738375,2463.42884,mp-1200417,Tm2Fe15Si2,https://materialsproject.org/materials/mp-1200417,69.80134574722771,40.383994954733076,88.38620914518455,-19.813122197742604
-6.340925617857144,-88.77295865,8.592906109212041,-0.8409219306122456,1.84e-05,0.0,136,14,179.32399118386056,927.9602480000001,mp-1105062,Er(Ni2P)2,https://materialsproject.org/materials/mp-1105062,68.20213407289579,11.846708768549687,64.1123884488881,-1.0691745711758116
-8.082023909230767,-105.06631082,6.849552347045027,-0.2526792873076923,20.2858749,0.0,71,13,159.9014295775327,659.5769120000001,mp-1219497,Sc(Fe5Si)2,https://materialsproject.org/materials/mp-1219497,46.58130304182537,53.10015096080992,77.28019660429763,-8.469638334145042
-6.804154623333332,-40.82492774,9.362229224883404,-0.11792414083333352,7.1257774000000005,0.0,191,6,81.92968107422905,461.924975,mp-2740,ErCo5,https://materialsproject.org/materials/mp-2740,78.1009330003359,20.746717664220764,87.930516480879,-15.145501367190322
-8.417126023846151,-109.42263831,7.514798171493468,-0.02003159461538491,20.306571899999998,0.0,44,13,166.87527592170915,755.19695,mp-1216029,YCrFe11,https://materialsproject.org/materials/mp-1216029,71.84364797491531,38.64700346772153,81.72717770517497,-20.145722525969017
-5.020112582857143,-35.14078808,6.605558853437874,-0.14392488908857154,1.2034446,0.0,35,7,84.10162260951572,334.55294,mp-1078093,CaNi5H,https://materialsproject.org/materials/mp-1078093,40.85486880545831,46.51167027163847,68.75755223684357,-17.17466581411061
-5.003351665714286,-35.02346166,6.470367327137367,-0.12716397194571474,1.2873954,0.0,8,7,85.85883764076186,334.55294,mp-1078183,CaNi5H,https://materialsproject.org/materials/mp-1078183,40.98866786377849,46.37533682899642,68.68919568682024,-17.131849320063832
-7.5363875444642865,-1266.11310747,7.343104632979431,-0.5833468905952386,0.0094182,0.0,191,168,2006.169074061032,8871.52248,mp-1196553,Nb13Co40Si31,https://materialsproject.org/materials/mp-1196553,46.533917406740606,51.83578872560526,72.18836372306205,-7.312529863830721
-7.9161917225,-126.65906756,6.559040319925673,-0.2574883681249993,11.838826199999998,0.0,38,16,204.3071864537392,807.00245,mp-1221552,Mn5Si2Ge,https://materialsproject.org/materials/mp-1221552,48.67239959601307,48.43296340376196,73.19320483526025,-6.4357032416940365
-6.830700393,-136.61400786,9.012128026041808,-0.3506450219999991,0.0,0.3531000000000004,116,20,309.59437199595953,1680.24,mp-706531,Ge3Ru2,https://materialsproject.org/materials/mp-706531,34.950647410734035,32.74504985019827,70.17142730842116,-8.186210673403162
-6.5801816184615385,-85.54236104,7.949080087009416,-0.1452429746153843,9.10246,0.0,35,13,174.71872338691867,836.386915,mp-1222126,Mn3(Co2Ge3)2,https://materialsproject.org/materials/mp-1222126,43.80905442569517,48.022137710291005,72.13513314082422,-9.48126260482278
-6.0505870775,-72.60704493,7.6174079067057825,-0.2758881783333346,7.1226842999999995,0.0,166,12,160.0285452108068,734.1006,mp-567249,GdMg2Ni9,https://materialsproject.org/materials/mp-567249,62.555497539263065,48.099999085989005,63.204747073727944,-7.106236373674594
-6.271851780555554,-112.89333205,8.980367593489268,-0.25549999722222183,4.2611717,0.0,191,18,257.60292809061946,1393.14339,mp-1208354,TbGaCo4,https://materialsproject.org/materials/mp-1208354,77.68515981677402,18.78068965800148,85.9857694608217,-14.237715785868115
-6.3701811333333325,-191.105434,6.6754329718072425,-0.6282245323333332,1.1e-05,0.0,139,30,459.71506853756654,1848.0728559999998,mp-1192696,Sc4Co4Ge7,https://materialsproject.org/materials/mp-1192696,47.85635552965353,46.89834813748225,70.80496344881432,-5.7466178982382345
-7.1051886164285705,-99.47264063,8.846941004141886,-0.2977276042857144,6.57643375,0.0,136,14,201.18014155652835,1071.838,mp-3501,Er(Fe2Ge)2,https://materialsproject.org/materials/mp-3501,68.91586245487004,11.909156188627186,64.44929652776878,-0.4947670466851712
-6.160650835064934,-474.3701143,9.756439544571695,-0.2926925583441562,0.0031503,0.0,229,77,939.2116024880546,5518.3052,mp-1203980,Lu11(Ni10C)6,https://materialsproject.org/materials/mp-1203980,61.518330066261385,45.49136294975665,66.86119919627842,6.983129517315682
-7.3304778542105264,-278.55815846,10.43401469253458,-0.04194101421052659,15.694696400000002,0.0,194,38,479.13844220834176,3010.6714899999997,mp-1197772,U2Co15Ge2,https://materialsproject.org/materials/mp-1197772,70.27081782900554,42.04160924228639,87.52772566819044,-18.44092589663059
-5.263794360833333,-63.16553233,7.473171141714254,-0.2696837485416672,0.23578360000000004,0.0,166,12,161.58623544178914,727.2106,mp-569494,SmMg2Ni9,https://materialsproject.org/materials/mp-569494,62.553550210194146,48.09905751961524,63.21311027664941,-7.110328974965638
-6.2975694975,-75.57083397,8.799218146791448,-0.1414068045833332,8.5262174,0.0,47,12,167.73934242621814,888.852975,mp-1219225,Sm2(CoNi)5,https://materialsproject.org/materials/mp-1219225,78.65070482963627,19.459252779128352,86.99410756173184,-14.647743833838927
-5.591356306666667,-33.54813784,8.579624831180304,-0.2617873462500005,2e-07,0.0,65,6,85.65535543397002,442.5616,mp-1220204,NdCuNi4,https://materialsproject.org/materials/mp-1220204,78.5842208475848,18.458033297292054,86.09432235864332,-14.159697976970437
-6.387454624375,-204.39854798,8.769207990934271,-0.44138047942708347,0.0001865,0.0,12,32,326.6580215871555,1725.0615999999998,mp-1201895,Er3Ni19B10,https://materialsproject.org/materials/mp-1201895,53.631099062772044,37.855478084543115,65.36248452413732,-5.520426123125076
-5.2523298325,-63.02795799,7.383277660217044,-0.25415701479166697,0.0015318,0.0,166,12,162.17762203458892,721.0926,mp-568207,NdMg2Ni9,https://materialsproject.org/materials/mp-568207,62.538569411836214,48.10040404304609,63.22196426257248,-7.108973898012687
-4.978083850833333,-59.73700621,7.501527094867384,-0.2355138133333335,5.6e-06,0.0,20,12,179.31490128818416,810.0596,mp-1224885,GaNi2Ge3,https://materialsproject.org/materials/mp-1224885,42.891291128107575,47.50063184105219,71.18183843303571,-9.482963960534184
-5.019371977142859,-35.13560384,6.520649495404122,-0.14318428337428607,1.1381343000000002,0.0,65,7,85.19676118281336,334.55294,mp-1078107,CaNi5H,https://materialsproject.org/materials/mp-1078107,40.88279970356565,46.52224338396519,68.8014719699792,-17.219141052108313
-7.774038507857143,-108.83653911,6.040592705962872,-0.4851106700000005,4.02534535,0.0,136,14,178.41176267154088,649.013824,mp-1104929,Sc(Fe2Si)2,https://materialsproject.org/materials/mp-1104929,41.096893700010774,47.526006609096726,69.74463815310241,-16.580637516716507
-6.7987704933333335,-40.79262296,9.17246750053685,-0.1062012266666675,7.0894728,0.0,191,6,82.76311136591463,457.165975,mp-2551,DyCo5,https://materialsproject.org/materials/mp-2551,78.1825615016844,20.576421679956255,87.77244000018395,-15.012736194281409
-5.379925303333334,-64.55910364,7.417769045573686,-0.2843168475000013,1.5530648,0.006199999999999761,166,12,160.4998783814234,716.9666,mp-13505,CeMg2Ni9,https://materialsproject.org/materials/mp-13505,62.545637106176464,48.10388322700504,63.20455974387875,-7.107000229546211
-5.99072081,-35.94432486,8.660129529873782,-0.08023901166666647,2.9093734,0.0,191,6,85.13636273051958,444.007585,mp-1226659,CeCo3Cu2,https://materialsproject.org/materials/mp-1226659,78.62656182501155,18.82254772013581,85.85702465606076,-14.313182923444302
-6.336869588571429,-88.71617424,8.325013986624802,-0.8282868306122454,0.0,0.0,136,14,181.76996692881227,911.292948,mp-505597,Tb(Ni2P)2,https://materialsproject.org/materials/mp-505597,68.23505378247053,11.823682355101015,64.16598296217384,-1.106999640258415
-6.154102225974027,-473.86587139999995,9.263290333555954,-0.2747760806818185,6.4e-05,0.0,229,77,964.6291495946613,5381.168199999999,mp-1202044,Dy11(Ni10C)6,https://materialsproject.org/materials/mp-1202044,61.53277287221653,45.45144339036857,66.89614824760272,6.98394070261713
-5.818876289047619,-122.19640207,9.003798305955321,-0.532743319285715,3.8e-06,0.0,174,21,288.31210869357307,1563.29,mp-542718,Er2Ni12As7,https://materialsproject.org/materials/mp-542718,56.714277439718195,37.08112615018497,69.89981164354023,-4.7538583684673155
-7.197052895,-172.72926948,9.132671910619566,-0.3428456233333333,8.37239915,0.0,141,24,297.6851130885265,1637.2156300000001,mp-17474,ThCo9Si2,https://materialsproject.org/materials/mp-17474,70.07928227722631,41.780588662618335,66.64457898256147,-18.81319768141104
-7.420425961666666,-178.09022308,7.574945396025328,-0.15834906494791548,0.6352928000000001,0.0,187,24,291.69698076997065,1330.64544,mp-1216386,Y4Fe4Co12B3C,https://materialsproject.org/materials/mp-1216386,75.95270649005005,24.816389026359612,75.31872183370372,0.8024307741902779
-5.2447451166666665,-62.9369414,7.2953169479496465,-0.2450234754166676,1.686416,0.0,166,12,163.37406639228396,717.75825,mp-568529,PrMg2Ni9,https://materialsproject.org/materials/mp-568529,62.538681232368795,48.101053717995995,63.23566163968986,-7.112552520977499
-8.416612677692306,-109.41596481,7.463309816094941,-0.06240275000000066,20.4178795,0.0,44,13,167.79188386253819,754.14235,mp-1215844,YVFe11,https://materialsproject.org/materials/mp-1215844,71.82487463876747,38.590672352784686,81.72500170716664,-20.13503849969016
-7.2638022,-43.582813200000004,8.504902834038813,-0.43971259166666604,7.037047,0.0,187,6,81.80862311809634,419.00513860000007,mp-1225047,GdAlNi4,https://materialsproject.org/materials/mp-1225047,75.81452834048496,19.580125679800997,87.9571690794053,-12.081000133603634
-6.417760306666668,-38.50656184,8.705869363965926,-0.1506194587500005,4.7041985,0.0,191,6,84.79183370689726,444.546385,mp-1219088,SmCo3Ni2,https://materialsproject.org/materials/mp-1219088,78.42337607222781,19.212985494662547,85.99650745326599,-14.417295866333141
-7.776025319473685,-295.48896214,7.955953199911827,-0.12119751276315888,56.963497600000004,0.0,2,38,502.9927777930053,2409.9325,mp-1226028,Dy4Fe29Si5,https://materialsproject.org/materials/mp-1226028,69.79095605306414,40.172772061626134,88.21249436423344,-19.760686440932385
-7.1236672084782615,-655.37738318,8.387944262456605,-0.4197845119927543,18.3914564,0.012800000000000368,129,92,962.6326986515543,4862.58331,mp-21951,Er3Co29(Si2B5)2,https://materialsproject.org/materials/mp-21951,54.208001423496434,36.913148568795044,69.16723929806129,-5.644470925826642
-5.234021040833333,-565.27427241,8.819943123236834,-0.6047341426851851,8.2525e-05,0.0,116,108,1667.5880693064667,8857.384,mp-30665,Ga17Rh10,https://materialsproject.org/materials/mp-30665,66.21956427498016,35.59489963071754,70.17858250094666,-7.758841953006249
-7.82200185875,-125.15202974,6.786200241806611,-0.21345918937499955,25.065455800000002,0.0,189,16,208.3704444126281,851.5569499999998,mp-1222206,Mn10(SiGe)3,https://materialsproject.org/materials/mp-1222206,48.596237204421456,48.48655960900367,73.19460438113741,-6.4711435548760905
-5.842985222307693,-75.95880789,8.723010143999755,-0.17913183692307766,9.5901074,0.0,139,13,173.09389139005097,909.28291,mp-1208588,Tb(GaCo2)4,https://materialsproject.org/materials/mp-1208588,69.20092844660668,35.18092685297622,83.3755952534052,-22.051656828859876
-6.3806957790625,-204.18226493,8.49850500116975,-0.4289916189583334,2.3e-06,0.0,12,32,332.17808065115094,1700.0606499999994,mp-1197368,Tb3Ni19B10,https://materialsproject.org/materials/mp-1197368,53.64429347930429,37.857324045205814,65.32769150922515,-5.39265665135259
-7.496080348421053,-284.85105324,7.418600764566883,-0.1032168521052633,28.9330913,0.0,194,38,523.2403951402121,2337.6214,mp-1200648,Y2Ga3Fe14,https://materialsproject.org/materials/mp-1200648,71.83291667542632,38.36400314323165,82.40664955697123,-21.237695917422272
-6.3088023,-113.5584414,7.692489137461548,-0.3774063377777779,1.3067549999999999,0.0,166,18,254.1445367769961,1177.3310000000001,mp-574339,Y2Ni7,https://materialsproject.org/materials/mp-574339,76.30819814068505,24.253467791893453,75.99208287224734,0.6874369828492195
-7.9887944925,-127.82071188,6.019222829907143,-0.47335174,6.620264,0.0,38,16,193.78551171535787,702.4455,mp-1216470,V5Fe5Si6,https://materialsproject.org/materials/mp-1216470,50.316017148827534,47.665184154072186,75.0529514269593,-7.656841073285496
-6.800922316666667,-40.8055339,9.268921417187613,-0.11291673583333288,7.1066631,0.0,191,6,82.3372597669968,459.596295,mp-2435,HoCo5,https://materialsproject.org/materials/mp-2435,78.0913706719028,20.72070005470228,87.8561220490274,-15.076759166515027
-5.257519749166667,-63.09023699,7.241434011653887,-0.24588893479166765,2.1904907000000002,0.00480000000000036,166,12,164.13059836480087,715.75607,mp-5134,LaMg2Ni9,https://materialsproject.org/materials/mp-5134,62.53041515614894,48.0973868898474,63.251599660882654,-7.107353377051065
-8.342839423333333,-50.05703654,9.006840344422159,-0.07060938166666612,14.005134400000001,0.0,191,6,83.3171334886483,451.915975,mp-1077071,GdCo5,https://materialsproject.org/materials/mp-1077071,78.51338686222135,19.80618354898859,87.54559791785282,-14.86242197316912
-7.399708187857143,-103.59591463,7.316149242866506,-0.3208224678571422,8.06664225,0.0,58,14,207.7065221261364,915.1317,mp-1207830,Y(Fe2Ge)2,https://materialsproject.org/materials/mp-1207830,56.68059776066845,37.18548935994392,69.43862498632124,-5.061987188819312
-6.0555939325,-24.22237573,6.181229560334487,-0.4538071100000005,8e-07,0.0,59,4,46.62494731564646,173.5578,mp-999192,SiNi,https://materialsproject.org/materials/mp-999192,42.09851612620915,47.48168961957465,69.30442819785875,-16.82196662862537
-8.341249648676468,-567.20497611,7.271850865696527,-0.0707864686029425,29.946666675,0.0,136,68,887.5136596218692,3886.6096,mp-1207957,Y2Fe14C,https://materialsproject.org/materials/mp-1207957,71.55368744630714,37.89956364950304,71.54755148148021,-6.00915840967652
-8.025294905789472,-304.96120642,8.049072759701362,0.04041423874999856,67.8418983,0.0,8,38,515.4896633693174,2498.715,mp-1220953,Nd3ErFe34,https://materialsproject.org/materials/mp-1220953,74.13222309337537,37.618718211630366,86.73423603434601,-22.18989291991439
-6.182081137916667,-148.36994731,9.260039399400464,-0.21612834263888914,5.872725599999999,0.0,127,24,328.20669120281485,1830.2532,mp-1191355,GdIn2Ni9,https://materialsproject.org/materials/mp-1191355,68.26883023328666,32.31437230148398,74.66405340589978,0.924829892616348
-6.151144671818183,-473.63813973,9.51400156913952,-0.2899993308116877,1.3e-06,0.009200000000000765,229,77,951.5624563416452,5451.944509999998,mp-14326,Tm11(Ni10C)6,https://materialsproject.org/materials/mp-14326,61.51862481657165,45.481480562222096,66.86838940922401,6.989992467025279
-6.5334053420833325,-313.60345642,7.396439555723027,-0.4702518162499996,0.212266275,0.0,55,48,679.1197335227504,3024.96234,mp-1201705,TiCoGe2,https://materialsproject.org/materials/mp-1201705,47.71252630390182,47.2382661472685,71.4746202976073,-6.090852455983392
-5.603125415,-67.23750498,7.703665221738252,-0.15129649833333286,1.725e-06,0.0,64,12,176.07410136346368,816.8527799999998,mp-30045,CoGe2,https://materialsproject.org/materials/mp-30045,42.83755139963302,47.513753148698214,71.27260748002054,-9.497116103382755
-7.118433897608695,-654.89591858,8.429025990377907,-0.42037073971014427,17.09531475,0.012199999999999987,129,92,959.9211036215885,4872.63457,mp-16092,Tm3Co29(Si2B5)2,https://materialsproject.org/materials/mp-16092,54.19995927469221,36.91570550602393,69.15317658132292,-5.646643343790992
-8.119052627777778,-219.21442095,7.765275165477488,-0.08131496229456855,41.4818596,0.0,8,27,343.3363978444772,1605.56394,mp-1227780,Ce2Ti2Fe22H,https://materialsproject.org/materials/mp-1227780,71.60778027636073,37.533800535660454,83.05728266988464,-21.283104710287226
-6.836286606250002,-273.45146425,8.924355239107449,-0.3562312352500001,0.0,0.3814000000000002,60,40,625.2785869264984,3360.48,mp-21945,Ge3Ru2,https://materialsproject.org/materials/mp-21945,34.953490388981535,32.540251847064575,70.12488345900107,-8.12803116083764
-6.597997325714287,-92.37196256,8.95347955853436,-0.2246182185714289,6.71818695,0.0,136,14,200.93059733644955,1083.4,mp-613612,Yb(Fe2Ge)2,https://materialsproject.org/materials/mp-613612,68.90291144623792,11.933486691132705,64.44414376862923,-0.5217542447233415
-5.393707006666666,-32.36224204,8.598404532954536,-0.3403443441666667,0.00047389999999999997,0.0,187,6,85.03124175597681,440.2986,mp-1226673,CeZnNi4,https://materialsproject.org/materials/mp-1226673,78.74663972929895,18.631339380091465,86.46041178698093,-14.164613534439207
-8.22359476631579,-156.24830056,7.539438106506194,-0.0015509678947371176,38.797475899999995,0.0,160,19,259.536233470639,1178.38685,mp-1226697,CeYFe17,https://materialsproject.org/materials/mp-1226697,72.39839190039427,37.98319070957547,83.09550350729856,-21.3438184087847
-5.691625696538463,-295.96453622,7.827793087721883,-0.40404468384615416,2.75e-07,0.0,191,52,706.7925578461908,3331.825248,mp-29802,Sc(NiGe)6,https://materialsproject.org/materials/mp-29802,43.372729032201455,48.2727120277721,72.11113372011107,-9.373294756870646
-7.539132984473683,-286.48705341,8.56765499857657,-0.06991420078947379,30.01970395,0.0,194,38,509.7290377494748,2629.97884,mp-1203778,Tm2Ga2Fe15,https://materialsproject.org/materials/mp-1203778,69.90706699240747,39.65671059126075,88.32771491821302,-20.5673600335965
-6.155583308461538,-80.02258301,9.176998286728868,-0.26568585192307764,1.0445207,0.0,69,13,161.19357052219084,890.8391099999999,mp-1217249,UCu2(SiNi4)2,https://materialsproject.org/materials/mp-1217249,69.99440037930225,41.62514015736715,83.50466625158127,-18.302565249205593
-7.915178955,-126.64286328,6.354541867576875,-0.37472247749999976,19.6980799,0.0,38,16,188.78155124467617,722.428225,mp-1221407,Mn5Fe5Si6,https://materialsproject.org/materials/mp-1221407,44.60835273806815,56.98431663104218,75.16809890630468,-7.788692103023102
-6.382870726875,-204.25186326,8.66809932308227,-0.4357980891145834,6.1e-06,0.0,12,32,329.13000125100024,1718.0755599999998,mp-28151,Ho3Ni19B10,https://materialsproject.org/materials/mp-28151,53.6257123475636,37.856530282673475,65.3696914327121,-5.479656531525823