energy_per_atom,energy,density,formation_energy_per_atom,total_magnetization,band_gap,sgr,num_sites,cell_volume,weight,mp_id,formula,URL,tsne_cry_0,tsne_cry_1,tsne_xrd_0,tsne_xrd_1
-5.670463996666666,-34.02278398,8.167259059927959,-0.3079637008333336,0.43281629999999993,0.0,191,6,92.94682443763331,457.15323499999994,mp-1219978,PrGa2Co3,https://materialsproject.org/materials/mp-1219978,76.94981409958719,16.1257605534904,85.93436007694994,-11.795661191281535
-11.677118668333335,-70.06271201,14.774511656101527,-0.062142061111110536,4e-05,0.0,216,6,108.08943544825516,961.717,mp-1224182,HfTiW4,https://materialsproject.org/materials/mp-1224182,82.43044693574375,14.337185357685573,62.608649642836895,25.59283958799152
-5.5188909242857145,-38.63223647,7.9984943845557455,-0.378393234285715,6.893876400000001,0.0,166,7,115.42736033910799,555.9911999999998,mp-10442,Eu(Cu2As)2,https://materialsproject.org/materials/mp-10442,66.63745613311488,9.864288869685359,64.81575326817133,5.6571037076070665
-7.512089368571429,-52.58462558,5.417968121405694,-1.1318657108928574,2.1200546,0.0,12,7,113.73180940974008,371.0815,mp-555370,V(MoS2)2,https://materialsproject.org/materials/mp-555370,26.981684675478316,30.440541827227484,31.869358912682642,-50.76069144415807
-10.8181075875,-43.27243035,11.857928569180288,-0.2620821375000002,9.699999999999999e-06,0.0,225,4,65.96600390827223,471.064,mp-977545,ZrTc2W,https://materialsproject.org/materials/mp-977545,96.49180695214326,10.199858045469655,61.60467965255182,64.18165415485022
-5.884879656140352,-335.43814039999995,9.369924429631293,-0.7031452211403512,0.0001653,0.0,174,57,853.5976030285817,4816.5956,mp-1212094,Lu10Ni28As19,https://materialsproject.org/materials/mp-1212094,66.5082501257328,8.153525138852958,51.36780511567264,9.405906118697525
-6.714637564375,-107.43420103,6.8844827973384835,-0.1480557519791672,1.6241683999999998,0.0,160,16,262.7580119118503,1089.376985,mp-1217480,Ti8InCo3NiSn3,https://materialsproject.org/materials/mp-1217480,92.13765388250371,12.294193747243627,57.12267489613229,64.78121599437429
-5.7958506,-23.1834024,10.399333535405717,0.4753817850000006,2.8999999999999998e-06,0.0,225,4,65.1723504076993,408.15,mp-1184652,Ge3Os,https://materialsproject.org/materials/mp-1184652,92.420852201404,13.874123561193509,56.872338415993816,64.53974863553249
-8.325578084090909,-183.16271785,8.042666495437972,-0.2833294144154557,37.9327217,0.0,166,22,270.31298135995155,1309.2358,mp-1191945,Tb2Fe17N3,https://materialsproject.org/materials/mp-1191945,77.42611277982425,34.27914097991498,88.88656401516322,-25.219583124386865
-9.433942164166666,-113.20730597,13.817606912916247,-0.5841645041666652,2.75e-07,0.0,62,12,185.91590377530304,1547.03552,mp-1103212,TaRh2,https://materialsproject.org/materials/mp-1103212,56.101199988840314,42.782977251017826,77.64403519477507,7.8511284134466335
-3.772405899166667,-45.26887079,8.58528159841704,-0.09157086902777796,0.0001329,0.0,47,12,221.5697619421051,1145.5549999999996,mp-1220530,Nd2(CuAg)5,https://materialsproject.org/materials/mp-1220530,71.52888486666583,17.046994170690027,65.32490846154967,2.9050768498425095
-5.99032684625,-95.84522954,16.31118298902236,-0.5106793762499997,2.8899999999999998e-05,0.0,127,16,249.3105970613799,2448.9341544,mp-1182870,AlPt3,https://materialsproject.org/materials/mp-1182870,60.54262582297294,32.91586109336987,69.15505233216909,16.1910980332791
-5.156626573333333,-15.46987972,6.228810941074921,-0.15141148499999998,0.0,0.0,107,3,36.71147640664175,137.7076,mp-1008927,LiFeAs,https://materialsproject.org/materials/mp-1008927,82.26905523862398,36.76838698841205,62.94916840989809,-15.839177271356547
-7.219304121666667,-86.63164946,8.030642827343375,-0.8947640600000012,7e-07,0.0,62,12,185.96465824296638,899.3560000000001,mp-1207428,ZrNiAs,https://materialsproject.org/materials/mp-1207428,62.38296376558333,35.61890037502463,71.51642874757839,3.013814441222934
-7.848120507500001,-156.96241015,8.438218455036148,-0.7264557308333337,4.40143935,0.05600000000000005,127,20,268.3817866670858,1363.812648,mp-542023,Sc2FeB2Rh5,https://materialsproject.org/materials/mp-542023,58.4893960146246,39.778073131111924,69.91676884386271,12.480459374267369
-9.081673367368422,-172.55179398,6.432616843370241,-0.33994173626526364,6.1597289,0.0,12,19,179.55370969301453,695.5573999999998,mp-1246813,Cr8Fe3N8,https://materialsproject.org/materials/mp-1246813,27.355744544118018,54.31750036684998,69.40452556099507,-0.16124160703167956
-5.1423738275,-20.56949531,11.452593291795461,0.16587976624999978,0.0402038,0.0,221,4,55.830862301195175,385.0606,mp-976799,Ni3Bi,https://materialsproject.org/materials/mp-976799,53.57613180276983,58.56223147549246,87.47869532640496,2.3260829465559434
-4.034209399583333,-96.82102559,2.5335478331549837,0.11744703041666682,3.18375e-05,0.0,6,24,421.9649237618802,643.808,mp-1100457,MgSi2,https://materialsproject.org/materials/mp-1100457,38.751184556826686,24.946309142766253,60.23357286256776,1.7991462921324322
-9.52950861896552,-276.35574995,7.206754411955162,-0.0590505400862067,2.8132897999999997,0.0,225,29,293.9330987722537,1275.6723,mp-1213780,Cr21(FeC3)2,https://materialsproject.org/materials/mp-1213780,39.587927851121826,55.23799519649197,79.1538236846945,-11.007541308699425
-10.267995846,-51.33997923,8.887437483343357,0.04953781800000172,2.27e-05,0.0,42,5,80.28356074744255,429.68886,mp-1220705,Nb2CrMo2,https://materialsproject.org/materials/mp-1220705,65.47528484166355,36.4510320094804,62.58382068873562,61.10270022896759
-3.7206219975,-74.41243995,2.491226215265025,0.17630228549999954,1.4e-06,0.0,12,20,354.25126631414895,531.466,mp-1262925,Mg2Si3,https://materialsproject.org/materials/mp-1262925,40.37816699002308,25.03037802270302,60.75449101456288,3.4711880017187147
-5.6295071375,-22.51802855,14.046544289209109,0.5217467724999993,3.13e-05,0.0,216,4,66.91218877446761,566.012,mp-631576,MoPt2Br,https://materialsproject.org/materials/mp-631576,95.06350187937899,9.226711661923488,61.662762772937924,65.64668557199556
-4.431544492857143,-31.02081145,6.859747492468309,-0.31315490952381,0.0014439,0.0,123,7,110.18430672229408,455.1754,mp-1025313,TiGa5Ni,https://materialsproject.org/materials/mp-1025313,56.744581360717795,43.16406703542719,78.52077642486867,9.553282449152027
-6.9189347279166675,-166.05443347,8.736614636323706,-0.3157481966666656,0.00254005,0.0,191,24,283.45983236824793,1491.37073,mp-505207,Sm2Co7B3,https://materialsproject.org/materials/mp-505207,73.81874511363137,26.33228028420231,60.10252703724747,15.29011661004905
-10.5133428575,-42.05337143,15.058972866829883,-0.44224390624999893,0.5661579999999999,0.0,225,4,66.39830919574975,602.148045,mp-1184587,Hf2MnOs,https://materialsproject.org/materials/mp-1184587,95.03966714758371,9.322698111024836,61.39386238671413,64.47461861148335
-6.6016191325,-132.03238265,7.7515512122439905,-0.7926878239999994,3.95e-06,0.0,15,20,364.0579313364186,1699.4564,mp-1106022,Y2Ge5Rh3,https://materialsproject.org/materials/mp-1106022,68.54638528946299,12.994300544937051,43.59787700395229,-14.036725972741161
-8.809135149166666,-105.70962179,13.204390818175902,0.10630339411458324,1.0037378666666668,0.001200000000000756,166,12,158.75495095460062,1262.3987550000002,mp-22452,PuCo3,https://materialsproject.org/materials/mp-22452,73.22241183567495,24.786024491482486,67.60516526120426,14.313930980180874
-6.94174143047619,-291.55314008,5.819007224741719,-0.5552655004761892,3.03183625,0.0,69,42,701.1021030149319,2456.863768,mp-1219675,Sc7Cr5Ge9,https://materialsproject.org/materials/mp-1219675,47.7272205116845,44.43312908486315,62.05420887518782,-1.0298148552410165
-8.36834378125,-66.94675025,10.046644262991263,-0.3718055787499992,1.0520804,0.0,38,8,110.30190981323128,667.3520000000002,mp-1216486,V3Rh5,https://materialsproject.org/materials/mp-1216486,54.84835992292175,62.4380826507314,82.7881909596057,6.9633533959059095
-5.767786634285714,-161.49802576,9.057040601981566,-0.25503415642857163,7.0529682000000005,0.0,62,28,435.3940612530365,2374.76,mp-1212701,GdCu5Sn,https://materialsproject.org/materials/mp-1212701,70.44502599600273,21.83025323262327,60.38894023824567,19.607436550326348
-4.4986232500000005,-26.9917395,8.294882312736208,-0.09349248666666672,0.1086509,0.0,191,6,91.65544834077959,457.846,mp-761,CeCu5,https://materialsproject.org/materials/mp-761,76.19845619642422,16.265910267948158,84.99144926192348,-12.355518230729778
-7.31625344,-29.26501376,9.59284585653519,-0.6661532804166663,0.0006778,0.0,225,4,64.46103911971596,372.388,mp-865707,TiSnRh2,https://materialsproject.org/materials/mp-865707,96.01538824665155,10.80761129912814,60.78004433891621,62.40868664946836
-4.65366129875,-37.22929039,9.674037044200226,1.2180632106549991,0.00022295,0.0,223,8,114.4098091734605,666.5334,mp-1079947,Pd3N,https://materialsproject.org/materials/mp-1079947,55.91682428120667,39.108686794155375,70.19656992189259,19.060686448997604
-3.915902939166666,-46.99083527,2.5488889324259416,0.23575349083333386,5.739999999999999e-05,0.0,12,12,209.71261333988738,321.904,mp-1073575,MgSi2,https://materialsproject.org/materials/mp-1073575,40.79432791617597,25.35417734129492,61.364212433388005,2.948825575725622
-3.98217259,-51.76824367,4.2111591293218265,-0.2603041811538456,1e-07,0.0,139,13,201.14764097300412,510.11430880000006,mp-10877,Ca(Al2Cu)4,https://materialsproject.org/materials/mp-10877,41.80394970251287,44.025646407315826,66.44645336474427,-12.153459725199301
-6.014313031666667,-36.08587819,8.021988813828953,-0.6456670472222233,0.0011339,0.0,194,6,92.73943381949258,448.02,mp-1025045,TiGaPd,https://materialsproject.org/materials/mp-1025045,51.07899037850906,41.46044844729831,65.722459983746,9.001659053131288
-5.13194022125,-41.05552177,9.035558375549844,-0.38222912476562604,0.0,0.0,63,8,129.13178222757008,702.65,mp-558378,Pd3S,https://materialsproject.org/materials/mp-558378,40.35974540057869,26.25130521458896,56.73664558042913,13.656316027146552
-5.777672066666668,-121.3311134,6.692789397304625,-0.4399043661904769,11.0834389,0.0,174,21,305.50994620914423,1231.355409,mp-1191431,La2Mn3Cu9P7,https://materialsproject.org/materials/mp-1191431,64.90307780483971,9.509671189877569,51.80150816509785,10.133040477036817
-7.989346869705884,-543.27558714,7.874674543551494,-0.07706927936274444,31.274310425,0.0,136,68,924.2960000286313,4383.233399999999,mp-1217651,TbNdFe14B,https://materialsproject.org/materials/mp-1217651,71.95464867265238,32.38565792341457,84.23755631135549,-6.716913104268709
-7.100804205,-71.00804205,7.956537193797032,-0.5686133400000003,0.0,0.0,127,10,174.70162294492286,837.0895999999998,mp-20146,Zr2Ni2Sn,https://materialsproject.org/materials/mp-20146,69.4144865146001,21.144845865309108,55.44983543026086,22.815894252481733
-6.778760946,-33.89380473,6.264559987913897,-1.0100637848571423,1.5e-06,0.0,139,5,71.10208568243259,268.240174,mp-568940,Y(NiP)2,https://materialsproject.org/materials/mp-568940,63.70365226393047,8.643023285660114,64.16908760279681,8.224031738005678
-7.0584792,-14.1169584,8.652742384369212,0.1174420357031254,2.8899999999999998e-05,0.0,187,2,33.564882114212196,174.89999999999995,mp-1186027,MoSe,https://materialsproject.org/materials/mp-1186027,34.151474571297875,32.31834047227604,60.797988463329574,-20.995911881802982
-8.768137191111112,-78.91323472,11.716334481731137,-0.6307856477777783,0.0001341,0.0,189,9,151.52578589135328,1069.1268,mp-1079816,ZrAsOs,https://materialsproject.org/materials/mp-1079816,57.92204171349185,18.276967845134198,63.349848631469186,-9.066006385878687
-8.95496911,-89.54969109999999,6.209058272810164,-0.24589320817857185,2.13415085,0.0,63,10,106.42581360348271,397.94552400000003,mp-1078492,Cr3PC,https://materialsproject.org/materials/mp-1078492,52.130408135446224,48.123901643304755,73.34742212528293,-2.1894469468914632
-3.9528885999999996,-47.4346632,2.6301749458245887,0.19876783000000006,7.96e-05,0.0,8,12,203.23140861056967,321.904,mp-1073481,MgSi2,https://materialsproject.org/materials/mp-1073481,41.04731888000379,25.41228048494596,61.28991790252506,3.6974005935790704
-4.34931699,-17.39726796,5.468174064684726,0.4928936099999994,3.04e-05,0.0,139,4,76.78391167855403,252.8503,mp-978499,SiAs3,https://materialsproject.org/materials/mp-978499,65.5218171051182,12.427958029382985,25.86152694861269,-27.687421507763272
-7.6507948983333325,-45.90476939,6.1504016771383325,-0.4391449653472215,0.1014412,0.0,139,6,64.90662061353345,240.40493999999998,mp-1025070,YCo2B2C,https://materialsproject.org/materials/mp-1025070,51.69141987174942,2.4303078872249233,47.527214376741476,-3.8944027718450656
-5.916477371,-59.16477371,14.56001135769032,-0.4332815489999994,5e-07,0.0,63,10,166.6313131450348,1461.064,mp-20576,Ge2Pt3,https://materialsproject.org/materials/mp-20576,34.76360666995141,28.77172556722667,68.23754426530196,14.339171218216961
-8.154964595,-32.61985838,7.9943351410518275,0.392876440000002,3.4200000000000005e-05,0.0,225,4,64.83287712051147,312.125,mp-1185895,MgMo3,https://materialsproject.org/materials/mp-1185895,92.67285381239752,13.3629569807916,57.73250347796645,62.75532782145861
-7.497886705,-14.99577341,14.814626148519128,-0.23955681999999975,3.2583772,0.0,123,2,28.126082736810137,250.929,mp-2260,FePt,https://materialsproject.org/materials/mp-2260,53.82815682027872,58.73088834879079,87.38681571182339,2.4802926728540307
-9.432071133333332,-56.59242679999999,15.359649655226553,-0.6736792199999991,4.5e-07,0.0,227,6,102.84722587009679,951.316,mp-715,ZrIr2,https://materialsproject.org/materials/mp-715,82.437416026294,14.452519972779632,62.76049864249246,25.298846445602717
-4.0623054053125,-129.99377297,8.389161688688192,0.10906229281250024,5e-08,0.0,40,32,457.6005059283937,2311.8304,mp-1225809,Cu6SbAs,https://materialsproject.org/materials/mp-1225809,54.53893987517708,52.45681477020098,80.15216083875573,2.7401252166789187
-6.0921012480000005,-182.76303744,8.824895747004922,-0.28766179316666673,6.34643985,0.0,186,30,525.8789095836711,2794.77112,mp-1209183,Sm3(Co2Sn)4,https://materialsproject.org/materials/mp-1209183,68.57477023988977,13.784746569085678,49.294802847726075,-10.134834282273204
-4.223524175,-16.894096700000002,7.945157750699747,0.011427762500000329,0.0032177,0.0,123,4,68.29685501264835,326.779,mp-1226493,CeZn2Fe,https://materialsproject.org/materials/mp-1226493,81.17115370990129,14.722820031794665,64.33556474899434,8.15231356605184
-4.292537531617647,-291.89255215,8.669701334176366,-0.1507378660294115,0.00010805,0.0,216,68,1194.052066734224,6234.165260000002,mp-1208427,Tm3Cu20Sb11,https://materialsproject.org/materials/mp-1208427,70.12207530269804,13.803902228816135,55.28238020990821,-5.703165416434038
-10.051734445833334,-120.62081335,15.803678494885366,-0.22980904916666725,0.000199725,0.0,194,12,225.84140055013816,2149.37728,mp-1102328,HoRe2,https://materialsproject.org/materials/mp-1102328,81.85240871272433,11.345275706597743,59.84695025123643,25.95532230008641
-4.070597485833333,-97.69433966,8.603089427315465,-0.14039392951388882,1.5e-06,0.0,127,24,365.10710553191376,1891.584,mp-1210539,NdIn2Cu9,https://materialsproject.org/materials/mp-1210539,68.68950879514742,31.03210955965491,67.95378800187824,5.292450142306497
-9.413939712916667,-451.86910622,8.811426822389656,-0.3384077126190472,6.795e-05,0.0,1,48,692.8544309046284,3676.538744,mp-1220567,NiMo8P3,https://materialsproject.org/materials/mp-1220567,62.35917947490325,31.505852462066425,71.72945210637351,5.512344862188795
-7.012027000000002,-35.060134999999995,6.365245936354637,-0.8210931500000015,0.0,0.0,139,5,69.07518112855135,264.7818,mp-7707,Zr(SiNi)2,https://materialsproject.org/materials/mp-7707,63.76530090541892,8.735938701791053,64.20989040529066,8.17637070001898
-5.585843418275863,-161.98945913,9.871672039499488,-0.4595033968965514,4.79e-05,0.0,225,29,436.90882888400216,2597.3618,mp-1193078,Hf6Ga16Ni7,https://materialsproject.org/materials/mp-1193078,68.07466652051934,19.23181999631821,63.28467132010065,11.636944140213993
-4.26137812125,-204.54614982,2.6814868006924315,-0.31666943262666675,0.0001540625,1.0804999999999998,206,48,614.1293575628138,991.71397152,mp-1246847,Na3AlN2,https://materialsproject.org/materials/mp-1246847,31.440243038961917,52.715881949354255,70.49633948902503,-2.488176840003259
-5.98891125875,-239.55645035,10.185382883276082,-0.5404558612500004,2e-08,0.0,107,40,614.0248525547979,3766.2940000000003,mp-30269,HfGa2Ni,https://materialsproject.org/materials/mp-30269,59.58444348474011,21.951400198485715,61.640329372433605,8.709266587354312
-7.067125223333332,-148.40962969,9.684240578367577,-0.9200065950000004,3.87e-05,0.0,147,21,308.2590231098667,1797.762334,mp-1215912,Yb2P7Rh12,https://materialsproject.org/materials/mp-1215912,67.18786224288243,7.073557136438196,52.042965389386616,10.231212111691011
-9.100704655,-109.20845586,8.664416981249666,-0.8377204423809523,2.5e-07,0.0,62,12,172.44714498524436,899.800568,mp-1103310,NbPRu,https://materialsproject.org/materials/mp-1103310,62.43473922969282,28.426080312844476,61.98516846388522,6.6283171718436344
-6.274359813333334,-18.82307944,6.115256852039889,-0.6869513200000009,0.0009174,0.0,139,3,42.097737414914796,155.03307719999995,mp-1009834,Al2Ru,https://materialsproject.org/materials/mp-1009834,41.273243671325424,38.78851758183983,56.555698940029224,-10.624467861315116
-5.283604870487804,-433.25559938,3.8477981291437415,-0.3132341471951213,3.34e-05,0.0,2,82,1172.283194090139,2716.4125458,mp-1229054,Al53Fe17Si12,https://materialsproject.org/materials/mp-1229054,43.082889713145285,43.894370378010976,66.91576194404512,-14.676364507311721
-8.250320045,-49.50192027,8.612603780302074,-0.276516711666666,0.0869793,0.0,166,6,104.10512382297856,539.954895,mp-1216066,Y2CoRu3,https://materialsproject.org/materials/mp-1216066,80.68046698585228,13.18384117569932,62.295256138543046,27.606233244717032
-9.96681606,-39.86726424,16.572433502829767,0.2313486350600016,2.305e-05,0.0,194,4,40.122371302449864,400.4274,mp-999266,ReN,https://materialsproject.org/materials/mp-999266,32.801905298352686,48.243921805547174,68.14083357911299,9.75823822863272
-2.510681136521739,-115.49133228,8.04194490742729,-0.10711718152173903,0.15089145,0.0,227,46,722.0147996575156,3496.697820000001,mp-1199869,U(Zn10Ru)2,https://materialsproject.org/materials/mp-1199869,51.32607778135285,43.81519833595993,70.41839492532976,14.515960915493045
-9.522810447000001,-95.22810447,8.116142729288446,-0.6336755296666666,5e-07,0.0,127,10,124.13917535301796,606.7495200000001,mp-1206490,Nb2B2Mo,https://materialsproject.org/materials/mp-1206490,60.33947234236689,28.64773040630575,64.31212012412131,15.776076683962714
-5.97526410875,-812.63591879,9.001536968595268,-0.4321539036519611,0.001202775,0.0,61,136,1456.6993306962274,7896.551999999999,mp-1204889,Yb2(Ni2B)5,https://materialsproject.org/materials/mp-1204889,56.09668417431402,30.439636945386237,61.906835037688104,8.456751134733599
-6.161109935333331,-184.83329806,14.674328668585026,-0.2646764596666666,2.54e-05,0.0,51,30,385.87306384161553,3409.994,mp-1238725,Zn5B3Ir7,https://materialsproject.org/materials/mp-1238725,59.44691181290988,31.998201007536487,71.5854046040742,12.081523866007194
-8.699136317916668,-208.77927163,8.050893720265936,-0.3683490920833326,1.3125e-05,0.0,227,24,350.3625058156736,1698.68412,mp-505627,Nb3Co2Si,https://materialsproject.org/materials/mp-505627,63.676709915408935,40.47226121144868,74.43103010967336,2.4185275283859995
-8.39585921,-33.58343684,9.304573873303847,-0.2399895804166672,0.10235019999999999,0.0,225,4,64.70723664557218,362.577,mp-1187492,TiTc2Sn,https://materialsproject.org/materials/mp-1187492,95.97421424967504,10.73020934370885,60.86044368205122,62.554624973237075
-5.1642802125,-20.65712085,8.972844617953896,-0.1353897849999992,0.27743059999999997,0.011999999999999568,225,4,47.36039841607441,255.91539,mp-19971,ZnCo2Ge,https://materialsproject.org/materials/mp-19971,79.83064695834665,49.24220043632029,91.94809429291904,-3.945794498890689