energy_per_atom,energy,density,formation_energy_per_atom,total_magnetization,band_gap,sgr,num_sites,cell_volume,weight,mp_id,formula,URL,tsne_cry_0,tsne_cry_1,tsne_xrd_0,tsne_xrd_1
-6.405806963947367,-243.42066463,7.6976544189058655,-0.39560071263157903,1e-07,0.0,36,38,392.65139276728775,1820.1889,mp-1201639,Pr(Ni2B)6,https://materialsproject.org/materials/mp-1201639,31.10491964415604,44.657671121557634,65.74225428596755,-20.082931143627835
-6.053337625172413,-175.54679113,8.711007115233942,-0.2718037805172418,0.0,0.0,225,29,304.02155576926486,1594.864,mp-29724,Ni20(SnB2)3,https://materialsproject.org/materials/mp-29724,40.739506162559636,51.7112568598261,67.65321907580518,-9.040515647315026
-9.062498141578947,-172.18746469,8.068681513963847,-0.010711726315791065,25.7351263,0.0,166,19,260.1041037693142,1263.865,mp-581734,Gd2Fe17,https://materialsproject.org/materials/mp-581734,74.11906744145838,37.363259194610656,87.04010391880621,-22.42992940333886
-7.527497283289473,-572.08979353,7.4993697824759975,-0.0019334885526309093,8.799505625,0.0,62,76,1021.2749050749252,4612.3084,mp-571123,Cr11Ge8,https://materialsproject.org/materials/mp-571123,46.926781176820185,49.29002625019205,74.45715247318958,-6.369082792260486
-8.062767555789472,-306.38516712,8.073479916831065,-0.004004588486843001,79.69770159999999,0.0,8,38,519.5156523634362,2525.86605,mp-1217679,Tb3SmFe34,https://materialsproject.org/materials/mp-1217679,74.03611508728062,37.346061175462786,87.03338734609439,-22.400980071903486
-5.353209840833333,-128.47703618,7.0309768307968845,-0.44350474166666665,9.000000000000001e-07,0.0,1,24,281.1992669861705,1190.6408,mp-1215806,ZnSi2Ni3,https://materialsproject.org/materials/mp-1215806,43.981943105594894,58.15641461348638,77.52515225360251,-7.834232767064463
-7.73535838,-162.44252598,7.3714092264961115,-0.6423158188095242,1.1996881000000001,0.0,174,21,263.28628183136664,1168.771634,mp-1191863,Pr2Fe12P7,https://materialsproject.org/materials/mp-1191863,56.59534596725999,35.34486973359693,63.02130487944585,-4.08788436097004
-7.303766902307693,-94.94896973,8.843208819772363,-0.12419249423077015,11.1880166,0.0,2,13,162.78116793946984,866.8919099999999,mp-1217037,UFe5Si2Ni5,https://materialsproject.org/materials/mp-1217037,69.89504997559145,41.52434298184005,83.53514931051097,-18.189908719623485
-9.418041643333334,-56.50824986,8.041050329260376,-0.21490721952333186,0.0043163,0.0,71,6,59.03977491101154,285.8962,mp-1245955,CrMo2N3,https://materialsproject.org/materials/mp-1245955,31.883923207185664,48.200679539259966,64.36247536390775,-1.6338575735343317
-6.324302512142857,-265.62070551,7.911420775429616,-0.8030219802551027,3.8333333333333335e-07,0.0,58,42,563.030849847902,2682.4867440000003,mp-21916,Sm(Ni2P)2,https://materialsproject.org/materials/mp-21916,64.70175966068925,9.544765994237585,60.98867752094841,-1.6962514768699497
-9.015793382727274,-396.69490884,7.300173548306769,-0.09222854346590736,3.13122515,0.0,194,44,522.1659540870041,2295.58113,mp-1207574,Y2Mn17C3,https://materialsproject.org/materials/mp-1207574,71.24311283978375,37.68479568894235,82.03231894819925,-21.37179374295548
-7.701397515833331,-184.83354038,9.378646561103476,-0.5743480383333323,5.88e-05,0.0,194,24,422.4068565009606,2385.7341,mp-1191413,YRh3,https://materialsproject.org/materials/mp-1191413,76.90592709806162,12.206134361365681,62.0833131611521,22.858516693845328
-7.6013141825,-91.21577019,8.102628083966705,-0.2723277020833332,5.5387785,0.0,160,12,158.46303994859977,773.2230599999999,mp-1216086,Zr3Co8Si,https://materialsproject.org/materials/mp-1216086,64.63218865916969,46.738945644311656,78.42563850576302,-0.8161720606508525
-6.891334166153847,-89.58734416,8.421775714250744,-0.17445435999999967,0.0111245,0.0,191,13,182.26461335695728,924.3936199999999,mp-22012,Tb(MnGe)6,https://materialsproject.org/materials/mp-22012,68.19774477423009,34.30594571730657,68.95004674245915,2.1805691432440124
-4.355736287777777,-156.80650636,8.188001024350626,-0.5462280977777773,0.6664656666666667,0.0,166,36,618.8447772185103,3051.48,mp-1203026,CeGa8Pd3,https://materialsproject.org/materials/mp-1203026,69.80803449534437,16.034148254424625,67.44101825571028,0.8184379333478197
-5.624789659,-56.24789659,7.733880671342297,-0.1804655014479998,5.955243599999999,0.0,65,10,94.21755638870572,438.81373499999995,mp-1205715,CeCo5H4,https://materialsproject.org/materials/mp-1205715,72.22429955947842,13.151809366448195,85.26375392349352,-10.821999097475443
-8.246403892083334,-791.65477364,7.018274345758452,0.09592195628999887,7.581670175,0.0,218,96,942.40221032532,3983.0664,mp-1245691,VFe7N4,https://materialsproject.org/materials/mp-1245691,37.856709645336245,53.569372114208605,68.30573889107664,-22.521316687989
-8.357910577142857,-117.01074808,8.304678167676427,0.1415048596514278,19.136731,0.0,71,14,182.89565825934216,914.6967,mp-1219146,SmFe10Mo2N,https://materialsproject.org/materials/mp-1219146,48.19925470150702,46.579549913528574,68.18344497926037,5.575336477567539
-7.1580358,-136.0026802,8.330763961394656,-0.3228110678947353,0.0663941,0.0,166,19,187.5656105609793,940.99855,mp-1205300,Tm(Co2B)6,https://materialsproject.org/materials/mp-1205300,31.08072627503494,44.613088493043634,65.95841437388745,-20.490132942784445
-7.647286578684211,-290.59688999,7.9117811724327325,-0.08915198868421133,29.22091385,0.0,194,38,510.70043033557124,2433.2761544,mp-1196052,Dy2Al2Fe15,https://materialsproject.org/materials/mp-1196052,69.77979730503257,39.92970994478222,88.42537384278845,-20.167666517749293
-6.09159060862069,-176.65612765,8.526858079095797,-0.23142990321839085,1.7383245999999999,0.0,216,29,286.45384738357967,1470.9388,mp-1224500,In(Ni11B3)2,https://materialsproject.org/materials/mp-1224500,39.87703908467185,53.16398929495689,79.45124312402584,-11.213362666299643
-8.076101040625,-258.4352333,7.8273517477327506,0.03734839523437472,65.5828267,0.0,12,32,435.37198843597855,2052.231,mp-13494,Nd3Fe29,https://materialsproject.org/materials/mp-13494,74.42209574095794,37.289552887776686,86.6350082136102,-22.927278084470352
-3.9082508654166666,-93.79802077,7.383205818825982,-0.18077044541666668,0.0,0.0,194,24,350.6081523766687,1558.8987,mp-542933,TbMg2Cu9,https://materialsproject.org/materials/mp-542933,68.33297289518897,40.288871307417466,63.82592012099031,-7.054496624190374
-8.385746480555555,-150.94343665,16.44109888314475,-0.4327487722222211,0.0011212,0.0,166,18,330.0662312491525,3268.006,mp-1188750,Nd2Ir7,https://materialsproject.org/materials/mp-1188750,76.79555379907616,12.126699118429752,62.09289786787782,22.847171676421304
-5.867382362142857,-82.14335307,8.898361116240352,-0.033223627499999964,11.4049406,0.0,38,14,219.375728691783,1175.5727550000001,mp-672646,Sm2(InCo3)3,https://materialsproject.org/materials/mp-672646,76.60855752733293,15.108159021343793,88.30412527303669,-13.09965858678582
-8.134020734705883,-553.11340996,8.674793127348462,-0.09197112286764764,29.3879414,0.0,136,68,875.7707599165872,4575.0988,mp-567900,Lu2Fe14C,https://materialsproject.org/materials/mp-567900,72.80298386737495,31.921070534206216,83.3913905083947,-6.795338915319282
-6.425369785172412,-186.33572377,8.190707596492869,-0.2204562867241381,24.651438600000002,0.0,225,29,363.53821468585454,1793.1738699999999,mp-21628,Mn6Ni16As7,https://materialsproject.org/materials/mp-21628,46.6961602663316,52.77324115421929,72.00075014094563,-12.737129310527301
-6.07876834,-109.41783012,8.47094352069417,-0.3693419986574082,1.1328114,0.0,191,18,238.63663522037427,1217.3622,mp-3071,Nd3Ni13B2,https://materialsproject.org/materials/mp-3071,74.45669646772836,25.979688882636218,61.356371729363616,16.008002881487055
-7.184347589999999,-136.50260421,8.291131823313071,-0.3438658307894729,6.6169497999999995,0.0,166,19,187.6602913038469,936.9946599999997,mp-1105128,Ho(Co2B)6,https://materialsproject.org/materials/mp-1105128,31.079279029110285,44.616462406332225,65.96123781976752,-20.495843406101564
-5.3117042925,-84.98726868,7.958939065624097,-0.3102126443750004,0.00019145,0.0,26,16,217.992160083472,1044.8332,mp-1224915,GaNi4Ge3,https://materialsproject.org/materials/mp-1224915,42.40583728045299,49.28580413999299,75.21020840171266,-15.412753172645512
-4.478059591428571,-125.38566856,8.469810506733102,-0.11662004142857085,0.2600054,0.007699999999999819,62,28,408.8836558765587,2085.5679999999998,mp-21708,CeCu6,https://materialsproject.org/materials/mp-21708,69.493105836171,31.13840162893105,67.95838673101137,5.592085499483689
-8.44234488138889,-303.92441573,16.053358211986122,-0.453459181944445,0.081066225,0.0,194,36,671.6607714286735,6493.31976,mp-1195853,La2Ir7,https://materialsproject.org/materials/mp-1195853,76.79231963125375,12.118009691840065,62.0853912969245,22.81521110803893
-6.377914850833334,-76.53497821,6.589160827396567,-0.155136224880953,2.944207725,0.0,62,12,150.65986692836177,597.831228,mp-20203,MnCuP,https://materialsproject.org/materials/mp-20203,49.47823977785424,47.21990720592747,74.73808370881845,-10.160675955058542
-7.75772435875,-62.06179487,5.964019888992,-0.46544114624999894,1.0000002000000001,0.0,198,8,92.46370084456422,332.09418,mp-1431,MnSi,https://materialsproject.org/materials/mp-1431,43.64363509766168,57.97725471347015,78.068259853892,-7.423508044329639
-6.310275007931034,-182.99797523,8.588481516093875,-0.334992521724138,1e-07,0.008599999999999497,225,29,305.0323879272282,1577.6594,mp-541851,Ce2(Ni7B2)3,https://materialsproject.org/materials/mp-541851,40.83830787372849,51.84582894682032,67.56979581362741,-9.022013916323862
-8.430744058333334,-151.75339305,16.027157577703232,-0.4418583588888889,0.34797715,0.0,166,18,336.3793894334632,3246.65988,mp-1190236,La2Ir7,https://materialsproject.org/materials/mp-1190236,76.79038949109069,12.115339193704695,62.07967110192519,22.81644084248891
-8.0628851125,-64.5030809,5.361696785858941,-0.6790106385714285,0.2461114,0.0,26,8,102.13117095295743,329.7702480000001,mp-1216354,VCrP2,https://materialsproject.org/materials/mp-1216354,16.809749060488564,37.932531352817435,68.01743084335375,-23.425499329461392
-6.3801390966666665,-38.28083458,8.396334895327984,-0.10177619083333292,4.6313837,0.0,191,6,86.0483342071843,435.094035,mp-1219681,PrCo3Ni2,https://materialsproject.org/materials/mp-1219681,78.49071784621788,18.487386302197574,86.07227100279111,-14.121188838699016
-6.262723099166667,-75.15267719,8.45501017848397,-0.09533834833333424,8.3733431,0.0,47,12,170.85527313666432,869.948275,mp-1219955,Pr2(CoNi)5,https://materialsproject.org/materials/mp-1219955,78.6140390968517,18.49627244661421,86.40984987279042,-14.106926253874864
-7.182179446842105,-136.46140949,8.28170326496632,-0.3422582450000002,6.6903763,0.0,166,19,188.34085541937569,939.32334,mp-1188589,Er(Co2B)6,https://materialsproject.org/materials/mp-1188589,31.07934145616939,44.617565088731375,65.97327254676621,-20.50420049163905
-6.193728597222222,-222.97422949999998,8.991707914923136,-0.38079061722222224,0.000522225,0.0,194,36,510.50366037137513,2764.3432000000007,mp-1204381,Ce2Ni7,https://materialsproject.org/materials/mp-1204381,74.72066645606732,23.78426620543313,63.064854131376066,17.16419516634557
-6.6167784099999984,-39.70067046,7.814782007381251,-0.2630444483333321,3.0316408,0.0,65,6,85.5961778459247,402.8303186,mp-1226649,CeAlCo4,https://materialsproject.org/materials/mp-1226649,75.23257057438325,20.580196567381037,89.7880063547358,-13.503462746324127
-7.970037822727273,-175.3408321,5.242390172379212,-0.5638872798484855,0.035209,0.0,72,22,281.3684529975449,888.2918,mp-1208248,Ti2Cr4Si5,https://materialsproject.org/materials/mp-1208248,50.68680389342738,47.13436385705414,72.29147838184402,-5.525323626441602
-9.062966750789473,-344.39273653,8.05598812002439,-0.011180335526316148,25.53958995,0.0,194,38,521.0278720677272,2527.73,mp-1196805,Gd2Fe17,https://materialsproject.org/materials/mp-1196805,73.99255452410166,37.34424748997807,88.26377695106474,-21.170057098374397
-7.68620993736842,-146.03798881,7.622217077379003,-0.04277812657894748,21.026734100000002,0.0,12,19,259.3661461501809,1190.5441672,mp-1219246,Sm2Mn2Al2Fe13,https://materialsproject.org/materials/mp-1219246,74.20685155435801,35.765339582042024,88.43971846824431,-22.410214968022547
-8.230953422499999,-164.61906845,8.540313476686173,-0.30630918283333275,5.45e-06,0.0,127,20,231.38086119027275,1190.01423,mp-1209993,Nb3Co5B2,https://materialsproject.org/materials/mp-1209993,61.03242301144903,37.545466726718104,69.26371644029764,2.309896827311804
-2.4255655166666665,-14.553393099999997,6.674757856260017,-0.28697913749999976,2.4e-06,0.0,191,6,103.47980256668018,415.95085,mp-30885,YZn5,https://materialsproject.org/materials/mp-30885,73.19048763892691,15.404452657553527,65.6450727131552,1.8968502634899231
-6.3074193833333325,-75.68903259999999,8.384450089814173,-0.11621628625000112,8.0912864,0.0,47,12,171.50005807236082,865.9439150000001,mp-1223263,La2(CoNi)5,https://materialsproject.org/materials/mp-1223263,78.59297027321182,18.378990690906697,86.2921096605219,-14.053772659253609
-7.105332705714285,-149.21198682,8.287426893051112,-0.8032081302380943,4.9947445,0.0,174,21,251.2370772084972,1253.8753140000001,mp-3706,Ho2Co12P7,https://materialsproject.org/materials/mp-3706,55.62514231366096,34.7136076482442,63.03805510339678,-4.402156810222
-7.068464977142857,-148.43776452,9.456208183516702,-0.7049928078571425,6.91e-05,0.0,143,21,340.16575159262123,1937.1289,mp-1216186,Y2As7Rh12,https://materialsproject.org/materials/mp-1216186,67.86420974764485,9.257965768987033,52.96042239953974,8.41154402646965
-3.902749985833333,-93.66599966,7.218755179240879,-0.16786253104166646,0.0,0.0,194,24,354.65476956263046,1541.7679999999998,mp-13222,SmMg2Cu9,https://materialsproject.org/materials/mp-13222,68.29750961485227,40.285217049866866,63.84997671516938,-7.056622734188527
-9.097106602857142,-127.35949244,7.937644534332772,-0.18334945159857136,11.161668400000002,0.0,71,14,173.96686840020652,831.5897000000001,mp-1224690,GdV2Fe10N,https://materialsproject.org/materials/mp-1224690,71.22667005354522,36.35858241543251,83.3447824255846,-21.30492744208169
-6.9229367725,-55.38349418,6.146029642110203,-0.4759017549999998,1.00000005,0.0,4,8,91.75471171764224,339.60489,mp-1221554,MnSi2Ni,https://materialsproject.org/materials/mp-1221554,43.58158124211192,58.0251096907402,78.02121515314366,-7.488866839402249
-7.50629369,-142.61958011,7.942112298802299,-0.006873084999999659,30.431805400000002,0.0,166,19,264.6130440684057,1265.605,mp-1106126,Nd2Ga2Fe15,https://materialsproject.org/materials/mp-1106126,74.58024820596363,37.16787771611188,86.68919033247252,-23.039770150681104
-8.955350642222221,-80.59815578,7.901128162182753,-0.5381850977777766,0.4131863,0.0,189,9,100.60318825360676,478.68714000000006,mp-1080817,NbFeB,https://materialsproject.org/materials/mp-1080817,59.24195076067195,29.042067501257844,74.97670837092996,0.6722726156586587
-7.477643032857142,-157.03050369,8.169139575530204,-0.7908652192857143,4.0047714,0.0,174,21,252.055214516904,1240.003504,mp-1225690,Er2Fe6Co6P7,https://materialsproject.org/materials/mp-1225690,55.63230925565826,34.64378210407423,63.005428073330705,-4.375003219981597
-8.232448482647058,-559.80649682,7.085875293086778,-0.11180571362745148,30.879154575,0.0,136,68,909.6827297514633,3881.8108,mp-5434,Y2Fe14B,https://materialsproject.org/materials/mp-5434,71.40846782898042,37.70276358551075,71.54862850407704,-6.089498370996043
-7.795542144285713,-163.70638503,7.978825053925978,-0.7220824088095237,1.0281804,0.0,174,21,253.24180893870368,1216.816974,mp-1191181,Ho2Fe12P7,https://materialsproject.org/materials/mp-1191181,55.66306119870096,34.50663031352597,62.76922962850389,-4.3344866805139315
-8.049580852631577,-305.8840724,8.050059975097277,0.01092607144736827,39.6881544,0.0,194,38,520.1743151443636,2521.732,mp-1220296,NdErFe17,https://materialsproject.org/materials/mp-1220296,73.85562099168438,37.286773726701846,88.25370212604052,-21.266057377328643
-8.124312074264706,-552.45322105,8.529167979977512,-0.08787311536764765,29.5001887,0.0,136,68,881.3273135647634,4526.83648,mp-570414,Tm2Fe14C,https://materialsproject.org/materials/mp-570414,72.77958527848251,31.949778158901292,83.41216293547815,-6.750895333534322
-5.19365651625,-41.54925213,4.248506904534279,-2.268316640625,0.0,1.9014,123,8,87.75910135741564,224.5326,mp-1218205,SrMg3O4,https://materialsproject.org/materials/mp-1218205,43.51106689978313,58.08853617596525,69.26818321085598,-14.033671478527793
-8.811204437894737,-167.41288432,7.381370006563983,-0.4955142086842093,12.1305667,0.0,174,19,252.42811151154945,1122.084604,mp-1210673,Mn6Mo6P7,https://materialsproject.org/materials/mp-1210673,50.518393113315,46.462229121252115,68.95050361564351,2.1765881880883207
-7.745986049375,-123.93577679,7.745602559695575,0.010483690000000044,0.32275570000000003,0.0,140,16,204.90915493518682,955.801,mp-568324,Cr5Ge3,https://materialsproject.org/materials/mp-568324,46.69316033644767,49.62629398214872,74.83979901194498,-6.567450253517272
-7.685833606315789,-146.03083852,8.194539881094968,-0.345070438421052,13.867155300000002,0.0,166,19,188.31597190245574,929.31434,mp-645286,Gd(Co2B)6,https://materialsproject.org/materials/mp-645286,31.084746841097594,44.6340695822019,65.97358687270325,-20.482595467413624
-6.419020160789473,-243.92276611,7.670769804252843,-0.4012923264473688,0.0,0.0,36,38,393.16071391457876,1816.1845399999997,mp-14325,La(Ni2B)6,https://materialsproject.org/materials/mp-14325,31.10546780370413,44.66063434727331,65.7517898152034,-20.09595135534296
-7.106829123333332,-149.24341159,8.344923597543719,-0.8057188897619036,4.9937325999999995,0.0,174,21,250.43280670750846,1258.5326739999996,mp-7788,Er2Co12P7,https://materialsproject.org/materials/mp-7788,55.61007695459831,34.71393308113353,63.00221773244921,-4.405015353677344
-5.772728758333333,-34.63637255,8.468217706796052,-0.4263924583333332,0.0168385,0.0,187,6,87.18441182533533,444.6126,mp-1226664,CeGaNi4,https://materialsproject.org/materials/mp-1226664,78.10704336845525,17.39981565095105,86.31593663242752,-12.66635393994052
-7.7975142700000015,-163.74779967,8.047861299945883,-0.7250688764285723,0.9744546000000001,0.0,174,21,252.0304143386068,1221.474334,mp-1190642,Er2Fe12P7,https://materialsproject.org/materials/mp-1190642,55.64786275318508,34.52299150157542,62.7724716150475,-4.395295104185701
-9.346764171666667,-112.16117006,13.594479915108467,-0.4307151538888891,0.0,0.0,62,12,123.89924685724554,1014.3367800000001,mp-22759,CoBW,https://materialsproject.org/materials/mp-22759,59.093943202182906,28.647563787710105,67.65397027036623,2.446397426746929
-6.527190278714286,-456.90331951,6.159785242736862,-0.764838056285715,0.00634235,0.0,71,70,881.6029175184627,3270.3143440000003,mp-570147,Sc6Si11Ni18,https://materialsproject.org/materials/mp-570147,46.59813174185466,52.3415086316638,74.4505968774418,-9.570513281928193
-3.9012666104166662,-93.63039865,7.110909429081553,-0.16231695020833334,0.0,0.0,194,24,357.17619866483466,1529.5320000000002,mp-13221,NdMg2Cu9,https://materialsproject.org/materials/mp-13221,68.27369141631534,40.285007064126404,63.881217238294546,-7.054230297728361
-8.35462284142857,-233.92943956,5.32547285911905,-0.8480222123469393,0.00291555,0.0,63,28,370.0409966270241,1186.749144,mp-1192783,V4P3,https://materialsproject.org/materials/mp-1192783,16.575906139185786,38.105914978805814,71.1861424342218,-4.95421918638295
-8.74054545625,-209.77309095,16.378841681943392,-0.6090944812500005,0.011542066666666668,0.0,194,24,436.0087028849493,4300.602000000001,mp-1191930,CeIr3,https://materialsproject.org/materials/mp-1191930,76.8136383106482,12.128461218270564,62.0957542699719,22.866203677781325
-8.060165994210527,-306.28630778,7.922944026709255,-0.009193823333333741,73.47179890000001,0.0,8,38,522.3288334771348,2492.192,mp-1219364,Sm4TiFe33,https://materialsproject.org/materials/mp-1219364,74.16811492857495,37.332509198829975,86.80807694874588,-22.721708479715943