energy_per_atom,energy,density,formation_energy_per_atom,total_magnetization,band_gap,sgr,num_sites,cell_volume,weight,mp_id,formula,URL,tsne_cry_0,tsne_cry_1,tsne_xrd_0,tsne_xrd_1
-5.6588026639999995,-28.29401332,5.459670864910534,-0.552325028952,2.0000009999999997,0.07799999999999985,139,5,109.90657326656721,361.3608,mp-1245840,Ba2NiN2,https://materialsproject.org/materials/mp-1245840,0.4801806823119516,-31.870140821341764,20.5067111425836,-70.9502654628501
-8.806795589130434,-405.1125971,8.090037898165546,-3.025998832373189,0.0,2.5797,127,46,623.7325495636157,3038.7843,mp-1208376,TbTa5Ag2O15,https://materialsproject.org/materials/mp-1208376,-31.146265574791368,-67.10989816454816,-3.4967536662234484,-57.17573100467917
-6.20556870225,-248.22274809,6.283045857149638,-2.2249772184375005,0.0,3.0624,2,40,625.7623522488276,2367.72124,mp-555236,Tm2Te5O13,https://materialsproject.org/materials/mp-555236,-32.09995521985613,-57.88493704360635,-24.086145646386218,-53.16351533517257
-6.44873390640625,-412.71897001,6.892460524139138,-2.0433236600000013,0.00244655,0.0,61,64,958.1381278484424,3976.9792,mvc-7921,MgBiWO5,https://materialsproject.org/materials/mvc-7921,-24.219325967182805,-44.892305714660345,-17.76433812318253,-42.426381752035994
-6.054925898333334,-108.98866617,5.730189059719452,-2.483609089861111,4.99999965,0.5822000000000003,140,18,319.29471692347323,1101.82239,mp-1214566,Ba3CoO5,https://materialsproject.org/materials/mp-1214566,-8.98651355844679,-32.12387681184013,-2.196541170036877,-33.866755362682014
-5.525939737777778,-99.46691528,3.750212040179896,-2.3182821825606643,4.4e-05,2.8349,2,18,401.81515160912835,907.4716,mp-1101441,Rb4TiO4,https://materialsproject.org/materials/mp-1101441,-4.289979069466929,-34.02399219243947,-1.0103595654366897,-30.303640806589566
-7.504326713333334,-45.02596028,5.496517609653707,-1.7645039360416668,6.38787945,0.0,129,6,130.56722412006144,432.18800000000005,mp-1232117,EuS2,https://materialsproject.org/materials/mp-1232117,16.254513830141033,-7.45889466473719,3.8255113763391586,-7.973073248620228
-6.523652886250002,-156.56766927,3.544836929463476,-2.7554132418510546,0.0,3.8602,64,24,499.9193510097929,1067.2032,mp-5403,Rb2TiO3,https://materialsproject.org/materials/mp-5403,-7.205726868995159,-29.85871813164808,0.4564103981563707,-28.68948558491341
-3.054694257,-30.54694257,4.467876316138503,-1.2405297029080458,0.0,1.2019,225,10,327.0938593198817,880.0846424,mp-1113577,Cs2AlAgBr6,https://materialsproject.org/materials/mp-1113577,0.08101938379373641,14.644683040095394,-27.976345848421925,-71.78587230743598
-6.976433638846153,-181.38727461,3.568789228056457,-2.6082065414835163,6.0,2.8715,2,26,367.98221435296415,790.858228,mp-18659,SrCo2(PO4)2,https://materialsproject.org/materials/mp-18659,-29.467451704486727,-27.85937509538636,-32.61101533919393,8.293994082920685
-5.123499623888889,-92.22299323,4.7404536920483125,-1.5988783076388888,0.0,0.6642999999999999,2,18,584.4633636696971,1668.5072999999998,mp-1179866,Pr3CBr5,https://materialsproject.org/materials/mp-1179866,26.71955957879808,-6.874958153160763,6.6070458664990666,7.2584630082478725
-8.21104517845238,-689.72779499,5.277199476221037,-3.7438197469642858,0.9407205,0.0,1,84,1209.3847175122016,3843.4292986,mp-677529,Sr2La18AlSi11O52,https://materialsproject.org/materials/mp-677529,-18.942944363084603,-34.26364221830822,-10.752158605488779,-33.96644211833525
-3.3854277625000004,-40.62513315,6.3258591563109245,-0.4164932336979171,0.00021185,1.5602999999999998,62,12,435.587378825205,1659.37948,mp-23020,BiSeI,https://materialsproject.org/materials/mp-23020,20.256396368489725,-10.705129587448452,8.028774990788031,6.8268145425512525
-4.142357454166667,-49.70828945,7.571802280761172,-0.8426740717968754,8.3e-06,0.0,63,12,298.5478025680872,1361.332,mp-1095661,YbCuPbSe3,https://materialsproject.org/materials/mp-1095661,33.17098384036704,-17.758432710982238,14.910177940242459,0.3877218931365038
-3.92020924,-31.36167392,5.783382357845977,-0.03762857250000007,1.75e-07,0.21940000000000026,62,8,229.9736152969433,800.96,mp-1080459,GeTe,https://materialsproject.org/materials/mp-1080459,32.102403818486245,-7.315418447269419,3.1891265005574865,-34.38958231278602
-5.0528635809375,-161.69163459,4.5205242250711635,-2.0229044970150865,0.0,3.3566000000000003,62,32,789.9657518308203,2150.5422228,mp-30119,Cs3AsO4,https://materialsproject.org/materials/mp-30119,-5.727951810339369,-28.082497590529,-26.815381837623807,-54.495427502994175
-5.06623197125,-40.52985577,4.050209131845322,-0.006536849107142473,9.5e-07,0.0,166,8,173.5327737648419,423.262572,mp-7541,SnP3,https://materialsproject.org/materials/mp-7541,13.102572371615224,-12.98152769313342,0.21572709106776575,-14.026228440802994
-5.790976070166668,-347.45856421,6.7424663007975685,-0.8513006486666673,0.9936940999999999,0.12270000000000005,64,60,1148.6093499831086,4663.8228,mp-1208465,Tl5(C2O3)2,https://materialsproject.org/materials/mp-1208465,-32.785017505942626,-31.829214691768644,-21.159152090472627,-47.8887425143309
-7.679009075333334,-115.18513613,7.439842274700657,-2.7800804634722227,0.0004381,2.0927999999999995,25,15,212.60541844176998,952.5526,mp-1215409,ZrTi2(PbO3)3,https://materialsproject.org/materials/mp-1215409,-2.494070981567899,-79.87640875501623,26.099453481206154,-66.70467842296699
-7.112881471666667,-170.70915532,5.974004207733012,-2.8101000650000003,4.325e-06,3.0079,14,24,363.2005480908108,1306.6609999999996,mp-1205344,PrSbO4,https://materialsproject.org/materials/mp-1205344,-47.18231417051987,-46.7033726612019,-25.842268917741734,-22.53806498562788
-7.142748456964285,-399.99391359,5.16514712311547,-2.2478562513678577,0.0,1.2614999999999998,62,56,1336.3225000698128,4156.66368,mp-555012,La6S4N3Cl,https://materialsproject.org/materials/mp-555012,10.494966491903462,-6.431513224562804,-5.777668016776907,-23.164246412486715
-5.323678044423077,-276.83125831,6.896174975884647,-1.820448692445055,0.0,1.3956,14,52,762.5501912373372,3166.850896,mp-12199,Hg3(PO4)2,https://materialsproject.org/materials/mp-12199,-26.40209015457716,-45.15019676254712,-19.88986406810397,-42.593832160435774
-9.042781303695653,-415.96793997,7.896172884062301,-3.458116323315217,0.0,0.0,127,46,654.7425168287791,3113.4228,mp-15021,Ba3Ta5O15,https://materialsproject.org/materials/mp-15021,-32.151572131657424,-67.49114487370116,-4.463032509369532,-56.28034862482668
-3.1471615180000003,-31.47161518,3.2686550643550345,-1.4806024058689655,0.0,3.1546000000000003,225,10,363.9648828548776,716.4394385999999,mp-1114652,KRb2AlBr6,https://materialsproject.org/materials/mp-1114652,0.9275837440167691,-27.38057597558304,-34.90508617767952,-69.51548804760255
-3.9579561425,-15.83182457,3.6166309521381694,-1.2184473120474144,0.0,1.7601,71,4,93.17525017578896,202.9344,mp-7895,Rb2O2,https://materialsproject.org/materials/mp-7895,-0.3851643368228919,-32.70640415563824,5.030693953986665,-49.49429960913525
-6.896072136944443,-248.25859693,4.3625177317832415,-3.056122342553652,3.9999995999999998,1.036,14,36,495.18418597656233,1300.9328535999996,mp-1195656,BaMnP(O2F)2,https://materialsproject.org/materials/mp-1195656,-26.865973567920786,-26.891617469090747,-11.174211570895684,-18.430543095059267
-7.053694877142857,-98.75172828,4.201121441900283,-2.7087896120561226,2.8656886000000004,0.0,164,14,208.72589485158684,528.07119328,mp-1214445,BaNaY2(PO4)2,https://materialsproject.org/materials/mp-1214445,-20.811779443952155,-28.72021155019315,6.817794823196932,0.7051520261187249
-7.199501976904763,-302.37908303,3.4337965040760667,-3.472941907619049,0.0,4.0564,173,42,596.4967463069132,1233.4840632,mp-5492,SrAl2O4,https://materialsproject.org/materials/mp-5492,-25.387068678914215,-28.41609263068198,-6.776600020384147,-0.14413807389209984
-4.439795186071429,-124.31426521,4.8518913669427235,-0.6033909626785717,3.65e-06,0.7786999999999997,62,28,664.3717667114379,1941.2128,mp-19941,As2PbS4,https://materialsproject.org/materials/mp-19941,1.9663790093127864,-7.338516431283129,-18.584395003261413,-37.22299228116387
-4.211469908181818,-92.65233798,4.147776085279518,-0.9012550607063636,0.0,0.6238,28,22,634.7188655165468,1585.4319999999998,mp-1014204,Sn5(S2Cl)2,https://materialsproject.org/materials/mp-1014204,6.144200857366736,-7.14743516085885,-2.06990047672274,-9.208817776853646
-3.616523427,-144.66093708,4.932511618147002,-1.6756040737500002,0.00034235,2.5891,14,40,1753.1356032425604,5207.563040000001,mp-772141,Ba2LaI7,https://materialsproject.org/materials/mp-772141,3.3829196117223566,-28.64565730216503,-4.212074173999596,-29.40289363701323
-4.87716979,-19.50867916,3.6994181035318263,-1.7869485353799999,0.91243065,0.0,166,4,156.526804101032,348.71693999999997,mp-27929,LaCl,https://materialsproject.org/materials/mp-27929,18.453384104184803,7.450996866822868,-8.507605718004392,-22.864158975770568
-8.467930101785715,-237.10204285,6.069734742091493,-2.5784000710714294,7.000059525,1.646,2,28,530.7299380233277,1939.9664,mp-1192808,GdWBrO4,https://materialsproject.org/materials/mp-1192808,-32.00109438633782,-34.031652665081644,-37.31131410232569,-24.24556974735625
-6.918308137,-138.36616274,5.745850609674179,-2.636596351143999,9.9996279,0.0,166,20,302.58737935631905,1047.022585,mp-556632,Ba4PrMn3O12,https://materialsproject.org/materials/mp-556632,-11.8198231492505,-83.18760011905694,16.316977754663526,-73.06428604951793
-5.172230677894738,-98.27238288,5.261352023168018,-1.9493914005073685,5.999999400000001,3.393,217,19,275.56192497582475,873.1070192000002,mp-1105117,Ni3Sb4(OF)6,https://materialsproject.org/materials/mp-1105117,-51.55989714740717,-62.285987397601055,-25.04007863762415,-20.263938195973946
-5.7149051785714295,-160.017345,6.561010237158297,-1.5344390407142865,0.000113675,2.3884,12,28,531.2504832606546,2099.0412,mp-1193772,Tl2CrO4,https://materialsproject.org/materials/mp-1193772,-33.303710603709284,-29.08494206696794,-18.002432350306886,-31.016803800991003
-8.509129745,-272.29215184,5.62659564465697,-3.6709848214062486,0.0,1.9458999999999995,63,32,430.52929888800713,1458.8120000000001,mp-6622,BaNd2Ti3O10,https://materialsproject.org/materials/mp-6622,6.617402827670324,-91.00986815775795,2.276810186469884,-37.467043549272425
-8.2214799865,-164.42959973,6.84462509309776,-3.262919982250001,2.00001135,1.4646,62,20,241.92523557075143,997.1988,mp-1188225,SmVO3,https://materialsproject.org/materials/mp-1188225,10.846343436276591,-81.6487803939125,50.86035686806785,-54.93319237955724
-6.691463163571428,-93.68048429,4.416556636815074,-3.0330308414285714,0.0,3.3502,5,14,224.1062711967175,596.0582771999998,mp-1227987,BaAlGaO4,https://materialsproject.org/materials/mp-1227987,-25.63373487011465,-28.42913576774661,-9.9150229406412,-25.148283916734538
-6.2378400625,-24.95136025,3.554721098616248,-2.1323995982812507,5.35e-06,0.0,139,4,165.42695584869088,354.13,mp-1232239,PmS,https://materialsproject.org/materials/mp-1232239,6.110645067185611,-0.5451801470712042,17.19328455732594,-39.91745408847362
-7.076577899166668,-254.75680437,5.608621281384684,-2.203869703888889,0.0,2.2566,62,36,479.72585364773187,1620.3176,mp-607026,V2PbO6,https://materialsproject.org/materials/mp-607026,-26.52169639384616,-41.93832881544869,-20.416673721204592,-43.51066045530631
-4.5974973525000005,-55.16996823,3.436590107757433,-1.0505734985714288,0.0,0.5052999999999996,189,12,343.8226245084132,711.5625719999999,mp-7931,SrP,https://materialsproject.org/materials/mp-7931,23.466820945345273,-9.728547797097166,9.957489487868953,16.15788011074388
-8.6307033878125,-276.18250841,6.523851545054708,-2.8386928026562512,12.00064825,0.0,14,32,464.8444260644146,1826.26,mp-648448,Eu2GeO5,https://materialsproject.org/materials/mp-648448,-12.964305271112055,-59.79164131753189,-18.900615861897872,-57.70274733559478
-5.8585822295000005,-234.34328918,6.248640611742196,-1.8183423907250005,0.0,3.4363,173,40,674.2178216555892,2537.09473856,mp-1220871,NaAs3(PbO3)4,https://materialsproject.org/materials/mp-1220871,-27.39360792733787,-45.49663321933431,-24.195167451193036,-40.16899635233276
-5.71999513673913,-526.23955258,6.63294146416741,-2.477144332608696,0.000114575,1.8841,62,92,1824.3999369845692,7287.475751999999,mp-28788,Ba9(AuO6)2,https://materialsproject.org/materials/mp-28788,-2.5053827344896344,-32.476568843090575,-2.2037291764240905,-28.999771705129966
-3.201715259375,-51.22744415,4.273186590496563,-1.0693079039008615,1.8000000000000001e-06,2.4489,140,16,598.3162216643767,1539.6909038,mp-23467,CsSn2Br5,https://materialsproject.org/materials/mp-23467,4.2661515959442475,-31.778634381920416,-18.80165985946346,-29.23678261544966
-7.85773269632653,-770.05780424,6.95174766294302,-0.3098750601785719,0.45846329999999996,0.0,229,98,1421.9179738672303,5952.7748,mp-1197596,Ce33Fe13(B9C17)2,https://materialsproject.org/materials/mp-1197596,31.04787965126357,-53.58452563462189,27.769822133402034,-25.77463495197052
-5.7302704225,-45.84216338,7.864144313370183,-0.8289023175000008,0.0023741,0.0,25,8,172.43143696418323,816.6177799999998,mp-1223829,Ho4Si3Ge,https://materialsproject.org/materials/mp-1223829,31.02979512160729,-41.22609979874057,13.7497811158483,-17.609814785895733
-7.643247353571428,-107.00546295,6.169720222680661,-3.591364669285714,0.0,3.3784000000000014,64,14,197.07403392708687,732.22708,mp-755142,La2MgO4,https://materialsproject.org/materials/mp-755142,16.64438923958827,-70.78590080254577,38.248043768944896,-42.486455258489144
-7.526651266805555,-541.91889121,4.8940083118231215,-1.8938478106768053,0.0,1.6305000000000005,1,72,971.5050336121136,2863.2592158,mp-686280,Nd4AlSi5(NO)7,https://materialsproject.org/materials/mp-686280,-24.58932045366377,-40.74100007490538,-14.39436447049201,-32.86523903417095
-7.119703996666666,-170.87289592,5.043827624873611,-2.6240823726005744,5.5e-07,3.6011999999999995,49,24,406.72808849291135,1235.4219438,mp-1213413,CsHo(MoO4)2,https://materialsproject.org/materials/mp-1213413,-49.344321378215255,-51.7959657228486,-29.805267890685233,-54.95467183354946
-9.0782489525,-36.31299581,6.136546461851473,-1.2220372874999992,7.81962695,0.0,164,4,128.34693844177121,474.30800000000005,mp-1064427,GdBr,https://materialsproject.org/materials/mp-1064427,21.610598552908588,-2.0267100835758085,21.194114206431838,-34.363427281454705
-7.539569294166667,-180.94966306,5.972251414214099,-3.2812899792708343,0.0,4.4244,113,24,279.9220449072798,1006.760328,mp-14416,Sm2Be2GeO7,https://materialsproject.org/materials/mp-14416,-16.890740761760025,-35.84503482849588,-14.763764067165596,-34.53808864561384
-8.385830718333333,-201.25993724,4.938199865355742,-3.5294651779687505,0.0,1.8349,12,24,315.810444063631,939.174,mp-3943,BaTi2O5,https://materialsproject.org/materials/mp-3943,-11.272111918110706,-20.60080419704664,5.435106808348774,-22.399731244031
-7.313126793333333,-43.87876076,8.032033026721766,-0.6979248923809523,1.59318345,0.0,65,6,163.986930340875,793.2053440000002,mp-1237725,UTeP,https://materialsproject.org/materials/mp-1237725,23.25405233657182,-23.681772958871285,22.566817200292398,12.55724716276334
-6.52490970142857,-182.69747164,6.362566144857037,-1.851158681523036,0.000216575,0.9415,62,28,713.6526682759156,2734.4508,mp-1209975,Nd3Se3N,https://materialsproject.org/materials/mp-1209975,28.439904459562925,-19.37306239795348,16.702797047787833,1.8425950080350209
-8.69958094861111,-313.18491415,7.279540237044857,-0.42554003787037054,28.06386175,0.0,128,36,377.8587195796225,1656.4728,mp-1197241,Gd4NiB13,https://materialsproject.org/materials/mp-1197241,8.929596044568948,-57.54015614004474,6.608806745007143,-49.4042125474835
-6.032164980666669,-180.96494942,4.910548648205343,-2.1850881214109203,1e-07,2.6097,176,30,504.8255841452512,1492.8710076,mp-540707,Cs2Sn(GeO3)3,https://materialsproject.org/materials/mp-540707,-31.74830662313073,-30.663181456847312,-6.057189940563191,-27.956010705479606
-4.04353856,-16.17415424,5.037523623923646,-0.9690294536278734,5.0999999999999995e-06,0.6881999999999999,47,4,74.27801046799881,225.3348,mp-997084,RbAgO2,https://materialsproject.org/materials/mp-997084,3.2050393626158784,-35.82859394350691,-6.255098187383887,-1.7769691762230169
-4.718742167222222,-169.87471802,5.036312843728548,-0.8202478486342591,0.0,0.39780000000000015,15,36,1228.8315495565805,3726.97056,mp-582657,Ti4Te9I4O,https://materialsproject.org/materials/mp-582657,13.528896486079182,0.22861793997972235,-20.75726445757868,-30.56621077562409
-10.0526212735,-201.05242547,7.715843471232735,-0.9797083449279996,0.0,0.0,2,20,272.96070946817275,1268.3364,mp-1246572,ZrWN3,https://materialsproject.org/materials/mp-1246572,-22.375919381388716,-41.33607935016008,-8.592347924164434,-39.23731788649669
-6.912461719166667,-331.79816252,4.883995065220208,-2.0404066624999992,3.0008031,2.7802,62,48,783.6971557107335,2305.0184,mp-645568,TlCr(MoO4)2,https://materialsproject.org/materials/mp-645568,-50.76183039956736,-42.1446240044244,-37.711771382041725,-22.146112409474398
-7.864705685625,-125.83529097,5.445592763128111,-0.9981452118149994,1e-07,0.059800000000000075,64,16,265.0919808110297,869.346,mp-1029770,BaCrN2,https://materialsproject.org/materials/mp-1029770,-6.577287443087664,-33.12303731717036,14.361805084666125,-23.240667023642626
-5.691850868333334,-102.45331563,6.322909456524516,-0.4739589630555561,1.0206865999999999,0.0,193,18,508.59094547026575,1936.5847000000006,mp-1211823,La5FeGe3,https://materialsproject.org/materials/mp-1211823,36.29581507467569,-39.2502014284252,24.341607088984524,-21.409328223109025
-7.6939060064,-192.34765016,7.417624857421836,-2.78630546645,0.0003804,2.1022,25,25,358.63905424926406,1602.04,mp-1216039,Zr2Ti3(PbO3)5,https://materialsproject.org/materials/mp-1216039,-2.5034356827283264,-79.89677033581596,26.096489234726327,-66.77764151825531
-5.283796046363637,-116.24351302,5.177502193322403,-2.2487298428654543,1.9999999,0.16810000000000036,51,22,432.3182934774562,1347.9532000000004,mp-559757,Ba3Cu2(ClO2)2,https://materialsproject.org/materials/mp-559757,17.991669366504162,-47.26813268905422,5.887512056271124,-23.787685174409823
-6.39097946875,-204.51134299999998,7.907345319056307,-0.3631383117708342,3.425e-06,0.0,135,32,347.20940897840063,1653.3815999999995,mp-866809,YbB2C,https://materialsproject.org/materials/mp-866809,7.7611802326626975,-57.45951921173727,6.2273259410853585,-49.141358506714795
-8.501280895,-391.05892117,4.995460301846664,-3.3784722716123183,0.0,1.5551,55,46,617.3442311105388,1857.17922,mp-1218793,Sr2LaTi2Nb3O15,https://materialsproject.org/materials/mp-1218793,-29.94971411136365,-69.53777029811364,-2.9132343113008607,-55.59358870816047
-7.595512395166668,-455.73074371,5.441235996967858,-2.630861938946334,0.0,1.0276000000000003,1,60,944.3300478732338,3094.3702772,mp-677348,Nd8AlSi3(NO5)3,https://materialsproject.org/materials/mp-677348,-23.592592275944728,-37.23861525279529,-21.252344346130467,-32.640349071194855
-5.93826668,-83.13573352,7.967833882217711,-0.8302036000000003,2.285e-05,0.0,12,14,268.72904315374456,1289.4537999999998,mp-569818,Er3Si3Ni,https://materialsproject.org/materials/mp-569818,54.36335185916247,-10.058292109071424,29.993529314041076,4.19133539562036
-5.97675751,-23.90703004,4.632471801274142,-2.8818278006249995,0.0,2.1413,123,4,75.06212664450807,209.4038,mp-1018097,BaCaO2,https://materialsproject.org/materials/mp-1018097,3.2828307271906234,-61.70093587104726,-26.03445652579305,-72.7343657182313
-6.386289106923077,-332.08703356,4.2936820654338135,-2.4599241146153847,5.75e-07,3.2622,15,52,850.902787921671,2200.1928,mp-542459,BaGa2(GeO4)2,https://materialsproject.org/materials/mp-542459,-31.126734567312198,-28.221751105363502,-31.63929494948066,9.837462844328282
-9.091182527083333,-218.18838065,6.243427372876862,-3.2717266384375017,7.00000015,3.2557,113,24,275.09397994617774,1034.320328,mp-650715,Gd2Be2GeO7,https://materialsproject.org/materials/mp-650715,-16.762886676156256,-35.899004291423545,-14.854037462622836,-34.64840927490562