energy_per_atom,energy,density,formation_energy_per_atom,total_magnetization,band_gap,sgr,num_sites,cell_volume,weight,mp_id,formula,URL,tsne_cry_0,tsne_cry_1,tsne_xrd_0,tsne_xrd_1
-7.1206717725,-655.10180307,8.515693791205043,-0.41949836134057866,17.04380335,0.012199999999999987,129,92,957.2098564004216,4908.8313100000005,mp-16093,Lu3Co29(Si2B5)2,https://materialsproject.org/materials/mp-16093,54.19061999005914,36.918388810475605,69.13447364032933,-5.652650496672872
-6.503199238333334,-39.01919543,8.583199718725261,-0.09093376166666664,4.0748603999999995,0.0,187,6,85.00701487470141,439.39477999999997,mp-1226692,CeCo4Cu,https://materialsproject.org/materials/mp-1226692,78.60251683118378,18.852458521880575,85.93189756534824,-14.402803391024806
-8.224402430789473,-312.52729237,7.549119434190281,-0.0023586323684218033,38.38532825,0.0,194,38,518.4067852431601,2356.7737,mp-1226946,CeYFe17,https://materialsproject.org/materials/mp-1226946,72.27030838664255,38.01661307691833,83.01129860614303,-21.42924771755177
-5.7718996546153845,-75.03469551,7.859305114245203,-0.2333782523076921,3e-07,0.0,191,13,171.93046245376232,813.7441699999998,mp-12398,Mg(CoGe)6,https://materialsproject.org/materials/mp-12398,42.5705854632979,48.74177646605444,70.69910438851474,-17.65071979339998
-6.1440956416666666,-36.86457385,8.750748792576031,-0.6246948300000005,4.1e-06,0.0,65,6,81.17717119380842,427.78942,mp-1071731,HoSiNi4,https://materialsproject.org/materials/mp-1071731,75.50666270870914,21.273916753083803,89.01005746880953,-14.391407741939995
-6.526653134166667,-78.31983761,7.449817837611174,-0.4834970236111111,5.5e-07,0.0,191,12,149.11356568425066,668.9809,mp-7559,YNi4B,https://materialsproject.org/materials/mp-7559,75.96785999924725,24.813159033817282,75.13856923688681,0.7998034580038775
-5.172187969166667,-62.06625563,7.375735151720652,-0.16427167249999994,2.5e-08,0.018199999999999328,64,12,183.68652716198508,815.8936,mp-29900,NiGe2,https://materialsproject.org/materials/mp-29900,42.971871437720175,47.47661535084488,71.15106602388755,-9.431725684724476
-6.110367668333333,-36.66220601,8.18369900050954,-0.5679189695833328,2e-06,0.0,65,6,83.84551381727766,413.2191,mp-1070955,SmSiNi4,https://materialsproject.org/materials/mp-1070955,75.21545663903991,21.381714907941486,88.95059323289635,-13.832549652353055
-7.221587376666666,-86.65904852,7.483548956914822,-0.29060602611111125,3.64073455,0.0,191,12,148.86712434849784,670.8992599999999,mp-10463,YCo4B,https://materialsproject.org/materials/mp-10463,75.81074334851837,25.006760091589406,75.29647834692148,0.7839662678356275
-7.598104693684211,-288.72797836,11.043731423441637,0.12566452539473671,4.95373895,0.0,194,38,443.8228745038819,2951.72863,mp-1195194,Np2Co17,https://materialsproject.org/materials/mp-1195194,70.99502569781586,42.375001456167105,61.790650510147245,-7.381764880879802
-8.075157908157895,-306.85600051,7.839531774917992,0.08422765657894765,9.392333500000001,0.0,194,38,523.4983271773938,2471.47563,mp-1232416,Pr2Mn12Co5,https://materialsproject.org/materials/mp-1232416,74.41059573375014,36.030013305671844,84.70829372869956,-21.27759210297401
-8.6472143375,-103.76657205,8.91619437520617,-0.4302596730555545,0.0,0.0,62,12,123.42713159037024,662.73678,mp-21347,CoBMo,https://materialsproject.org/materials/mp-21347,59.01657697693085,29.17545503435837,74.13367331608967,-0.6597754522465731
-5.993416570952381,-251.72349598,8.148373612514442,-0.41203842355442144,6e-07,0.0,164,42,490.0782195674287,2404.845858,mp-1210058,Ni10SbP3,https://materialsproject.org/materials/mp-1210058,41.329719317393135,51.9976944966393,74.29747036173539,-10.120112603942292
-6.7961081483333325,-40.77664889,9.060571983026579,-0.09986875000000002,7.072328999999999,0.0,191,6,83.13008326392969,453.591325,mp-1200,TbCo5,https://materialsproject.org/materials/mp-1200,78.28520945094753,20.266826219149557,87.66016615842001,-14.894957330700715
-6.156837426233767,-474.07648182,9.329517420796213,-0.2814230116558452,0.0001145,0.0,229,77,962.5398105293167,5407.901720000001,mp-1204867,Ho11(Ni10C)6,https://materialsproject.org/materials/mp-1204867,61.5172684342135,45.469476901404,66.89493940492517,6.983915805766804
-8.156601994210527,-154.97543789,7.594302401558937,0.0013379030263147222,39.7447249,0.0,160,19,259.9011503898257,1188.63085,mp-1219026,SmYFe17,https://materialsproject.org/materials/mp-1219026,72.65463497069078,37.864385041306896,83.23372470578289,-21.40172136680883
-5.603056065833332,-67.23667279,6.319284473399218,-0.3040815144444444,0.0,0.0,191,12,150.12899057311893,571.3252,mp-8307,CaNi4B,https://materialsproject.org/materials/mp-8307,41.75170773586699,45.964175252110174,67.1141519665086,-11.313640480581537
-8.067493687105264,-306.56476011,8.190818260171993,-0.011069783421054294,39.1265558,0.0,194,38,513.8097501645071,2534.4314,mp-1194635,Tb2Fe17,https://materialsproject.org/materials/mp-1194635,73.6302780280758,37.329003285103404,88.34710926135809,-20.874564964140642
-7.2010837683333335,-86.41300522,9.0724291698711,-0.11964781666666725,12.9633924,0.0,47,12,166.60902768128747,910.27586,mp-1215983,YThCo10,https://materialsproject.org/materials/mp-1215983,77.62218853333155,20.913114520068888,87.93543804846216,-18.382066644480886
-8.061096059473684,-306.32165026,8.220830886935316,-0.005791355855264831,78.02761140000001,0.0,8,38,514.0180012967353,2544.749,mp-1220333,NdEr3Fe34,https://materialsproject.org/materials/mp-1220333,73.65613873993296,37.29002367311296,87.31905980694692,-22.00543269599589
-5.7072224316666675,-102.73000377,8.834156959446826,-0.3707582633333328,0.6973444000000001,0.0,191,18,267.9508271800765,1425.5128049999996,mp-644529,TbGa2Co3,https://materialsproject.org/materials/mp-644529,69.37182080641965,12.199606236543913,62.81233073126678,0.09903509024612356
-6.995448060689656,-202.86799376,8.72831279895358,-0.1804227799999992,18.8025582,0.0,225,29,294.1193038745473,1545.9830949999996,mp-505544,Co21(B3Sb)2,https://materialsproject.org/materials/mp-505544,40.54786275416958,52.046711240293035,79.49582746176175,-10.184936321194076
-9.414478466551724,-273.01987553,8.298200659060697,-0.0653455056034455,16.5341172,0.0,225,29,291.8870287150749,1458.6451,mp-1193216,Mn20(MoC2)3,https://materialsproject.org/materials/mp-1193216,40.47798624868321,52.14817108536832,79.42979320974455,-10.312905260974308
-7.361330748333334,-176.67193796,8.072712103356835,-0.15197172958333385,1.6150696000000002,0.0,160,24,329.36063982353744,1601.18706,mp-1216240,YZrCo6,https://materialsproject.org/materials/mp-1216240,76.36374710642382,24.211774566712013,76.48387594021736,0.4819863954008476
-6.71481473862069,-194.72962742,9.558305628648533,-0.33117818965517404,2.4e-06,0.0,225,29,288.2698036875552,1659.32316,mp-1192512,Ta2(Ni7B2)3,https://materialsproject.org/materials/mp-1192512,40.640769176070656,51.121139922733605,66.83927950647329,-9.330807510381877
-5.82026742952381,-122.22561602,8.861316623436231,-0.5331201178571431,0.0001246,0.0,174,21,292.07514613495744,1558.6326399999996,mp-1191795,Ho2Ni12As7,https://materialsproject.org/materials/mp-1191795,56.717908197253074,37.100648588688436,69.95596166577394,-4.721419855566478
-7.00416723,-252.15002028,9.141859502897313,-0.1554331366666667,6.09374365,0.0,194,36,503.33841741441216,2771.05746,mp-1196386,Ce2Co7,https://materialsproject.org/materials/mp-1196386,74.68443222181915,23.773168019225132,63.08303530280728,17.150602490642974
-6.404616548461537,-83.26001513,8.457400107770399,-0.017969958461538208,6.9036799,0.0,69,13,178.8000025798675,910.658,mp-1225497,Gd(GaFe)6,https://materialsproject.org/materials/mp-1225497,69.34516103542917,35.247388799147316,83.39908834472747,-22.082599132061667
-6.010741032068966,-174.31148993,9.248826137465523,-0.3392851231034483,0.8300069999999999,0.0,225,29,295.07617071248774,1643.5074,mp-1193375,Yb2(Ni7B2)3,https://materialsproject.org/materials/mp-1193375,40.673871792877726,51.2162709620784,67.00597053061401,-9.175679805732404
-7.374278337794117,-501.45092697,8.060232402873384,-0.08693542936274543,24.370184899999998,0.0,136,68,905.7809197453664,4396.64744,mp-1199281,Pr2Fe6Co8B,https://materialsproject.org/materials/mp-1199281,74.7303426824579,39.912313830999594,83.95029610857736,-6.973802275533212
-7.412651252352941,-126.01507129,8.13886296690619,-0.07399365441176459,23.3871862,0.0,155,17,213.15567641525033,1044.748,mp-17977,Fe12As5,https://materialsproject.org/materials/mp-17977,46.48676029545933,49.80908014133762,75.26824727699052,-7.320686103247322
-7.628081233793104,-221.21435578,9.556763235778105,-0.28008278620689586,18.1302512,0.0,225,29,289.1913074659505,1664.3588550000002,mp-1193985,Ta2(Co7B2)3,https://materialsproject.org/materials/mp-1193985,40.645042592254256,51.01970411472261,66.80499651830765,-9.319874183548388
-6.529070950833333,-78.34885141,9.992707802623759,-0.3432786625000001,1.425e-05,0.0,26,12,171.90915276948257,1034.5062,mp-1220148,NiAs2Rh3,https://materialsproject.org/materials/mp-1220148,47.751406405781616,47.51216595548532,71.63813943721206,-5.7681626830279695
-4.679211053333334,-28.07526632,7.5351875297903135,-0.18523680333333326,1e-07,0.0,191,6,89.61086918129746,406.63585,mp-2797,YCu5,https://materialsproject.org/materials/mp-2797,80.17577400793425,20.00190905850797,85.45303507914834,-15.574858229180805
-6.668630268333334,-40.01178161,8.790600821455076,-0.1383113250000001,4.6008973,0.006399999999999295,191,6,84.14163947940563,445.431,mp-22311,EuNi5,https://materialsproject.org/materials/mp-22311,78.62460601100223,19.468118281029025,87.06467959214693,-14.588356558981015
-6.406637430779222,-493.31108217,7.819994775154385,-0.2613198212012999,0.1581777,0.0,229,77,970.7646288881157,4571.632549999998,mp-570148,Y11(Ni10C)6,https://materialsproject.org/materials/mp-570148,63.08798388203237,43.51381280262817,79.2444223335192,2.0362904664434125
-5.82717327,-122.37063867,8.868530385077252,-0.5374181378571437,2e-07,0.0,174,21,290.9274652314793,1553.7720000000002,mp-1191758,Dy2Ni12As7,https://materialsproject.org/materials/mp-1191758,56.72839338528606,37.0982969130896,69.99407452266597,-4.730723319047378
-6.158478433376622,-474.20283937,9.384528370299957,-0.28458553165584416,0.0014898,0.0,229,77,961.4300345306643,5433.517199999998,mp-1197229,Er11(Ni10C)6,https://materialsproject.org/materials/mp-1197229,61.51701906234364,45.46695566150179,66.88263449363835,6.9884457538441564
-6.980549001724138,-202.43592105,8.65620723263889,-0.17365811931034414,20.4151595,0.0,225,29,295.3991196793474,1539.883095,mp-542739,Co21(SnB3)2,https://materialsproject.org/materials/mp-542739,40.60800007734292,51.97019141247497,79.50869782332235,-10.094100354821538
-5.7253718607142865,-160.3104121,9.916709112372613,-0.3787220514285719,5.0875e-05,0.0,62,28,393.2657590552207,2348.576,mp-865201,LuNi5Sn,https://materialsproject.org/materials/mp-865201,71.32712060297331,21.754143278724204,64.31397754641685,17.508054258927174
-5.873248806666666,-35.23949284,8.50995195799306,-0.26075483083333256,1.4602614999999999,0.0,191,6,84.7591229506121,434.37465,mp-2370,PrNi5,https://materialsproject.org/materials/mp-2370,78.72544916430225,18.805861896339646,86.5710993323613,-14.33151797898371
-9.042094305,-90.42094305,8.193156369925985,-0.3642059716666665,0.0019704,0.0,38,10,100.50156070160894,495.878135,mp-1221842,Mn3B4Mo3,https://materialsproject.org/materials/mp-1221842,59.13353560014373,28.879203045352455,67.64831357324069,2.049768427467584
-5.488331828333332,-32.92999097,2.9100340019992026,-0.14390774277777751,5.0999999999999995e-06,0.0,191,6,53.94151742202561,94.5305386,mp-1207086,MgAlB4,https://materialsproject.org/materials/mp-1207086,33.00385296902638,43.638214231456644,61.19849056019544,-20.41601039599304
-6.853814782307693,-89.09959217,7.72333227855308,-0.20823095128205052,11.3310301,0.008199999999999541,191,13,176.0394509154531,818.7769999999999,mp-22130,Ti(FeGe)6,https://materialsproject.org/materials/mp-22130,43.851930134577216,47.99720706321961,72.17026703749264,-9.102741048596561
-8.621326939444444,-155.18388491,5.767211636689535,-0.890451169312063,0.0,0.0,193,18,208.2496293120517,723.270972,mp-8045,V5P3N,https://materialsproject.org/materials/mp-8045,50.69972195490986,47.242925598692466,74.9886760883184,0.5439123592978797
-3.208490755,-57.75283359,6.111792694300535,-0.3122760500000001,2.6666666666666667e-07,0.0,191,18,288.2881037059232,1061.0754000000004,mp-542953,CaZn3Ni2,https://materialsproject.org/materials/mp-542953,41.45827625642458,45.947536467443456,66.79398810504067,-11.789973283440466
-8.209758397631576,-311.97081911,7.3921862627503385,-0.0057386308552637676,79.4245208,0.0,187,38,520.209949968306,2315.80755,mp-1219085,SmY3Fe34,https://materialsproject.org/materials/mp-1219085,72.07843553143333,38.075299280085225,82.63496103428845,-21.334130000453804
-5.274939554666667,-158.24818664,6.488596046316163,-0.4341460955000002,0.0007811,0.0,38,30,455.3517339646307,1779.2977999999996,mp-1193893,Ca5Ni17Ge8,https://materialsproject.org/materials/mp-1193893,40.853863406925036,46.80659750725565,68.82210424782579,-17.299536001005976
-7.522051996315787,-142.91898793,8.111287631343957,-0.027762598157895158,30.3090239,0.0,166,19,261.5990165621905,1277.8410000000001,mp-1188910,Sm2Ga2Fe15,https://materialsproject.org/materials/mp-1188910,74.072929953461,37.35570592644778,86.73949411704504,-22.722713124762606
-8.084332495714285,-113.18065494,7.4306820366082365,-0.09544208704428517,21.051967,0.0,44,14,168.75389519219618,755.1502899999998,mp-1215830,YVFe11H,https://materialsproject.org/materials/mp-1215830,71.63474849494644,38.26724572028717,81.73053130791716,-20.19643133858713
-6.3919444760526325,-242.89389009,8.091489471845401,-0.3925603126315795,1.3e-06,0.0,36,38,383.39985514152846,1868.23424,mp-1212548,Ho(Ni2B)6,https://materialsproject.org/materials/mp-1212548,31.090129331881823,44.63640883430804,65.73182427219675,-20.041081950815123
-7.785967345625,-124.57547753,6.538707521304096,-0.3766518162499999,8.27567725,0.0,38,16,184.15541142377282,725.14909,mp-1221713,MnFe4Si3,https://materialsproject.org/materials/mp-1221713,44.5633105841428,56.98479061060665,75.17501316918865,-7.867676258376932
-5.506865294545455,-60.57551824,6.983620292967688,-0.2540662445454545,1.01e-05,0.0,121,11,165.46320851981605,695.87778,mp-1206386,Mg(Co2Ge3)2,https://materialsproject.org/materials/mp-1206386,40.77028370322832,46.76750705109722,24.719254899046554,-55.68948534843396
-6.645672082068965,-192.72449038,9.27868897090817,-0.3931547972413786,1.62e-05,0.0,225,29,296.0771812028965,1654.4074,mp-1194313,Hf2(Ni7B2)3,https://materialsproject.org/materials/mp-1194313,40.68585608100381,51.1791150164145,66.96294623471954,-9.180088255600165
-8.02073825125,-128.33181202,7.192023751184813,-0.38748801568452507,8.5416416,0.0,140,16,153.22567017184184,663.641524,mp-9913,Fe5B2P,https://materialsproject.org/materials/mp-9913,36.91354718047768,54.74521273760821,76.74804404498248,-10.958447398432957
-8.05880695368421,-153.11733212,8.120917522862296,0.0011360882894728929,38.9646856,0.0,160,19,258.0956996377982,1262.225,mp-1219083,SmDyFe17,https://materialsproject.org/materials/mp-1219083,73.93393895072231,37.38196865294191,87.05336458794443,-22.269208292440876
-6.2715538466666665,-37.62932308,8.666096244648784,-0.22335286375000032,3.8294288,0.0,187,6,84.49735156780741,440.9786,mp-1219065,SmFeNi4,https://materialsproject.org/materials/mp-1219065,78.6657321607062,18.94837852978785,86.860205223979,-14.406684595679064
-6.248068056206896,-181.19397363,9.150273255164985,-0.3699203568965523,0.0238469,0.0,225,29,298.9536860164219,1647.3614,mp-1193129,Lu2(Ni7B2)3,https://materialsproject.org/materials/mp-1193129,40.70664890890542,51.248458930794115,67.06805403852131,-9.112570191322137
-5.655481752307693,-73.52126278,7.880914825000065,-0.3596870425861552,0.38043449999999995,0.0,6,13,175.73564784043384,834.0410185999998,mp-567838,La2AlNi9H,https://materialsproject.org/materials/mp-567838,74.63253597293433,21.668445312032084,88.78449395642433,-13.428544094308878
-7.3695815145,-147.39163029,8.384486529149205,-0.055718603187499126,27.989975,0.0,12,20,257.29613792016283,1299.15404,mp-1219314,Sm2Fe5Co12C,https://materialsproject.org/materials/mp-1219314,74.74442049637405,39.2750486996728,87.05601231170813,-24.042106067852373
-5.1828506972,-129.57126743,6.7844286319743885,-0.1102888795448007,0.0089706,0.0,35,25,326.7971144479343,1335.1879399999998,mp-1190866,Ca4Ni20H,https://materialsproject.org/materials/mp-1190866,40.62077105716361,46.48165555040956,68.78888607762711,-17.10995167478765
-6.70735813137931,-194.51338581,8.445820610386946,-0.3561501727586205,0.0489179,0.0,225,29,373.0280234122976,1897.2922,mp-1194271,Zr6Ni23,https://materialsproject.org/materials/mp-1194271,63.535122749369364,44.055584489926375,73.99666295516124,-7.4442096353735945
-6.219190851666667,-37.31514511,8.866992879731999,-0.32143162291666744,0.0036924999999999996,0.0,65,6,89.25092137556021,476.58457,mp-1222858,LaNi4Rh,https://materialsproject.org/materials/mp-1222858,77.27418057487647,16.476668427097703,85.56194880176976,-12.56822819746307
-7.807978575862069,-226.4313787,11.509981733962231,-0.3165345856896561,0.00029380000000000004,0.0,225,29,366.0258581549683,2537.0984,mp-672652,Ta6Co16Ge7,https://materialsproject.org/materials/mp-672652,61.48581865471178,45.59159067909281,66.8953811607011,15.988563121802313
-6.121222756111112,-110.18200961,9.208393802673033,-0.438405026851852,0.013318100000000001,0.0,191,18,229.40285456558627,1272.1362,mp-542729,Dy3Ni13B2,https://materialsproject.org/materials/mp-542729,74.41232742094681,24.163485464099693,62.13874010410896,16.334217539577615
-8.162270303939394,-269.35492003,6.118753893692415,-0.3588077354166658,43.055203799999994,0.0,10,33,392.91079173761534,1447.7976,mp-1222227,Mn20Si12C,https://materialsproject.org/materials/mp-1222227,50.400902760040296,47.62234455303137,75.4287678219254,-0.3947058104292933
-6.875251326,-206.25753978,8.276046992892272,-0.02751444999999914,33.6243571,0.0,65,30,427.0074116416275,2128.184475,mp-1220153,Pr4ZrCo25,https://materialsproject.org/materials/mp-1220153,78.58018791779314,18.411686434898353,86.30388438904957,-14.222381623795126
-7.06342881047619,-148.33200502,7.759718404807947,-0.7434914933333326,5.091894,0.0,174,21,259.468356851419,1212.498674,mp-974042,Nd2Co12P7,https://materialsproject.org/materials/mp-974042,56.48770632358157,35.3429695918323,63.255398564771426,-4.123249956236815
-5.834418737142857,-122.52279348,8.80784227377274,-0.542566386904762,9.5e-06,0.0,174,21,291.58416938818954,1546.6227,mp-867324,Tb2Ni12As7,https://materialsproject.org/materials/mp-867324,56.737659836619166,37.11253142968569,69.98762906286589,-4.692784845842537
-5.844881075000001,-81.82833505,8.749383965094973,-0.7789592927551021,0.0,0.0,136,14,178.31122487897662,939.522248,mp-16066,Yb(Ni2P)2,https://materialsproject.org/materials/mp-16066,68.09475678016611,11.856865951007205,64.0883492875645,-1.1033274786410718
-6.396914134210527,-243.08273709999997,8.006258492406692,-0.3949298178947375,0.0,0.0,36,38,384.99043218127696,1856.2243,mp-10124,Tb(Ni2B)6,https://materialsproject.org/materials/mp-10124,31.095250234399877,44.64353191400074,65.74549080769191,-20.05530021638894
-8.184547146315786,-155.50639578,7.893731904346608,0.009440814210526132,37.074909600000005,0.0,166,19,258.6601428460708,1229.597,mp-654,Ce2Fe17,https://materialsproject.org/materials/mp-654,74.00204257788828,37.46473091357297,86.3017630974164,-22.182933748509736
-7.856489293793103,-227.83818952,11.342477582843204,-0.1580328565517238,0.28713449999999996,0.0,225,29,355.22553905939264,2426.4034850000003,mp-1192795,Hf6Co23,https://materialsproject.org/materials/mp-1192795,62.94864421468127,46.6334509368131,61.98014931361127,-7.126235218055445
-8.068910894736844,-153.30930700000002,8.211313758070656,-0.01480496894736922,39.1927899,0.0,166,19,257.709411192541,1274.365,mp-1106107,Dy2Fe17,https://materialsproject.org/materials/mp-1106107,73.75290357163037,37.30294123735565,87.25488014910978,-22.138925613722986