energy_per_atom,energy,density,formation_energy_per_atom,total_magnetization,band_gap,sgr,num_sites,cell_volume,weight,mp_id,formula,URL,tsne_cry_0,tsne_cry_1,tsne_xrd_0,tsne_xrd_1
-7.112940008518517,-1152.29628138,4.903111045118206,-2.3802514626491766,15.93027305,0.0,59,162,3275.426892460906,9671.4268,mp-651710,Ce20Ti11(S22O3)2,https://materialsproject.org/materials/mp-651710,9.828116734677652,-9.65164629789173,2.5401154724495307,-0.4642058922746189
-6.1908621246666655,-371.45172748,5.562269122786967,-0.5285087287933332,0.39999999,0.026199999999999782,62,60,1255.4458630442405,4205.3379,mp-505765,BaCoN,https://materialsproject.org/materials/mp-505765,21.98642943036979,-43.02410355889327,14.682574341375506,-22.990239449288445
-5.1071458025,-40.85716642,6.5361765494866155,-0.6440146462499996,5e-08,0.0,63,8,141.0438381672439,555.1735944000001,mp-16503,HoAl2Ni,https://materialsproject.org/materials/mp-16503,39.74958977689287,-14.35440015805973,20.1568530181323,10.273892798686722
-4.520538273500001,-90.41076547,3.687079319410609,-1.9096928547999998,0.0,1.6583,14,20,387.8657215939129,861.22135424,mp-756521,BaNa2O2,https://materialsproject.org/materials/mp-756521,-17.962172782238873,-24.044974554685375,-24.00596239633905,-30.372687925636072
-7.9122158345,-158.24431669,7.355303379292251,-3.13847016075,7.00000025,1.2977,14,20,235.07729695275512,1041.2672,mp-1217726,Tb2VFeO6,https://materialsproject.org/materials/mp-1217726,10.189871420565053,-81.1381491392587,51.020783740057865,-54.396277616224616
-5.885979689285714,-82.40371565,5.562445760292707,-2.4739398973214284,4.99999915,1.3185000000000002,129,14,273.6900713770887,916.8024,mp-1214726,Ba2FeBrO3,https://materialsproject.org/materials/mp-1214726,17.511366437627974,-48.734844065823815,21.987367194188405,-73.1625216082674
-7.38772181,-66.48949629,6.2810745822181,-2.719006708750001,8.0000009,1.2031,1,9,130.17852858873886,492.407,mp-1094126,Sm2Fe2O5,https://materialsproject.org/materials/mp-1094126,16.611196004038323,-77.67061910550139,44.508699085413674,-56.686493345907294
-6.5055575875,-52.0444607,5.839573987363073,-2.9368545953017247,0.00025739999999999997,2.9287,194,8,172.78243414270034,607.6194438000001,mp-1178449,CsLaO2,https://materialsproject.org/materials/mp-1178449,3.55038647225415,-59.22947445295429,5.4095727843403605,-55.23008817249941
-4.8589543144444445,-43.73058883,3.2242480288147224,-1.5037027339032574,0.0,0.5898999999999999,8,9,215.2145919185904,417.8795,mp-551267,Rb4CO4,https://materialsproject.org/materials/mp-551267,-0.5565845465425849,-32.787525795212275,-14.823548285461758,-27.27155532997148
-5.48415334375,-43.87322675,4.943436479037184,-1.8065661380375009,4.94405665,0.0,129,8,190.33642888109569,566.6328963999998,mp-1080128,SrMnSbF,https://materialsproject.org/materials/mp-1080128,20.948703788919946,-7.853165864895012,7.684447968478772,-20.050768917379056
-8.75309052,-175.0618104,5.14590854977942,-1.0689481289279996,0.0,1.4196999999999995,15,20,300.64702670518767,931.68668,mp-989612,LaCrN3,https://materialsproject.org/materials/mp-989612,-25.58240310615045,-35.24281860092809,-13.320994938474838,-50.4564786339974
-6.8071284720000005,-136.14256944,7.3971939640396105,-0.5591334333333329,1.25e-07,0.0,127,20,195.93801985939092,872.8439999999999,mp-571495,LuB4,https://materialsproject.org/materials/mp-571495,7.8548463080773425,-59.09060944842432,4.673574115500178,-48.84904508102206
-5.9357515361538455,-77.16476997,6.836245341924883,-2.220195518942308,9.9e-06,0.0,123,13,184.51306628147339,759.61875,mp-1208792,Sr2PrTlCu2O7,https://materialsproject.org/materials/mp-1208792,10.83105490532083,-67.79809540498084,39.90327972188991,-50.10071235161586
-5.419658219333333,-81.29487329,5.250609294674466,-1.188998761166666,0.9347719999999999,0.0,12,15,203.7100121863633,644.1292,mp-1213371,Cu2As2PbO10,https://materialsproject.org/materials/mp-1213371,-23.31314684008288,-43.23948611354063,-17.255539713078125,-36.77408195175185
-7.080629496071429,-198.25762589,8.124442685420108,-1.7894454845535717,8.00000965,1.0433,85,28,369.39445640096636,1807.3192,mvc-10730,MgW4O9,https://materialsproject.org/materials/mvc-10730,-14.956238126667705,-46.3520079305366,-9.308528722864024,-35.956889930266506
-7.155093834807693,-372.06487941,3.997365076751707,-2.6860230281410256,0.0,3.8131,62,52,635.6034356388027,1530.0688,mp-1020611,SrGe2(BO4)2,https://materialsproject.org/materials/mp-1020611,-30.4095983397849,-27.41587589128393,-30.847568652209787,9.547794442202504
-7.409242184705883,-251.91423428,5.669854103759108,-3.1672775639705892,3.66e-05,2.3702,36,34,604.7456663372195,2064.88352,mp-758845,Ba5Nb2O10,https://materialsproject.org/materials/mp-758845,-14.661131980230007,-80.84434197349862,15.569295989228175,-70.6182166117072
-2.999124456666667,-35.98949348,4.749955350237094,-0.1332838666666666,2.0866666666666668e-05,0.0,38,12,306.3775766214222,876.3900000000001,mp-1094552,MgSb,https://materialsproject.org/materials/mp-1094552,30.44980666678932,-25.577000612552272,4.4709255502133844,9.386041305511316
-5.267300575,-63.2076069,5.86184606551358,-3.3010917607933337,0.0,4.444000000000001,15,12,174.136509938845,614.7169028,mp-3751,AlTlF4,https://materialsproject.org/materials/mp-3751,-34.20332771505785,-27.735681347518444,4.05005210427601,-50.476747180880935
-3.3801620433333337,-30.42145839,4.979134198790404,-1.7526513633333334,3e-07,2.9057,189,9,374.7537235174969,1123.70082,mp-760418,Ba2SrI6,https://materialsproject.org/materials/mp-760418,3.0207243004104662,-29.06935460267549,-5.489237814595361,-31.83559018890315
-5.800664780909091,-63.80731259,5.336505180784949,-0.6154281950000005,2e-05,0.0,25,11,240.7076035288729,773.5664999999998,mp-1220187,Nd4Si7,https://materialsproject.org/materials/mp-1220187,23.685825961564483,-10.257528820793263,20.909896902919648,21.2556689834471
-5.079046432857143,-142.21330012,5.231080894637858,-2.229978215695813,1.25e-07,2.5936,14,28,776.635051281202,2446.5795028,mp-768211,Cs3HoO3,https://materialsproject.org/materials/mp-768211,-5.430615744948045,-27.184198205504057,-25.272218950002326,-53.37474406363018
-6.797356726666668,-40.78414036,8.272392009989403,-1.6316671896875004,0.0,0.0,139,6,135.19064302171014,673.48612,mp-6979,ThGeS,https://materialsproject.org/materials/mp-6979,39.83434589750169,-9.442900542104066,24.031956205773977,14.873611821233384
-5.457429479,-163.72288437,4.642506049537881,-2.40357074623276,0.0,3.1656000000000004,14,30,690.7543764403839,1931.1990228,mp-18315,Cs6Si2O7,https://materialsproject.org/materials/mp-18315,-6.673048935247638,-28.853401480797533,-5.845055741085454,-30.08746587303873
-6.487652954285713,-136.24071204,5.656258760714708,-1.4710958962499998,0.0052163,0.0,191,21,487.84525485710077,1661.7369,mp-555465,La10Si8O3,https://materialsproject.org/materials/mp-555465,32.357933667361735,-42.14236919730261,19.514410159812783,-18.880327427976276
-6.8754395313793095,-199.38774641,6.2847932950693055,-2.3293899710273,0.1345293,0.0,8,29,604.3938411390326,2287.5044,mp-1219125,Sm7Ti4(Se2O)6,https://materialsproject.org/materials/mp-1219125,29.47102267109088,-19.70141677675197,15.350299939378695,-3.1643395317883938
-9.170001084347826,-421.82004988,7.149357196744907,-3.2924004985760877,6.0398468,0.0,127,46,638.6756510876568,2749.782,mp-565929,K2EuTa5O15,https://materialsproject.org/materials/mp-565929,-33.19395520722307,-69.39045698795897,-2.9387027260565173,-56.53961294703872
-6.3680313138888875,-229.2491273,5.238119391668082,-0.8285864922222225,0.11459665,0.0,62,36,731.7495585913513,2308.281504,mp-1212379,Ho2Sc3Si4,https://materialsproject.org/materials/mp-1212379,37.004623372689466,-14.322652969050756,14.368521581879616,-2.8979261826011133
-6.665007667692307,-693.16079744,5.054595687600262,-2.2213590806730767,0.0001668875,2.9985,29,104,1579.0058374668756,4806.4128,mp-1203413,BaTeMo2O9,https://materialsproject.org/materials/mp-1203413,-49.13297021407389,-43.349615210186336,-25.885852812948254,-23.24364217133857
-5.096707666388889,-183.48147599,4.674858747450945,-2.217536761369732,0.00185225,2.4828,14,36,886.1755226928473,2494.8196304000007,mp-1178463,Cs4SiO4,https://materialsproject.org/materials/mp-1178463,-5.522353267915679,-28.263154816515915,-6.503696900962129,-30.99540422719205
-4.0165782275,-32.13262582,3.471198419229557,-0.4618929650000001,7.5e-08,0.0,62,8,221.40307373770298,462.82199999999995,mp-13053,SrSi,https://materialsproject.org/materials/mp-13053,33.39888806766482,-38.008120638336756,12.155053547183769,-19.419996977409536
-8.225807855866666,-1233.87117838,6.466996098414875,-3.0542597378900003,9.1e-06,2.0781,38,150,1998.7265973267165,7784.0729999999985,mp-1225077,K11Li4Ta15O45,https://materialsproject.org/materials/mp-1225077,-34.065863331598614,-70.72932743597899,-25.057384487226802,-48.328549943666154
-6.036662227857143,-84.51327119,8.543200447703747,-1.6050031764285717,1.05e-06,0.0,131,14,192.13192950207215,988.4872,mp-558172,Ca(PtO2)2,https://materialsproject.org/materials/mp-558172,12.35374200587212,-44.84304359625637,1.4809174412624797,14.919732149151153
-8.7168009635,-174.33601927,7.943646204150939,-0.5312725925000009,50.720964200000004,0.0,186,20,691.7747956811629,3309.295414,mp-1106137,Eu7Au3,https://materialsproject.org/materials/mp-1106137,23.681417906092033,-22.656483334061488,15.049921813054626,-2.0237887363443767
-3.83128393,-38.3128393,6.569859924772793,-0.35749633243749984,1.4599999999999999e-05,0.0,115,10,238.14865241710004,942.2261386,mp-1228066,AlTl2Cu3Se4,https://materialsproject.org/materials/mp-1228066,14.817136328328454,-14.043227006757462,18.718773939491662,-39.477683847389216
-7.866162972307693,-204.52023728,6.303150447534327,-3.6205310569061537,0.0,1.5601000000000005,176,26,451.59931327003517,1714.2014399999998,mp-554303,La3U(ClO2)3,https://materialsproject.org/materials/mp-554303,-1.932984587417692,-60.24603306846734,-0.6785566797301826,-50.438089609540135
-6.750737786153848,-175.51918244,4.976643264406423,-1.025134298021538,0.0027224,1.1319,15,26,636.0505262048355,1906.2464,mp-1246780,Ba5Zr2N6,https://materialsproject.org/materials/mp-1246780,-3.063310193471906,-30.562408363448395,-6.746284511312834,-30.567509638692087
-5.72566684,-183.22133888,4.224098766815128,-2.012715458552499,1.7931167000000001,0.00020000000000042206,2,32,820.5625976456176,2087.3568,mp-657985,Ce5C2Cl9,https://materialsproject.org/materials/mp-657985,8.587398725139304,-10.07203815909932,-16.58977900080662,-5.408451270764859
-3.735362548333333,-44.82435058,4.88940124904284,-2.0444733216666666,0.0026341,3.5403,62,12,467.50131877240966,1376.54188,mp-1214491,BaIBr,https://materialsproject.org/materials/mp-1214491,3.3741220354730896,-29.00523948476661,-5.077633037561943,-31.31297903155476
-4.624575751333333,-69.36863627,4.781421143630368,-2.5459687922887126,3.0,0.0,166,15,259.2524193831713,746.5015695000001,mp-556943,CsCoF3,https://materialsproject.org/materials/mp-556943,-52.90284349520746,-63.992196960094034,-23.30089326392425,-14.496804798065586
-5.3274828261538465,-69.25727674,7.129842225401482,-1.8364238645400002,0.0001571,0.0,139,13,265.5409737188721,1140.151,mp-560145,BaBi4(ClO3)2,https://materialsproject.org/materials/mp-560145,-21.00277007339193,-55.66958459242462,-11.366428868618682,-60.34550081488739
-7.7314508125,-247.40642599999998,7.46996470632939,-3.36203834607422,0.0,2.5552,57,32,449.53569483080526,2022.2444,mp-17633,Er2SiSeO4,https://materialsproject.org/materials/mp-17633,25.937474481841154,-39.7235216260057,6.7258380299048195,-23.36835239212329
-7.205882364166666,-172.94117674,3.9719310533032326,-3.391816297604168,0.0,4.48,8,24,369.8001856551986,884.5446,mp-1228059,Ba3SrMg2(Si2O7)2,https://materialsproject.org/materials/mp-1228059,-25.886572634319233,-26.41847110148764,-18.471455812312538,-28.56447874171013
-4.4454623627777785,-80.01832253,4.561121957335327,-0.7880540244709001,5e-08,1.1076,15,18,557.3903321089817,1531.024096,mp-19913,Ba3(InP2)2,https://materialsproject.org/materials/mp-19913,-0.2510481616563328,-23.152189288658853,-12.845806111166468,-28.74339527451805
-4.393763100416667,-105.45031441,5.634737627457661,-0.6735354291145844,0.0,0.7709000000000001,31,24,576.0744460807726,1954.804,mp-649774,CuSbPbS3,https://materialsproject.org/materials/mp-649774,-0.3929710492051085,-19.228948173465813,-17.07198716526856,-37.41405986640304
-6.977672811428572,-48.84370968,5.6628855029225065,-3.1397848482142865,0.0,3.5416000000000007,107,7,91.6948287112487,312.70407,mp-1227061,CaLaGaO4,https://materialsproject.org/materials/mp-1227061,23.322263936468808,-72.42543218443198,43.38795121958368,-39.60482880022886
-4.30220090175,-172.08803607,4.325360107772624,-0.9835269666071426,1.75e-07,0.2216999999999998,122,40,1455.558467573395,3791.4281920000003,mp-32606,Ba3P2,https://materialsproject.org/materials/mp-32606,1.9871568764621157,-26.868286142380942,-11.071451047498254,-26.901218690811657
-6.0863014416666665,-73.0356173,5.888836256093093,-1.7876541963541666,8.6975e-05,0.1858000000000004,62,12,279.6057231108127,991.577,mp-1101752,PrAsS,https://materialsproject.org/materials/mp-1101752,40.06078418451907,-12.491957069182913,20.232305040131344,10.9747463264646
-6.003014347307693,-156.07837303,4.4468541917326485,-1.7520107273076928,6.00000005,0.425,2,26,360.9651444326259,966.6495800000001,mp-563018,SrCo2(AsO4)2,https://materialsproject.org/materials/mp-563018,-7.507088146076612,-43.001266767668845,0.5112026812644483,-26.41744261423346
-3.174967355,-31.74967355,3.5913077821103907,-1.5326367260413791,0.0,3.1203,225,10,375.1334848529927,811.3147424,mp-1113061,Cs2KAlBr6,https://materialsproject.org/materials/mp-1113061,0.9253025588878486,-27.257477944923938,-34.874946765224905,-69.46217298987136
-9.054879716739132,-416.52446697,7.096452406549172,-3.366683827923912,0.9662765,0.05460000000000065,127,46,637.8922833639767,2726.086,mp-21542,K2CeTa5O15,https://materialsproject.org/materials/mp-21542,-33.235463189744436,-69.3992177198168,-2.961187653535605,-56.5481608134633
-7.384962698333332,-265.85865714,6.584904406224724,-1.8171031950601384,4.000005675,0.0,62,36,832.5333824784598,3301.4296000000004,mp-1202693,Ce4Se3N2,https://materialsproject.org/materials/mp-1202693,28.426193818410287,-19.49050289286133,19.364852222323574,-1.3847491270054648
-7.180311479318181,-315.93370509,5.074992657224574,-2.8746584444318186,3.5e-07,3.2783999999999995,14,44,556.4564204887388,1700.6599544,mp-1209642,PrAlGe2O7,https://materialsproject.org/materials/mp-1209642,-22.214289182638574,-43.535391802308766,-8.680317245128943,-37.71322860629035
-7.247609850000001,-50.73326895,8.671123977325971,-2.5429019457142865,0.0,1.5508000000000002,139,7,136.11842151079458,710.79311,mp-1025154,UTl2O4,https://materialsproject.org/materials/mp-1025154,-27.250504575549268,-62.75187198784929,-15.904229211293902,-59.12909701310009
-6.305653812777778,-113.50176863,6.434040507765389,-1.7978763860833342,3.0000001,0.10729999999999996,1,18,271.44176100583087,1051.7472,mp-1097834,K2W2O5,https://materialsproject.org/materials/mp-1097834,-35.20511967636072,-83.85689173115941,30.18635332671518,-64.76786097326992
-5.5376311484210525,-210.42998364,5.666135555183603,-1.5007537797039472,0.0,3.3317,14,38,583.122344372003,1989.7456,mp-1198509,GePb2(SeO3)4,https://materialsproject.org/materials/mp-1198509,-23.899749519031626,-45.76868748431962,-19.833025219803073,-43.10108857844533
-4.963383087272726,-109.19442792,6.921855059253031,-1.2434635113409092,4.0000008000000005,0.01980000000000004,12,22,320.86749792794393,1337.51646928,mp-1191912,NaTl3Cu4(TeO6)2,https://materialsproject.org/materials/mp-1191912,-8.861161466940226,-44.96881254628952,-8.51027253635492,-39.0562722536473
-9.119421939166667,-218.86612654,5.251956606152291,-2.4726149028600006,13.99999955,2.1400999999999994,60,24,549.9752006031626,1739.4628,mp-28279,Gd2NCl3,https://materialsproject.org/materials/mp-28279,8.199890748242192,-10.194784782331972,-10.519500109693137,-21.10808124605907
-3.392516816666667,-20.3551009,3.099822233477861,-0.8369604801149425,0.0,1.2979,129,6,214.77615093676846,400.9348,mp-9845,RbCaAs,https://materialsproject.org/materials/mp-9845,-3.64630674019329,-27.374404906910772,-9.106872676278325,-23.33719162405812
-6.2359613009375,-598.65228489,4.761830781128867,-1.9884589055654776,0.99999995,0.3380000000000001,61,96,1409.9910648166613,4043.348992,mp-566937,TlCu2P2O7,https://materialsproject.org/materials/mp-566937,-32.79956529871414,-30.35905364885802,-20.909085679851454,-28.72071965604448
-8.350474747045455,-367.42088887,6.8053572164929035,-3.21291750943182,0.0,3.2828,2,44,601.8130145796172,2466.39943,mp-1223314,La7Nb3(W2O15)2,https://materialsproject.org/materials/mp-1223314,-29.30046578206645,-57.5417454570886,-14.521972928714213,-51.69543401894956
-8.235810574479167,-790.63781515,6.557116888642539,-1.1263342018298603,6.3567904,0.0,167,96,1285.6579799610479,5076.791,mp-683987,Ce15B8N25,https://materialsproject.org/materials/mp-683987,12.127974690707175,-60.50069709741539,8.75170363150427,-45.81587675735256
-8.1320813065,-162.64162613,7.069612452594668,-3.724997180416666,0.0,3.2296000000000005,14,20,231.6747592560824,986.3368,mp-1213085,Dy2MgTiO6,https://materialsproject.org/materials/mp-1213085,9.386131720769043,-81.52046469655731,50.735432663634064,-53.35238163491661
-5.920168958181819,-260.48743416,4.687119851578425,-1.9616521950406824,2.999999975,2.6023,2,44,706.65887197773,1994.65038,mp-562836,SmCoSe2ClO6,https://materialsproject.org/materials/mp-562836,-36.38071871101339,-43.404609783379634,-21.88125402787567,-27.988888610835318
-3.8714487984375,-123.88636155,5.4158509307681015,-0.8595376538020841,4e-07,1.3006000000000002,15,32,940.2571777413012,3066.6504,mp-865274,TlInS2,https://materialsproject.org/materials/mp-865274,-1.1242837128656025,-22.022613928353653,-13.80644232470049,-28.579292312732647
-7.448242681000002,-148.96485362,8.431240983055577,-0.6234406323333346,1.3375e-05,0.0,127,20,216.8680072413056,1101.12824,mp-542573,ThB4,https://materialsproject.org/materials/mp-542573,7.814415241050932,-59.320780906505824,4.457622196949774,-48.800669625628025
-8.581640322916668,-205.95936775,4.858217348704796,-3.363212143854168,13.99999945,0.012000000000000456,113,24,339.33897484761513,992.7996,mp-982662,Eu2MgSi2O7,https://materialsproject.org/materials/mp-982662,-23.26282404103577,-30.534127790330725,-18.757334866029687,-28.63845958317791
-6.822390137999999,-68.22390138,7.9571595960731685,-2.113316686250001,0.84007605,0.0,63,10,116.98591579744611,560.5864,mp-4243,CaIrO3,https://materialsproject.org/materials/mp-4243,3.0441988816070737,-72.1336833601388,16.477929616067787,-14.385546900978401
-7.817299302954546,-343.96116933,4.675983926097271,-2.4485104767045467,0.0,1.8118,4,44,629.399812904384,1772.35424,mp-771194,Nb2Ge2O7,https://materialsproject.org/materials/mp-771194,-43.38041376166042,-49.70913289435359,-26.485650219037762,-10.74436357534457
-6.489604292142857,-90.85446009,4.1978865141541215,-1.0626354374485711,8.599999999999999e-06,0.26339999999999986,176,14,281.5014918021537,711.6432000000002,mp-1246302,Sr3VN3,https://materialsproject.org/materials/mp-1246302,20.182809473681928,-43.77298978155768,13.614104587358133,-26.429353781714997
-4.2621424125,-34.097139299999995,7.134727046737356,-0.7113458700000006,1e-06,0.0,63,8,155.20202325910094,666.8461543999999,mp-1080600,YbAl2Pd,https://materialsproject.org/materials/mp-1080600,40.21619077844662,-14.470778981201533,20.085018455451177,10.275782694201457
-6.299225501666666,-113.38605903,5.0139872427538945,-1.7360873152777776,3.0,2.5156000000000005,18,18,250.6841391982919,756.9391899999998,mp-551806,CoTeMoO6,https://materialsproject.org/materials/mp-551806,-41.55718220101853,-45.4296394807741,-17.944384998165678,17.91533093612168
-7.480465756666666,-224.4139727,6.759371429742032,-2.66807683125,3.99999945,3.3968,165,30,330.1179321927885,1343.77432,mp-1222197,Mg2Ta2Ni2O9,https://materialsproject.org/materials/mp-1222197,-35.666312328768655,-75.46138473152995,16.685484383203786,-35.69655153873582