energy_per_atom,energy,density,formation_energy_per_atom,total_magnetization,band_gap,sgr,num_sites,cell_volume,weight,mp_id,formula,URL,tsne_cry_0,tsne_cry_1,tsne_xrd_0,tsne_xrd_1
-5.746887671538461,-74.70953973,6.088502546796121,-1.96147311971154,5.7999999999999995e-06,0.0,47,13,209.9397584880013,769.7613386,mp-1254061,Ba2AlSn3O7,https://materialsproject.org/materials/mp-1254061,5.694047858255584,-68.23753366381679,22.267864870988372,-69.01131819038976
-6.6399581833333325,-39.839749100000006,5.910409397845653,-3.1621275979166668,5e-08,4.3866000000000005,59,6,146.56330749822598,521.6674399999998,mp-752637,HoBrO,https://materialsproject.org/materials/mp-752637,12.172811118144839,-19.833606673378323,7.6477901536951265,-20.299338720775122
-4.6873530975,-206.24353629,5.090306004651478,-1.0354975504393942,0.0,0.7133000000000003,64,44,1548.8184768514145,4747.831760000001,mp-1211525,KZr6BI14,https://materialsproject.org/materials/mp-1211525,10.340545152070904,7.995904785746451,-6.0802713285749626,-5.3087057875061205
-7.374336392631579,-280.22478292,4.319199056267373,-1.4445741982326312,0.0,3.7127,14,38,593.3731075802363,1543.4124128,mp-1201360,Ba4MgC4(N4F)2,https://materialsproject.org/materials/mp-1201360,-23.507675972544423,-25.306791340555314,-21.286222338697915,1.6718927211242154
-6.799793647777778,-61.19814283,5.187153613200988,-2.488550045601853,4.1e-06,0.008899999999999686,99,9,113.87449931958652,355.71853860000004,mvc-7210,BaTiAlCuO5,https://materialsproject.org/materials/mvc-7210,10.138725835214787,-62.82850691507989,34.16017882054644,-37.69832668984032
-5.10685800125,-40.85486401,6.560883508043222,-0.6368813162500002,5.95e-06,0.0,63,8,139.28248289710672,550.3129544,mp-569385,DyAl2Ni,https://materialsproject.org/materials/mp-569385,39.75725242080429,-14.357426072799456,20.17169607500684,10.285026338738634
-5.83201779,-46.65614232,7.521959590596444,-0.830328315,7.5e-08,0.0,62,8,170.43979063556668,772.06328,mp-12900,HoSi,https://materialsproject.org/materials/mp-12900,31.008869779942497,-41.26581874573449,13.487772584168857,-17.969552711244024
-5.554220621111112,-99.97597118,6.3752971748066285,-0.6342814258333339,0.00010195,0.0,193,18,505.8955165517577,1942.2815,mp-1211722,La5NiGe3,https://materialsproject.org/materials/mp-1211722,36.30492029575482,-39.25683559953692,24.32677934901939,-21.428269571120683
-7.020753112857142,-49.14527179,7.9663663471738975,-0.578509752202381,1.3e-06,0.0,71,7,80.27487427812537,385.11534,mp-1025183,Ho2B4C,https://materialsproject.org/materials/mp-1025183,8.728334493173396,-56.83252460340605,13.751315160659999,-16.317047066674075
-8.905384790000003,-231.54000454,4.895831088679731,-3.266635115865385,0.0,1.6303,8,26,380.9733656764909,1123.23842,mp-757457,LaNb3O9,https://materialsproject.org/materials/mp-757457,-31.041913828772945,-71.00624987710367,32.639895471412245,-59.04248025985932
-6.494975357857142,-181.85931002,5.534006105634026,-2.869604745,0.0,3.9678,14,28,493.6501663261661,1645.1663999999996,mp-752730,Ba2GeO4,https://materialsproject.org/materials/mp-752730,-9.20412058494294,-31.72270955986144,-6.29724852814081,-26.020418050302013
-6.6453539825,-106.32566372,5.387689196965081,-2.49089866203125,3.95887825,0.0,129,16,307.2080201994325,996.749424,mp-862301,Ba2ScFeAsO3,https://materialsproject.org/materials/mp-862301,-11.496100073909249,-82.07483774137067,19.026146615531324,-38.45490087163518
-4.751770896388889,-171.06375227,3.660613991731884,-0.7179218644444442,4e-07,0.5645000000000002,1,36,858.4241381072612,1892.3731,mp-1227537,Ca11Si9As16,https://materialsproject.org/materials/mp-1227537,23.176565693161077,-8.040588093608305,14.930264539695607,18.999897775040164
-7.5058958111111105,-135.10612460000002,6.018726462181787,-3.2481644643477767,0.0,3.2922,12,18,294.2425161527997,1066.5002,mp-558340,Nd5As2ClO10,https://materialsproject.org/materials/mp-558340,-12.867173325261511,-59.71028452708225,-11.910252871991133,-59.01521129390922
-6.618300589285715,-370.624833,6.178628049714082,-3.01099198809,2.968219225,0.0,62,56,794.1603036195932,2954.9568,mp-613785,Yb3Si2ClO8,https://materialsproject.org/materials/mp-613785,-20.271975652471493,-36.84376494987346,-16.224240220699695,-33.360909400881994
-6.743103587037036,-364.1275937,5.828935617649008,-2.7646415048611117,20.0000016,2.3632000000000004,9,54,894.0335535051131,3138.2966,mp-1228608,Ba6Pr2Fe4O15,https://materialsproject.org/materials/mp-1228608,14.998506183071873,-66.28124861329755,1.5402855670355484,-32.695854605519656
-5.63618542761628,-969.42389355,5.095071707439186,-2.10385699502907,7.1225e-05,3.0197,41,172,3467.3718196245154,10639.02,mp-1197646,Ba6Te10Br2O25,https://materialsproject.org/materials/mp-1197646,-49.67922591080714,-48.25847722238709,-27.49957848909524,-53.68475707903879
-7.2086464404166675,-173.00751457,4.095182303680383,-3.384557861354168,0.0,4.4569,113,24,378.82593250811806,934.2516,mp-9338,Ba2MgSi2O7,https://materialsproject.org/materials/mp-9338,-25.969490084634,-26.288288226376764,-8.950704995258617,-25.70146239500713
-9.136927432444443,-411.16173446,7.677995311439472,-3.3864333736111107,4.0000142,2.3803,44,45,626.025287285778,2894.6138,mp-1228547,Ba4Ta10FeO30,https://materialsproject.org/materials/mp-1228547,-32.63397886190035,-67.38499456379047,-4.967587822361646,-56.5938298728069
-7.238659620833332,-173.72783090000001,5.536409675162751,-2.124361048098958,6.96619965,0.0,14,24,353.8241273844083,1179.6863999999996,mp-769334,EuSeO4,https://materialsproject.org/materials/mp-769334,-29.474453984440412,-53.04502528093238,-16.027954384122296,-51.21256242501029
-6.053537402999999,-242.14149612,3.902905047836132,-0.7372790547857143,0.0,0.5033000000000003,33,40,884.6629733956987,2079.298048,mp-1232374,LaSiP3,https://materialsproject.org/materials/mp-1232374,8.711813525775085,-17.201769295007697,3.1263120992473636,0.5670758057338554
-3.438358281,-34.38358281,3.890288836785402,-1.5101187866666668,1.5e-07,3.1474,63,10,336.87061140569284,789.216,mp-28534,CaInBr3,https://materialsproject.org/materials/mp-28534,-0.3534536718201381,-26.772503373266566,2.9082949370444418,-26.85780785337939
-10.028476387083334,-240.68343329,9.747477121797642,-0.4069528886699996,0.0,0.5701999999999998,86,24,288.72360473259215,1694.8272,mp-776321,WN2,https://materialsproject.org/materials/mp-776321,-0.7232764698482613,-44.291324793345005,1.5051344989548174,-54.07489639096025
-3.0740086422916666,-147.55241483,3.3422361802851968,-0.3038345687339217,0.0008902375,0.5072000000000001,2,48,1721.7069540678951,3465.351392,mp-541766,Rb3InP2,https://materialsproject.org/materials/mp-541766,0.8634738444591928,-29.971580058980717,-7.929817539123478,-31.599793071841606
-7.769585050869565,-357.40091234,4.6428593160687885,-2.8107130308369572,3.97035595,0.0,100,46,630.7591623580774,1763.59964,mp-1223530,KSr2Nb4FeO15,https://materialsproject.org/materials/mp-1223530,-29.058113981709624,-71.10701295232099,-4.847465582774595,-56.00078649524314
-6.977200481931818,-613.99364241,4.076797500906422,-2.7787510888257576,0.4888112,0.022199999999999772,62,88,1161.349652704,2851.2352,mp-560425,Sr2Cu(BO3)2,https://materialsproject.org/materials/mp-560425,-19.684814649584727,-30.673604577728497,4.0519944554539284,-22.85240540799936
-7.713249478,-77.13249478,7.28367987406537,-2.8101250452500004,3.0,2.6772,146,10,116.13210675341931,509.39428,mvc-5863,Mg2TaWO6,https://materialsproject.org/materials/mvc-5863,-35.526547322511675,-75.55241637116598,-25.03722667190728,-16.286893341721772
-7.092475846249998,-283.69903385,4.057159655948589,-2.8691747054999994,0.9999982,0.6074999999999999,137,40,577.9781094270493,1412.1616,mp-1201761,BaCu(SiO3)2,https://materialsproject.org/materials/mp-1201761,-28.43409968297967,-28.0910231824415,-10.778817976150878,-22.57435579268001
-5.846427066052631,-444.32845702,4.126996679933821,-1.8109100087884205,5.999999625,2.4851,14,76,835.8716046475647,2077.4214,mp-562127,SrCo2As2(H2O5)2,https://materialsproject.org/materials/mp-562127,-49.71555776904836,-5.788912047276652,-20.864663975832546,19.61446556409295
-6.16997477939394,-203.60916772,5.315570735844324,-2.589341636893939,0.0,2.9311,2,33,704.2841680632519,2254.4922,mp-31238,Ba3(SbO3)2,https://materialsproject.org/materials/mp-31238,-4.865498243354448,-62.09780400539298,-25.639663453108664,-55.2551615285206
-5.6435824328571425,-79.01015406,6.985759322937268,0.366678523265714,0.0,0.15129999999999955,176,14,343.50681131787127,1445.1065899999994,mp-1245608,Co(PbN)3,https://materialsproject.org/materials/mp-1245608,2.5699442487456716,-53.50886892168854,-14.744417986234126,-50.243132361920644
-5.449118855,-54.49118855,5.2191783301805845,-0.5843957049999993,1.3541256000000002,0.0,127,10,229.52644195991502,721.416,mp-505296,Ce2MgSi2,https://materialsproject.org/materials/mp-505296,31.02058509623525,-38.82892387243393,19.810204256613414,5.399925791334655
-8.018715454166667,-96.22458545,6.235084499548735,-2.8971031790408346,3e-07,2.6333,139,12,150.0796523766411,563.5274400000001,mp-990430,SrTa2H2O7,https://materialsproject.org/materials/mp-990430,-33.37357547237174,-70.39474660868069,-26.053093560397876,-31.68515632996646
-5.7145836662499985,-685.75003995,5.241943306171524,-1.919625812243056,0.0034491875,2.1669,96,120,2855.0759209907505,9012.824,mp-1196183,Sm4InSbS9,https://materialsproject.org/materials/mp-1196183,9.451155042943773,-6.263870857167187,-8.552764639255829,-18.391314318997637
-6.459712703076923,-335.90506056,3.563773710213746,-2.533838721174846,0.0,3.6746,14,52,827.5254237647496,1775.9976,mp-560010,Rb2Ga2B2O7,https://materialsproject.org/materials/mp-560010,-34.079405478240425,-21.829129439718628,-31.935473900803505,9.517546573684184
-6.770234270535715,-379.13311915,3.6757440420180902,-2.6084730617331546,29.999998699999995,2.2026000000000003,2,56,852.7408859647384,1887.614296,mp-1203480,Rb7DyFe6(P4O17)2,https://materialsproject.org/materials/mp-1203480,-35.898673595335495,-22.306354729526767,-33.308251818954446,11.221679996499708
-6.7672687810714285,-378.96705174,3.62770306615262,-2.6035271221349388,29.999998600000005,2.1900000000000004,2,56,858.4766256317116,1875.474296,mp-1196551,Rb7SmFe6(P4O17)2,https://materialsproject.org/materials/mp-1196551,-35.876600883736366,-22.262757958341613,-33.26490515078376,11.134066707911536
-5.166902239444443,-93.00424031,3.852050155729513,-2.2338902607088125,0.0,2.531,2,18,374.13742168131387,867.9086,mp-755776,Rb4SiO4,https://materialsproject.org/materials/mp-755776,-4.3203069210769565,-34.44354125490783,-0.11937940545921726,-29.784908727396342
-6.40674375,-76.880925,7.5178663317703665,-2.0019068766666663,0.0,3.2559,13,12,159.14272427998156,720.4972,mp-19387,CdWO4,https://materialsproject.org/materials/mp-19387,-35.96534443216947,-59.81532920967854,-5.9426895490138,-47.060222105282506
-7.2043222700000005,-36.02161135,5.8191127258449615,-0.5750732592500001,9.090699800000001,0.0,123,5,212.2527685985406,743.80834,mp-1209808,Np2I2O,https://materialsproject.org/materials/mp-1209808,-3.20297976796713,-22.813207022909182,-5.4823722290264865,-34.9415868463839
-6.856431501785713,-191.98008205,5.869592012116149,-2.6903970347114283,3.94041955,0.0,12,28,398.0673871538651,1407.06909,mp-697818,Sr2Pr2MnCuO8,https://materialsproject.org/materials/mp-697818,17.35252789042967,-60.109744199998204,18.474771671732668,-2.048139366882825
-7.16051679875,-171.85240317,6.658085839152991,-2.805256082916667,0.0,3.6679,14,24,303.12255049535224,1215.3980800000002,mp-777787,HoAsO4,https://materialsproject.org/materials/mp-777787,-13.354799201883356,-50.41677250883946,-15.159135226950973,-50.889955318011644
-5.63167233375,-90.10675734,4.131225464859637,-0.14805302124999994,0.00214155,0.0,62,16,399.4337807749868,993.74418,mp-672226,BaMnSi2,https://materialsproject.org/materials/mp-672226,0.8206616662010827,-24.829034523408875,2.329253883180958,-26.398127666049326
-7.052814351190476,-592.4364055,3.9877210814009145,-3.4002508895787416,0.0013067,5.0933,4,84,1249.6385090538465,3000.9591504,mp-705932,Sr10P6ClO24F,https://materialsproject.org/materials/mp-705932,-20.124509235345823,-32.46385674562181,-9.850826015281461,-33.590242052130115
-3.254942630714286,-45.56919683,3.1794644256268043,-1.712050198807045,0.12394780000000001,1.5162000000000002,122,14,447.87435141571,857.5532,mp-38099,Rb4Cl2O,https://materialsproject.org/materials/mp-38099,2.7938220580418123,-28.73163930796998,-0.4246740982785349,-32.833562214462816
-8.505708540375,-680.45668323,5.52804293172938,-3.2444217591926248,6.45e-05,2.0894,1,80,1046.2160169538502,3482.92146,mp-677269,Ca16Zr9Ta7N7O41,https://materialsproject.org/materials/mp-677269,-32.18126506096357,-77.57653468363995,29.225627383649027,-63.3857608740104
-4.849223362222221,-174.57204104,6.291987197486397,-0.6405363184722227,6.999999725,0.0,62,36,900.5776041858569,3412.3996,mp-541140,Tl3(FeS2)2,https://materialsproject.org/materials/mp-541140,10.46720745709192,-25.814239671261355,-13.208235066393078,-29.704440933561955
-3.207251265,-76.97403036,5.647357956674778,-0.20951257008680574,5.75e-06,0.0,58,24,725.9121302656964,2468.768,mp-627397,In2Se,https://materialsproject.org/materials/mp-627397,33.75618222452395,-47.25923485269814,16.554981512484268,-7.8998725880843725
-3.7809640816666663,-45.37156898,5.62583095315403,-1.087151837701149,0.0,1.7325,63,12,441.78481142694505,1496.7469038,mp-569107,CsErZnTe3,https://materialsproject.org/materials/mp-569107,18.718144898210888,-10.645084439260184,3.2243853811423286,2.216445336662566
-7.234990625925925,-195.34474690000002,7.323664310434136,-3.0508761984259256,0.0,3.1026,150,27,376.46606244915216,1660.3711199999998,mp-754341,Ho2TeO6,https://materialsproject.org/materials/mp-754341,-36.99276820465517,-61.88798420791256,-5.167587653812198,-58.584416489593536
-6.0877713641666675,-73.05325637,6.060321835612051,-1.795319413020834,0.00022050000000000002,0.17980000000000018,62,12,275.34834590012304,1004.9144,mp-1101764,NdAsS,https://materialsproject.org/materials/mp-1101764,40.11458914762513,-12.281118752876056,20.17479232385736,10.983887031819027
-7.139725337608695,-328.42736553,5.964740843917644,-2.5402252543953803,1.98957655,0.05629999999999935,12,46,984.2125528293416,3535.3416399999996,mp-680312,La6Ti3Se9O5,https://materialsproject.org/materials/mp-680312,29.727926337259284,-20.01579108963108,18.92768853987841,-1.2759659843639992
-5.1589017246296285,-278.58069313,7.018576453330426,-1.5955119454482405,2.00000015,0.2115,2,54,1153.5609832720613,4875.7396,mp-1180071,Pb10S(ClO3)4,https://materialsproject.org/materials/mp-1180071,-20.305374917041885,-54.736420559886795,-12.465888393578856,-58.30744490331921
-7.8639993234375,-251.64797835,6.662529382031293,-3.4950593189453123,0.0,2.633900000000001,57,32,452.6204352986183,1816.0349600000002,mp-17366,Ho2SiSO4,https://materialsproject.org/materials/mp-17366,-17.136827788423382,-36.3879409137695,-16.270160836662367,-35.022764041576245
-8.174775704285715,-228.89371972,6.839161940791406,-3.3447631219940486,0.0,3.8024,173,28,374.5759106850577,1542.7432,mp-561272,Nd3BWO9,https://materialsproject.org/materials/mp-561272,-28.423788844634363,-58.23640851681913,-19.245118372202878,-52.93619675351989
-8.163621054642856,-228.58138953,6.619480508958807,-3.3296257832440475,0.0,3.8016,173,28,381.9883446720968,1522.7370999999996,mp-558051,Pr3BWO9,https://materialsproject.org/materials/mp-558051,-28.494478098479615,-58.140721614432486,-19.302251672491774,-52.941701497868976
-3.925786864166666,-47.10944237,4.151996961061232,-0.18729773979333272,0.000197725,0.03259999999999996,62,12,278.87392889969084,697.2938771199998,mp-1245807,BaNaN,https://materialsproject.org/materials/mp-1245807,-25.019195039881215,-23.276716790026,-18.78535297131868,-15.95707004488911
-7.264939744999999,-43.58963847,8.446360399236626,-0.6723413941666662,0.25928260000000003,0.0,44,6,118.78021747627041,604.1776199999998,mp-1217321,Th2FeSi3,https://materialsproject.org/materials/mp-1217321,48.91754046665506,-16.990837763188352,21.11102661581792,21.69418908755797
-3.5137895620000004,-35.13789562,6.093426209803174,-0.41126055999999983,0.2020019,0.0,127,10,232.4842761225853,853.112,mp-13357,Yb2MgSi2,https://materialsproject.org/materials/mp-13357,30.82817025587641,-38.911664043144725,19.79694954354349,5.328816751792373
-3.4144011133333336,-40.97281336,5.109329584834866,-0.3711895624869796,0.0,1.3664999999999998,6,12,410.6726486238705,1263.60288,mp-1219479,Sb4Se3SI4,https://materialsproject.org/materials/mp-1219479,19.524098501784067,-8.962989342361363,-15.702409893571895,-7.253240741254637
-3.0934377166666667,-9.28031315,4.349117280205609,-0.6299905815000001,0.0,0.7372000000000001,216,3,107.69989804560262,282.07676928,mp-961774,BaNaSb,https://materialsproject.org/materials/mp-961774,68.72210348261281,-39.98505363589407,72.38768421608589,-39.68505890790205