energy_per_atom,energy,density,formation_energy_per_atom,total_magnetization,band_gap,sgr,num_sites,cell_volume,weight,mp_id,formula,URL,tsne_cry_0,tsne_cry_1,tsne_xrd_0,tsne_xrd_1
-6.26813677375,-150.43528257,7.400447530909517,-1.039528251488095,1.425091525,0.0,62,24,511.702176254894,2280.47942,mp-628664,Ce2P3Au,https://materialsproject.org/materials/mp-628664,14.452164032245431,-23.792115863832766,19.64284138614201,-2.524005834292064
-7.6751034235,-153.50206847,6.078703708285189,-0.16918266175000127,1.85e-06,0.0,220,20,342.93404999619463,1255.37216,mp-1184,La2C3,https://materialsproject.org/materials/mp-1184,10.258247660026008,-58.8934046687619,21.63950494289492,-39.347798366405186
-10.895733037884614,-566.57811797,6.747616982763453,-3.676431644898206,28.00000005,3.0154,14,52,774.9554462631658,3149.0392,mp-1201615,Gd4BClO7,https://materialsproject.org/materials/mp-1201615,-11.845562656584992,-56.13286849545104,-2.8051050000671216,-50.782941193827746
-5.233324329166667,-62.79989195,6.664500084650697,-1.4379773970312506,0.0,1.6269999999999998,36,12,265.0440632900444,1063.74264,mp-1224006,HoCuPbS3,https://materialsproject.org/materials/mp-1224006,14.41120979503991,-19.22412732067828,6.198498557268198,-0.0745588222614899
-8.998961626470589,-305.9646953,6.352242661143117,-3.76837024129902,1.35e-06,2.649800000000001,26,34,454.53516791085053,1738.78338,mp-1211741,La3TaTi2O11,https://materialsproject.org/materials/mp-1211741,-28.75680592395182,-68.21367626883819,-3.1930112594827413,-53.64940523072546
-6.932998717083334,-166.39196921,7.907486737995032,-2.0637055812500003,0.0,2.9616,14,24,382.223947761936,1820.1504,mp-504591,PbWO4,https://materialsproject.org/materials/mp-504591,-25.226050328969226,-57.28531903175361,-9.782732317018748,-48.32431558455929
-4.170585618333333,-25.02351371,5.017158682477241,-0.2619880041666669,0.0122825,0.0,123,6,165.81400190925203,500.9910272,mp-1219830,Pr3MgAl2,https://materialsproject.org/materials/mp-1219830,68.51563633028792,-40.09017935447209,73.23723392735774,-40.70044584493237
-4.82747041375,-115.85928993,5.290282872474823,-1.2758213251822916,0.0,1.5615,14,24,320.62522183564926,1021.4744,mp-756703,CdSeO4,https://materialsproject.org/materials/mp-756703,-29.034699900425487,-53.98307736705552,-15.156758302645063,-51.46795504492582
-4.512702463888889,-81.22864435,3.829180089143037,-0.8735163781746027,5e-08,1.1494999999999995,15,18,456.3783174211917,1052.402096,mp-1106227,Sr3(GaP2)2,https://materialsproject.org/materials/mp-1106227,14.343346753774332,-18.14557567977168,14.789958827229269,-20.44355226461352
-4.7115600015625,-150.76992005,6.18699150377066,-1.6629142709765632,0.001699675,0.8792999999999997,18,32,671.1034669156886,2500.46,mp-1216061,Yb2SnS5,https://materialsproject.org/materials/mp-1216061,7.7064649452636695,-6.713132309138308,-2.1131570442985472,-11.952442255958262
-5.131131893333333,-92.36037408,5.610479420558653,-0.4723458541266667,0.0,0.013199999999999878,15,18,381.58892031151083,1289.2782,mp-29199,BaCuN,https://materialsproject.org/materials/mp-29199,21.95015061315683,-43.043206825701525,14.844656826724398,-23.028124575465426
-6.097165658214286,-170.72063843,5.0721763351341345,-1.9804000002678572,2.75e-07,1.3861999999999997,62,28,826.2841790422408,2523.9148,mp-1193099,Ba(YSe2)2,https://materialsproject.org/materials/mp-1193099,26.961265495316482,-18.84677581845924,15.943723661302107,5.116862389866097
-7.265625633157893,-138.04688703,7.750048861830432,-2.5287127860526315,0.0007065999999999999,1.4448,12,19,251.010941007378,1171.5154,mp-1179025,Ti3(BiO3)4,https://materialsproject.org/materials/mp-1179025,-15.575833037696352,-57.26335646031488,-8.731123514066214,-55.5385922294181
-5.054139190892856,-283.03179469,7.384737719559606,-1.495532475892858,1.25e-08,1.4376,14,56,928.4401936926462,4128.9528,mp-29189,V(HgO2)2,https://materialsproject.org/materials/mp-29189,-22.46964875624091,-53.45651962778899,-15.275999289194194,-48.275927424369634
-6.013704795333334,-90.20557193,6.458569732112695,-0.040841536035333095,0.0,1.8219999999999998,2,15,346.1607642479462,1346.3720999999996,mp-570443,Tl2CN2,https://materialsproject.org/materials/mp-570443,-32.80668637220265,-31.929290460155503,-27.37145408334612,-51.45123590121956
-6.4891483875,-181.69615485,4.787562005963284,-2.9325035746428574,1.2575e-05,3.5302000000000007,14,28,432.6919879942547,1247.5104,mp-542085,Sr2GeO4,https://materialsproject.org/materials/mp-542085,15.51051469946302,-65.50090337849693,16.492115063796227,-29.54714052017615
-4.378172718103448,-253.93401765,5.73066090855233,-0.7275512004849141,2.65e-06,0.7809999999999997,18,58,1459.7526308867646,5037.73,mp-630376,Sb6Pb6S17,https://materialsproject.org/materials/mp-630376,5.474536295650916,-8.50145407364824,-4.5248692980537015,-10.549044624938595
-4.447599282400001,-222.37996412,4.600276145239337,-2.7578183627553803,8.0000002,5.4627,194,50,883.8987306548153,2448.7098149999997,mp-556893,Cs5CaNi4F15,https://materialsproject.org/materials/mp-556893,-53.030174160039245,-63.962726813400394,-23.321398009972647,-14.171491632044651
-5.875283086774193,-182.13377569,3.745788117961072,-2.755717436046996,0.548334,0.0,25,31,395.2787242685197,891.6564519,mp-1098087,CsHfMg14O15,https://materialsproject.org/materials/mp-1098087,-12.304241347063765,-19.33924537955889,-12.269260302772254,13.074168294962623
-4.630829771666666,-83.35493589,6.065373728752958,-2.429588951633333,1.9999996,0.0,63,18,299.3656832131175,1093.4791092,mp-1105758,AlTl2OF5,https://materialsproject.org/materials/mp-1105758,-26.965743671091538,-21.935038880321702,-12.33123559141486,-22.085462118832798
-8.574906335434783,-394.44569143,8.158951862169793,-2.92883248432971,0.99987225,0.0,127,46,624.2095682197757,3067.0136,mp-1207508,YbTa5Ag2O15,https://materialsproject.org/materials/mp-1207508,-31.184117261526065,-67.13597209809308,-3.4637843752267754,-57.19680161838677
-4.635334863374999,-370.82678907,3.945799247359439,-0.48503662582699997,0.215213275,0.0,11,80,1883.7877589427053,4476.2864,mp-1245409,Sr5ZnN4,https://materialsproject.org/materials/mp-1245409,3.7752845463465072,-33.25999042604925,-1.3210832299617037,-28.83841363138255
-3.484657416875,-55.75451867,4.731216126642557,-0.5306379291406258,0.00453625,1.1362,36,16,564.3843889779648,1608.04682,mp-1219046,Sn2SbS2I3,https://materialsproject.org/materials/mp-1219046,19.07988896298149,-10.06640503211957,-4.491890387341621,-10.345688518672208
-7.91276819125,-379.81287318,4.334149901965703,-2.607122314416666,7.000000075,3.1751,60,48,791.1210221193893,2064.894,mp-1211580,KGd(MoO4)2,https://materialsproject.org/materials/mp-1211580,-50.786172523857935,-53.327980165375045,-24.54235776385672,-56.63685243892249
-7.526765548333333,-180.64237316,5.683357062729998,-3.260361822604168,2.5e-07,4.4022,113,24,287.0008164499897,982.288328,mp-1209882,Nd2Be2GeO7,https://materialsproject.org/materials/mp-1209882,-17.02391113612098,-35.74436800636106,-14.881188100010721,-34.39742183204531
-6.749591556,-67.49591556,7.663610286031555,-1.91276875025,1.206768,0.0,44,10,128.1874528358508,591.6022800000002,mvc-5811,TaZn2WO6,https://materialsproject.org/materials/mvc-5811,-33.715107513555644,-79.78169625129816,30.343258235712856,-63.250928050640546
-6.93538515,-90.16000695,4.0549034272601086,-2.8908167026373617,1.0000001,0.2608999999999999,12,13,216.28175063259968,528.142724,mp-9372,Ba2Cu(PO4)2,https://materialsproject.org/materials/mp-9372,-26.229232607350674,-25.588839538690976,-21.457140841905197,-7.38429892370456
-5.058983288333333,-121.41559892,6.348911950500112,-1.4134791159375002,0.0,2.7618,2,24,472.64811733856453,1807.1248,mp-558279,Tl2Te3O7,https://materialsproject.org/materials/mp-558279,-25.791070522727534,-56.714322160719966,-25.32892756562321,-54.21484033458209
-7.298839945833333,-350.34431739999997,6.830969865092324,-2.7256931883333344,0.0,3.6521,14,48,749.0366583455448,3081.3168,mp-542837,BaWO4,https://materialsproject.org/materials/mp-542837,-51.682601728883064,-50.24686524976268,-23.769877009852532,-49.85269215779429
-8.462294895833333,-203.0950775,6.116712295049754,-3.4277311290104167,0.0,2.9774,164,24,316.0446046023252,1164.1725199999998,mp-769280,Ca5Ta4O15,https://materialsproject.org/materials/mp-769280,-32.322068095325186,-74.17668492335991,-25.917699232014595,-31.34800495660787
-6.542125925535713,-732.71810366,6.623483058200487,-2.493849503303572,0.0,3.2107,14,112,1708.3920045480936,6814.3568,mp-558224,Dy2(TeO3)3,https://materialsproject.org/materials/mp-558224,-32.52490311914927,-58.97393474287818,-21.37064174387527,-57.370493731417035
-5.66292389375,-181.21356459999998,3.98705276836816,-1.938532876367189,0.0,3.2823,2,32,542.322290543173,1302.1480000000001,mp-28346,SrSe2O5,https://materialsproject.org/materials/mp-28346,-29.62674291153709,-32.29808088365843,-26.254199038763186,-56.45461398806985
-8.524958988043478,-392.14811345,5.097202258331807,-3.0255526159546475,6.00000015,0.0,26,46,659.6167663817934,2024.76424236,mp-1226662,CsNaEuNb5O15,https://materialsproject.org/materials/mp-1226662,-30.09491040523973,-69.75753911424165,-22.260870725632373,-55.23282527289828
-6.576959507000001,-197.30878521,4.780760030985553,-2.7982624582896665,0.0,3.683,82,30,432.1328650335487,1244.1282496,mp-1192433,Na5Pr4Ge4O16F,https://materialsproject.org/materials/mp-1192433,-21.996452557717323,-37.99638194611571,-19.239801356736738,-28.162372011443967
-6.404742337692308,-83.26165039,6.768927872897643,-0.3886226826923073,1e-07,0.0,166,13,217.66335296095784,887.2706400000001,mp-7735,Pr5(CoB3)2,https://materialsproject.org/materials/mp-7735,28.809798919722578,-45.30054133728218,43.09821268691464,-50.325258794930534
-6.084461715833334,-146.02708118,4.807943253797597,-1.8975955861892373,0.0,0.4757000000000007,173,24,560.7731458791952,1623.66882,mp-1191215,La3InFeS7,https://materialsproject.org/materials/mp-1191215,9.209179093596571,-7.70962243772906,-8.800123360800331,-10.378312129110226
-8.2109987075,-164.21997415,8.0583786329332,-3.25477316675,3.0000006,2.5355,62,20,221.6655782338105,1075.71404,mp-777295,TmCrO3,https://materialsproject.org/materials/mp-777295,9.092075760615987,-80.84780541496764,51.99944579218885,-52.23504643091301
-5.615673696,-28.07836848,5.252470886414208,-0.4544451680000002,0.0078805,0.0,187,5,117.83980633573185,372.7405,mp-1220272,Nd2Si3,https://materialsproject.org/materials/mp-1220272,23.650036857901977,-10.10386136545684,21.192683524931425,21.65519000202319
-6.090216992199999,-304.51084961,5.304638982597574,-2.0177635839999994,0.0,2.101,117,50,619.3668061349842,1978.5848,mp-29213,Cd2Ge7O16,https://materialsproject.org/materials/mp-29213,-7.670407738775584,-44.95861772219604,9.203173136541864,-36.03710095067851
-4.848360807857143,-67.87705131,5.709791996522039,-0.7166995107142858,6.99973495,0.0,66,14,466.3696360474803,1603.62,mp-1103807,Eu(GaTe2)2,https://materialsproject.org/materials/mp-1103807,9.936862848903102,-22.377788638182764,-27.12550407733473,-34.60309283142394
-6.055513364444446,-435.99696224,5.927118569674628,-2.1443070123263888,8.99344965,0.15849999999999964,43,72,1034.9855545849637,3694.2715299999995,mp-30201,Ba8(CoO3)7,https://materialsproject.org/materials/mp-30201,-8.489746663471221,-81.28382884545177,17.63754966022287,-73.06537118170529
-4.6667431597222215,-168.00275375,4.884474937761455,-1.8767468058141763,0.0,2.7671,14,36,908.7329543556897,2673.0376304,mp-779716,Cs4GeO4,https://materialsproject.org/materials/mp-779716,-5.3665572930690315,-28.19929966471405,-6.3949505880276165,-30.88679380550943
-5.54029599,-77.56414386,2.99651395714126,-2.3729657709913794,0.0,3.1218,14,14,262.62402765119066,473.916328,mp-755999,Rb2Be2O3,https://materialsproject.org/materials/mp-755999,-31.36143254785852,-18.298703491207615,-27.547088810401878,-4.4349385721329
-7.754859073409091,-341.21379923,5.911021509863343,-2.9230863942045464,3.0000001,1.1666000000000007,148,44,596.6514151111353,2123.90029,mp-19436,La7Mo7O30,https://materialsproject.org/materials/mp-19436,-29.0101477301024,-54.21279998336026,-14.654642611760233,-51.64272497218807
-7.1478548810000015,-285.91419524,5.620266560631062,-2.7865497385000007,0.0,0.3456000000000001,2,40,612.2168355162762,2072.1113600000003,mp-1223629,La4ZnCu2MoO12,https://materialsproject.org/materials/mp-1223629,-12.999565865772304,-59.9921133242068,0.36312923078124204,-48.78706005712235
-7.273360363571428,-101.82704509,7.209720411623149,-2.7989930733928565,4.0799999999999996e-05,0.0,123,14,195.6781730636649,849.59455,mp-615682,Ba2LaTa(CuO4)2,https://materialsproject.org/materials/mp-615682,10.750562949922251,-66.39746842392863,39.69333644339305,-52.971829217328256
-7.370100879166666,-353.7648422,7.107617315915794,-2.632151176979165,2.61e-05,3.2107,1,48,647.8433880182952,2772.96876,mp-1228762,Ba2Li3Ho3(WO4)8,https://materialsproject.org/materials/mp-1228762,-51.49774517709975,-52.06651991360602,-24.45026243195279,-60.51377116829597
-1.8671737026136364,-164.31128583,8.143054727498447,-0.5911258832754546,0.188950625,0.0,230,88,2189.128045096304,10735.1824,mp-558260,Hg6Cl3O2,https://materialsproject.org/materials/mp-558260,3.644664387884564,-7.954238053672465,-19.896564249476828,-51.679041875173205
-3.709928218214286,-103.87799011,5.594826068309414,-0.4232678542410712,0.0,1.4990000000000006,14,28,642.937490679505,2166.2384,mp-555269,Ag3SbS3,https://materialsproject.org/materials/mp-555269,15.468253368123815,-14.663505849467516,-3.5720460173725828,-22.631171724113788
-6.9968131300000005,-153.92988886,4.194072298870037,-2.79836373689394,0.99999995,0.4905,14,22,282.21898815965784,712.8088,mp-9660,Sr2Cu(BO3)2,https://materialsproject.org/materials/mp-9660,-18.223669469128374,-32.60294104122595,4.540094661529837,-33.8851616929927
-6.805236786363636,-299.4304186,4.436915252195898,-2.5126326923863638,0.0,3.0729,62,44,694.04417460429,1854.4672,mp-22822,BaV2CdO7,https://materialsproject.org/materials/mp-22822,-32.54515092803153,-27.751953363129573,-8.521557920891459,-28.97546562324491
-4.2050573500000015,-75.6910323,4.008533732542221,-2.501669569109387,0.0,2.2341,127,18,379.30097242799405,915.630832,mp-8201,Rb3PdF5,https://materialsproject.org/materials/mp-8201,-4.9341048488075,-29.09867621626843,-61.68271389541003,-66.05686595803454
-7.344254282173914,-168.91784849,6.059078089517039,-2.954759166304349,0.0001183,0.0,150,23,320.72214147275366,1170.27089,mp-1211938,La3TaGa5O14,https://materialsproject.org/materials/mp-1211938,-8.181457772775477,-46.3838948934036,7.97402941050056,-35.43468119100474
-4.339244264444444,-39.05319838,5.551721193128768,-0.10664694777777743,0.21416970000000002,0.0,10,9,229.63650202914928,767.7493900000001,mp-567369,Nd4Mg3Co2,https://materialsproject.org/materials/mp-567369,29.297956423862857,-38.91186863821017,14.203857182924018,-3.0931857863570213
-5.615853115714287,-235.86583086,5.519552588251321,-0.5809200931742857,0.4012114,0.00019999999999953388,15,42,931.9166778793004,3097.6466,mp-28685,Ba8Ni6N7,https://materialsproject.org/materials/mp-28685,22.035293877963362,-42.96717018321042,2.085021863896138,-29.91649446266871
-7.581942144,-151.63884288,8.258442529291472,-2.99555309125,4.999999,1.5868000000000002,62,20,224.24335833692768,1115.2408,mp-22588,LuFeO3,https://materialsproject.org/materials/mp-22588,9.06995419761417,-80.66551426593466,52.09371917238454,-52.288854052126354
-7.588276636666666,-182.11863928,5.356022699618503,-3.294956917604168,1e-06,4.114299999999999,113,24,297.9229441431338,960.942208,mp-19926,La2Be2GeO7,https://materialsproject.org/materials/mp-19926,-17.147900919793408,-35.54416001834864,-14.94392228281898,-34.157352778519986
-6.2590914160714295,-175.25455965,5.250635915046967,-2.4759944225000003,3.9999767999999998,0.4064000000000001,14,28,499.04584210074995,1577.9864,mp-542120,Ba2FeO4,https://materialsproject.org/materials/mp-542120,-9.437209798293102,-31.43337133631432,-6.522504362336272,-25.557840321781665
-4.984202879615385,-259.17854974,5.901729418795776,-1.4343168885544235,0.0,0.0,15,52,984.3215117786619,3498.3816,mp-1198565,CuPb5Se4(ClO3)4,https://materialsproject.org/materials/mp-1198565,-25.82572685547501,-43.253071863688746,-19.96213262867204,-41.53676216274061
-3.658362369166667,-43.90034843,4.952383584615405,-1.0082027630411876,0.0,1.4479000000000002,139,12,344.38501769083643,1027.0922076,mp-8666,CsAgO,https://materialsproject.org/materials/mp-8666,-3.7523221722675353,-27.43225066441013,-27.78532448561971,-58.935390457082974
-5.632157083243244,-416.77962416,7.433187932336218,-1.7543333032916217,0.0,2.3267,15,74,1526.4531023860513,6832.9695999999985,mp-1204784,V2Pb14Cl4O17,https://materialsproject.org/materials/mp-1204784,-20.353309128397893,-55.12632550797747,-12.138158669856772,-58.681864055207825
-8.295210360999999,-82.95210361,7.857083477484013,-2.78754332625,0.0,0.883,155,10,111.66919959763041,528.37916,mp-755367,LiTa2CuO6,https://materialsproject.org/materials/mp-755367,-35.689482853790864,-78.35618303095613,3.862343079043435,-56.225306488896415
-6.795134373571429,-190.26376246,5.200506455376174,-2.7410555242857138,2.000000075,1.7989999999999997,33,28,498.9404492061424,1562.5908,mp-561426,Ba2CrO4,https://materialsproject.org/materials/mp-561426,-9.531801482697668,-31.481989603097755,-6.382156247157147,-25.842569737198893
-7.285101384166667,-262.26364983,6.871546428902741,-3.2576196930488903,0.0,3.5103000000000004,4,36,485.79357305287857,2010.2828128,mp-554138,Pr2SbO5F,https://materialsproject.org/materials/mp-554138,-6.084688899843991,-72.03555593175831,0.550383591886182,-32.77131444648783
-5.236178575,-251.3365716,4.620111727348824,-3.3329376417556253,3.999544933333333,4.2505,145,48,677.1436530603197,1884.0143214000002,mp-1264049,Ba2AlNi2F11,https://materialsproject.org/materials/mp-1264049,-15.761140465573206,-20.845038703599936,-12.872105880814793,-16.80634443466297
-4.81679863625,-115.60316727,5.2633349542876395,-1.1832967601909723,0.0,2.2506,14,24,373.28939775436567,1183.1984,mp-30982,Ag2SO3,https://materialsproject.org/materials/mp-30982,-23.216332812386607,-31.649068935948023,1.3778421286499511,-25.47833379363071
-9.246330940833333,-110.95597129,8.025094124534306,-3.6667531054166664,0.0,3.4736,36,12,163.59189613966825,790.61096,mp-768230,SmTaO4,https://materialsproject.org/materials/mp-768230,-30.299387075250106,-61.06407783063664,-5.769591683649559,-59.389669131834545
-4.4210751083928574,-247.58020607,4.374693331908866,-1.002824010739796,0.0,0.7464,55,56,1950.2108534204174,5137.834288,mp-28823,Ba4P3,https://materialsproject.org/materials/mp-28823,1.9921724105105845,-25.51405053119063,-21.8897449943688,3.046907129393856
-7.350274326666668,-176.40658384,8.520743164807643,-2.5150253574999994,5e-08,3.1019,15,24,334.80089472611263,1717.9677,mp-1208360,TbTl(WO4)2,https://materialsproject.org/materials/mp-1208360,-47.22612217206154,-56.47889273273083,-20.002047534562596,-61.61440450178915
-5.404354819,-216.17419276,4.695383669039206,-1.3150553776354172,5.000000325,1.9093,33,40,590.7847400265713,1670.5184,mp-704626,FeAg(SeO3)2,https://materialsproject.org/materials/mp-704626,-27.08703738201325,-32.189189133571084,11.183174463948767,-2.3414437128922025
-7.015222382857143,-49.10655668,7.773071510879756,-0.5651555607738094,3.12e-05,0.0,71,7,81.23272423387533,380.2547,mp-568541,Dy2B4C,https://materialsproject.org/materials/mp-568541,8.745618350772427,-56.82415433019914,13.772727214439135,-16.361617126724585
-6.96942722,-41.81656332,7.1980725898599225,-0.4812625341666674,1.9093768,0.0,119,6,113.15149333327524,490.48691,mp-1226480,CeUSi4,https://materialsproject.org/materials/mp-1226480,49.166595850028784,-15.465433873724866,21.49562383612146,23.08185200654381
-5.43728492,-65.24741904,4.7704058411021135,-1.6244818747323997,2.98056645,0.0,63,12,318.13350548483885,913.9357138,mp-561722,CsTmCoS3,https://materialsproject.org/materials/mp-561722,-2.347533108280181,-12.18812922801637,-17.148884207349642,-27.301588528768626