energy_per_atom,energy,density,formation_energy_per_atom,total_magnetization,band_gap,sgr,num_sites,cell_volume,weight,mp_id,formula,URL,tsne_cry_0,tsne_cry_1,tsne_xrd_0,tsne_xrd_1
-6.63568927875,-955.53925614,5.824433929159232,-2.0189869933333333,6.5000000125,0.12039999999999962,1,144,2117.9339180170605,7428.772148479998,mp-1076206,K2Na2NbW3O10,https://materialsproject.org/materials/mp-1076206,-31.62119500072312,-74.63986663558264,-22.341876474843254,-24.282457303993212
-5.998532426666667,-107.97358368,7.314040311803162,-0.5942270348611116,0.0941954,0.0,193,18,404.52721653378296,1781.7879,mp-1105676,Tb5Si3C,https://materialsproject.org/materials/mp-1105676,33.226434357022015,-42.41757770844215,21.905734286016976,-19.414527369384828
-9.266560885,-111.19873062,6.1674759749662496,-3.5084040637950022,20.999999600000002,3.0266,38,12,219.8260891545268,816.4650700000002,mp-1222917,LaGd3(ClO)4,https://materialsproject.org/materials/mp-1222917,0.7090038822903603,-51.58820411338007,4.022464835075391,-38.406594053101784
-4.68786993375,-37.50295947,6.202852562050005,-0.9581019781249998,0.0,0.3971,11,8,160.5849290341423,599.8562000000002,mp-997042,TlCuO2,https://materialsproject.org/materials/mp-997042,-44.87389634922217,-65.8407826495625,-14.404964180041995,-22.030529634179587
-6.493765795333331,-194.81297386,7.259060532895682,-0.6660210935555558,3.65e-05,0.0,127,30,428.81570485811136,1874.5715,mp-1208405,Tb5(SiB4)2,https://materialsproject.org/materials/mp-1208405,30.042389523967522,-40.24454643436231,13.392885358750933,-19.527887451114896
-2.9547571875000003,-35.45708625,4.901225027111818,0.29944167797103444,0.000722525,0.4237,62,12,351.4355821850952,1037.2926075999999,mp-1246389,CsCdN,https://materialsproject.org/materials/mp-1246389,-4.88346936184906,-26.653751734585253,-31.729587713353773,-8.52292709696301
-2.57532949,-15.45197694,6.316642245667598,0.04054017919540254,0.00047395,1.7066,194,6,242.32304168306027,921.7898075999999,mp-13548,Cs2Pt,https://materialsproject.org/materials/mp-13548,0.6463044293917495,-33.952690623093424,-29.14084312542216,-60.96989501689053
-7.468486916153847,-97.09032991,5.724103408476622,-3.0391329865064107,0.0007861000000000001,0.0,123,13,196.17996173190448,676.25895,mvc-2119,Sr2YTi2TlO7,https://materialsproject.org/materials/mvc-2119,10.824064435959187,-66.43097780793119,11.66877554774,-48.12191044511159
-6.962354641666668,-41.77412785,5.600599048715399,-3.032436907916667,1.0,0.0,166,6,139.956252710956,472.0388,mp-755464,CeBrO,https://materialsproject.org/materials/mp-755464,23.108443610943464,-8.776869893387376,11.393307607643356,-16.376745349259775
-7.351386808064516,-911.5719642000001,6.17236190419896,-0.3041810648387096,9.000000000000001e-07,0.0,92,124,1812.009333542388,6735.3896,mp-571244,Nd10(B3C4)3,https://materialsproject.org/materials/mp-571244,9.953681152451306,-59.693321543117364,-1.217830148751539,-32.90068389990641
-5.688049816666666,-34.1282989,6.291853661445582,-0.5360237399999997,0.00016835,0.0,141,6,115.4228155816368,437.342,mp-12770,DySi2,https://materialsproject.org/materials/mp-12770,48.99703858121863,-15.785258500356054,21.453669072254915,22.429307419968357
-5.375955611666666,-96.76720101,3.879019179420664,-3.655006650161149,0.0,6.9751,189,18,302.9288583849451,707.6418099,mp-554899,CsAlF4,https://materialsproject.org/materials/mp-554899,-55.83623993484626,-61.42545512068928,-18.91043382673889,-8.785045443518335
-5.773202021304347,-132.78364649,6.296845152741991,-1.7283261575582602,17.0051162,0.0,139,23,340.5527280788428,1291.3925800000002,mvc-146,Ba2Mn4Tl2Zn3O12,https://materialsproject.org/materials/mvc-146,9.191599513177616,-63.90888210230603,10.071186411884833,-45.858179037226016
-4.5098285295,-180.39314118,6.09827696514983,-1.697340216270834,0.520277975,0.0,18,40,900.0246539713581,3305.312,mp-1204068,Yb3InS6,https://materialsproject.org/materials/mp-1204068,8.736533480850504,-5.7888797991015055,-6.843871524466037,-13.641747874509544
-5.109003829285714,-71.52605361,5.190687546869301,-0.6912584342514287,5e-08,0.0,11,14,374.4671516199228,1170.5488,mp-29092,Ba3(GeN)2,https://materialsproject.org/materials/mp-29092,-0.16235574274605627,-27.299356473010338,-4.122837253056137,-30.150567433838077
-5.335639011944443,-384.16600886,7.402368803866818,-1.6100400796064815,0.000229475,1.9212,15,72,1626.7346432009065,7251.675199999999,mp-1201413,BPb7Br3O7,https://materialsproject.org/materials/mp-1201413,-20.32392261417827,-55.09975627533166,-12.685589842134588,-58.19043052907112
-7.335230451249998,-176.04553083,7.926650632635362,-2.486963418333333,6.5e-07,3.3963,15,24,352.34481450312575,1681.9322999999995,mp-1209389,PrTl(WO4)2,https://materialsproject.org/materials/mp-1209389,-47.44059387400913,-56.29992751239818,-20.16278392702245,-61.369518750136564
-5.661147335,-113.2229467,4.611080883736337,-1.7171247769687497,2.5e-07,1.5290000000000001,15,20,358.43635161286363,995.3268,mp-1205352,BaPd(SeO3)2,https://materialsproject.org/materials/mp-1205352,-30.52962076619652,-29.383822841825246,-29.519948428455333,7.995861498473753
-7.373393678125002,-353.92289655,4.989330328400183,-2.184149157890625,7.00001295,1.9441,11,48,657.7904538452589,1976.4268,mp-1203163,GdV(SeO4)2,https://materialsproject.org/materials/mp-1203163,-30.70442731157556,-53.447797685388345,-20.488790265575048,-33.31015411625
-5.402724323125,-86.44358917,3.7470743472409733,-1.8734231738362064,0.0,3.8842,57,16,341.0320557643134,769.5527999999998,mp-30299,RbAsO2,https://materialsproject.org/materials/mp-30299,-5.937128691258438,-29.69321938235056,-8.470306974539973,-27.023118558311246
-5.638216131333332,-169.14648394,4.5949382465625686,-1.5786431886964996,0.059487,0.0,59,30,560.5462831273225,1551.1081,mvc-1261,YSb3Se2ClO8,https://materialsproject.org/materials/mvc-1261,-21.939442942878923,-40.30377208890218,-21.372870186429502,-26.745028550104518
-7.747822158076923,-201.44337611,3.6746972073552033,-3.44573062474359,0.0,3.9442,100,26,368.08096579607854,814.5464000000002,mp-1192641,Sr2Ti(SiO4)2,https://materialsproject.org/materials/mp-1192641,-21.85375689233179,-32.12641743804584,-8.386797229626616,-24.89655258267097
-5.2422419866666665,-62.90690384,5.4515527731552265,-1.9465773981423613,0.0,1.0051,12,12,304.79151084626795,1000.6311,mp-1095340,BaTbAgS3,https://materialsproject.org/materials/mp-1095340,3.529291085970093,-4.667643635034151,-6.3883741247120485,-22.978476698566862
-7.3355722258870975,-909.61095601,5.905528792793751,-0.2823710366935482,2.15e-06,0.0,92,124,1856.3798486371886,6602.0156,mp-567719,Pr10(B3C4)3,https://materialsproject.org/materials/mp-567719,9.918889649365589,-59.678729443371175,-1.2557554233926678,-32.907909629422754
-5.627790626666667,-84.4168594,5.107490548328647,-1.101879510500001,0.00010400000000000001,0.032399999999999984,12,15,470.05218044621637,1445.78779,mp-23440,Y6C2I7,https://materialsproject.org/materials/mp-23440,26.32025041870591,-20.08588592622192,8.134376235798419,0.39342621223357377
-8.504303598333333,-306.15492954,5.340650334511786,-3.2254854708333336,0.0,2.9057000000000004,20,36,521.2788055103482,1676.54464,mp-555050,BaNb2O6,https://materialsproject.org/materials/mp-555050,-47.61784973836478,-53.82159518141034,-25.84600340862263,-57.51388346454298
-4.26320516625,-68.21128266,4.819465299819676,-2.164387772144612,2.0000004000000002,0.718,74,16,270.82252851437715,786.0217357999999,mp-560600,CsNiPdF5,https://materialsproject.org/materials/mp-560600,-58.509242219515286,-58.74001067600136,-6.2404755661262135,-27.85621132502398
-8.138470272021276,-765.01620557,5.136958707925811,-2.2578800111163826,0.000366,2.9399,1,94,1384.0650815518686,4281.673,mp-686617,Nd10Si10N17ClO9,https://materialsproject.org/materials/mp-686617,-23.750656692673193,-30.24501968548652,-18.209522595500946,-28.47178622914863
-5.843730015151515,-385.68618100000003,5.426534027645496,-1.6227598974337119,0.0030636,2.4297000000000004,43,66,1065.1559949239909,3480.8608,mp-1203641,V2Pb4(Se2O7)3,https://materialsproject.org/materials/mp-1203641,-25.686525096758828,-46.67028276443325,-21.665892586440616,-47.195963047839385
-4.729149033043479,-217.54085552,5.438853997853297,-1.3439209745380436,0.00027565,2.7997,13,46,924.0372273304873,3026.54948,mp-1200930,Cd3Pb2Se4(IO6)2,https://materialsproject.org/materials/mp-1200930,-13.705864383740186,-59.31172193321415,-14.393401173399663,-48.98766063249454
-7.52808217423077,-195.73013653,4.287375110822928,-3.227439980384616,0.9999996999999999,2.5881000000000003,100,26,394.8706059378569,1019.5234,mp-19179,Ba2V(SiO4)2,https://materialsproject.org/materials/mp-19179,-25.53868118768273,-26.458134668916397,-8.963569177691133,-25.497527138128554
-5.619219737777778,-101.14595528,4.812689420439222,-2.244475712256945,0.0,1.4558999999999995,140,18,442.2445676593924,1281.74388,mp-16452,BaLa2ZnS5,https://materialsproject.org/materials/mp-16452,15.965187203278534,-16.781034298151752,4.227551788861113,-0.6110691657534204
-6.67718049375,-53.41744395,5.074222898145855,-1.4857145026262506,1e-07,0.0,123,8,134.24541141086377,410.2229,mp-1021669,Ba2CuC(NO)2,https://materialsproject.org/materials/mp-1021669,6.344957078175957,-41.4897813228412,45.84095369517014,-54.9552745118869
-6.894709746041666,-330.94606781,4.7962087173311225,-2.0215299999739584,6.0115345,0.0,11,48,676.956240855011,1955.2828,mp-1198609,EuV(SeO4)2,https://materialsproject.org/materials/mp-1198609,-30.65825139422911,-53.3965856191669,-20.50758513858264,-33.25492389629406
-7.383818397916666,-177.21164155,5.180499092543709,-3.3551141103411117,0.0,4.1226,11,24,386.3698232287073,1205.3848,mp-1228639,Ba2LuB2ClO6,https://materialsproject.org/materials/mp-1228639,-23.31575632893664,-26.362178895994298,-16.290606736903662,-28.26358629961363
-6.8937588283333335,-41.36255297,6.119201303612875,-3.494887069836667,3.5000000000000004e-06,4.876199999999999,129,6,109.52977433778402,403.62480000000005,mp-27823,SmClO,https://materialsproject.org/materials/mp-27823,0.7097068734476365,-51.58403398654946,4.012624666888848,-38.380057082322566
-6.531352867924527,-346.161702,4.9549072733107735,-1.6990926030542448,37.73780479999999,0.0,8,53,1086.8643007240423,3243.11064,mp-1227608,La12Fe11S30,https://materialsproject.org/materials/mp-1227608,11.563984036656166,-5.736843496714206,-3.0592988812570363,-14.014553421135798
-7.079671046666667,-84.95605256,5.489077411093058,-2.921499319270833,2.5e-08,1.938,12,12,228.66900427359417,755.8882,mp-1173362,PrSO,https://materialsproject.org/materials/mp-1173362,0.4679635598170172,-51.10373858194102,3.470347876065293,-38.22142604969536
-6.550036799761906,-275.10154559,4.901297025655827,-2.3747999996726192,0.0,3.0544,150,42,581.2533201437204,1715.6448,mp-3848,BaGe4O9,https://materialsproject.org/materials/mp-3848,-29.518703395272787,-29.26440734366688,-23.00992135774112,0.9869274066105601
-4.823448046666667,-28.94068828,7.213107371059334,-1.6972776790033333,5e-07,2.5688,129,6,119.90916243161371,520.8656,mp-22939,BiClO,https://materialsproject.org/materials/mp-22939,-2.7558741880682933,-58.339740576908,2.7509500356436165,-49.04758799242658
-7.983059294583334,-383.18684614,4.94029310931088,-3.1497494148263896,0.0047818999999999995,0.0,8,48,590.6814601767019,1757.3447399999998,mp-782001,Li8La4TiNb7O28,https://materialsproject.org/materials/mp-782001,-29.170258963268747,-68.31052006539781,7.359656266318057,-35.28171403918506
-2.668856125,-48.03941025,7.443493957976236,-0.501895699027778,1.95e-06,1.634,15,18,508.0990791677622,2277.5932,mp-1188364,Tl2Hg3S4,https://materialsproject.org/materials/mp-1188364,-0.6939962514327676,-23.354619688998014,-13.249574693922082,-55.62721707310935
-8.327460553246754,-641.2144626,4.219566505652232,-3.2959940540205634,0.0005587000000000001,2.6809000000000003,1,77,1137.0797011646314,2889.4132,mp-677246,Ba6Ti2Nb10Si8O51,https://materialsproject.org/materials/mp-677246,-34.298807080449805,-55.63077124686244,-11.255785015335931,-23.510349653689183
-6.610804364166667,-158.65930474,4.160743723776132,-2.8686553659375016,0.0,3.2613000000000003,36,24,348.26118867764916,872.6235999999999,mp-1190900,BaZn2Si2O7,https://materialsproject.org/materials/mp-1190900,-29.746262686266107,-28.39283171326199,-22.55323175767754,-12.985005567538431
-5.636236492272728,-123.99720283,5.846233543029612,-1.8277253532954556,1.00000005,0.0,40,22,322.7036391423796,1136.1376,mp-557735,BaCuTe2O7,https://materialsproject.org/materials/mp-557735,-34.22186206802122,-57.955964659608014,-5.757939318353668,-53.277685558625365
-6.222514934166668,-74.67017921,5.070205211987427,-1.0214248839285716,4.6525e-05,0.0,14,12,265.7477729671255,811.4206959999998,mp-1095637,PrP2,https://materialsproject.org/materials/mp-1095637,16.364499832964412,-8.059738937367271,2.3738727330967078,-6.862088232852447
-4.698151316000001,-46.98151316,6.576880471793507,-2.0079650504374995,0.0,1.4500999999999995,15,10,223.3322947150127,884.55,mp-632532,Yb2S3,https://materialsproject.org/materials/mp-632532,11.065683501002836,-4.334967060101726,-0.6789167493362207,-13.73393951843483
-4.86622965625,-38.92983725,5.794437253866903,-0.9822720532812506,0.0,2.4607,217,8,239.09392645903938,834.31628,mp-1091384,NbTl3S4,https://materialsproject.org/materials/mp-1091384,-0.9931191779051352,-24.308003571651092,5.517680468880172,-51.52833786661925
-7.7596237578125,-248.30796025,6.4329744188245055,-3.35297681326172,0.0,2.6078,57,32,487.1034729372175,1887.0524,mp-18610,Sm2SiSeO4,https://materialsproject.org/materials/mp-18610,28.96253909398754,-17.57257458729919,6.693633788971527,-23.10579267556002
-6.732808611,-134.65617222,6.636460659026243,-2.6051861651874995,0.0003056,1.6796999999999995,62,20,475.046742001072,1898.5576,mp-755184,Sm2Se2O,https://materialsproject.org/materials/mp-755184,29.217849235457123,-19.123224657777733,15.386601588058962,1.8581856745996683
-8.437741543461538,-219.38128013,4.660927896146254,-3.086557423301284,0.99990695,0.0,186,26,377.4278368088343,1059.3933,mvc-1114,BaYTi4O7,https://materialsproject.org/materials/mvc-1114,-3.4818154073101093,-44.50197913185698,8.367154086647014,-38.77040809345289
-5.80173400625,-139.24161615,4.98725064468769,-1.8554722063281257,2.0000001,0.3324999999999996,173,24,523.1400005179353,1571.1947999999998,mp-1191831,Nd3GaNiS7,https://materialsproject.org/materials/mp-1191831,12.345420194526223,-13.729228231476872,1.2197537825720979,-4.3434657665811045
-7.216288964999999,-101.02804551,7.7424820727535435,-0.21318851595238086,6.8e-06,0.0,140,14,283.71311890877587,1322.8498,mp-1208257,Ti4CrBi2,https://materialsproject.org/materials/mp-1208257,39.49824474789207,-8.185866422753534,1.1119865316335076,-12.167633185621296
-7.510715734285713,-315.45006084,6.035514569846607,-3.0949993830357143,0.00047155,0.0,176,42,622.0371381054507,2260.9009,mp-1209712,Pr5Ge3O13,https://materialsproject.org/materials/mp-1209712,-28.688905527581802,-54.87963038569863,-10.280254849351534,-33.5926136244453
-5.6435976466666675,-135.44634352,5.97463445803378,-1.9000459566666663,0.0,2.248,84,24,332.63685291850516,1196.8303999999996,mp-3252,SrTe3O8,https://materialsproject.org/materials/mp-3252,-34.263950797010196,-58.24067690353433,-7.387865557485082,-50.476198877081245
-7.807178239166666,-93.68613887,5.553559152133577,-3.5751575875449997,6.9999999000000015,3.0645999999999995,25,12,233.15651667507183,779.7760099999999,mp-1223064,La3Gd(ClO)4,https://materialsproject.org/materials/mp-1223064,0.6252759530751265,-51.3831411046454,3.885736751480224,-38.266143780211245
-7.8145932425,-93.77511891,4.882559071405503,-2.8070166210008347,0.5560196,0.0,123,12,182.1938838920421,535.71303,mp-669354,LaNb2CuClO7,https://materialsproject.org/materials/mp-669354,-29.426944857499514,-69.14922863082673,0.8090029508030268,-51.395686305320616
-7.3396815,-176.152356,8.053020277502938,-2.4929632906250005,4.5e-07,3.3402000000000003,15,24,348.1908385747284,1688.601,mp-1209958,NdTl(WO4)2,https://materialsproject.org/materials/mp-1209958,-47.40703631975653,-56.34313390351266,-20.0896804394662,-61.43469909515283
-7.84089841047619,-329.31773324,5.961838110374487,-3.4945925394568453,1e-07,2.5407,173,42,609.4061332606848,2187.9526,mp-39866,BaSm4Si3SeO12,https://materialsproject.org/materials/mp-39866,-19.78640526134341,-33.79519831276771,-10.409752352002682,-33.762573401586984
-6.0312723477941175,-410.12651965,5.4837089164186565,-2.1386076920955883,25.0000009,0.5049999999999999,43,68,1099.2945976053338,3630.27393,mp-1178548,Ba8Co7O19,https://materialsproject.org/materials/mp-1178548,-8.473115782346566,-81.18160691155768,17.604993496741237,-73.17203181853961
-5.490415676538461,-142.75080759,4.5100546225289735,-2.111156170092884,3.0000002999999995,3.0066999999999995,58,26,484.834410362428,1316.8191900000004,mp-562762,Ba2CoSe2(ClO3)2,https://materialsproject.org/materials/mp-562762,-6.9297093724144725,-41.15864669724224,3.28155614890315,-26.83233799760617
-6.268351540555555,-112.83032773,5.4897186915618965,-0.9288198349466662,0.00097365,1.0396999999999998,2,18,421.39247784533234,1393.1176,mp-1245594,Ba4ZrN4,https://materialsproject.org/materials/mp-1245594,-2.3547497478548514,-30.76497071366622,-2.8838283720518887,-32.360824759150965
-8.622765422380951,-181.07807387,4.5959899354114455,-3.2119338548100003,0.0,1.8794,8,21,276.7075421303902,765.8628000000001,mp-755881,Ba2Ti6N2O11,https://materialsproject.org/materials/mp-755881,-11.311760634693728,-20.536864902529093,-6.730976181062702,0.4658004399394438
-4.065770624516129,-126.03888936,5.922160894502583,-1.5876843459393548,0.0002633,2.4908,71,31,664.3570025431749,2369.3686,mp-1226955,Cd5Bi6(Cl3O2)4,https://materialsproject.org/materials/mp-1226955,-18.70953636304297,-54.181769517191505,-13.292535391343105,-48.73536317252985
-7.69572985875,-184.69751661,5.033160120352775,-3.025737322864584,0.0,4.0107,144,24,299.25716377523787,907.0604099999999,mp-19957,LaGeBO5,https://materialsproject.org/materials/mp-19957,-23.48011989573543,-36.116927109864214,-18.116855136565405,-30.713846950491124
-7.198061127777778,-64.78255015,5.808395341789469,-2.1798837485497224,2.8e-06,1.2922999999999996,12,9,207.4527346381188,725.6484,mp-3062,Sm4S3N2,https://materialsproject.org/materials/mp-3062,10.704717510080863,-5.642815497785323,-4.282707183042395,-24.985986112663202
-7.624858046111112,-1097.97955864,5.044701203193227,-2.618545621625,2.56147025,0.0,1,144,2095.891406006521,6367.297391360001,mp-1077704,K5Na3Ta3Nb5O20,https://materialsproject.org/materials/mp-1077704,-31.23189250079175,-74.60534490371441,-22.26841905569816,-24.210017127164267
-7.331432382291666,-351.90875435,4.09247015173536,-2.8469493765625,8.000000025,2.7374,14,48,677.0971673054721,1668.7352,mp-1214455,BaFe2Si2O7,https://materialsproject.org/materials/mp-1214455,-29.23784785167377,-28.314697334977065,-5.628675344080088,-25.46203701891057
-6.782709636041668,-976.71018759,5.5499346245197945,-2.1242153214583337,11.499999975,0.0,1,144,2113.8574886540578,7065.03766848,mp-1076755,K4Na4Nb3(WO4)5,https://materialsproject.org/materials/mp-1076755,-31.560114608878628,-74.6447281365485,-22.318386205459067,-24.258972452155284
-4.43130008,-53.17560096,6.900804505468359,-0.4661977161111111,0.0,0.01360000000000028,11,12,336.2061418868782,1397.1926,mp-9344,TiTlCuTe3,https://materialsproject.org/materials/mp-9344,-0.5660576601266473,-27.69550265321452,0.24237294812658086,-31.3692669439822
-5.879294921818183,-64.67224414,5.579726981991169,-1.303539105227273,1.6681101000000003,0.0,71,11,292.84217445487224,984.0054,mp-574262,Ce4C2Br5,https://materialsproject.org/materials/mp-574262,21.5809247307421,-2.340589087269647,14.791871628184152,2.141091537207624
-6.28759023,-88.02626322,4.045848936619212,-1.0294896591152385,0.9997113999999999,0.0,176,14,289.5562043827806,705.4942000000002,mp-1245686,Sr3TiN3,https://materialsproject.org/materials/mp-1245686,7.188495015998992,-39.50601989922942,5.2866805975888775,-33.70422397645048