energy_per_atom,energy,density,formation_energy_per_atom,total_magnetization,band_gap,sgr,num_sites,cell_volume,weight,mp_id,formula,URL,tsne_cry_0,tsne_cry_1,tsne_xrd_0,tsne_xrd_1
-6.173914036896552,-179.04350707,7.8759793423392175,-0.3494053472413794,3.5000000000000004e-06,0.0,225,29,284.92160125553806,1351.3904772,mp-1214897,Al2(Ni7B2)3,https://materialsproject.org/materials/mp-1214897,39.14419051512788,53.49047442259877,79.31824362152334,-11.985476245050414
-4.664008805,-242.52845786,7.202251382607432,-0.1818617180769232,2.5e-08,0.0,220,52,867.1778295107507,3761.208,mp-567502,Ga8Cu3Mo2,https://materialsproject.org/materials/mp-567502,49.22066967662408,49.679480492599076,66.69277906070266,-10.655174082832453
-4.04239255,-97.0174212,2.545745810864392,0.10926388000000033,9.7125e-06,0.0,62,24,419.94307275372637,643.808,mp-1100458,MgSi2,https://materialsproject.org/materials/mp-1100458,38.675228448646976,24.9896797217171,60.36832110907657,1.9089931821355357
-6.951301732222222,-62.56171559,7.4169495311433975,-0.3689065462698409,3.5760018,0.0,189,9,129.18025374834002,576.9954210000002,mp-1206331,MnPPd,https://materialsproject.org/materials/mp-1206331,47.37801254273744,44.06928270610084,62.96124823865378,-1.5407851203457297
-8.519037746111113,-153.34267943,8.891125937506851,-0.3426894259259272,14.152824300000002,0.0,191,18,217.25451168799518,1163.2591449999998,mp-605854,Gd3Co11B4,https://materialsproject.org/materials/mp-605854,73.95079576087188,26.34347075252425,60.239156878813496,15.42171523216825
-10.374025473333333,-62.24415284,12.321581823115109,-0.8398530228566656,0.8979971,0.0,71,6,61.441754739856975,455.91195999999997,mp-1246837,Ta2CrN3,https://materialsproject.org/materials/mp-1246837,32.02822727089941,40.71792001945955,51.05768339635488,-9.138120066629684
-7.247424169285713,-101.46393837,4.3010161382796745,-1.3766684316071434,1.9695513999999998,0.0,12,14,217.0425642604409,562.169,mp-1081,V3S4,https://materialsproject.org/materials/mp-1081,14.680252688634331,36.80154405366693,23.46087356877603,-54.34345254196425
-7.264553603333333,-43.58732162,7.948233809364767,-0.0753857749999997,3.3076480999999998,0.0,129,6,77.97351073184637,373.2232,mp-20426,Fe2As,https://materialsproject.org/materials/mp-20426,42.86707736745509,49.74849003652954,73.64332565827566,-13.961191153391116
-4.929821357156864,-502.84177843,4.03629316178746,-0.39068496303921546,0.00016223333333333334,0.0,31,102,1447.7057862057998,3518.9566908,mp-1198336,Al13Co4,https://materialsproject.org/materials/mp-1198336,43.26754612413849,43.89025753884946,66.87598566647254,-14.240118435012455
-7.386964396666666,-44.32178638,8.135208744827741,0.17900834333333293,4.55565555,0.0,227,6,69.55649113437146,340.7668,mp-1077745,Fe2Ni,https://materialsproject.org/materials/mp-1077745,47.67553524982506,54.847452268151066,79.29705876044964,-6.563528996357582
-8.254363065,-49.52617839,16.833718281579078,-0.8191245433333331,5e-08,0.0,227,6,108.38257897440356,1098.72864,mp-928,HoIr2,https://materialsproject.org/materials/mp-928,80.69289993959939,11.036409394501009,61.445137806777744,27.52014042262279
-7.420117991000001,-148.40235982,6.8653158066013935,-0.4602441009999992,0.00027545,0.0,83,20,347.27016995910867,1435.7502772,mp-1256151,Zr5AlNi4,https://materialsproject.org/materials/mp-1256151,70.12948454726696,17.434768075298948,60.96961492245368,5.636774254751298
-1.9896451256,-99.48225628,7.113598218401982,-0.2783665356999998,5.915e-05,0.0,141,50,866.3649900620333,3711.42882,mp-1200584,La3Zn22,https://materialsproject.org/materials/mp-1200584,71.49633289631903,17.354207681363068,66.11813076279314,4.473457668948652
-7.275962683333333,-43.6557761,6.099733123148553,-0.5082253703472214,4e-07,0.0,139,6,65.31521991490267,239.92535,mp-6576,YNi2B2C,https://materialsproject.org/materials/mp-6576,51.69058117777444,2.4307422172337825,47.5355687060293,-3.8952428181677954
-8.557204647499999,-102.68645577,7.1504125490078305,-0.5577755791666661,0.685158575,0.0,63,12,164.26718930646337,707.3475199999998,mp-1102925,NbFeSi,https://materialsproject.org/materials/mp-1102925,63.77070289235712,40.44027257997861,74.38871549898653,2.334618744663622
-7.064356685,-84.77228022,7.7437058507117245,-0.5210956757142853,0.25836929999999997,0.0,62,12,127.66749557917052,595.360608,mp-22204,Co2P,https://materialsproject.org/materials/mp-22204,43.10036503782237,54.327184945999,76.64300924643317,-12.240228873405993
-7.835195011111112,-70.5167551,7.478102215187235,-0.6658957338194446,0.0,0.0,87,9,173.28433984724973,780.3719,mp-15837,Nb5Se4,https://materialsproject.org/materials/mp-15837,40.25940822897105,26.368792466469444,61.558649119857854,1.5949525277863512
-5.1963564578431365,-265.01417935,4.155399088832799,-0.3258393472549019,1.31e-05,0.0,8,51,717.5193115671943,1795.5489282,mp-1228719,Al37(Fe6Cu)2,https://materialsproject.org/materials/mp-1228719,43.424573346077004,43.9969513047933,66.88508398061826,-13.904215377980814
-6.9393162073333325,-104.08974311,4.145163529859127,-1.370717417133335,2.34e-05,0.0,147,15,234.41270145036114,585.15876928,mp-1221427,Na(V3S4)2,https://materialsproject.org/materials/mp-1221427,14.369475468268078,38.354293433219006,24.22247478200459,-60.14785927358158
-6.81196625125,-54.49573001,8.904610727918882,-0.6142047750000009,0.0020356,0.0,123,8,126.0052712185512,675.701,mp-570199,Ti3Pd5,https://materialsproject.org/materials/mp-570199,65.26616728449561,35.51876791377034,75.90322097720696,7.242975544919431
-8.153671034,-40.76835517,8.298173330477052,-0.01114727275000007,3.2960696000000005,0.0,221,5,59.13917577439249,295.534835,mp-20860,Mn3SnC,https://materialsproject.org/materials/mp-20860,51.188799413998936,61.77575381502197,83.78203021299451,10.601630927570474
-5.912026824444443,-106.41648284,6.395216790993255,-0.7115025129365082,0.0,0.0,63,18,246.15561595816916,948.0165720000001,mp-18632,SrNi5P3,https://materialsproject.org/materials/mp-18632,21.16015444684055,38.5173726177419,66.040789206086,-23.362318310899433
-4.974024784313725,-253.67526400000003,4.3137619418180355,-0.4142302084313725,0.0,0.0,12,51,719.5187567900446,1869.1717296,mp-17017,Al12Co4Cu,https://materialsproject.org/materials/mp-17017,43.34628040505631,43.949937378284766,67.02029326234019,-14.028375827294116
-6.403761356,-32.01880678,4.490343792950637,-0.4492431830000001,1.1156586000000002,0.0,139,5,76.89630089808045,207.93900000000002,mp-1068250,Ca(FeSi)2,https://materialsproject.org/materials/mp-1068250,33.680181458949946,45.82197921245483,59.83445632779421,-6.152083093954866
-7.1032156875,-28.41286275,8.391050375632865,0.022917883750000808,4.9992827,0.0,225,4,48.44131778737137,244.78409,mp-1008277,CrCo2As,https://materialsproject.org/materials/mp-1008277,80.20877434427291,48.17966102779987,90.73370221743788,-4.162571464450881
-4.370560503571428,-611.8784705,4.9208366102882986,-0.030876866571428862,15.109526500000001,0.02890000000000015,200,140,2003.308287275604,5936.5980108,mp-31403,Al39Fe7Cu24,https://materialsproject.org/materials/mp-31403,49.19971824800415,45.08414975476487,67.60827510460399,-3.570835509796189
-4.3729891940000005,-21.86494597,8.390621331157218,-0.09388491799999983,4e-07,0.0,164,5,93.19941161942863,470.93199999999996,mp-1225845,Cu2Sn2Pd,https://materialsproject.org/materials/mp-1225845,67.85000774279243,16.611803053811954,63.43601517234319,4.9660638642187855
-6.077212814,-30.38606407,8.818472454972092,-0.03777490147599991,3.2066982000000004,0.0,221,5,57.09652572100706,303.217285,mp-1017553,CdCo3N,https://materialsproject.org/materials/mp-1017553,50.86607752275192,62.15532360536472,85.55251105405117,9.384826030301891
-8.932798755555558,-160.79037759999997,8.248670714524076,-0.6646402705555547,2.1633333333333332e-05,0.0,46,18,268.21952321592005,1332.3712799999996,mp-1188541,NbSiRu,https://materialsproject.org/materials/mp-1188541,62.599104845406046,27.719625647554608,61.720627229579755,6.856209098079552
-6.663822186,-33.31911093,6.806711162600043,-0.7085526300000005,2e-07,0.0,139,5,69.06023260427894,283.08461580000005,mp-1070580,Al3Ru2,https://materialsproject.org/materials/mp-1070580,55.819000409131135,38.85861913144394,66.12312868212541,11.941157805652105
-6.89803452047619,-144.85872493,7.0840298660446575,-0.3319028459523809,0.0025983,0.0,65,21,273.47687517366586,1166.6804,mp-1191870,Y4Ni13C4,https://materialsproject.org/materials/mp-1191870,62.357113769372425,35.75024363823841,72.83347313957158,1.9262262755931
-8.14565642,-97.74787704,8.183636425007425,-0.3464382316666672,3.55e-06,0.0,38,12,148.49636028627805,731.8347799999998,mp-1226108,CoSiMo,https://materialsproject.org/materials/mp-1226108,65.30352865830648,46.999561161153686,72.46647639467011,17.52478984964133
-2.1779396242105262,-41.38085286,7.975898553097204,-0.13237249368421058,1.9853374,0.0,160,19,310.2303441430508,1490.0979100000004,mp-1226591,CeUZn17,https://materialsproject.org/materials/mp-1226591,70.99662223100765,15.281804169865994,65.62943998265114,3.8452723609806188
-4.406001339642857,-123.36803751,9.322911366575225,-0.2526770553571421,1.425e-06,0.0,62,28,430.10845796648016,2414.7960000000007,mp-1213224,ErCu5Sn,https://materialsproject.org/materials/mp-1213224,70.45009329266959,21.859079244181636,60.43817687464673,19.538955525027344
-6.17987133375,-49.43897067,8.277261851039622,-0.3009532912499999,0.070612775,0.0,62,8,107.41286999916744,535.41918,mp-583,CoAs,https://materialsproject.org/materials/mp-583,21.88177578038411,36.40497872026225,63.5976295177844,-23.42058830944478
-6.467133229444443,-116.40839813,8.282591167195772,-0.5430816561111114,3.247321633333333,0.0,6,18,258.84819849389226,1291.107135,mp-1221623,MnSi2Pd3,https://materialsproject.org/materials/mp-1221623,62.36867515822463,28.134918809536988,61.47482033980486,3.1777100912074934
-6.0408227495238105,-507.42911096,7.776783107003029,-0.27589445357142833,0.412737675,0.0,62,84,1093.4706128491816,5121.03816,mp-569003,Mg2Co12As7,https://materialsproject.org/materials/mp-569003,39.75624598098429,49.00167285168578,70.30123668609347,-18.729635735631344
-8.0166791955,-160.33358391,7.0198677121915445,-0.027949237452000376,0.0008324999999999999,0.0,59,20,186.37427684983658,787.8904,mp-1247266,Fe5NiN4,https://materialsproject.org/materials/mp-1247266,27.02690683593769,53.63207976988082,70.1334170874946,-0.027098030751036176
-4.884496679090909,-429.83570776,8.5260305883412,-0.5091197888636365,5.920000000000001e-05,0.017300000000000537,62,88,1515.175835993533,7779.66384,mp-1212628,Ho3Ga15Ru4,https://materialsproject.org/materials/mp-1212628,69.26948266626913,15.993836783382957,60.18908314448611,10.776560515539945
-9.828655765,-58.97193459,15.723892011953618,-1.0963003149999997,7.0302997000000005,0.019000000000000128,227,6,115.62136899791386,1094.836,mp-1422,GdPt2,https://materialsproject.org/materials/mp-1422,82.87951787490971,11.193875574328963,60.54753252919126,25.291389000460054
-6.558175139375,-104.93080223,8.250204337601144,-0.26350895281249986,15.039812,0.0,166,16,193.79489427594376,962.848472,mp-1219338,ScGa4Fe3Co8,https://materialsproject.org/materials/mp-1219338,80.4440301133263,48.45701780179215,90.833020602734,-4.052599953233819
-8.351491574444445,-75.16342417,8.835455130392504,-0.8643639661111107,3.3333333333333334e-08,0.0,189,9,150.66182647593124,801.6468,mp-8221,ZrAsRu,https://materialsproject.org/materials/mp-8221,62.69308991612928,35.46534317340217,70.72380418156925,4.011210330785035
-5.909491925833334,-70.91390311,10.089407821250235,-0.4339467670833344,0.3947211666666666,0.009199999999999877,166,12,169.5227774502984,1030.0176,mp-1051,ErNi3,https://materialsproject.org/materials/mp-1051,74.2083714716368,23.829195944068218,62.58308931902065,17.25132259531568
-6.811693364444443,-61.30524028,3.9519748712978,-0.8701529313888893,0.0026899000000000003,1.4232999999999998,187,9,280.5917045614837,667.79,mp-1025819,Mo3(Se2S)2,https://materialsproject.org/materials/mp-1025819,53.10482658387663,-79.99754741836794,49.82883687777999,-76.2298243240544
-7.76344433,-93.16133196,8.562324058996344,-0.1828213791666672,2.1141544999999997,0.0,160,12,150.7201632259321,777.1662386,mp-1220669,Nb3AlCo8,https://materialsproject.org/materials/mp-1220669,64.47005948295431,47.00680478435165,78.4189193843563,-2.3644956701582243
-6.6032970775,-79.23956493,10.602656244426663,-0.4255867316666671,0.0001248,0.0,26,12,174.23981022370927,1112.5332,mp-1224900,GaAsRh4,https://materialsproject.org/materials/mp-1224900,61.91416328838536,37.594194510152924,73.89554537557369,5.014302909483549
-6.415169364444443,-57.73652428,8.79365394511968,-0.12589255611111128,1.0648168666666666,0.0,189,9,109.2146629271659,578.3639699999999,mp-1079254,Co2As,https://materialsproject.org/materials/mp-1079254,42.564415026949995,55.02114399911382,75.28868997662344,-12.934208837414534
-7.541388731666667,-45.24833239,6.301294741700051,-0.4450644538888895,0.0,0.0,63,6,70.48332457582974,267.4650772,mp-7574,AlBMo,https://materialsproject.org/materials/mp-7574,57.418924619310395,26.962745116522154,64.01329404539071,13.435473283886072
-5.96848936125,-47.74791489,15.15852732618514,-0.3398242399999996,2e-07,0.0,69,8,114.25561540120803,1043.0028,mp-29752,NiGePt2,https://materialsproject.org/materials/mp-29752,54.889451137298444,41.673053903619866,78.40898691943225,11.492354511069427
-4.065507148076923,-105.70318585,8.859331366384902,0.013040162307692508,0.0,0.0,176,26,371.7151641762087,1983.18,mp-30597,Cu10Sn3,https://materialsproject.org/materials/mp-30597,54.670121089785134,52.817733233038034,81.0636572298155,5.195278627271109
-4.425250144222222,-199.13625649,7.753166799650885,-0.1604980217222217,2.5555555555555553e-07,0.0,119,45,757.7115070703377,3537.8052299999995,mp-30589,LaCu4,https://materialsproject.org/materials/mp-30589,76.47864886611256,15.274295947656698,58.55259431432421,16.916052729074675
-9.786157511428572,-274.01241032,13.190735922662725,-0.4445634096428575,7.5e-07,0.0,58,28,475.9733170040729,3780.9640000000004,mp-505513,Nd(Re2Si)2,https://materialsproject.org/materials/mp-505513,63.85302631735826,14.214067612786787,56.28561367242583,-7.544505729288305
-4.7096278934375,-301.41618518,7.918970473631707,-0.32303713340332063,5e-08,0.0,221,64,1255.438457398846,5987.08,mp-21765,Pd17Se15,https://materialsproject.org/materials/mp-21765,25.375480478096165,27.238108105817886,18.94723491302528,-48.15459991561034
-7.506552734166667,-90.07863281,7.927471515342335,-0.317334085833334,4.9601742,0.0,160,12,161.73301969909915,772.1190986,mp-1215811,Zr3AlCo8,https://materialsproject.org/materials/mp-1215811,66.25893092455729,48.0729562799894,78.75263707995002,-0.8218068305241049
-4.050740847,-121.52222541,8.259998285627017,-0.2287242656666668,1.7e-06,0.055500000000000334,227,30,381.39646530160036,1897.1756,mp-30030,Zn6Ni7Ge2,https://materialsproject.org/materials/mp-30030,80.64160854951464,48.55996550612218,89.84750559626438,-4.728897766730776
-7.9764663875,-31.90586555,9.113693761561962,-0.12126938500000063,1.8010616000000002,0.0,225,4,48.4823411512386,266.090227,mp-1185984,MnBeRu2,https://materialsproject.org/materials/mp-1185984,84.76615825811322,36.02246634297295,51.21364488529364,48.720140643113005
-6.916421868333334,-41.49853121,5.242708885803565,-0.9776681992187513,2.1000000000000002e-06,1.2811000000000003,164,6,131.10530067546335,413.93,mp-1221404,MoSeS,https://materialsproject.org/materials/mp-1221404,51.94338608149339,-80.62236665972327,51.63702407936327,-75.79889169179161
-6.40154218375,-51.21233747,5.613225265270391,-0.5271800437499996,0.0,0.19459999999999944,129,8,124.80374440122064,421.88199999999995,mp-19953,ZrCuSi2,https://materialsproject.org/materials/mp-19953,56.69013854825415,32.02988628439016,63.107152213102424,-1.6869064975320864
-5.039365600769231,-131.02350562,3.8409181340858383,-0.3572057784615383,5e-08,0.0,63,26,406.74453084565323,940.8224720000001,mp-16744,Y(Al5Fe)2,https://materialsproject.org/materials/mp-16744,41.30141554701133,43.1536254626329,57.52172083078932,-17.36340274925259
-7.241040366111112,-130.33872659,6.842822044667794,0.09943962616444442,0.89250185,0.0,15,18,166.85757326678961,687.5939999999998,mp-1246184,Fe2Ni3N4,https://materialsproject.org/materials/mp-1246184,27.72247003459812,52.82268888203146,70.30146510108109,-3.01464311360147
-3.943563876666667,-47.32276652,2.566643752045304,0.20809255333333354,5.7000000000000005e-06,0.0,1,12,208.26192131502518,321.904,mp-1073665,MgSi2,https://materialsproject.org/materials/mp-1073665,40.951899441937016,24.80476275818161,60.37488898804738,3.5145502132217947
-6.1491583429411785,-104.53569183,7.609356564506774,-0.4792730782773113,0.0,0.0,87,17,187.4952077843459,859.1896099999999,mp-2790,Ni12P5,https://materialsproject.org/materials/mp-2790,42.74838311053311,54.97756572718402,76.73221047622316,-12.708560885424266
-3.252316305,-13.00926522,2.173588797184,0.6831493383333331,0.0022125,0.0,216,4,40.59721375824732,53.140364,mp-631564,MgBe2B,https://materialsproject.org/materials/mp-631564,40.33060508421857,60.53778691409506,63.27348655609048,-29.75947563484886
-7.2088823125,-28.83552925,8.33114624119151,-0.2283972562500001,2.9973186000000003,0.0,225,4,48.12466806647779,241.44789,mp-865465,VCo2Ge,https://materialsproject.org/materials/mp-865465,80.06260967325944,48.3394748421162,90.80443622172498,-4.322220310133815
-7.321854265,-43.93112559,6.601363566720459,-0.5930882383333334,0.0,0.0,129,6,98.56205576748087,391.82696,mp-21907,NbSiAs,https://materialsproject.org/materials/mp-21907,34.069351317743156,27.90676535182658,61.622277240759566,-6.998495067320151
-8.624868618571428,-120.74816066,7.786992199509705,0.053717311785713866,8.3199583,0.0,15,14,129.33170421595165,606.4928,mp-2794,Fe5C2,https://materialsproject.org/materials/mp-2794,39.50055024827343,55.916972904901854,79.33072288144805,-13.986093992283244
-9.440394504090909,-415.37735818,9.542269883885773,0.0022822618181818784,6.81846065,0.0,12,44,553.1881840587846,3178.890000000001,mp-1213182,Fe13Mo9,https://materialsproject.org/materials/mp-1213182,64.22981810822083,44.04148339760968,77.52660157922425,-1.0617530312950256
-4.565312744,-45.65312744,6.3565280973612825,-0.2707032679999998,2.25e-06,0.0,99,10,125.26073984835013,479.4969544,mp-1228962,Al2Cu2Ni,https://materialsproject.org/materials/mp-1228962,82.7211465464832,43.76325445125533,87.89426679328129,-3.836237173358025
-5.773152032777778,-207.83347318,9.53193764189898,-0.6961218555555556,0.780764175,0.0,62,36,620.274967982257,3560.544000000001,mp-21689,CeGe3Pd5,https://materialsproject.org/materials/mp-21689,68.12765817837835,9.4253706785627,52.702959079379475,8.584634807098256
-8.299551493181818,-182.59013285,8.140766410028649,-0.08820289755681833,34.6935467,0.0,166,22,268.2839323631304,1315.25774,mp-1190608,Ho2Fe17C3,https://materialsproject.org/materials/mp-1190608,76.47959550624479,33.92427014568792,88.92499526349026,-25.01077728937018
-6.686987327692307,-86.93083526,7.94195618742998,-0.1220321519230761,12.889783900000001,0.0,191,13,227.24214941707973,1086.844182,mp-12697,Sc(MnSn)6,https://materialsproject.org/materials/mp-12697,67.12657015910835,15.40609551896414,58.76834022252716,18.117583045671694
-5.627646895,-157.57411306,8.262279178884112,-0.6349258857142855,13.8600758,0.0,63,28,498.4871454180727,2480.303,mp-645591,Eu2(Ga3Rh)3,https://materialsproject.org/materials/mp-645591,69.61695068968099,15.594097523558332,64.87711329998446,4.859911371500526
-7.091522505,-85.09827006,7.197264506381692,-0.990782111666666,3e-06,0.0,62,12,203.49464865517413,882.0056480000002,mp-1095247,ScGeRh,https://materialsproject.org/materials/mp-1095247,56.28400910440138,19.17269035047658,59.413977075782576,-8.0881401638395
-4.7149528075,-132.01867861,9.825133645335068,-0.14271602321428492,6.25e-07,0.0,62,28,414.6231398671914,2453.2562399999997,mp-12834,ThCu6,https://materialsproject.org/materials/mp-12834,70.26358345223356,24.214275584679136,57.429110016414825,16.323452995790664