energy_per_atom,energy,density,formation_energy_per_atom,total_magnetization,band_gap,sgr,num_sites,cell_volume,weight,mp_id,formula,URL,tsne_cry_0,tsne_cry_1,tsne_xrd_0,tsne_xrd_1
-5.472021543333334,-65.66425852,8.265412838162867,-0.004205213333333309,5.7893509000000005,0.0,47,12,179.64894932891394,894.211275,mp-1219998,Pr2(CoCu)5,https://materialsproject.org/materials/mp-1219998,77.07695100417722,16.720567448986937,85.12137808496118,-12.624146159599636
-1.4754073637499998,-35.40977673,7.604528504795322,-0.1812462858333331,2.15e-05,0.0,141,24,389.7929643601094,1785.078,mp-864767,YbZn11,https://materialsproject.org/materials/mp-864767,71.37805407978827,17.864028344289594,68.09343984327855,3.5444087134837097
-7.515888811666668,-90.19066574,8.158770425891916,-0.8852531388888885,2e-07,0.0,62,12,183.74036507183308,902.7764,mp-505540,TiAsRh,https://materialsproject.org/materials/mp-505540,46.87877807755039,45.27083392201648,65.48940858900906,-8.454621697534225
-1.9522130306,-97.61065153,7.500869840375762,-0.2661635317,0.00022880000000000003,0.0,141,50,836.8491586804796,3780.156,mp-1201457,Sm3Zn22,https://materialsproject.org/materials/mp-1201457,71.4647763071987,17.31192515330735,66.1722408369225,4.4256854300262125
-4.586697699285715,-128.42753558,8.62051421400947,-0.4751007414285721,9.75e-06,0.0,63,28,440.02623027578284,2284.35001,mp-1194327,Tm2(Ga3Co)3,https://materialsproject.org/materials/mp-1194327,68.48971798579166,18.552282374927152,64.77016132528948,6.4658393411300965
-7.539755543333331,-158.33486641,8.386772064439945,-0.15330755845238014,25.2093552,0.0,12,21,267.20187242012315,1349.5384,mp-1225739,Er2Ga3(Fe7C)2,https://materialsproject.org/materials/mp-1225739,76.2494160329843,34.11689556678616,87.92671170639696,-24.47525483071785
-8.058410218289474,-612.43917659,8.05670495002904,-0.35742491881578825,4.726365775,0.0,62,76,1259.024893753315,6108.6140399999995,mp-567194,Mn2Nb9Ge8,https://materialsproject.org/materials/mp-567194,64.92629205048875,35.34573844435271,61.526870351431896,4.476651765805164
-7.2550647175,-29.02025887,8.536924815672151,0.09215779625000042,7.1022348,0.0,221,4,55.678245711172494,286.245,mp-22461,Fe3Sn,https://materialsproject.org/materials/mp-22461,54.52319875072043,61.90856008748946,85.83790104760755,8.001300522475402
-5.500693621,-55.00693621,7.369769041286829,-0.15714263319799998,6.1998371,0.0,35,10,98.59972569842465,437.60320500000006,mp-1080584,LaCo5H4,https://materialsproject.org/materials/mp-1080584,72.26112244360435,13.12923795943398,64.53620101241583,2.3008374304499863
-8.30529484875,-66.44235879,10.873651060808944,-0.13307406875000005,2.2026592000000003,0.0,187,8,96.28305661866106,630.48705,mp-1217983,TaCo6Mo,https://materialsproject.org/materials/mp-1217983,49.940783126337955,67.60934586562755,72.97273095966518,-17.099164398782
-7.924601785,-63.39681428,5.137421658197987,-0.28416661062500026,5e-08,0.0,129,8,82.53252921231262,255.34142400000002,mp-1086667,ScNiC2,https://materialsproject.org/materials/mp-1086667,13.90940341304557,39.51118489151242,60.68923987135202,-17.574822067157637
-8.66883138,-43.344156899999994,8.106621690023537,-0.2606862364760005,0.2121669,0.0,221,5,56.62012072260242,276.415,mp-10373,Cr3PdN,https://materialsproject.org/materials/mp-10373,51.81892027936493,62.383475637092026,85.89053049437567,8.743616069395948
-8.433188206666667,-101.19825848,11.515671436111205,-0.7520188840476187,2.75e-07,0.0,62,12,156.08880282676387,1082.460168,mp-1102041,TaNiP,https://materialsproject.org/materials/mp-1102041,60.300805865447515,24.39765848032321,58.46439842615105,11.299231285145217
-9.943261405,-119.31913686,14.2758210265159,-0.3096727383333331,3.75e-07,0.0,194,12,218.383325630134,1877.4634,mp-570670,YOs2,https://materialsproject.org/materials/mp-570670,82.3707039705872,14.270015132646284,62.82659492615391,25.088203453334998
-4.370489859230768,-56.81636817,4.660830888488516,-0.3051530384615377,0.0,0.0,139,13,199.13729933468414,558.9421587999999,mp-11029,Y(Al2Cu)4,https://materialsproject.org/materials/mp-11029,41.48410712245215,43.530973432151306,58.289488348753174,-16.160971132399474
-7.4238317925,-29.69532717,8.399002440744361,-0.02707323000000006,1.0261367000000001,0.0,225,4,46.146542470454904,233.4091,mp-30570,CrGaFe2,https://materialsproject.org/materials/mp-30570,78.93542707933248,49.61641271444288,92.44448371222164,-5.737011256553378
-7.546017646875,-120.73628235,7.911300839271492,-0.20190644354166665,4.114974,0.0,82,16,152.1268783185762,724.7776,mp-1184343,Fe2NiB,https://materialsproject.org/materials/mp-1184343,39.096112112246594,54.416269811657116,76.85269891515904,-12.38673814587499
-4.47911211,-58.22845743,5.533983698939727,-0.3597461984615381,1.8000000000000001e-06,0.0,71,13,189.66060692461343,632.0710816000002,mp-1216210,Y(AlCu)6,https://materialsproject.org/materials/mp-1216210,41.698708367847544,43.6525001137944,58.408781586527596,-15.910832621784296
-8.6067807825,-34.42712313,9.241614651295654,-0.3937091524999996,1.85e-06,0.0,65,4,55.286648345819906,307.694,mp-971751,VRh,https://materialsproject.org/materials/mp-971751,54.77423827562372,52.680981767832044,79.26458601983687,4.074620346813576
-5.7149327225,-22.85973089,5.997868738353378,-0.6188184275000008,0.0473728,0.0,123,4,47.50543267592851,171.5896722,mp-1228913,Al2CoNi,https://materialsproject.org/materials/mp-1228913,45.865452332718725,60.27945730046842,89.7407890031164,-5.431902991146175
-4.550564165,-18.20225666,7.8737837312175225,0.5120230844050004,4e-07,0.0,164,4,43.158476950768566,204.6447,mp-1225746,Cu3N,https://materialsproject.org/materials/mp-1225746,52.583648847344996,53.22707890477956,88.34864176637981,9.772428668253847
-3.8972581858333335,-46.76709823,6.631119845973571,-0.001230202031250016,0.0,0.7572000000000001,96,12,206.3949367332509,824.2080000000001,mp-1021499,Cu2Se,https://materialsproject.org/materials/mp-1021499,20.868366758272483,33.424050902514445,66.62214054080606,-22.248099953976112
-4.7455481569230775,-61.69212604,5.170667650454306,-0.464831622362637,0.0,0.0,139,13,197.92251689174117,616.30081,mp-28660,Ca2Cu6P5,https://materialsproject.org/materials/mp-28660,33.78604045510569,45.75236220691247,59.75082615313794,-1.7035093132109913
-7.331901935999999,-36.65950968,4.178078294326646,-1.2078581096250005,0.00010449999999999999,0.0,155,5,82.56078776375169,207.731,mp-1217073,Ti3S2,https://materialsproject.org/materials/mp-1217073,15.395780638448468,39.10761628111058,45.43649554099351,-0.10484463982911373
-9.24912467,-120.23862071,8.119926797465613,-0.4839157300549448,1.21e-05,0.0,6,13,188.6301031115457,922.38881,mp-27413,Mo8P5,https://materialsproject.org/materials/mp-27413,67.21195455389272,22.050826177755237,56.75148646396159,23.86787146751628
-6.46256585642857,-90.47592199,15.567590354965693,-0.6988781492857145,0.00044995,0.0,12,14,263.9558551051516,2474.592,mp-1104762,CeSbPt5,https://materialsproject.org/materials/mp-1104762,64.27150821868044,15.090237312610595,58.51312323428426,17.986944899484552
-9.726122107307694,-252.87917479,14.112317876257364,-0.2433963673076927,0.04299309230769231,0.0,166,26,366.9357943419561,3118.453975,mp-1218179,TaCo,https://materialsproject.org/materials/mp-1218179,60.94268526963845,31.331091148537933,66.04872299949501,17.141524315427812
-7.539186758333333,-90.4702411,7.364799120188885,-0.5459802390476192,2.019547175,0.0,62,12,131.4505994285389,583.007828,mp-1095664,FeCoP,https://materialsproject.org/materials/mp-1095664,43.54533633330144,53.78512660209272,76.36739469632819,-11.750390360315885
-2.204597666842105,-41.88735567,7.238606922905816,-0.2115405126315785,1.04e-05,0.0,166,19,324.57834113387594,1414.899,mp-542178,Nd2Zn15Ge2,https://materialsproject.org/materials/mp-542178,71.46668848037942,17.297207905841248,66.2032002585634,4.431493165282506
-6.699078432777778,-120.58341179,9.451867923210113,-0.14075734833333325,8.67832185,0.0,166,18,256.63278485073187,1460.76613,mp-1205432,Tb2Co7,https://materialsproject.org/materials/mp-1205432,74.04055146941455,23.716733712090797,62.54205392041441,17.2894132849532
-5.734137943333334,-34.40482766,13.006058319472224,-0.9013180145833336,0.0003763,0.0,191,6,110.94128274492864,868.9399999999998,mp-1220219,NdGa2Pt3,https://materialsproject.org/materials/mp-1220219,64.36795958474525,12.40834792343989,52.97545986573577,-8.996232274359519
-5.0946467625,-20.37858705,7.316305829413811,-0.5108255650000002,1.28e-05,0.0,225,4,48.59105594546236,214.0913386,mp-1183173,AlGaNi2,https://materialsproject.org/materials/mp-1183173,82.43840744375612,43.4714168533356,89.14415851427675,-3.6880405228634223
-9.036276944166667,-108.43532333,9.197104735343302,-0.5235581015476191,5e-08,0.0,62,12,164.65004941489872,911.935048,mp-22451,MoPRu,https://materialsproject.org/materials/mp-22451,62.363374575553856,28.880846072526246,72.34421339445433,1.2285777669975648
-7.82827079,-39.14135395,11.168126570790413,-0.08750247047599942,0.2525185,0.0,221,5,55.874156791373885,375.787404,mp-1207183,Mn3AuN,https://materialsproject.org/materials/mp-1207183,53.46774883565897,58.25951271192968,87.49755429689941,2.1360881224057624
-7.762282890000002,-46.57369734,5.932697655561771,-0.16802168999999978,0.26516609999999996,0.0,99,6,74.14152083644183,264.8894222,mp-1221662,MnAl2Cr3,https://materialsproject.org/materials/mp-1221662,44.03686400660808,45.52947969392199,87.69041495079814,-3.1363762706787632
-3.921848765833333,-47.06218519,2.633937823521018,0.2298076641666669,6.825e-06,0.0,10,12,202.9410695874365,321.904,mp-1073594,MgSi2,https://materialsproject.org/materials/mp-1073594,41.513855841584494,25.45673342934512,61.93298357686317,5.722431665146128
-5.811890581875,-464.95124655,6.778292614273207,-0.3752747965178577,0.0037806375,0.0,61,80,1041.98032805351,4253.346288000001,mp-662818,Ni5Ge2P3,https://materialsproject.org/materials/mp-662818,17.565481861039277,37.28067423486507,68.33607117417465,-22.668576350352826
-6.618004346896553,-191.92212606,8.177916825331316,-0.3120076165517242,8.599999999999999e-06,0.0,225,29,282.55817038102776,1391.5585,mp-1192799,V3(Ni10B3)2,https://materialsproject.org/materials/mp-1192799,39.21769873949471,53.62227614417842,79.17868846703615,-12.056256310327766
-5.846662473448276,-169.55321173,9.95850095722546,-0.39886848586206813,1.3731566000000002,0.0,225,29,433.3792817971247,2599.040365,mp-1193188,Hf6Ga16Co7,https://materialsproject.org/materials/mp-1193188,68.07929000398222,19.223594016901863,63.32482422935063,11.794702331530466
-8.774910099375,-140.39856159,7.067054825276821,-0.373979092410714,0.62211435,0.0,5,16,179.8687756615794,765.499918,mp-1221876,Mn3Cr3P2,https://materialsproject.org/materials/mp-1221876,43.494685558500926,54.064622742240964,77.28452931223082,-12.68438741123641
-7.140597077777778,-64.26537370000001,8.466370109235347,-0.8322209011111109,0.0004203333333333333,0.0,189,9,155.2509651947537,791.5575,mp-1078756,ZrGaRh,https://materialsproject.org/materials/mp-1078756,63.88875015309883,36.613128048925475,71.63207953095252,5.7835737867852135
-7.4125493925,-29.65019757,8.288133828549194,-0.08833131874999989,3.0001431,0.0,216,4,48.2128152428258,240.641295,mp-1066006,VFeCoAs,https://materialsproject.org/materials/mp-1066006,80.08653034386745,48.25148681451489,90.69947846814584,-4.359652928553828
-8.85207297,-35.40829188,5.407232945270481,-2.790301697708335,8.5e-07,0.0,194,4,39.22621851792665,127.7328,mp-754333,TiO,https://materialsproject.org/materials/mp-754333,30.58088619215903,54.476235797698365,67.97308160226127,-28.006522268699502
-5.421294071904762,-113.84717551,7.448841967660815,-0.33751057238095244,13.193144199999997,0.0,174,21,343.08063520649034,1538.990275,mp-1192050,La2Mn3Cu9As7,https://materialsproject.org/materials/mp-1192050,66.73763807596521,9.860572682748623,52.398823146223705,8.726901484124076
-4.67691986125,-149.66143556,6.866999679224618,0.4530954931549998,0.0688279,0.0,123,32,416.6232917834744,1722.9055999999996,mp-1181591,Cu11PdN4,https://materialsproject.org/materials/mp-1181591,50.32288148002771,60.47776543301071,85.50032310325885,6.605547727331397
-5.322374901666667,-63.86849882,5.669553379702605,-0.3380638240277776,0.0,0.0,166,12,161.88156971523827,552.7098,mp-8308,Ca3Ni7B2,https://materialsproject.org/materials/mp-8308,49.26264883302697,42.48270342003177,66.89889829174338,-5.094595484215803
-6.9758649833333335,-125.5655697,9.402239693381103,-0.3855162223148143,7.517188099999999,0.0,191,18,210.7474702073928,1193.2861449999998,mp-1181434,Er3Co11B4,https://materialsproject.org/materials/mp-1181434,73.59479383182664,25.78815653305542,60.129529743032066,15.321414812361569
-7.541938152708332,-362.01303133,9.439236664944557,-0.8731908437500001,2.55e-05,0.0,221,48,710.857197994246,4040.8259999999996,mp-628614,Ce2Si7Rh15,https://materialsproject.org/materials/mp-628614,68.70980342474967,20.925501148847406,55.56936206132946,22.889013171605125
-4.59953396125,-73.59254338,6.736974099930049,0.5304813931550001,0.6316839,0.0,123,16,212.33212185455253,861.4527999999998,mp-1188488,Cu11PdN4,https://materialsproject.org/materials/mp-1188488,50.27437886626981,60.431571603790005,85.4349205070876,6.687917854860767
-7.227263617999999,-144.54527236,8.639463228202034,-0.20289485174999985,23.9875204,0.0,166,20,235.3115076847501,1224.28023,mp-1222067,Mn4Cr(Co2Ge)5,https://materialsproject.org/materials/mp-1222067,79.11278526575046,49.363555176810635,92.02652148147267,-5.336033044487256
-5.693152276,-28.46576138,6.1985786403632375,0.08424949100000062,5.5067392,0.0,164,5,87.09871244318099,325.12829,mp-8322,Mn2ZnAs2,https://materialsproject.org/materials/mp-8322,31.58422026534675,21.30299734527016,59.188677814141634,-24.634023501126944
-5.6973216283333326,-68.36785954,8.846338513692425,-0.3042352400000006,2.25e-07,0.0,62,12,142.67910709402142,760.1071999999998,mp-17383,Ni2Ge,https://materialsproject.org/materials/mp-17383,42.85066693449211,55.37666532482515,76.37297657001345,-12.630019556409747
-7.29459415125,-58.35675321,7.456589600968643,-0.40033368458333296,0.0,0.0,62,8,62.12650276251125,278.97678,mp-20857,CoB,https://materialsproject.org/materials/mp-20857,36.521082298395726,55.609051661322816,75.43205759186856,-4.101608325372097
-8.622137454166667,-103.46564945,10.917292220099027,-1.1307986215476191,0.0,0.06780000000000097,62,12,163.2945665758349,1073.5878280000004,mp-1095427,HfCoP,https://materialsproject.org/materials/mp-1095427,60.63729768400389,24.17800384936854,57.798972729436386,11.905188189806175
-6.839863325,-82.07835990000001,8.285477833945823,-0.18949909027777775,3.4875152000000003,0.0,191,12,155.30262430559875,774.9028599999998,mp-11610,PrCo4B,https://materialsproject.org/materials/mp-11610,74.08400566554793,26.50011596271009,60.860727346243046,15.942018749668884
-4.435539655384615,-57.66201552,5.1120592492837,-0.3431882892307691,1e-07,0.0,44,13,193.437114712454,595.5066202,mp-1216017,YAl7Cu5,https://materialsproject.org/materials/mp-1216017,41.6176608174036,43.62107669430175,58.37252373794003,-15.943716421547913
-7.921559731578947,-301.0192698,7.5088605907785535,0.027315208157894608,76.2705612,0.0,8,38,538.1531530011545,2433.4971386,mp-1219956,Pr4AlFe33,https://materialsproject.org/materials/mp-1219956,75.04390115325332,36.85262977704032,87.18564953889856,-24.060157097188984
-3.48090331,-13.92361324,5.413992892932514,0.14454676446428616,1e-05,0.0,139,4,73.65477557146086,240.142762,mp-1184292,Ga3P,https://materialsproject.org/materials/mp-1184292,81.10779288315726,14.609446359595164,35.762113442769156,26.90185030228805
-6.8285190671875,-218.51261015,4.4449834994667485,-0.7508337014434527,2.5e-08,0.0,62,32,462.1825315577915,1237.1848400000001,mp-505081,Ti2NiP5,https://materialsproject.org/materials/mp-505081,14.886757656688635,36.63206934818688,24.304741297227405,-53.55825948999706
-7.41290455375,-118.60647286,7.611226899363018,-0.3859764117857143,3.721459375,0.0,82,16,175.7201212921859,805.4286480000001,mp-571370,Fe2NiP,https://materialsproject.org/materials/mp-571370,43.32175277296238,54.265812967487975,77.36661261470637,-12.873208253925249
-8.750050879166666,-105.00061055,8.122319469450666,-0.12976907625000084,9.8340269,0.0,156,12,154.05987274816903,753.5646399999998,mp-1220756,Nb3Fe8Si,https://materialsproject.org/materials/mp-1220756,64.58193824043646,47.05369299511448,78.53777552374419,-2.8619550757962062
-9.2492434185,-369.96973674,7.854111633257349,-0.07012686212499801,2.575e-06,0.0,62,40,355.6965425916487,1682.3936600000004,mp-21256,Mn7C3,https://materialsproject.org/materials/mp-21256,39.489816562701115,55.78579471020342,78.97152443491886,-13.755388090338291
-7.219375346666666,-43.31625208,6.878933015959814,-0.3370363808333323,0.2733865,0.0,160,6,87.6750005731493,363.201612,mp-1215264,ZrScVNi3,https://materialsproject.org/materials/mp-1215264,67.34335762005925,49.08530157294052,74.51071575010477,22.488015211167717
-1.7260855528571428,-48.33039548,7.185122114268041,-0.19227553446428586,1.465e-05,0.0,226,28,457.23440870080947,1978.4449400000005,mp-1193170,LaZn13,https://materialsproject.org/materials/mp-1193170,34.21028681088944,30.07907203210197,69.27517844865082,-10.633156168392908
-7.377238771666666,-88.52686526,7.877870531112943,-0.4315582966666653,0.9225018,0.0,62,12,155.80934521984588,739.18518,mp-1207799,VCoAs,https://materialsproject.org/materials/mp-1207799,45.142681303623036,50.910983005845786,74.38169596621316,-12.61239732192216
-5.798948983125,-185.56636746,6.813325319491473,-0.3915310156250005,0.0,0.0,61,32,429.7140182998583,1763.1511999999998,mp-21598,SiNi2As,https://materialsproject.org/materials/mp-21598,17.721565071678555,37.32961087809646,68.29023058729578,-22.563889162877782
-5.725191367142857,-40.07633957,6.540823929528409,-0.5159840433333339,3.65e-05,0.0,139,7,118.26676885335044,465.85,mp-1025304,Zr(TiGa2)2,https://materialsproject.org/materials/mp-1025304,64.51426776776454,33.39343027063986,70.82332796300945,4.099658110046463
-4.932871935,-19.73148774,3.047456367478377,0.4924452300000004,3.0125e-05,0.0,63,4,61.2144209257505,112.34200000000001,mp-1001113,Si,https://materialsproject.org/materials/mp-1001113,47.81953153014289,50.34699479520895,84.07504581570217,-1.9426864727322544
-5.4177325738888875,-97.51918633,11.604955165066766,-0.4426778438888882,0.0,0.0057999999999998044,63,18,284.7435522791275,1989.9779999999998,mp-31253,Ga2Ir,https://materialsproject.org/materials/mp-31253,45.92258074792436,40.61474829707233,61.17471422488491,-9.757629155799966
-3.2021272410000003,-96.06381723,8.168950161531326,-0.14036066399999972,0.00069035,0.0,40,30,465.2826659462714,2288.938,mp-1215721,Zn11SbRu3,https://materialsproject.org/materials/mp-1215721,53.85108192001571,50.789203048708075,67.72579045978593,-3.668887377082589
-4.125060671428572,-115.50169879999999,8.572433531946414,-0.4347980578571433,0.00031115,0.0,63,28,445.67550821267054,2300.77317,mp-1193258,Yb2(Ga3Co)3,https://materialsproject.org/materials/mp-1193258,68.51505916164024,18.492040692829033,64.74117896143851,6.381382514463454
-7.04134664,-84.49615968,6.65742488360543,-0.6156230880555569,0.60178745,0.0,194,12,149.6059418291449,599.7994,mp-1208276,Ti2SiNi3,https://materialsproject.org/materials/mp-1208276,47.91467617444374,54.031075274507764,78.6719260627397,-4.435615876184496
-7.4165646345,-148.33129269,6.90753830515083,-0.4566907444999998,5.55e-06,0.0,84,20,345.14747246549837,1435.7502772,mp-637263,Zr5AlNi4,https://materialsproject.org/materials/mp-637263,70.09045310948102,17.478462767387054,60.86361495905128,5.6322435696626325
-6.6384229605555545,-119.49161329,6.6993971330721305,0.05188438271763829,1.5598103,0.0,58,18,242.05074778772817,976.5468,mp-1247160,Fe4Se3N2,https://materialsproject.org/materials/mp-1247160,23.66717542281716,34.997905074669795,57.61799683141966,-5.087188020833055
-8.861542016666666,-53.16925210000001,14.3596406712776,-0.7965293733333331,0.0,0.0,227,6,109.47339395266528,946.6797,mp-2762,YIr2,https://materialsproject.org/materials/mp-2762,82.49104581756947,14.361264008671505,62.58681242703685,25.356661220782428