energy_per_atom,energy,density,formation_energy_per_atom,total_magnetization,band_gap,sgr,num_sites,cell_volume,weight,mp_id,formula,URL,tsne_cry_0,tsne_cry_1,tsne_xrd_0,tsne_xrd_1
-7.6992149275,-30.79685971,11.011875741113787,-0.6044664474999992,4.333402700000001,0.0,225,4,65.70392911132835,435.716045,mp-1185505,LuMnRh2,https://materialsproject.org/materials/mp-1185505,95.09654732038177,10.061174194759268,61.312108094793494,65.76672405503919
-3.844171140714285,-53.81839597,6.176922568249265,-0.32254313357142805,5e-08,0.0,125,14,272.724226803328,1014.4877,mp-30681,YGa6,https://materialsproject.org/materials/mp-30681,68.57949034730933,3.709722498822421,48.09795415170327,-12.744554140066395
-5.250960577058824,-89.26632981,8.267414154153272,-0.2288444470588239,0.0008115,0.0,99,17,261.372141330956,1301.3074,mp-1220167,Ni11(GeTe2)2,https://materialsproject.org/materials/mp-1220167,44.01019153469103,49.82966291502185,73.14744995113509,-15.921131170532151
-5.4058759875,-21.62350395,7.4253409719308685,-0.21819910374999907,1.8000000000000001e-06,0.0,225,4,44.15542675824719,197.44739,mp-13914,LiCo2Ge,https://materialsproject.org/materials/mp-13914,41.52474524651737,60.90081115256138,62.65967226098055,-30.40565326468688
-10.11906238,-40.47624952,14.981308453310561,-0.5602771587500008,1.0093574,0.0,225,4,67.1853491478851,606.143195,mp-1184586,Hf2CoOs,https://materialsproject.org/materials/mp-1184586,95.07595745898436,9.033386706560481,61.702173647871845,64.84612982453095
-4.5564019500000015,-50.12042145,7.809783679688794,-0.2361946572727276,0.0002465,0.0,164,11,200.5699680918612,943.313,mp-1224878,Ga2Ni5Te4,https://materialsproject.org/materials/mp-1224878,25.02439450350968,24.916208624870844,23.90267425491356,-44.40915409975104
-7.70356164875,-184.88547957,5.7900979240937005,-0.29076827652777953,3.4e-06,0.0,216,24,354.58028432624667,1236.37838,mp-1217247,Ti4CoNi,https://materialsproject.org/materials/mp-1217247,54.679504225994364,48.164570320238845,76.57326579172344,3.534234147028419
-7.8987703725,-94.78524447,11.146471393824509,-0.6697809208333337,0.318022975,0.0,62,12,184.765930660312,1240.25278,mp-1102310,HfCoGe,https://materialsproject.org/materials/mp-1102310,59.53392609404147,22.7517050831518,57.872592884057724,10.664640783075637
-7.230078262857143,-50.61054784,4.340096110305622,-1.2796798794642863,2.9085745,0.0,12,7,107.94760723109256,282.1391,mp-1078077,V2CrS4,https://materialsproject.org/materials/mp-1078077,14.614354126561773,36.67517191645352,23.448459033020438,-54.32748268416194
-4.506238878333334,-27.03743327,7.752517610478289,-0.2593114663888893,0.0,0.0,216,6,88.6671025247082,413.957912,mp-13240,ScInCu4,https://materialsproject.org/materials/mp-13240,67.27937551862854,49.33796808969533,74.22042688426231,23.285358160105144
-2.299702238333333,-13.79821343,7.2339021602026525,-0.24995934583333346,0.7235489,0.0,191,6,107.2366008394712,467.16100000000006,mp-394,CeZn5,https://materialsproject.org/materials/mp-394,74.43636582608279,15.052346721908323,65.17530778173041,1.7501266827941353
-7.9993935489705885,-543.95876133,7.518440346441751,-0.0520731162009808,125.6125122,0.0,38,68,937.7417639527127,4245.823399999998,mp-1220130,Pr7Y(Fe14B)4,https://materialsproject.org/materials/mp-1220130,71.75657651646041,32.502990898932296,84.38121487670533,-6.72624943857236
-4.335470086153847,-56.36111112,6.1662560851661175,-0.35763644076923057,1e-07,0.0,71,13,189.069153836756,702.0905816000001,mp-1217839,Tb(AlCu)6,https://materialsproject.org/materials/mp-1217839,33.95289250417872,13.896193818949918,56.9704944821811,-15.935297097253654
-9.14153649125,-73.13229193,7.756325490530439,-0.6166380746874989,0.0,0.0,194,8,116.78308772629116,545.4901199999998,mp-9989,Nb2AsC,https://materialsproject.org/materials/mp-9989,58.1542189794727,6.515938828090651,44.56853623373552,26.28640123310881
-7.3422426622222225,-132.16036792,7.021700858565855,-0.1880634088888876,12.822086099999998,0.0,36,18,271.6648939301989,1148.75325,mp-28832,Mn5As4,https://materialsproject.org/materials/mp-28832,23.044952886372773,35.79849307763427,63.60092403366615,-21.560600840378623
-5.535142212777778,-99.63255983,4.984203627018995,-0.6571077711111113,6.666666666666667e-08,0.0,191,18,287.0882066403619,861.7117973999999,mp-5063,YAl3Ni2,https://materialsproject.org/materials/mp-5063,40.400487616536886,5.3880288553237285,61.745034781840346,10.866750326196156
-6.921272123333334,-41.52763274,7.554207365494773,-0.1579622079166659,7.7632613,0.0,191,6,93.39160350635973,424.86175999999995,mp-1025065,LaMn2Ni3,https://materialsproject.org/materials/mp-1025065,75.86785834469465,15.942264135465619,85.27054618064699,-11.52656441222859
-9.87600655857143,-138.26409182,14.616654226880353,-0.4439419185714278,0.0,0.0,63,14,146.07140710920382,1285.77239,mp-27768,Co(BW)3,https://materialsproject.org/materials/mp-27768,59.527769356732904,28.23802076293432,65.73007054330202,14.38311411692976
-7.525784835833334,-90.30941803,11.225126233340216,-0.7407080041666667,1.7e-06,0.0185000000000004,62,12,183.32937750935062,1239.2936,mp-1102702,HfNiGe,https://materialsproject.org/materials/mp-1102702,59.53670350566861,22.75425461813077,57.84066672919218,10.684627252023796
-9.24857187125,-73.98857497,11.152309193751853,-0.009245216250000965,0.6072350000000001,0.0,194,8,106.65393157416607,716.2960899999998,mp-865045,MnRu3,https://materialsproject.org/materials/mp-865045,55.74503509427658,63.32711783095955,83.46586863292687,6.129244516712675
-7.028816097777778,-63.25934488,8.364351006134429,-0.4731781827777779,1.3333333333333334e-07,0.0,189,9,160.1311829974692,806.601585,mp-30563,ZrCoSn,https://materialsproject.org/materials/mp-30563,65.931812428089,19.377480840790025,60.881515046306895,19.36982746696453
-1.3473385887499998,-129.34450452,5.949176230963625,-0.019260407916666427,0.0,0.0,12,96,1569.1056887302814,5621.6,mp-580931,MgZn5,https://materialsproject.org/materials/mp-580931,49.45732719585752,42.37599303571246,66.71247523804928,-4.667737628149403
-4.927328165,-19.70931266,7.669610657932812,0.12843636333333386,0.9789688,0.0,225,4,64.24230712417425,296.719,mp-1207191,TiCu2Sb,https://materialsproject.org/materials/mp-1207191,94.74306097995655,15.24160344370739,59.81114734303574,61.77177427126127
-7.37753825,-29.510153000000003,6.423142292404098,-0.5737743141666671,0.0,0.125,216,4,49.02313849451144,189.6267336,mp-998980,TiAlFeCo,https://materialsproject.org/materials/mp-998980,82.59343804384805,43.776773922070454,89.1377276978269,-3.4432324464982607
-5.268083282,-26.34041641,8.957769537670178,0.2513741015240001,0.594364,0.0,221,5,57.01186123534001,307.5502,mp-1207194,Cu3RhN,https://materialsproject.org/materials/mp-1207194,50.325855495176064,62.34144930209981,86.20318266211744,9.789008271284986
-7.290583037999999,-109.35874557,5.4844522843574515,-0.9674136347708326,5.2000000000000004e-05,0.0,148,15,282.45335089940164,932.8910000000001,mp-1222346,LiMo6(SeS3)2,https://materialsproject.org/materials/mp-1222346,28.166394037514053,33.98266895722712,32.609817826103594,-46.739223816566756
-6.21776357,-37.30658142,7.069490029927636,-0.3563113345833339,3.5264154000000003,0.0,187,6,93.2283185907042,396.9052536,mp-1222882,LaMnAlNi3,https://materialsproject.org/materials/mp-1222882,74.53987373976376,17.606368666031067,86.42698815309855,-10.696434820836524
-7.026369711666668,-42.15821827,17.29861430459343,-0.6075391649999998,3.35e-06,0.0,227,6,107.02676231577117,1114.948,mp-1584,YbIr2,https://materialsproject.org/materials/mp-1584,80.56167414690631,10.925688986069678,61.25986534051654,27.831802599499746
-7.1440340525,-28.57613621,11.697354676242947,0.6563733549999995,0.52936,0.0,216,4,64.61901615703097,455.196495,mp-631559,TlCoMo2,https://materialsproject.org/materials/mp-631559,92.18801630278776,13.578285963226287,57.259816412446995,62.790166751844474
-6.484086363333333,-38.90451818,6.557060237478929,-0.5210696916666665,0.0,0.0,227,6,82.2247779865215,324.685424,mp-850,ScNi2,https://materialsproject.org/materials/mp-850,63.36114231183768,49.62655498339694,80.05803113486563,-3.5208321079230536
-7.278958859166668,-349.39002524,10.6843546623295,-0.6422943241666653,1.9041666666666668e-05,0.0,55,48,795.7556792751137,5120.106,mp-683893,HfGe2Rh,https://materialsproject.org/materials/mp-683893,65.28288942860307,19.816917021445445,57.16411545569023,21.384687403427574
-3.924188858214286,-109.87728803,6.791233422999015,-0.04267975199776787,2e-07,0.0,2,28,472.74662422240016,1933.428,mp-673655,Cu9Se5,https://materialsproject.org/materials/mp-673655,12.959372905006823,20.02191796135458,68.32970543207904,-14.241689185533554
-7.139143726666667,-42.83486236,8.596450718444807,0.08298374999999918,1.24480065,0.0,194,6,88.29466907570837,457.093,mp-1071423,VFeSb,https://materialsproject.org/materials/mp-1071423,51.1968005320837,41.48727571076037,81.76744410092455,4.846543936206558
-7.38645931,-51.70521517,4.857288172716546,-1.26096961232143,2.5206582,0.0,8,7,111.47651375139408,326.083,mp-1216571,V2MoS4,https://materialsproject.org/materials/mp-1216571,26.919896595114185,30.440586647524363,31.766124686209523,-50.866758872804425
-5.1467506675,-41.17400534,4.464168475031698,-1.6973712815475004,3.7090954,0.0,59,8,141.2319987686873,379.6860064,mp-1079859,CaFeAsF,https://materialsproject.org/materials/mp-1079859,30.86359566514859,21.736877094264326,56.060606598011844,-5.149917778983268
-8.249885090952379,-173.24758691,8.072790956873515,-0.2033613507028579,38.6095398,0.0,12,21,266.42316118229223,1295.2291,mp-1217723,Tb2Fe17N2,https://materialsproject.org/materials/mp-1217723,76.45084660073908,34.49277689137727,87.88543975083465,-24.38685832834771
-10.716698215,-21.43339643,15.771016441368653,-0.26064906118999964,3e-07,0.0,187,2,20.831388421065963,197.8467,mp-991,WN,https://materialsproject.org/materials/mp-991,31.990125831293053,48.12794711442418,68.02733104181229,9.853560392478467
-7.509797418571429,-157.70574579,7.888398131984539,-0.10452235011904808,25.771373800000003,0.0,12,21,274.3928372777544,1303.5044,mp-1220755,Nd2Ga3(Fe7C)2,https://materialsproject.org/materials/mp-1220755,77.8539379590282,34.35016911546485,88.52217173573929,-25.974352463441086
-5.100474713809524,-214.21993798,7.343775263766839,-0.5316385212074828,0.0,0.11079999999999934,58,42,624.5846438325715,2762.241144,mp-21763,Nd(Cu2P)2,https://materialsproject.org/materials/mp-21763,65.18586473658732,9.50458929155156,60.89480312729393,-0.6183961477264966
-7.026094015,-28.10437606,11.15470169793525,0.1371845450000002,8.0615579,0.0,139,4,54.261342154742664,364.501569,mp-1184272,Fe3Au,https://materialsproject.org/materials/mp-1184272,53.203075032931345,58.580235423780096,87.67479234015524,2.530832670813649
-8.72833366,-34.91333464,5.631693778332154,-0.8494676933333345,0.0,0.0,63,4,36.41619772088116,123.505,mp-9973,VB,https://materialsproject.org/materials/mp-9973,35.294726935657245,54.91020076691873,75.17053472793074,-3.2049086970020912
-6.390859847435897,-249.24353405,8.271565656436342,-0.9200694158424912,0.0002154,0.0,174,39,515.153244675736,2566.108826,mp-1212289,Ho6Ni20P13,https://materialsproject.org/materials/mp-1212289,57.1918458274297,33.27542484858982,62.21874303819887,-2.314470194864316
-6.30060916,-31.5030458,5.387587034084466,-0.5368639219999999,1e-07,0.0,164,5,61.95719467871139,201.0189286,mp-10010,Al(CoSi)2,https://materialsproject.org/materials/mp-10010,41.01584883758704,60.30926182272951,63.25735645851807,-29.91598067682439
-4.289605215,-17.15842086,9.696752223467637,-0.3508247124999997,2.01e-05,0.0,225,4,63.66652577500918,371.782,mp-865806,LuGaCu2,https://materialsproject.org/materials/mp-865806,92.34378575511246,13.710321431015046,57.034611262838744,62.450061419900635
-9.396883205,-56.38129923,5.475219587074489,-1.1821540167455555,0.0576413,0.0,71,6,57.54794121712389,189.7502,mp-1245951,Ti2CrN3,https://materialsproject.org/materials/mp-1245951,25.48579346255473,54.69148207414072,70.30943366580767,8.07134231366018
-5.830923665,-23.32369466,11.065528898366587,-0.7197034312500001,1.62e-05,0.0,225,4,66.05136148831056,440.15421,mp-865299,TmZnRh2,https://materialsproject.org/materials/mp-865299,95.60755623766451,9.880302734807511,61.78264152221115,65.14156528863157
-4.324307913529412,-294.05293812,8.538458839450277,-0.17127892764705918,1.3e-06,0.0,216,68,1204.897680964257,6195.56,mp-1213597,Dy3Cu20Sb11,https://materialsproject.org/materials/mp-1213597,70.11569569794085,13.825640131847251,55.291947303011504,-5.672781304150039
-5.965383758,-238.61535032,7.747104278239587,-0.5356703580000008,0.01114736,0.0,107,40,620.7447249122472,2896.03195,mp-1201034,ZrGa2Co,https://materialsproject.org/materials/mp-1201034,62.68759395456114,36.017872743723046,72.01461049741913,3.860020358310709
-3.916188655833333,-46.99426387,2.6147191469165776,0.23546777416666725,2.35e-06,0.0,1,12,204.43272454806944,321.904,mp-1262288,MgSi2,https://materialsproject.org/materials/mp-1262288,41.43921383406421,25.519023259587737,61.43717007707134,3.819674258668544
-7.53248180125,-60.25985441,6.366075697331077,-0.5976691923214297,0.375907975,0.0,62,8,90.58387022693356,347.275048,mp-1005,FeP,https://materialsproject.org/materials/mp-1005,17.249726215057855,37.53368617176884,68.16076023679837,-23.712606535963545
-7.879434813888888,-141.82982665,7.206670520973589,-0.4919066935185189,1.26e-05,0.11150000000000038,86,18,187.43958036209918,813.48,mp-1006322,Ce(FeB)4,https://materialsproject.org/materials/mp-1006322,56.72340750300062,24.872140314410448,51.80364143084432,-3.1331661930160326
-6.39967843,-115.19421174,8.272118305792219,-0.2754409150000004,3.6887127,0.0,156,18,231.20243476150105,1151.75485,mp-1216007,YZr2Ni15,https://materialsproject.org/materials/mp-1216007,64.66280141186465,46.649623980394566,78.92569069815646,-1.3516062564844835
-7.6582224725,-30.63288989,12.034621179498775,-0.3606658275000001,4e-07,0.0,139,4,49.262794098262994,357.02808,mp-570491,TaNi3,https://materialsproject.org/materials/mp-570491,49.876402761372255,67.56074253411147,73.36708974236622,-17.653741303453415
-6.072808700666668,-182.18426102,9.408912168159238,-0.2960267103333337,5.4508515,0.0,186,30,508.6660368594569,2882.19304,mp-1212440,Ho3(Co2Sn)4,https://materialsproject.org/materials/mp-1212440,68.6641098809031,13.923707744481714,49.32399749285281,-10.050161546815312