energy_per_atom,energy,density,formation_energy_per_atom,total_magnetization,band_gap,sgr,num_sites,cell_volume,weight,mp_id,formula,URL,tsne_cry_0,tsne_cry_1,tsne_xrd_0,tsne_xrd_1
-7.361715424482759,-213.48974731,8.309917172390055,-0.16673444448275926,17.6777205,0.0,225,29,281.046594919369,1406.4552949999998,mp-542727,Cr2(Co7B2)3,https://materialsproject.org/materials/mp-542727,39.19734545655,53.72591626909933,79.08860911708594,-12.144639524179325
-8.37739847,-67.01918776,17.86985887034473,-0.3731990112499979,7.655e-05,0.0,140,8,112.38908761942429,1209.4730000000004,mp-1841,SiIr3,https://materialsproject.org/materials/mp-1841,54.861565415471624,41.6853721304356,78.65464420458423,11.534855792258739
-4.153419791666667,-49.8410375,5.000735737569787,0.05534622678083364,2.9653611,0.0,1,12,194.94805513690537,587.0887,mp-1226184,Cu7S4N,https://materialsproject.org/materials/mp-1226184,13.485047945836689,25.496498988221518,26.195151289100274,-48.14119236899843
-9.770694541666666,-58.62416725,9.09324511611489,-0.3029569705555548,1.245e-05,0.0,140,6,74.02776770201987,405.38199999999995,mp-2501,BMo2,https://materialsproject.org/materials/mp-2501,60.14739833753136,29.295087841939374,65.94148450032418,15.037123227281478
-5.676364997777778,-51.08728498,6.0562314051260575,-0.6581731544444439,4.566666666666666e-06,0.0,189,9,149.00019328933658,543.4257359999998,mp-1078430,ScCuGe,https://materialsproject.org/materials/mp-1078430,47.290453960073975,44.87224266358688,63.719976460449885,-8.873966882098033
-5.122215175,-20.4888607,11.521301940874546,0.13684516749999975,6e-07,0.0,221,4,55.24130333751993,383.2802,mp-976830,Ni3Pb,https://materialsproject.org/materials/mp-976830,53.40610264944543,58.72496503526136,87.51496012240277,2.3761701455930444
-4.76905165625,-38.15241325,9.612364376596766,-0.6646463562500005,1.5e-07,0.0,198,8,121.71503978140959,704.572,mp-1078526,GaPd,https://materialsproject.org/materials/mp-1078526,65.80644471284178,37.62092441092947,73.72737350328302,2.987400364340977
-8.8389130825,-35.35565233,8.179463061450305,0.034244862499999584,5.7062864,0.0,139,4,52.87304018276146,260.44138,mp-999391,NbFe3,https://materialsproject.org/materials/mp-999391,52.6748853256013,53.791944835678606,88.08153063401573,6.186834577449876
-7.2522372046875,-232.07159055,6.073762337346352,-0.629446530572916,0.0246148,0.0,6,32,540.3333165829887,1976.38,mp-1217254,Ti20(Ge3Sb)3,https://materialsproject.org/materials/mp-1217254,52.41030426242241,43.683735104197865,65.8955263783803,-3.697180287995226
-5.7647358916666676,-34.58841535,7.4759259169536705,-0.4667824529166668,3.1e-05,0.0,65,6,88.99400418905766,400.6606086,mp-1222929,LaAlNi4,https://materialsproject.org/materials/mp-1222929,74.36129018607204,21.470809081922322,89.16549466091503,-13.337428166536059
-7.670261437916667,-368.17254902,5.875308236008692,-0.7057646479166664,0.12644236666666667,0.0,64,48,689.3009338734561,2438.88,mp-1199521,ZrFeSi2,https://materialsproject.org/materials/mp-1199521,64.45715377091575,27.62110818062643,62.79263127459996,9.880705163656552
-6.137182016363636,-135.01800436,7.829618571812582,-0.14515215545454455,12.2473849,0.0,12,22,289.9976858769449,1367.37,mp-570920,Ga5Fe6,https://materialsproject.org/materials/mp-570920,44.63708565819745,47.90240954163972,75.19072032305822,-7.0897167457882535
-8.629623079,-345.18492316,7.783476563028473,0.059900604375000915,11.95926155,0.0,62,40,364.3422431217208,1707.7884,mp-21717,Fe7C3,https://materialsproject.org/materials/mp-21717,39.495934984610976,55.87590381779109,79.13010544083602,-13.860027741815829
-7.915556136052633,-601.58226634,8.021446649069238,-0.3149803007894748,9.40901725,0.010699999999999932,62,76,1201.6796090540865,5804.86736,mp-29906,Mn4Nb7Ge8,https://materialsproject.org/materials/mp-29906,64.72589392343495,35.398821031575366,61.5670122181325,4.439793039447687
-8.356044343246754,-643.41541443,6.945906291808032,-0.07455084667896239,150.888775,0.0,6,77,903.3949594987524,3778.8312,mp-1097708,Fe65(BN)6,https://materialsproject.org/materials/mp-1097708,80.47061258583861,50.66797280531282,83.57462891555355,-0.23346201480485226
-4.428869961111111,-79.7196593,7.782287608215093,-0.2409801793750006,0.0,0.0,14,18,325.2641474313137,1524.384,mp-1212900,Cu2Pd3Se4,https://materialsproject.org/materials/mp-1212900,23.376783558910518,35.093859446680376,56.38517225335061,-3.2737323391922812
-9.543476740769233,-124.06519763,9.61410288592834,0.025205909230768733,1.2443883999999998,0.0,166,13,166.94249383958203,966.555,mp-569594,Fe7Mo6,https://materialsproject.org/materials/mp-569594,64.19634415431383,43.4950807089641,77.31860492580296,-0.5871491737035206
-5.206152145,-83.29843432,5.590660782980961,-0.5634915780357144,0.0,0.0,62,16,205.14062125705388,690.6622480000001,mp-17942,MgNi2P,https://materialsproject.org/materials/mp-17942,40.82734819959808,45.00885439140247,67.75793079605742,-15.66879398802492
-10.643869425,-42.5754777,15.908219332890429,-0.18782027119000053,3.9399999999999995e-05,0.0,31,4,41.303449796662505,395.6934,mvc-15387,WN,https://materialsproject.org/materials/mvc-15387,32.65382282641523,48.203072373828505,65.74074619174473,0.7569703163459821
-10.25529505,-41.0211802,8.788245993469603,-0.13425591666666747,9.3e-06,0.0,71,4,63.428057104306205,335.68699999999995,mp-1017983,TiMo3,https://materialsproject.org/materials/mp-1017983,95.00406148318241,16.7387302246889,61.779273166458424,61.18475180316222
-5.534385123333332,-49.80946611,10.188401557305868,-0.5413750883333337,0.0,0.0,189,9,139.5853949629427,856.44,mp-423,GePd2,https://materialsproject.org/materials/mp-423,62.136024877483756,37.04542361344034,72.20380202607562,3.303680718183939
-4.937910781555555,-444.41197034,10.052456259388997,-0.17254811876736148,0.0,0.0,14,90,1482.3388023747455,8973.68,mp-568593,Pd34Se11,https://materialsproject.org/materials/mp-568593,63.433134107082005,34.932378508325925,70.70914378081405,3.5805084898694948
-7.5353097325,-90.42371679,6.122623151229612,-0.06774579541666625,0.3089215,0.0,123,12,152.5095210727587,562.3224157999999,mp-1228973,Al3ZnCr8,https://materialsproject.org/materials/mp-1228973,44.10541232135853,45.57898701356146,87.32686343680113,-3.145797458467102
-3.9264502239583337,-565.40883225,6.684578345065086,-0.030422240156249968,2.0833333333333334e-09,0.07629999999999981,14,144,2456.9320434532096,9890.496,mp-1097707,Cu2Se,https://materialsproject.org/materials/mp-1097707,16.42581785796114,25.282879750183522,19.745169138946398,-49.451017428045034
-3.936932427916666,-94.48637827,2.5303186038404206,0.2147240020833336,0.00032625,0.0,2,24,422.5034415198658,643.808,mp-1073647,MgSi2,https://materialsproject.org/materials/mp-1073647,40.67690410910181,24.307076903576256,59.6543952806736,3.2492829168868687
-9.995436152083334,-239.89046765,15.197383759924287,0.10890770458333304,2.2775e-05,0.0,14,24,350.0839701129153,3203.9959999999996,mp-669547,Re2Si,https://materialsproject.org/materials/mp-669547,35.87573771427399,33.75027895360271,61.39560540534675,-8.359675002126975
-9.426584355,-56.55950613,8.256159816701,-0.029490538333334367,3.5678285000000005,0.0,191,6,87.78703338783106,436.475,mp-1181137,GdFe5,https://materialsproject.org/materials/mp-1181137,77.59895592824977,17.165557920106387,86.4071293116301,-12.827613399141555
-5.002041143928572,-140.05715203,8.744697212901896,-0.1984999553571427,6.99904305,0.0,72,28,475.38285378447677,2503.451600000001,mp-1213431,EuIn6Ni7,https://materialsproject.org/materials/mp-1213431,71.38558482948748,18.088815666615808,67.30119269501594,1.0655969039697195
-8.457125637222221,-304.45652294,8.386408207236357,-0.8652140759920649,2.3199999999999998e-05,0.0,189,36,541.8456493697925,2736.544394,mp-1201667,Y5P12Ru19,https://materialsproject.org/materials/mp-1201667,57.37288979053072,30.09148313716998,51.8913716763817,10.758071937401787
-7.243594355,-28.97437742,8.60219469203517,-0.24309831874999954,5.0010187,0.0,225,4,47.37977702894985,245.444435,mp-19850,MnCo2Ge,https://materialsproject.org/materials/mp-19850,79.27532582985751,49.18240514425611,91.48996438323366,-4.829350395569542
-5.7937477233333325,-34.76248634,12.712595531602757,-0.9340118012500002,3.77e-05,0.0,191,6,112.80523111503962,863.6034699999999,mp-1223084,LaGa2Pt3,https://materialsproject.org/materials/mp-1223084,64.3628273208064,12.401928954898429,53.10175314464734,-8.896350178592732
-6.7139751016666676,-40.28385061,5.702483955854095,-0.4234483833333336,0.0001618,0.0,166,6,85.5221354479778,293.6929476,mp-1219430,Sc2AlCo3,https://materialsproject.org/materials/mp-1219430,63.91400382108609,50.03364146719942,79.62398105165862,-3.369353988117078
-8.249514037727273,-181.48930883,7.996752040219954,-0.19918496646091005,30.428431899999996,0.0,166,22,268.3078019102976,1292.1051,mp-1190790,Sm2Fe17N3,https://materialsproject.org/materials/mp-1190790,77.53648328727894,34.37579282169618,88.83038023979663,-25.364647698423266
-7.439802100344827,-215.75426091,7.9689750787153,-0.3376493962068972,15.1157763,0.0,225,29,289.0440728309657,1387.1309,mp-1193476,Ti3(Co10B3)2,https://materialsproject.org/materials/mp-1193476,39.35050241343947,53.678481524161825,79.30051570365788,-11.389690146568425
-7.9393606575,-31.75744263,7.347181063803013,-0.2813990987499997,3.0000002999999995,0.0,216,4,44.040332491331135,194.859795,mp-1213726,CrFeCoSi,https://materialsproject.org/materials/mp-1213726,42.26794198827563,60.14945675202211,91.63917356685066,-8.709859210922849
-8.883169089375,-142.13070543,7.968341799254527,-0.3774661512499993,6.1e-05,0.0,121,16,227.28620112476744,1090.6664,mp-1219304,Si6NiMo9,https://materialsproject.org/materials/mp-1219304,62.8568087295246,27.74099921484073,64.60590823585356,11.330605132697544
-7.084994046111111,-255.05978566,8.483195121429826,-0.8933903361309521,7.4107837,0.0,189,36,453.3575337224456,2316.0674489999997,mp-1224618,Ho5Co19P12,https://materialsproject.org/materials/mp-1224618,56.76326427274511,33.542589642658804,62.68243126879304,-2.9941086486806765
-1.894592264473684,-71.99450605,7.223859236774096,-0.25220179421052624,2.675e-05,0.0,194,38,640.7673790437698,2787.536600000001,mp-976812,Pr2Zn17,https://materialsproject.org/materials/mp-976812,71.40246941658984,17.420934674906952,66.41376899493896,4.368434071401136
-6.209004085416668,-149.01609805,9.035775443022162,-0.3917309179166679,8.333333333333333e-08,0.0,194,24,348.65151599475854,1897.1772,mp-580354,CeNi3,https://materialsproject.org/materials/mp-580354,74.0921443471384,23.440933837466755,62.68100533403626,17.278240135829275
-4.7959387725,-38.36751018,5.4162578308627864,-0.5394278512499993,1e-07,0.0,63,8,149.6446033855446,488.1028,mp-13512,CaNiGe2,https://materialsproject.org/materials/mp-13512,31.160398133905407,19.618202956681962,25.10957028042713,-50.481484158844424
-7.85691487375,-125.71063798,7.221008120938711,-0.3453695365625009,13.7961975,0.0,221,16,173.55556933696968,754.7225,mp-19800,Fe11Si5,https://materialsproject.org/materials/mp-19800,42.08313275779768,60.12808944247438,91.66085520639513,-8.810426748769485
-7.9414639875,-63.5317119,11.44344379290943,-0.08238360999999994,8.661142300000002,0.0,123,8,105.23807641172823,725.238,mp-11798,Fe3Pt,https://materialsproject.org/materials/mp-11798,52.98975769658379,58.83681237808354,87.9648644473222,2.9536598499136946
-7.59110192125,-60.72881537,8.468671279932286,-0.12172567625000053,0.215604,0.0,194,8,105.10825413377407,536.0471699999998,mp-1188034,ZrCo3,https://materialsproject.org/materials/mp-1188034,52.66370974828719,53.0751240595845,83.30239609506403,4.731395965675539
-7.3460255725,-29.38410229,8.508788671010013,-0.06863066000000018,2.0538547,0.0,225,4,46.125265597965495,236.35104500000003,mp-1018046,MnGaFe2,https://materialsproject.org/materials/mp-1018046,78.96894255570581,49.66610120496275,92.65901747600245,-5.721771995585068
-1.9179592342105265,-36.44122545,7.154721125500225,-0.2605255978947367,1.2e-06,0.0,166,19,322.55027670178686,1389.7639400000005,mp-30709,La2Zn17,https://materialsproject.org/materials/mp-30709,71.4190319876979,17.442095249734187,66.45997627748311,4.317240509406707
-7.318786025833332,-87.82543231,7.839674888173585,-0.1057714291666656,13.155569,0.0,47,12,179.6992157612354,848.389225,mp-1226973,Ce2(MnNi)5,https://materialsproject.org/materials/mp-1226973,77.173644532472,16.669958973770175,85.39458713738105,-12.537254062032922
-4.8534275070833335,-116.48226017,8.854962691740326,-0.14669786930555576,6.98638605,0.0,127,24,359.60057359407995,1917.6,mp-1213603,GdIn2Cu9,https://materialsproject.org/materials/mp-1213603,68.72518731491364,31.005956734249796,67.86446700582796,5.222459942679831
-10.654627972692307,-277.02032729,14.764478666946475,-0.05907293259615516,0.99516955,0.0,227,26,326.1858531385769,2900.2414,mp-624243,Fe6W6C,https://materialsproject.org/materials/mp-624243,60.75262571105818,31.27518392769495,66.57897186217146,16.67032005495666
-3.9436301493333326,-118.30890448,6.528179603360331,-0.2877093276666661,6.5e-07,0.0,186,30,561.3535872795267,2206.884,mp-570710,Ca3(Cu2Sn)4,https://materialsproject.org/materials/mp-570710,41.20273367727594,42.079252848422996,61.92369278388143,-9.418915749568324
-7.704867080588236,-523.93096148,7.389535475875679,0.2176930184313736,31.540107075,0.0,136,68,965.785542947148,4297.825199999998,mp-683944,Pr2Fe14B,https://materialsproject.org/materials/mp-683944,70.85790388862317,32.794076371679324,63.21801356071815,4.987216357522895
-6.96637376,-83.59648512,7.694079846340212,-0.5340909057142854,0.3053328,0.0,6,12,128.4391848328815,595.120813,mp-1226111,Co7NiP4,https://materialsproject.org/materials/mp-1226111,43.17632922058545,54.26868141192724,76.63873434713916,-12.171537415739744
-6.892699824166668,-165.42479578,7.947248754807947,-0.09383655083333292,3.5606057625,0.0,216,24,393.872028054383,1885.04992,mp-1221866,MnCoSb,https://materialsproject.org/materials/mp-1221866,52.01990947597265,41.37112091961645,62.33417246831755,-14.441433605926472
-5.8890313138095225,-123.66965759,7.209872687987282,-0.027204716666666344,0.00017519999999999998,0.0,12,21,300.4778643651074,1304.6409,mp-18654,Cr3Ga4,https://materialsproject.org/materials/mp-18654,49.983513936453754,48.23510290260264,74.83380602898652,0.5441560354526379
-5.23257601,-41.86060808,7.407334268308103,-0.8058601599999999,2.1000000000000002e-06,0.0,63,8,150.09494813712422,669.5437000000002,mp-1079075,YGa2Pd,https://materialsproject.org/materials/mp-1079075,69.23543719234175,15.994098918628008,59.871405570705434,10.655694213800516
-8.49628666125,-135.94058658,7.8263194512850305,0.1549548865624999,4.797426525,0.0,12,16,152.37949136623845,718.1828,mp-1205444,Fe3C,https://materialsproject.org/materials/mp-1205444,39.5252065467441,55.89620957703797,79.23900604752562,-13.966328656275726
-6.560582852380952,-137.7722399,9.167289695632403,-0.3543221045238089,0.00011840000000000002,0.0,65,21,266.41295674201666,1470.7782799999998,mp-863728,Ho4Ni13C4,https://materialsproject.org/materials/mp-863728,56.114702251081155,30.246917293074787,61.173352551582404,8.635424724913124
-6.2155577375,-49.7244619,5.24602790655571,-0.8689914585714282,0.0,0.0,129,8,135.72879787149495,428.7987480000001,mp-30208,YCuP2,https://materialsproject.org/materials/mp-30208,44.48023294295425,26.40897731826753,51.25427946775977,-3.7299273040485583
-7.93836485,-111.13710790000002,9.95374225200416,-0.17004883357142933,5.40386865,0.0,136,14,202.42248486737796,1213.37782,mp-1104766,U(Fe2Ge)2,https://materialsproject.org/materials/mp-1104766,64.3470631078547,13.898103063372615,58.60229124004159,-8.456817461530719
-8.999937925555555,-80.99944133,9.12796395550575,-0.4872190829365069,0.2845071,0.0,189,9,124.42290716717432,683.951286,mp-1095073,MoPRu,https://materialsproject.org/materials/mp-1095073,62.36579931692218,28.84618410714252,72.75074016794474,1.0642440734818366
-3.554574794583333,-85.30979507,7.9248378025080655,-0.22161818791666715,1e-07,0.0,227,24,323.73634904949796,1545.0152,mp-16227,Zn3Ni2Ge,https://materialsproject.org/materials/mp-16227,62.56792359595322,44.79233914184335,78.58912818489046,2.502826330301004
-8.0165467125,-32.06618685,7.365733991375043,-0.3153442687500005,5.0542083,0.0,225,4,44.100897161734096,195.6205,mp-2199,Fe3Si,https://materialsproject.org/materials/mp-2199,42.23768032483607,60.189197000413465,91.62676168160317,-8.734196329418937
-6.589288371944446,-237.21438139,8.684952735662282,-0.8211879848809526,3.1540904,0.0,189,36,450.57845893375884,2356.615849,mp-1207639,Yb5Co19P12,https://materialsproject.org/materials/mp-1207639,56.65521081515611,33.58752252314245,62.69834610272947,-2.9521010622263635
-5.515752319090908,-121.34655102,9.420970412480008,-0.5643830886363642,4.125e-05,0.0,229,22,347.7245450347942,1972.79472,mp-1191722,Ho3(GaNi3)2,https://materialsproject.org/materials/mp-1191722,71.02135611215593,23.332939169685837,60.6687271791457,13.187070935918788
-4.7255744175,-18.90229767,12.41322558213838,-0.13689798999999958,0.0,0.0,221,4,51.59871101581497,385.722,mp-12086,Cu3Pt,https://materialsproject.org/materials/mp-12086,52.900882225846146,59.24553630047764,88.1080637646241,3.0770409950421307
-3.778982215,-22.67389329,9.104456355657053,-0.28620294999999923,1e-06,0.0,187,6,90.63692131360945,496.94699999999995,mp-1215637,YbGaCu4,https://materialsproject.org/materials/mp-1215637,76.79778112911447,17.24289217427134,85.2235273018982,-12.447926644832465
-7.350608232758621,-213.16763875,8.449108893274202,-0.11789119344827514,13.157798499999998,0.0,225,29,276.7877987381894,1408.344035,mp-1193450,Mn3(Co10B3)2,https://materialsproject.org/materials/mp-1193450,39.14735683735035,53.76028406162861,78.88799933305,-12.342246034463004
-8.036088329444445,-144.64958993,10.238512956233102,-0.5958776599999993,6.973333333333333e-05,0.0,166,18,183.3888585763085,1130.7347550000002,mp-1106407,HfCo3B2,https://materialsproject.org/materials/mp-1106407,58.76148282678346,30.238123345196577,73.32212268679002,15.367981854173337
-5.829453352857143,-163.22469388,6.174618798330943,-0.7634055353399997,0.000121875,0.0,227,28,380.626789926212,1415.3388000000002,mp-697075,Ti3Zn3N,https://materialsproject.org/materials/mp-697075,54.46322057909143,47.77108760885624,76.29865252591222,3.7689117876395337
-7.36132191525,-294.45287661,6.715663571272238,-0.39972396824999945,4.64625e-05,0.0,60,40,566.5233990621313,2291.172,mp-669501,Si3Ru2,https://materialsproject.org/materials/mp-669501,29.015463392532983,28.55107838632986,61.58397253571204,-9.145923939622417
-8.858857357692306,-115.16514565,9.868429411306847,-0.017009762307691946,1.9786523999999999,0.0,166,13,166.2776032477421,988.172365,mp-567747,Co7Mo6,https://materialsproject.org/materials/mp-567747,64.16978140146378,43.56909854674544,77.38064159756496,-0.713352099816544
-7.948256957083332,-190.75816697,9.003408713424259,-0.08747640958333254,2.495175516666667,0.0,186,24,298.4584828647905,1618.2357899999995,mp-570557,NbCo3,https://materialsproject.org/materials/mp-570557,64.7381832706626,46.32039170170575,77.57255702340447,-1.0467826776776712
-7.768668228333333,-46.61200937,10.26889613679843,0.06622929833333302,0.0537998,0.0,191,6,83.6729085692177,517.43945,mp-1217368,ThFe3Co2,https://materialsproject.org/materials/mp-1217368,75.21726306081581,20.275288293530828,89.85908762604883,-13.386792468524295
-3.968448538333333,-47.62138246,2.5773900997430967,0.18320789166666707,3.5525e-05,0.0,12,12,207.3935797244817,321.904,mp-1073315,MgSi2,https://materialsproject.org/materials/mp-1073315,39.481296751432296,25.10322929441641,61.03259561750123,3.705849577400704
-5.98438659,-35.90631954,7.323407910080147,-0.015592164999998678,3.59939775,0.0,129,6,87.70715164911961,386.81129,mp-1018800,MnCuAs,https://materialsproject.org/materials/mp-1018800,44.332014776075155,49.67699767990477,73.18271087899994,-14.696477006183914
-6.7557580075,-27.02303203,8.279405326545746,-0.22412963791666665,1.5311968999999999,0.0,123,4,57.048705207189826,284.44339,mp-1216996,TiCo2Sn,https://materialsproject.org/materials/mp-1216996,66.24228704597876,35.62265594314593,76.63674420676394,5.160303798635279