energy_per_atom,energy,density,formation_energy_per_atom,total_magnetization,band_gap,sgr,num_sites,cell_volume,weight,mp_id,formula,URL,tsne_cry_0,tsne_cry_1,tsne_xrd_0,tsne_xrd_1
-8.058580266578947,-306.22605013,8.022063861380085,0.0014655024342094913,79.79218990000001,0.0,8,38,521.5789951675912,2519.74805,mp-1217666,Tb3NdFe34,https://materialsproject.org/materials/mp-1217666,74.12475385521154,37.32605127659783,86.9739847295339,-22.514386094108602
-6.662466191538463,-86.61206049,8.579620241018858,-0.27620994,11.280712199999998,0.0,191,13,183.06937153567517,945.877,mp-18450,Lu(FeGe)6,https://materialsproject.org/materials/mp-18450,68.33833036476103,34.34137470335012,68.83080822514599,2.2055671045222103
-8.611098733333334,-439.16603539999994,6.893609682839857,-0.4841575400140049,15.5411656,0.0,174,51,632.1780742684896,2624.442298,mp-21819,U2Cr30P19,https://materialsproject.org/materials/mp-21819,55.379285975505255,34.056666143114555,61.7869384188901,-4.238393773028303
-7.4862218006896555,-217.10043222,8.679605180643033,-0.20671397931034335,18.288777300000003,0.0,225,29,285.89031375942045,1494.3430949999995,mp-542728,Co21(B3Mo)2,https://materialsproject.org/materials/mp-542728,39.86913857934083,53.176798578867036,79.46882370422007,-11.245384992428294
-8.832644114166667,-105.99172937,8.303477015830078,-0.5886546882142861,0.003717975,0.0,62,12,146.19324344464653,731.0350480000001,mp-1102843,FeMoP,https://materialsproject.org/materials/mp-1102843,60.028525213169864,37.140815184792636,72.97880601511068,-0.016785233891035173
-6.9372521425,-194.24305999,7.853403827611035,-0.4859176846428578,4.09797295,0.0,140,28,339.0116931761505,1603.3322099999998,mp-4735,TbCo9Si4,https://materialsproject.org/materials/mp-4735,22.146315151120948,39.20685145589907,66.36091483663047,-22.47922275172075
-5.62974633,-33.77847798,8.323561541298679,-0.2732613762499992,1.9600000000000002e-05,0.0,187,6,87.22579804323216,437.22507,mp-1222960,LaCuNi4,https://materialsproject.org/materials/mp-1222960,78.23964531281909,17.758081958369598,86.04806526606957,-13.44040472592469
-6.488203226666666,-155.71687744,7.488326346453163,-0.17314581874999982,8.96031565,0.0,12,24,312.76158189662686,1410.422,mp-1191712,LiFe6Ge5,https://materialsproject.org/materials/mp-1191712,42.57003941853337,48.79071550366064,70.83087472679428,-17.699896628890382
-5.71435223,-34.28611338,8.326220542239255,-0.4699233966666678,2.4e-06,0.0,187,6,84.61128515537071,424.2551386,mp-1225335,DyAlNi4,https://materialsproject.org/materials/mp-1225335,75.52544107693147,19.510239350754944,88.06791315983152,-12.087283567298279
-6.97904158923077,-90.72754066,8.082889599648489,-0.16299531076923082,11.8882668,0.02629999999999999,191,13,177.46138985293757,863.8163800000002,mp-19887,Nb(FeGe)6,https://materialsproject.org/materials/mp-19887,44.233144492069286,47.82259468209344,74.18717287403521,-0.5788091659564302
-7.438208677142858,-156.20238222,8.150077801192738,-0.6551512202380956,6.709973599999999,0.0,174,21,251.2252054877113,1233.036334,mp-1191755,Yb2Fe12P7,https://materialsproject.org/materials/mp-1191755,55.56521975372609,34.38171106662587,62.59738720716629,-4.3880048007910215
-8.259653015,-132.15444824,5.392709379194796,-0.3940045620833335,1.005e-05,0.0,140,16,198.1111667426216,643.3789999999998,mp-1188856,V5Si2B,https://materialsproject.org/materials/mp-1188856,50.87292246823572,47.22814319901439,75.02061831844941,0.38027859466911135
-7.725562445555554,-69.53006201,9.179449520761262,-0.034525737222221804,2.0503723999999997,0.0,189,9,125.32375394032542,692.7889349999999,mp-1079969,MnAsRu,https://materialsproject.org/materials/mp-1079969,60.081831328957605,36.88754624092637,72.81253805294716,-0.19579081634786552
-7.032306650689655,-203.93689287,7.384486451185331,-0.7662909405172416,1e-07,0.0,225,29,378.46213093965,1683.0369,mp-570166,Zr6Si7Ni16,https://materialsproject.org/materials/mp-570166,62.07898037477553,44.71050770472014,73.62053883847153,-7.554710915353353
-4.527223493999999,-135.81670482,6.894455088317146,-0.2234439105714292,6e-07,0.0,12,30,431.9342219501193,1793.364096,mp-618788,Ba(Cu5P2)2,https://materialsproject.org/materials/mp-618788,66.66868449402415,10.434258695112476,64.30506295015445,-20.812671430271774
-5.227066223333334,-94.08719202,8.410516504031953,-0.5416569154166674,8e-06,0.0,189,18,275.9481737868457,1397.6586,mp-1219054,SmGa2Ni3,https://materialsproject.org/materials/mp-1219054,76.566773130407,15.424617840664231,63.03356003378386,0.6238256803491173
-8.090600435,-242.71801305,6.627656667737836,-0.605993747333333,1.16403655,0.0,139,30,396.6679160764689,1583.20804,mp-1192618,Nb4Fe4Si7,https://materialsproject.org/materials/mp-1192618,63.72777592446398,28.038171300779315,63.581483517155846,9.579489424365576
-6.489922107246377,-447.80462539999996,6.1370029824906345,-0.7226853187681163,6.666666666666667e-08,0.0,71,69,877.2763492924187,3242.228844,mp-567443,Sc4Si7Ni12,https://materialsproject.org/materials/mp-567443,46.6102907516619,52.350019530747936,74.4513747140723,-9.589145048710849
-6.466093455999999,-193.98280368,7.841000629132777,-0.31144699266666576,7.519707,0.0,186,30,513.7793824663917,2426.04622,mp-22379,Y3(Co2Sn)4,https://materialsproject.org/materials/mp-22379,68.76335126451119,12.317099314120636,64.65371127543129,-0.7180936718611602
-7.94665870875,-63.57326967,5.6406028219110524,-0.6821478848214291,2.685e-05,0.0,26,8,98.81333922704913,335.654138,mp-1221555,MnVP2,https://materialsproject.org/materials/mp-1221555,16.96519530391749,37.84157814941139,68.11462542745723,-23.48158071871152
-6.543237555999999,-32.71618778,5.203450769321697,-0.7953006869999996,1e-07,0.0,139,5,69.73267657120859,218.513712,mp-3587,Sc(SiNi)2,https://materialsproject.org/materials/mp-3587,34.049025337851724,45.801110758987036,60.107689450899954,-5.979125203961023
-7.6405251611111105,-68.76472645,8.215845518430129,-0.3351979851587288,0.016038733333333333,0.0,189,9,114.48797655621293,566.4519210000002,mp-1079405,MnPRh,https://materialsproject.org/materials/mp-1079405,47.22038551620829,45.857458656003246,73.3680832646691,-10.149523555076136
-7.933671291612903,-245.94381004,7.080881283872497,-0.4268852917741926,0.0099476,0.0,21,31,432.19474053679255,1842.9676,mp-1216836,V20As11,https://materialsproject.org/materials/mp-1216836,46.73651781882453,49.4832492914168,74.45201590633401,-6.518586536890197
-7.538615477777778,-67.8475393,8.124688913105231,-0.4664277651587294,2.1328797,0.0,189,9,116.32859322577288,569.1727860000001,mp-1224852,FePRh,https://materialsproject.org/materials/mp-1224852,47.27449886664861,45.81635742006211,73.29515594368456,-10.031848287560218
-7.263469721578946,-138.00592471,7.955514198672062,-0.3516057810526308,6.9274974,0.0,166,19,190.39763216604013,912.18034,mp-1205398,Ce(Co2B)6,https://materialsproject.org/materials/mp-1205398,31.092749870446664,44.64761832111739,66.03759868063729,-20.50284234615776
-6.352334950952381,-800.39420382,7.314375333422449,-0.32779239444444497,1.365e-05,0.0,64,126,1113.9484004122442,4906.742031600001,mp-866315,Al(Ni3B2)4,https://materialsproject.org/materials/mp-866315,37.22972383688705,54.85424301298151,77.46852562183129,-11.178119043234409
-7.485277631666666,-359.29332632,5.143235369795919,-0.6833794933333337,3.3333333333333334e-08,0.0107999999999997,55,48,619.4356919182283,1918.596,mp-21662,TiFeSi2,https://materialsproject.org/materials/mp-21662,49.13211152441156,46.68877508590386,71.97366846783092,-7.272501067217704
-7.224792354722222,-260.09252477,7.779967214991668,-0.8121614687698409,0.96112385,0.0,62,36,450.5272797228607,2110.813044,mp-1203867,CeCo5P3,https://materialsproject.org/materials/mp-1203867,56.5866220978582,35.34682201602121,62.1926491157436,-3.7843240422614186
-5.818338838333332,-34.91003303,10.01144062579107,-0.5141666750000002,0.4835183,0.0,191,6,111.49653212116397,672.216,mp-22217,CePd5,https://materialsproject.org/materials/mp-22217,72.02569807944022,15.910897671890284,65.29858613604587,2.6632371598966387
-8.122187520357143,-227.42125057,7.469215447347312,-0.5843960186904766,0.38645535,0.0,63,28,262.39224646841825,1180.2578399999998,mp-4212,Nb3Co4B7,https://materialsproject.org/materials/mp-4212,58.1809874491169,28.280068172880476,64.15059150637751,9.838750429092094
-6.662385639473684,-126.58532715,7.846483894826171,-0.3623399247368425,6.780165299999999,0.0,166,19,194.94169434742955,921.1508,mp-580731,Eu(Ni2B)6,https://materialsproject.org/materials/mp-580731,31.10157111765113,44.648108822892354,65.9573517698545,-20.41700370137964
-7.485153589318182,-329.34675793,8.294436793984254,-0.09101008185727334,37.598777,0.0,194,44,515.2752546145471,2573.81364,mp-1213007,Er2Fe17H3,https://materialsproject.org/materials/mp-1213007,74.77034748863059,34.02868796949254,88.75362853346373,-21.19720934682117
-5.977395515555554,-107.59311928,6.909794995696116,-0.26458876676222176,3.1973259666666665,0.0,166,18,193.01369823903903,803.163945,mp-570319,YCo3H2,https://materialsproject.org/materials/mp-570319,74.71175230118202,25.781002603617907,62.19380301149439,16.30494425959477
-8.788646624444445,-316.39127848,7.900099278985469,-0.7206526307142853,5.07947855,0.0,62,36,445.0998244401289,2117.585144,mp-652036,GdFe5P3,https://materialsproject.org/materials/mp-652036,56.110959012919544,34.792344003236664,61.914052796292886,-4.004973931489702
-3.86944171,-100.60548446,8.297008300299106,0.20910560038461548,8e-07,0.0,162,26,396.9078605391394,1983.18,mp-569339,Cu10Sn3,https://materialsproject.org/materials/mp-569339,66.20712428428274,35.58919180156355,69.76901526540796,4.715320510737499
-6.48873757125,-155.72970171,7.393879331913811,-0.17368016333333358,9.50044115,0.0,166,24,316.75669682164903,1410.422,mp-652425,LiFe6Ge5,https://materialsproject.org/materials/mp-652425,42.61800399085794,48.771260323609866,70.84921716564297,-17.677214092014516
-6.847121758275862,-198.56653099,9.745744361637325,-0.4506054620689654,0.0075125,0.0,225,29,302.2996394735309,1774.204,mp-1193581,Hf3(Ni10B3)2,https://materialsproject.org/materials/mp-1193581,40.695122949954545,50.88548585107315,66.49473520996054,-9.514242579742502
-7.903713035555556,-71.13341732,8.299221603472969,-0.5535817396031746,0.0,0.0,189,9,111.41090815395107,556.821486,mp-7632,NiMoP,https://materialsproject.org/materials/mp-7632,60.15963553051333,37.20824030295129,73.27338080204765,0.22667020731196355
-6.104403931538463,-79.35725111,7.324288939055799,-0.313978225769231,10.848722300000002,0.0,71,13,181.00247751476974,798.363912,mp-11438,Sc(GaFe)6,https://materialsproject.org/materials/mp-11438,44.173909858933946,47.8925065094897,72.67893793416977,-8.983156585096374
-8.079566287894735,-307.02351894,7.933933412080816,0.01718421210526344,72.9002399,0.0,8,38,522.4695529475814,2496.3211,mp-1219321,Sm4CrFe33,https://materialsproject.org/materials/mp-1219321,74.29746320620734,37.30045944309858,86.8513081414403,-22.675136264473046
-6.767235513793104,-196.2498299,8.878399812129832,-0.37102302637931095,0.0001273,0.0,225,29,375.00021414741167,2005.01268,mp-672653,Nb6Ni16Ge7,https://materialsproject.org/materials/mp-672653,63.220720137499164,43.56756583741497,74.03682834382882,-7.3423615986553985
-7.479169680681817,-329.08346595,8.320749675606027,-0.09313825731181877,37.772110999999995,0.0,194,44,514.9830489298074,2580.5144800000003,mp-1208090,Tm2Fe17H3,https://materialsproject.org/materials/mp-1208090,74.73593578830874,34.00620899762501,88.69777886217257,-21.05928879522051
-7.852746212307693,-102.08570076,7.2364534393861994,0.6433149723076923,9.1743454,0.0,166,13,222.57783279720772,969.970645,mp-622633,Nb6Co7,https://materialsproject.org/materials/mp-622633,44.223808089137535,26.626599186198987,63.4423768262747,-8.780182902726072
-6.414006953333334,-38.48404172,8.282389867334317,-0.1118257012500005,4.7989082000000005,0.0,191,6,86.83072695839928,433.091855,mp-1211224,LaCo3Ni2,https://materialsproject.org/materials/mp-1211224,78.2313931020894,18.19789399980088,85.27415732730609,-13.66036285539362
-7.2190619425,-144.38123885,8.282496086520661,-0.286966151499999,0.0,0.0,2,20,337.4327592837065,1683.0592,mp-8886,Tc2As3,https://materialsproject.org/materials/mp-8886,34.672581996194246,32.191224566299965,70.03608193225529,-9.099989235658304
-4.552784620555554,-163.90024634,9.542158158236623,-0.3945757780555553,2.2333333333333333e-06,0.0,221,36,624.8437666590168,3590.616,mp-1207568,YbGa4Pd7,https://materialsproject.org/materials/mp-1207568,69.67901062352504,15.898866161827645,67.41400905118527,0.7786735475358783
-7.473763924761906,-156.94904242,7.71472720304774,-0.6444891221428577,3.1491075,0.0,174,21,238.88230047745196,1109.8274339999996,mp-15842,Nb2Co12P7,https://materialsproject.org/materials/mp-15842,58.1869898048623,36.48143796417338,72.27668302741,-2.8285048002969417
-5.826172176923077,-75.74023829999999,7.798576063959506,-0.2642940292307696,0.0,0.0,191,13,169.57202854996774,796.3801699999998,mp-4107,Li(CoGe)6,https://materialsproject.org/materials/mp-4107,42.344938178625796,48.71235889665355,70.61610146029997,-17.820119857177012
-1.6148500849999998,-9.68910051,5.6818133955526475,-0.2204452649999998,2e-07,0.0,191,6,107.2935754030733,367.1230000000001,mp-1734,CaZn5,https://materialsproject.org/materials/mp-1734,41.72390618536758,45.05252025738243,66.36699065898236,-11.560904685227143
-7.155712216666667,-42.934273299999994,7.474379116120177,-0.3093779328571434,0.0,0.0,8,6,99.44479476918592,447.618562,mp-1221513,Mo2As3P,https://materialsproject.org/materials/mp-1221513,35.320789485321534,32.051990494914264,68.50015005030504,-8.065963912056445
-8.4912545,-161.3338355,6.165476868598037,-0.4118330918421048,4.0191832000000005,0.0,174,19,226.4432524206472,840.7695339999998,mp-505626,Cr12P7,https://materialsproject.org/materials/mp-505626,51.499338523059215,47.56962381567933,71.73412410177345,-4.625750281862579
-7.488168942413792,-217.15689933,8.524398773775008,-0.26033035482758604,18.172625,0.0,225,29,289.9137200291313,1488.275855,mp-1192832,Nb2(Co7B2)3,https://materialsproject.org/materials/mp-1192832,40.11140148602428,52.90383153760559,79.47602364165604,-10.832419525370538
-5.398935448333333,-97.18083807,8.123535213499165,-0.5105304533333334,0.005931066666666666,0.0,189,18,279.41467901100486,1366.9266,mp-1227952,CeGa2Ni3,https://materialsproject.org/materials/mp-1227952,76.56447976357019,15.494759904762953,63.060731662658796,0.6516654068866206
-7.533045078000001,-150.66090156,11.565954529152124,-0.5019971990000002,0.0,0.0,2,20,271.7298620568497,1892.6476,mp-27166,Hf3Ni7,https://materialsproject.org/materials/mp-27166,60.625432211573546,46.4951403015411,68.47283663422263,-7.692339211095806
-5.141430725,-41.1314458,8.003255508111268,-0.4376370956250009,2e-07,0.0,146,8,97.93778134818065,472.0281,mp-1224819,Ga3SiNi4,https://materialsproject.org/materials/mp-1224819,45.20909288425129,59.03057170397826,77.27314930691001,-7.717068337846085
-8.570196287894738,-162.83372947,5.6784264613400675,-0.8428792081578954,0.0008398999999999999,0.0,174,19,242.16500654762055,828.114334,mp-684675,V12P7,https://materialsproject.org/materials/mp-684675,51.28753710259036,47.28120698230669,72.11791415786745,-4.426618918388939
-7.790683208571429,-163.60434738,8.082158707800101,-0.7267361888095238,1.1313263999999998,0.0,174,21,251.6492678141183,1224.824754,mp-1190707,Tm2Fe12P7,https://materialsproject.org/materials/mp-1190707,55.55962090380371,34.43882862546705,62.65554172042535,-4.386704491375067
-8.440896129655172,-244.78598776,8.212431459384039,-0.19444561862069115,42.848482700000005,0.0,216,29,298.70662467846415,1477.2959999999996,mp-1224794,Fe22B6W,https://materialsproject.org/materials/mp-1224794,40.74060540587536,51.3792897628009,67.1740686172668,-9.207561694102703
-7.407685412222221,-66.66916871,8.656960705583009,-0.35634243722222203,3.196437866666667,0.0,189,9,133.94387137780032,698.295435,mp-567856,MnAsRh,https://materialsproject.org/materials/mp-567856,46.951116926736454,45.52277653536125,65.72597340821744,-8.190521645064264
-4.088564231578947,-77.68272040000001,8.633282575182509,-0.21720958473684135,1.3e-06,0.0,166,19,276.2346014614567,1436.1670000000001,mp-1189362,Dy2Ga5Cu12,https://materialsproject.org/materials/mp-1189362,70.49000180455415,35.330153152611594,85.23085303986643,-23.424171927828628
-6.469742334,-355.83582837,9.114426539669283,-0.6729886809999998,0.004251100000000001,0.0,143,55,917.570748546498,5036.3953999999985,mp-1218700,Sr6As19Rh30,https://materialsproject.org/materials/mp-1218700,68.38355519371157,34.32518556739375,53.0036972029339,8.309355482850476
-8.405179335833333,-100.86215203,8.420896551389575,-0.6111354198809522,0.0,0.0,62,12,146.59062758004146,743.387828,mp-22262,CoMoP,https://materialsproject.org/materials/mp-22262,60.038175319770616,37.15854016333054,73.00556840554944,-0.012441000121370288
-7.46449910142857,-156.75448113,7.484071268440016,-0.7843306997619041,4.9750879,0.0,174,21,245.4979917451755,1106.462674,mp-972631,Zr2Co12P7,https://materialsproject.org/materials/mp-972631,58.16821586055829,36.46538944386313,72.2722418988282,-2.7296619859784124
-6.371355957435898,-248.48288234,7.394402071533957,-0.1864763343589748,8.785340166666666,0.0,191,39,524.0391070058848,2333.553,mp-652399,Li(FeGe)6,https://materialsproject.org/materials/mp-652399,42.59615638542965,48.6981462819081,70.73519069428724,-17.679972183303207
-6.8706773425,-27.48270937,6.781856098800369,-0.01799012339843653,1.2779676000000002,0.0,187,4,63.140459787829634,257.8738,mp-676270,Cr2AsSe,https://materialsproject.org/materials/mp-676270,21.59179578436491,35.75270652671843,61.930305896010026,-23.16727965509212
-4.407933227142856,-123.42213036,8.333259631945458,-0.11847451267857068,0.48348859999999994,0.0,26,28,415.10128961612287,2083.1469399999996,mp-1223412,LaCeCu12,https://materialsproject.org/materials/mp-1223412,69.51027502569907,31.11803521840827,67.93959263869155,5.6194846484807615
-6.507326750344827,-188.71247576,6.841524684596398,-0.6716843801724136,5.7000000000000005e-06,0.0,225,29,405.12200635590165,1669.128,mp-1207874,Y6Si7Ni16,https://materialsproject.org/materials/mp-1207874,61.66346676915042,45.04120996770633,78.99169625468859,3.91342098765916
-7.59594825,-60.767586,6.145426875037344,-0.4785196350000005,1.0000001,0.0,4,8,90.22439457689651,333.90809,mp-1221619,MnFeSi2,https://materialsproject.org/materials/mp-1221619,43.52412945172424,58.001025565718,78.08079059386922,-7.501193342991292
-8.506357695555558,-153.11443852,5.4068378478663295,-0.7703076530422222,0.00980735,0.0,193,18,216.8075477082879,705.9414,mp-1207841,V5Si3N,https://materialsproject.org/materials/mp-1207841,50.68721380501781,47.14601894246454,74.83948390851592,0.6721782147060997
-8.575617209411764,-145.78549256,11.737542284800767,-0.21733609719882285,3.0884685000000003,0.0,10,17,205.6442675959485,1453.59924,mp-1222181,Mn12Pt4N,https://materialsproject.org/materials/mp-1222181,52.384998952288846,58.72293340668517,72.15571501004997,-16.038316733957974
-7.056947653333332,-254.05011552,7.788137215233343,-0.7742309515476182,1.487340125,0.0,62,36,453.5735445325688,2127.3170440000004,mp-1200320,NdCo5P3,https://materialsproject.org/materials/mp-1200320,56.570053860165594,35.297841165150764,62.136564176071154,-3.7711705819205137
-9.348699479,-93.48699479,8.592991818876541,-0.31652672718999925,0.6163366,0.0,38,10,99.081054869314,512.7266950000002,mp-1226133,CoMo4N5,https://materialsproject.org/materials/mp-1226133,32.147097684876584,48.26139528372563,67.92945325892731,8.765893940760172
-6.097789825,-36.58673895,7.836469145021715,-0.5472167154166669,4.54e-05,0.0,65,6,86.26426739731274,407.1011,mp-1070857,NdSiNi4,https://materialsproject.org/materials/mp-1070857,74.6912882346486,21.503095542443045,89.00627915056086,-13.5896247931467
-8.716108074166668,-104.59329689,12.2629379122675,-0.3950648225000002,5e-07,0.0,62,12,168.83851718942245,1246.85792,mp-1095668,TaFeAs,https://materialsproject.org/materials/mp-1095668,59.4434946645206,23.386808888449327,58.11104129760918,10.759569268341673