energy_per_atom,energy,density,formation_energy_per_atom,total_magnetization,band_gap,sgr,num_sites,cell_volume,weight,mp_id,formula,URL,tsne_cry_0,tsne_cry_1,tsne_xrd_0,tsne_xrd_1
-7.0102528444444445,-252.36910240000003,4.651650729261607,-3.1796897456672224,0.0,3.7226,20,36,641.5014018414337,1797.0312,mp-1201345,Ba5B3ClO9,https://materialsproject.org/materials/mp-1201345,-23.560636311544986,-25.359320716988112,-9.185788968515162,-18.879766775149168
-7.483198472857143,-104.76477862,6.168372727900692,-3.2216612409614283,2.9999998,1.5913000000000004,38,14,186.88298283229648,694.210655,mp-754346,SrLiLa3MnO8,https://materialsproject.org/materials/mp-754346,16.884076605060972,-69.70111103155854,38.95674680945007,-41.8256676784521
-4.396696525,-149.48768185,4.832659408361845,-1.56130308328854,10.00380585,1.7496999999999998,14,34,884.3977425623543,2573.8588304,mp-1198676,Cs8Fe2O7,https://materialsproject.org/materials/mp-1198676,-5.753201906192486,-28.937964191973663,-5.188033352225777,-31.18865254569149
-3.76500595125,-60.24009522,5.757029105772434,-0.6292724670312504,8.3e-06,1.5692000000000004,2,16,497.93992379358764,1726.3398,mp-8378,Tl3SbS4,https://materialsproject.org/materials/mp-8378,-0.6661449776713573,-22.06313094526553,-13.191571650065365,-28.605358258696146
-4.504486738863637,-198.19741651,8.066302666215153,-1.1883851480681822,0.0,1.5670999999999995,15,44,632.7151688147177,3073.5032,mp-18321,Hg2Te2O7,https://materialsproject.org/materials/mp-18321,-21.430818774711227,-62.77220101417244,-11.212633253302664,-55.535485467988366
-7.033489014523809,-295.40653861,4.431285119919021,-2.820408167380952,3.0000001,2.8851,173,42,648.3066902431498,1730.0597699999996,mp-562027,BaCoSiO4,https://materialsproject.org/materials/mp-562027,-25.694845604851647,-28.31663885640881,-9.797301454013523,-25.135908145622743
-7.68126453625,-368.70069774,6.0803452280856645,-3.3797084010056264,8.75e-07,1.4329999999999998,62,48,840.6407922049284,3078.1487856,mp-558478,La3NbSe2(O2F)2,https://materialsproject.org/materials/mp-558478,28.23142432482592,-18.262372509641896,16.197553222955886,1.3638371007399321
-7.093426999999998,-42.560562,3.6541607879059588,-3.0307713245833328,0.0,3.236,59,6,128.01975627218076,281.71862400000003,mp-546279,ScBrO,https://materialsproject.org/materials/mp-546279,11.37487612664145,-19.73722544647743,8.125763596012792,-20.924042710604347
-6.6678840136956525,-306.72266463,5.261058244589315,-0.8862628166765205,0.14355565,1.2553,2,46,1003.5946716988935,3179.67232,mp-541765,Ba9(NbN6)2,https://materialsproject.org/materials/mp-541765,-2.651005562743483,-31.215780428441235,-3.061739416964784,-31.820784070909408
-5.734643173611111,-206.44715425,5.618962707389788,-0.6657902919444444,1.4125e-05,0.0,92,36,965.631285892684,3267.521,mp-542465,Pr5Si4,https://materialsproject.org/materials/mp-542465,33.4735637323045,-40.21416303634286,20.31244316337744,-18.306531158668307
-5.958341793076924,-77.45844331,5.303605530511635,-1.9334955465384625,2.0300000000000002e-05,1.4253999999999998,8,13,205.1134908056377,655.1132,mvc-10699,Ca(SbO2)4,https://materialsproject.org/materials/mvc-10699,-40.07317396591932,-42.180094008304216,-12.269037726551351,-36.672963980203136
-7.674347440166668,-460.46084641,6.439543378383482,-0.3949063053055549,0.09081778,0.0,19,60,840.3217310284742,3258.7540000000004,mp-639306,CeBC,https://materialsproject.org/materials/mp-639306,10.067106139404077,-59.60880004079022,-1.0619503931641374,-32.653727725028034
-4.2214698755,-168.85879502,3.4988143545970827,-1.047120120357143,1.4825e-05,0.3855,122,40,1233.2305047944692,2598.460192,mp-32635,Sr3P2,https://materialsproject.org/materials/mp-32635,33.539264351474344,-39.80030899386792,12.09065368992022,-21.93722196583169
-4.18105492546875,-267.58751523,4.686428203398101,-2.373119408626821,6.000000099999999,0.4654,14,64,1185.2910647715344,3345.1676482,mp-573073,Cs7Cu6F19,https://materialsproject.org/materials/mp-573073,-53.60853366124381,-62.16109365730463,-22.635163929313464,-14.03130296457519
-7.2660108785416675,-348.76852217,5.36738769350699,-2.5429546193749992,0.0003975,2.3991,64,48,699.1981567048283,2260.02972,mp-1194612,YNb(TeO4)2,https://materialsproject.org/materials/mp-1194612,-33.81781638578072,-58.90745488381947,-23.255066972296287,-56.03474119545506
-6.897416613793104,-200.0250818,7.604113260853389,-2.2556929292241383,10.0010611,1.4902000000000006,8,29,392.45321001346946,1797.1626,mp-1217427,Ti3Fe2(BiO3)6,https://materialsproject.org/materials/mp-1217427,-15.220467831845903,-56.89036980455146,-9.061571324458162,-54.83911571483252
-4.212309915555555,-75.82157848,4.2806570566036335,-2.5223824030940616,0.0,1.8481,127,18,391.9923662342602,1010.5061357999999,mp-8202,CsRb2PdF5,https://materialsproject.org/materials/mp-8202,-4.999737294220116,-28.978088030954968,-61.676240504791835,-66.06034388074612
-7.36046210875,-117.76739374,7.38708863580111,-2.412454441796875,17.0008782,0.0,42,16,214.78730464446625,955.5047,mp-1218819,Sr2Gd2TlNi2O9,https://materialsproject.org/materials/mp-1218819,10.415360546142304,-68.063673175457,39.13260262620989,-49.59939417685478
-7.804840058636364,-343.41296258,6.488944546186854,-3.0918327817918185,2.000894325,0.0,14,44,597.4309240802361,2334.60102,mp-1178128,La3MnO7,https://materialsproject.org/materials/mp-1178128,15.956149673832126,-69.46974483135432,38.56866285025087,-41.92406831222889
-6.686654569444443,-240.7195645,4.430459110702333,-3.041323468280317,5.0010582,2.189,14,36,488.95021360846977,1304.5606736,mp-1214449,BaFeP(O2F)2,https://materialsproject.org/materials/mp-1214449,-26.934584960165612,-26.988174770981363,-11.192362511876146,-18.44057424542593
-1.46193758,-8.77162548,2.1613336848744744,0.16897017999999994,0.05459625,0.0,164,6,209.3292997766221,272.46000000000004,mp-1094282,SrMg2,https://materialsproject.org/materials/mp-1094282,0.20826215653045216,-34.25078331606165,-27.866178967845713,-59.99979822474249
-6.425373101730768,-334.11940129,4.107543872724939,-2.7208219401923066,3.75e-07,3.5442,14,52,874.3432375999457,2162.7936,mp-771256,Sr3(AsO4)2,https://materialsproject.org/materials/mp-771256,-29.33612523234268,-32.659921357224235,-20.308985643246924,-32.29313080743883
-6.837150368333334,-410.2290221,4.185301615794435,-2.301263738833333,2.0027880000000002,2.1251,9,60,792.4627398056882,1997.3608,mp-1217810,SrV2(AsO5)2,https://materialsproject.org/materials/mp-1217810,-31.226569922899326,-29.350173810246968,-18.916298976732982,18.86398694661829
-8.503126476363636,-93.53439124,4.163569669685569,-3.340405018655304,0.0,0.7880000000000003,139,11,166.57865229011176,417.6727,mp-25305,Y2Ti2S2O5,https://materialsproject.org/materials/mp-25305,10.45781809266072,-95.33809475027859,9.612559690840273,10.788769089767213
-3.4404326209523814,-72.24908504,3.685011236527029,-0.8726591439733331,0.0,3.714700000000001,174,21,353.8461726826506,785.24328,mp-23828,Sr7(H6Br)2,https://materialsproject.org/materials/mp-23828,25.638455349883262,-20.21839733986636,20.06535665018783,-17.923490503969845
-5.42368330125,-86.77893282,7.274081776208352,-1.6204187013987497,0.0,2.4240000000000004,11,16,316.01351018352693,1384.3144064,mp-555013,Tl3CO3F,https://materialsproject.org/materials/mp-555013,-3.670931184621711,-28.092271891778683,-25.006526385965195,-58.84850253746574
-4.248627424666667,-63.72941137,4.893373604778018,-2.494368037622046,1.9756943,4.864999999999998,166,15,253.07702471144364,745.7821845,mp-505492,CsNiF3,https://materialsproject.org/materials/mp-505492,-52.78995694757737,-64.03505085934373,-23.27567352637416,-14.555984432683358
-5.2152850275,-62.58342033,6.814481190254656,-1.4365853478645836,0.0,1.6030000000000006,36,12,261.1619819409744,1071.7504199999996,mp-1216911,TmCuPbS3,https://materialsproject.org/materials/mp-1216911,14.415110467663007,-19.202160847455787,6.212223370865773,-0.11472346323955875
-2.9889667672727267,-65.75726888,3.619254071292541,-1.147097729847179,0.0,1.5994,186,22,772.3160337192613,1683.3136,mp-1190842,Rb6HgS4,https://materialsproject.org/materials/mp-1190842,3.720909902916627,-31.739140358139483,-0.9367845572915118,-36.023622319666295
-5.907675865714286,-82.70746212,5.144748591560924,-2.084148985,0.0,2.5797000000000008,12,14,214.20070265751446,663.6451999999998,mvc-7317,Mg(SbO2)2,https://materialsproject.org/materials/mvc-7317,-11.019823013900867,-44.13475505957869,-6.702372117608927,17.96448366215763
-6.622799030166666,-397.36794181,3.926992057911367,-3.0314133059443815,1.00000005,0.19130000000000005,14,60,799.8723728121281,1891.6101216,mp-1197925,Sr2GaP2(O4F)2,https://materialsproject.org/materials/mp-1197925,-23.635753754548464,-34.953049719973606,-17.745867884386644,-31.035564421378137
-4.623114927555557,-208.04017174,6.736491873789682,-1.0816712849166676,0.0,1.5175999999999998,2,45,1278.118921549856,5185.085999999999,mp-1198156,Zr(TlS)4,https://materialsproject.org/materials/mp-1198156,5.170192235319675,-5.805690960596162,-16.118010435924315,-31.315040410415673
-4.8079679725,-76.92748756,4.487398427717137,-2.0805167843425005,0.0,3.9362,62,16,416.2839837742888,1124.95524,mp-643384,BaHIO,https://materialsproject.org/materials/mp-643384,-0.6626746798198462,-29.826841766294628,-27.727962048845097,-47.013854581376094
-7.400943708,-148.01887416,6.228185048962366,-1.98710988725,6.002866575,0.0,15,20,281.0228983373111,1054.0328,mvc-12804,EuCuO3,https://materialsproject.org/materials/mvc-12804,-24.37069338805788,-40.74092825052647,13.50462541031561,-5.735104778822848
-4.764837632857144,-66.70772686,4.471665912074467,-2.216533004094828,0.0,2.1059,14,14,363.2136860422001,978.0982075999999,mp-753801,Cs2Sr2O3,https://materialsproject.org/materials/mp-753801,-3.8407602634564464,-28.029004521448346,-26.290515357146717,-57.43467526823531
-5.442338265555557,-48.98104439,6.821510202937497,-2.001624474861112,1.05e-05,0.0,123,9,127.35274737084663,523.1663,mp-620290,Sr2TlCuO5,https://materialsproject.org/materials/mp-620290,10.025962839837721,-67.44004550090489,11.927480883698014,-45.22103019441331
-8.047640193333333,-386.28672928,5.486817648376081,-2.674831913749999,14.9999967,0.048000000000000036,15,48,664.9146395081015,2197.0368,mp-1214380,BaLiGd2(MoO4)4,https://materialsproject.org/materials/mp-1214380,-51.57673235913003,-53.09956371041051,-24.838660952764496,-59.486563023449136
-8.2461422725,-164.92284545,7.262333657358536,-3.305359151750001,1.999999975,1.5234000000000003,62,20,235.84429070822688,1031.4602,mp-554811,TbVO3,https://materialsproject.org/materials/mp-554811,9.840302315078961,-81.45907130661331,51.04065190885671,-54.31144205633707
-4.218012918125,-134.97641338,4.559568448101005,-2.043423248286853,0.914748125,0.0,62,32,510.4831781474477,1401.703264,mp-615754,RbCuPdF5,https://materialsproject.org/materials/mp-615754,-45.68975235580371,-50.633496852580244,-14.454025520047526,12.11187911940123
-7.228710747094595,-1069.84919057,3.7758470001844437,-2.7210017922186487,17.000000475,0.11470000000000002,62,148,2095.498979800317,4764.88859712,mp-1215159,Ba3NaMn4Si6O23,https://materialsproject.org/materials/mp-1215159,-26.86764722768745,-27.547900134884713,-20.94870585658668,-27.17805220258677
-4.343860287777779,-117.28422777,7.048689135424053,-1.2993357261111111,0.0034270000000000004,0.6145000000000005,65,27,638.7289623558241,2711.2894,mp-1226909,CdBi8(Br5O4)2,https://materialsproject.org/materials/mp-1226909,-3.437615719696662,-58.008311748839645,11.966733060674493,-48.13227023814875
-7.2563664007142865,-203.17825922,4.733189456271392,-1.7637472423214289,13.8459853,0.0,62,28,773.0834732134732,2203.592,mp-632490,Eu2SnS4,https://materialsproject.org/materials/mp-632490,5.545431545548756,-8.282704706233819,-9.702564924814068,-18.72236705494633
-3.9377059,-19.6885295,4.4115197899839504,-1.1661325059827596,2.0,2.638,139,5,134.19124245688266,356.5031038,mp-755100,Cs2NiO2,https://materialsproject.org/materials/mp-755100,-6.796143888945244,-28.12707105610843,-36.0905273236495,-86.03781995034048
-6.774023729285713,-189.67266442,7.54908339438073,-1.8827091070535704,1e-07,0.0,197,28,437.86344803837255,1990.5992,mp-510508,Ba2(IrO3)3,https://materialsproject.org/materials/mp-510508,-13.946878531949222,-51.198978941552156,1.4574778521826541,-42.278082279939795
-6.8983208779166665,-165.55970107,8.475647101111068,-2.0290277420833327,8.5e-07,1.8677,14,24,356.60177468637255,1820.1504,mp-558734,PbWO4,https://materialsproject.org/materials/mp-558734,-23.85218609387888,-63.37455553009533,-19.25800458526797,-61.15548650035525
-7.1146422367857145,-199.20998263,5.474643974165781,-2.5717362603571443,0.999999925,0.20900000000000007,14,28,460.9866368092693,1519.8304,mp-1194116,CeMoBrO4,https://materialsproject.org/materials/mp-1194116,-37.957560105920614,-44.441098232618906,-8.807137704722383,-39.13403994009293
-6.202557816666666,-111.64604070000001,5.460541396694984,-0.935292178465185,0.00021945,1.0568999999999995,2,18,397.27455982836113,1306.4036,mp-1245986,Ba4TiN4,https://materialsproject.org/materials/mp-1245986,-2.8333013438220065,-31.705471621902408,-2.582812074416528,-31.848205711750847
-8.694683858928572,-243.45114805,5.147757978828311,-3.614258498005952,0.0075323000000000005,0.0,12,28,353.5721564660202,1096.0922,mp-560000,Ce2Ti2SiO9,https://materialsproject.org/materials/mp-560000,-22.602744512936635,-35.57675681189797,-17.71163868865314,-31.427569869230947
-7.102018938875,-568.16151511,4.045001025867095,-2.878717798125,0.9999997625,0.4912999999999999,110,80,1159.4308394946304,2824.3232,mp-1197716,BaCu(SiO3)2,https://materialsproject.org/materials/mp-1197716,-28.51815015350379,-28.09380497719749,-10.693502120352662,-22.780755405837496
-5.8789898425,-141.09575622,6.927514687762329,-2.0493511035416674,5.00009645,0.5398000000000005,53,24,385.93333575493034,1610.0548,mp-1187205,Sr2FeCu(PbO3)2,https://materialsproject.org/materials/mp-1187205,10.169252338015012,-66.71344180743047,41.17971016984703,-51.80516002310704
-6.143000562999999,-307.15002815,5.236947809631744,-2.6639288479000016,0.0,2.7217,36,50,842.7800624704578,2657.9292,mp-771208,Ba5(Ga3O7)2,https://materialsproject.org/materials/mp-771208,-8.221364880163138,-42.97324118512215,-3.1114176724141944,-31.986488460338265
-6.19771313875,-99.16341022,7.250280807463156,-2.420587902109376,3.0000245999999997,0.0,42,16,215.6841466985118,941.7247,mp-1218719,Sr2Sm2TlNi2O9,https://materialsproject.org/materials/mp-1218719,10.407853252950297,-68.05374455787997,39.130395189833116,-49.587196750697906
-6.3459491492857145,-88.84328809,5.735081361549119,-2.043792472767857,0.0,3.4625000000000004,5,14,185.8140277737465,641.7546,mp-559373,Ge4PbO9,https://materialsproject.org/materials/mp-559373,-23.168656999084174,-43.590168934263325,-13.872028767299064,-26.976947194672157
-8.801503841282052,-343.25864981,5.94464109552617,-3.455488778397436,0.0,3.0289,189,39,565.9287426963717,2025.99468,mp-6169,Ba3Ta6(Si2O13)2,https://materialsproject.org/materials/mp-6169,-33.97866068946746,-69.62594937559041,-25.271887563505203,-32.687057705548426
-6.675809802083332,-160.21943525,7.99277837963358,-1.862852112222222,8.5e-07,2.9972000000000003,12,24,337.6116355902278,1625.0476,mp-1192345,AgBi(WO4)2,https://materialsproject.org/materials/mp-1192345,-31.488015582928394,-55.207165106826714,-12.777706192980196,-51.148148277049245
-7.390588078529412,-502.55998934,3.8376906055662787,-3.0342538308696745,0.0,4.3878,33,68,1056.8814915619132,2442.5708,mp-556206,Rb3Y2(BO3)3,https://materialsproject.org/materials/mp-556206,-23.889926232357478,-31.451945636666387,-1.764304228608783,-27.365912517938924
-6.12213743375,-97.95419894,4.764928560456701,-3.027207724375,1.25e-07,2.8163000000000005,62,16,291.9021182479377,837.6152,mp-756930,BaCaO2,https://materialsproject.org/materials/mp-756930,4.295953218084559,-58.8797237422938,-0.19098417296977424,-35.31817463174282
-7.295041900434782,-167.78596371,4.929140796321965,-3.12025624054348,0.0,3.8553,150,23,314.35793789082237,933.13948,mp-16136,Sr3TaGa3(SiO7)2,https://materialsproject.org/materials/mp-16136,-22.4756370143552,-42.08646089115068,7.864398957459358,-35.34252402430696
-6.096487422142857,-170.70164782,5.336486674638505,-2.383509932857144,4.999999875,1.2212999999999998,14,28,494.86121792114784,1590.3391800000002,mp-16887,Ba2CoO4,https://materialsproject.org/materials/mp-16887,-9.370997622420434,-31.579930837981873,-6.40130699013111,-25.795834933267077
-7.1825600435000005,-430.95360261,4.523661843079436,-2.612415411416667,3.999980925,0.1984999999999999,14,60,956.7542381342996,2606.40222,mp-640747,Sr3Nb2CoO9,https://materialsproject.org/materials/mp-640747,-27.48309249500818,-32.342196273819106,-6.29985886969697,0.8499889477375463
-8.02927471625,-64.23419773,5.6799363458105505,-1.4350097174400007,0.0,0.9985000000000004,129,8,150.01407640366043,513.1288,mp-3104,BaZrN2,https://materialsproject.org/materials/mp-3104,5.449179079517839,-62.570080678119936,17.802199805488016,-69.71454333792414
-6.475555157857142,-181.31554442,5.141402738563107,-2.3370599313950886,0.0,3.8567,2,28,440.2745710869939,1363.1892,mp-559755,Sm2(SeO3)3,https://materialsproject.org/materials/mp-559755,-30.883603668625067,-53.23421130114849,-23.505244700073384,-50.94094689083202
-7.162285041363638,-157.57027091,4.683019926484934,-1.295580215627272,0.0002286,1.7516999999999996,2,22,437.4771203373349,1233.7644719999996,mp-1247430,Ba3Sc3N5,https://materialsproject.org/materials/mp-1247430,-3.605893356142344,-32.22859531610079,-4.353171684097471,-29.685420999807835
-5.871420420714286,-82.19988589,3.5333379962764977,-2.3999230766163806,1.0,0.7275,2,14,269.56340596995807,573.5840000000001,mp-557618,Rb4CuSi2O7,https://materialsproject.org/materials/mp-557618,-4.758849123421167,-33.43696921732349,-5.334512101178161,-25.760765766129406
-6.181111693181817,-815.9067435,3.4191651901076114,-2.7094060587029776,0.0,3.4663,61,132,2516.0507465165706,5180.7232,mp-556390,Rb10Si6O17,https://materialsproject.org/materials/mp-556390,-4.783890398109428,-33.36476578484685,-1.7782860011366417,-30.06710183600101
-7.094347835833332,-170.26434806,5.636431147944433,-2.587202268225574,0.0,3.1858999999999997,15,24,355.38040749641874,1206.2813038,mp-1213310,CsSm(MoO4)2,https://materialsproject.org/materials/mp-1213310,-47.68305387016082,-54.52303763154535,-21.70213790208414,-58.33666809475897
-4.7944927315,-95.88985463,6.893899935488073,-1.3327856536520002,0.04905275,0.0,11,20,395.0519700834551,1640.0992,mp-1190173,CuPb3(ClO2)2,https://materialsproject.org/materials/mp-1190173,-18.920400020386587,-54.62143915638146,-13.429706541014047,-48.76487518223237
-4.483020701388889,-161.38874525,4.7541780657375785,-1.5703482735919545,4.0000002,0.5848,14,36,910.1738025224272,2605.8576304000007,mp-1201003,Cs4FeO4,https://materialsproject.org/materials/mp-1201003,-5.486347568915142,-28.184901639034845,-6.478252950016624,-30.480996429969203
-4.70087908875,-188.03516355,4.970836244625957,-0.6497867117812504,5.000000675,0.6159999999999997,64,40,1034.0683199995979,3095.4913799999995,mp-557979,MnTl2As2S5,https://materialsproject.org/materials/mp-557979,-0.8371514580134665,-20.748757880843762,-19.979917270358893,-32.969442784161245
-5.2968158125,-21.18726325,6.743091842035804,-1.8215082770312503,0.0,1.5602,166,4,106.1403920005264,431.0133,mp-31166,DyTlS2,https://materialsproject.org/materials/mp-31166,4.60599350623753,-4.998549034176461,-2.3850330618581665,-5.36037878182712
-5.622472927083333,-134.93935025,5.730681181135787,-1.5946416752083332,8.455e-05,3.2448,11,24,472.3513809146028,1630.1304,mp-1192209,As3Pb2BrO6,https://materialsproject.org/materials/mp-1192209,-23.209175244341573,-45.81833530793051,-13.987683596706473,-48.337058189138965
-6.498329080892857,-363.90642853,5.426456629423944,-2.8729584680357148,3.5125e-06,3.7086,33,56,1006.8680986716968,3290.3328,mp-780010,Ba2GeO4,https://materialsproject.org/materials/mp-780010,-9.222647018164784,-31.687020973460733,-6.314274443190375,-26.005329660944053