energy_per_atom,energy,density,formation_energy_per_atom,total_magnetization,band_gap,sgr,num_sites,cell_volume,weight,mp_id,formula,URL,tsne_cry_0,tsne_cry_1,tsne_xrd_0,tsne_xrd_1
-7.0470191770454536,-930.20653137,3.314987799421784,-3.3555193711079543,0.0116977,1.1673,146,132,2009.3399754443267,4011.3103896,mp-685242,Sr7Al12O25,https://materialsproject.org/materials/mp-685242,-25.280342132459214,-28.59156518902737,-19.515930775984394,-7.076428564437723
-4.481432954000001,-44.81432954,6.451232211206928,-0.5465049376250007,4.294647400000001,0.0,115,10,201.67438350066416,783.5096,mp-1216837,Tl2FeCu3S4,https://materialsproject.org/materials/mp-1216837,17.66493879882541,-40.24051968201099,4.181266379785345,-34.98322179544196
-7.1072340247916665,-341.14723319,5.394378156918663,-2.4691604638750007,3.315e-05,1.1481999999999997,15,48,660.1397978133331,2144.51068,mp-1203708,KHo2Cu(MoO4)4,https://materialsproject.org/materials/mp-1203708,-50.97186612720513,-53.916354078889675,-23.541382705834092,-59.78351377687239
-6.629490589722222,-238.66166123,7.352489519407406,-0.4567705367592596,2.345e-05,0.0,128,36,377.1366988588258,1669.8756,mp-1202802,Tb4NiB13,https://materialsproject.org/materials/mp-1202802,8.92655029806331,-57.5429053443284,6.603896739101258,-49.40549412020649
-5.718373616666668,-34.3102417,6.126911527006091,-0.5590072766666664,1.4099999999999999e-05,0.0,141,6,116.59247402615507,430.1927,mp-1077398,TbSi2,https://materialsproject.org/materials/mp-1077398,49.10342231301488,-16.138735937157865,21.43111967360431,22.380285805531415
-9.344458596666668,-112.13350316,7.553475712963581,-3.7298403570833343,0.0,3.3902,36,12,168.76985171797324,767.7019,mp-3998,LaTaO4,https://materialsproject.org/materials/mp-3998,-30.179959019812532,-60.820611392152436,-6.139658694526372,-58.89567837119669
-5.421258655555556,-195.1653116,3.251466842543139,-3.6622376771927594,4.15e-06,7.1465,11,36,513.6164470504576,1005.70164696,mp-542451,Rb2NaAl3F12,https://materialsproject.org/materials/mp-542451,-58.99802415853898,-60.051027415183974,-13.664468470736404,11.742019840286726
-7.590195769749999,-303.60783079,4.5883240026901735,-2.852640810241379,0.0,3.319,14,40,792.7465405616816,2190.4802551999996,mp-27556,CsNbO3,https://materialsproject.org/materials/mp-27556,-43.57282129454321,-19.86885555075724,-31.072201253785128,-5.762743007407368
-4.924150740294118,-167.42112517,4.348725869608868,-2.8672357895133884,12.000000300000002,3.1395,64,34,679.0278902298214,1778.2816792,mp-616023,Cs4Fe3F10,https://materialsproject.org/materials/mp-616023,-53.800833087098596,-62.06103672170336,-22.46393033106529,-13.729696896376955
-8.0887856175,-161.77571235,7.451395497948191,-3.1172332678459997,6.99999995,0.8162999999999996,14,20,232.1115793304567,1041.56249,mp-1217727,Tb2MnCrO6,https://materialsproject.org/materials/mp-1217727,9.797358635259682,-81.23552371149891,51.24145627740531,-53.71053950892171
-7.3503236918333315,-441.01942151,5.872074583741157,-2.6934051145868056,1.99961745,0.11019999999999984,36,60,1255.7423565675329,4440.613920000001,mp-1223562,La4Ti2Se5O4,https://materialsproject.org/materials/mp-1223562,22.773481199627184,-41.31239465949438,15.273728401107563,-24.221394573686517
-7.215944097083334,-692.73063332,5.409134775328312,-3.210903462127917,0.0,3.3074,130,96,1756.6528638420593,5722.2214384,mp-559298,La5Sb4(O4F)3,https://materialsproject.org/materials/mp-559298,-47.78725511065022,-52.42956778509608,-19.200902362569032,-65.18369189343105
-4.93534542875,-78.96552686,5.689761009445497,-2.9872514051187498,7e-07,4.3609,63,16,309.78972415392366,1061.4803092,mp-504676,AlTl2F5,https://materialsproject.org/materials/mp-504676,-26.969440621128868,-21.944988215146232,-12.083746928654676,-21.91223012672524
-8.008212950499999,-160.16425901,7.514645666402522,-3.0555952339419994,3.999998475,0.4139999999999997,62,20,234.61771427182282,1061.7449800000002,mp-22103,DyMnO3,https://materialsproject.org/materials/mp-22103,9.506583082426047,-81.34651640035112,51.46304875112865,-53.07475201994482
-5.429654713809524,-114.02274899,3.6705109818223036,-1.6857569874578575,1.0,0.7822000000000002,2,21,338.68230308923495,748.63468,mp-753122,Sr2CuH2(SeO3)4,https://materialsproject.org/materials/mp-753122,-30.561273604142084,-30.60235752261709,-32.6863618387228,10.764668784910477
-7.44443101037037,-200.99963728,3.944207571647032,-2.9262289692592587,0.0,4.4199,2,27,306.9125953008505,728.9964,mp-1020650,Sr3Ge2(B3O8)2,https://materialsproject.org/materials/mp-1020650,-21.213435807501657,-31.19107477766831,-6.689202536559775,-20.561690571917055
-4.25324711725,-170.12988469,4.2029248813905795,-1.8836580272327588,0.000669475,2.0228,14,40,1018.1177272737068,2576.9176304,mp-1178409,Cs2MgO2,https://materialsproject.org/materials/mp-1178409,-6.296749663808897,-28.495294652034,-7.4401017651220345,-29.67355817598703
-3.452412730625,-55.23860369,5.290262116852848,-0.4983932428906255,0.0,0.6423999999999994,63,16,504.7433310065091,1608.04682,mp-561134,Sn2SbS2I3,https://materialsproject.org/materials/mp-561134,9.051019985368523,-24.536258989175096,4.4511515406926865,-32.28007272345903
-8.6697083685,-173.39416737,6.723163541654733,-3.611163961583333,1.00033175,0.0,62,20,243.25843314599842,984.9008,mp-22416,SmTiO3,https://materialsproject.org/materials/mp-22416,10.759837038392137,-81.77121250587446,50.83018560716474,-55.10637033891354
-7.697939829473684,-146.26085676,5.880049046861132,-3.37113304513158,1.4800000000000002e-05,0.4068000000000005,8,19,387.69469937538514,1372.8456800000001,mp-1223043,La4Nd4S4O7,https://materialsproject.org/materials/mp-1223043,0.93625741060921,-58.08023037687809,-13.755156834149634,-66.21736950944822
-7.407084815714287,-103.69918742,6.676229653250362,-3.1553024885714285,0.0,0.029200000000000337,12,14,187.56383918783143,754.1040800000002,mp-1222453,LiLa4CuO8,https://materialsproject.org/materials/mp-1222453,17.211967059027355,-69.97731197014429,38.99711037721673,-41.905038858433976
-5.705201216842107,-108.39882312,4.844106754112291,-1.503616289967106,9.9999999,2.2141,1,19,283.39703362084265,826.7228,mp-1224708,Fe2Pb(SeO3)4,https://materialsproject.org/materials/mp-1224708,-23.94734487115306,-42.93937453523709,-12.781550750061655,-41.29345111050628
-5.85762733,-46.86101864,7.073897346277528,-0.8312364025000001,2.385e-05,0.0,62,8,175.59701653968602,748.0434,mp-1924,TbSi,https://materialsproject.org/materials/mp-1924,31.15415349780218,-41.161191519609005,13.260639173623336,-18.334133816109688
-10.974410695714283,-307.28349948,6.40404921946374,-2.3178459177953568,20.999999325,1.0476,62,28,603.5890631866743,2327.8068,mp-647096,Gd3S3N,https://materialsproject.org/materials/mp-647096,12.165413754104517,-3.72049320485434,-5.054465274301586,-18.294357785847314
-6.177134922083333,-148.25123813,4.717128755870778,-1.9476223788281253,0.0,0.32230000000000025,173,24,520.9997315465557,1480.0150772000004,mp-1190721,Nd3AlFeS7,https://materialsproject.org/materials/mp-1190721,10.47085918159321,-13.042094646392679,1.1788253929536336,-4.484811294318944
-4.03800494,-80.7600988,4.106962750999654,-1.6150106502413792,0.002540825,0.0,62,20,675.3378736160199,1670.2934556,mp-998435,CsScBr3,https://materialsproject.org/materials/mp-998435,-1.8526333292791024,13.024747446496546,-4.306359225516964,-32.02336062794361
-6.70752033,-134.1504066,5.794466160960566,-2.69172655825,2.0000113,0.0,14,20,258.06632489511367,900.5247999999998,mp-1214109,Ca2YbRuO6,https://materialsproject.org/materials/mp-1214109,-32.50792240637116,-77.65068630856223,29.501550173852536,-62.88771986352498
-5.916945375555557,-159.75752514,7.790334266650193,-2.0395629313888897,0.6666667,0.0,5,27,364.285999799628,1709.0292,mp-1188075,Yb2TeO6,https://materialsproject.org/materials/mp-1188075,-28.17483900096091,-58.94222520177875,-6.247668856888563,-42.915127235629036
-6.385794400000001,-38.314766399999996,4.888835398197616,-1.1254344354166672,5.489999999999999e-05,0.0,12,6,156.80049430412166,461.64034,mp-1206284,LaCBr,https://materialsproject.org/materials/mp-1206284,23.530357172154304,-10.011158659308679,18.685316158598962,19.983780606667246
-7.04096002304878,-577.35872189,6.066315278715988,-2.1233464723475604,0.0,1.3872,15,82,1244.370397970002,4545.95946,mp-560774,U3Ag6Mo5O27,https://materialsproject.org/materials/mp-560774,-52.209039052957706,-49.482747241656064,-24.249784914013663,-52.51199715423778
-4.775388673999999,-23.87694337,5.255315618367149,-0.5699969699519997,0.0,0.5026999999999999,139,5,116.30228825201564,368.0764,mp-9307,Ba2ZnN2,https://materialsproject.org/materials/mp-9307,-0.2860983256231939,-31.33238509529096,17.710043269184442,-70.97843900104287
-7.1388795683333335,-342.66621928,4.540323608619794,-2.6253459219166664,0.000296975,3.5781,60,48,766.4323702949367,2095.61528,mp-1211556,KHo(MoO4)2,https://materialsproject.org/materials/mp-1211556,-50.67190253308763,-53.5474261105723,-24.122712817693195,-56.63358471769222
-7.978747637826087,-183.51119567,4.919524404273002,-3.264074836837392,2e-07,0.0,5,23,276.08567239199664,817.9333158,mp-695170,Nd3Al3Si3(NO6)2,https://materialsproject.org/materials/mp-695170,-22.27837029925064,-35.91911339500699,-17.445952136285868,-33.059648411898905
-6.6592143092307685,-173.13957204,4.542090051867995,-2.597919837532052,1.5e-07,0.0,46,26,357.6751664602031,978.3526772,mp-1249417,Sr2TiAlCu2O7,https://materialsproject.org/materials/mp-1249417,19.167590965375656,-50.87298112376591,20.79363430475765,-25.280059410341376
-6.907371902159091,-607.84872739,4.37447769787321,-2.92213931314394,0.0,3.6265,29,88,1389.8762505089057,3661.4512,mp-559138,Ba2Zn(BO3)2,https://materialsproject.org/materials/mp-559138,-24.30819966252353,-25.74486993486355,-22.811646934595927,-8.049120657563309
-2.375877657083333,-171.06319131,5.428784559021086,-0.3454608534325396,0.000631175,1.4676,205,72,2291.023727041485,7490.022176,mp-1214033,Cd4AsPI3,https://materialsproject.org/materials/mp-1214033,18.899385626353997,-8.72454697511785,-8.444827715527628,-16.667042375721902
-6.069551068888888,-54.62595962,6.63399375761521,-1.9234782336111125,0.0,1.9264,162,9,136.8472686556473,546.7164,mp-20727,Sb2PbO6,https://materialsproject.org/materials/mp-20727,-44.490331695916296,-65.82349175106253,-35.26572227555679,-13.234605559399755
-6.254437234999998,-87.56212129,4.9330093884625335,-0.8003344488771417,1.0,0.0038000000000000256,176,14,367.06500752072515,1090.4502,mp-1246640,Ba3ZrN3,https://materialsproject.org/materials/mp-1246640,-1.2853161511136677,-29.827736834301266,-26.524440813951745,-57.21570879160343
-2.913398505,-17.48039103,9.970011913457004,-0.6483456843750002,2.1666666666666665e-06,1.243,154,6,108.22108061818828,649.7682,mp-1077107,HgO,https://materialsproject.org/materials/mp-1077107,5.838656760640077,-61.38029368116176,27.21166969862504,-33.34610644529113
-8.237705744814816,-222.41805511,6.199873657948599,-2.7614566984259263,0.0,2.5371,160,27,392.9203299440872,1467.0274799999993,mp-558608,Nb2PbO6,https://materialsproject.org/materials/mp-558608,-48.682621519055616,-55.10843803996665,-19.770940300861536,-55.74181216323018
-5.282649858636363,-116.21829689,7.015139100558696,-1.6802302509848488,0.0,2.6125,167,22,340.5698749517307,1438.7768,mp-4710,Hg3(BO3)2,https://materialsproject.org/materials/mp-4710,-32.88638328714025,-31.791532885758947,-29.055702660798108,-15.877069068082529
-6.8949652953846154,-358.53819536,4.5492009678918235,-2.7620617296153847,0.0,3.4313,14,52,832.1545869564256,2279.7648,mp-556688,Ba2V2ZnO8,https://materialsproject.org/materials/mp-556688,-28.67350348681909,-26.419434568044853,-21.08639162448977,-12.479143127036311
-3.85775007,-7.71550014,5.225052890130653,0.07997463000000016,9.290000000000001e-05,0.0,119,2,47.270551496520994,148.74153859999998,mp-1228806,AlSb,https://materialsproject.org/materials/mp-1228806,22.18084116397531,-7.523294994735074,0.3278784149270364,-6.594619191251417
-3.290176955,-13.16070782,2.9658935068050485,-1.049701452203664,5e-07,0.7132000000000001,63,4,131.60809882938293,235.0656,mp-1179680,RbS,https://materialsproject.org/materials/mp-1179680,2.553285173328117,-29.006297883299517,-9.23557225389316,-29.883785622567252
-7.508154889166668,-630.68501069,4.972399450156181,-3.4150155408333336,0.0,4.2635999999999985,33,84,1548.9404616501215,4638.2232,mp-554529,Ba2TiO4,https://materialsproject.org/materials/mp-554529,-9.505875235808144,-31.18310074675035,-6.633656409170515,-25.440150733242003
-7.119124727777778,-256.28849019999996,4.717687437318038,-2.5550147119827593,9.37e-05,3.6621,15,36,621.4491317155804,1765.5729199999998,mp-1195528,Rb2Th(MoO4)3,https://materialsproject.org/materials/mp-1195528,-51.96925037722953,-51.719258815500325,-26.069167679674074,-52.95691831165816
-6.791187348333334,-40.74712409,6.5562442981469236,-0.5744394791666659,3e-07,0.0,129,6,115.58121597497221,456.345,mp-20690,NdFeSi,https://materialsproject.org/materials/mp-20690,41.73068429694626,-6.038637777021463,26.09472901222207,15.939038193764894
-7.933279245714287,-111.06590944,5.0792535968172094,-3.4367283398809527,0.0,2.2874000000000003,129,14,171.99409356209915,526.0952,mp-10520,LiNdTiO4,https://materialsproject.org/materials/mp-10520,12.434969206030965,-63.981289799183294,11.11387543004552,-44.121712663206495
-5.102218841388889,-183.67987829,4.774358667250394,-2.223047936369732,0.0,2.5666,14,36,867.7072006455318,2494.8196304000007,mp-771255,Cs4SiO4,https://materialsproject.org/materials/mp-771255,-5.537962328345934,-28.632849059314125,-5.0244498096923005,-31.722544911484707
-6.185731398571428,-346.40095832,4.923158620740195,-2.6297897235714283,0.0,3.0179,173,56,919.511928948,2726.1648,mp-1228877,Ba(GaO2)2,https://materialsproject.org/materials/mp-1228877,-7.168922684380673,-42.411271107854276,-9.859219502414694,-25.379979727264317
-9.992575141666666,-59.95545085,6.119653330077669,0.003227766527777713,6.9032717,0.0,65,6,97.72321133928446,360.1434000000001,mp-1071879,GdBC,https://materialsproject.org/materials/mp-1071879,10.016397828534606,-57.78249110464065,7.146043922521456,-24.802741624065355
-5.673606135238097,-119.14572884,4.648272526322408,-1.1437243256547622,15.0003986,0.16249999999999964,12,21,471.0000858782666,1318.449435,mp-1192303,Pr2Mn3(SbS3)4,https://materialsproject.org/materials/mp-1192303,10.902099933410607,-4.557778912543652,-6.763024697350204,-18.776909848719704
-5.302271288787878,-174.97495253,7.975690119395102,-1.6455792535242428,0.40211640000000004,0.0,12,33,612.3205373353946,2941.0202,mp-766035,Bi12Cl5O16,https://materialsproject.org/materials/mp-766035,-19.066698577573884,-55.625913575681295,-11.864813025069113,-58.951090297722246
-6.4889256610000015,-64.88925661,7.928693119507196,-2.0605520082500006,1.0000009,0.0,12,10,118.00637933870371,563.4534000000001,mp-1227402,Ca2IrPtO6,https://materialsproject.org/materials/mp-1227402,3.0335775152707543,-72.12694604202451,16.476803155840507,-14.387870121070597
-6.996510756153848,-181.90927966,3.962127354268228,-2.7668956984065938,2.99999975,1.7777000000000005,2,26,330.180344213127,787.826448,mvc-2998,SrVZn(PO4)2,https://materialsproject.org/materials/mvc-2998,-25.33752219094372,-33.286700074601136,0.12378994943276175,-25.92454379727021
-6.954827684545455,-153.00620906,5.823160920978426,-3.1726106165909087,0.0,3.1559,167,22,420.0585142212549,1473.0568,mp-769391,Ba4ZrO6,https://materialsproject.org/materials/mp-769391,-2.130499304810164,-61.85215925402696,0.6036327039968965,-36.73932109902235
-7.546772065833332,-181.12252958,6.783251529056328,-3.313315736354168,0.0,4.7188,113,24,263.00228111447205,1074.3563279999996,mp-14420,Er2Be2GeO7,https://materialsproject.org/materials/mp-14420,-16.155867092733267,-35.963780137561955,-14.65995239040757,-34.785727670171184
-6.166948477,-61.66948477,6.097898496437477,-2.170930730875,0.0004041,1.2412999999999998,129,10,233.1085261476124,856.0305400000001,mp-1078397,LaBiS2O,https://materialsproject.org/materials/mp-1078397,4.320566162181163,-7.006166278307058,0.9254260697647692,-10.851180002376811
-3.503964266,-35.03964266,5.9398869809219805,-0.8297980376249999,1.9e-06,1.95,12,10,260.2261791814949,930.8508,mp-561079,CdBiS2Br,https://materialsproject.org/materials/mp-561079,7.400316672289151,-5.513628179226101,-19.60815248632265,-34.76727948807523
-7.802923478333333,-140.45262261,8.67401921957265,-2.5636117925,3.0000004000000002,1.6874000000000002,6,18,240.6787379513728,1257.21344,mvc-10393,Ho(WO3)2,https://materialsproject.org/materials/mvc-10393,-25.691683552059835,-83.4134833620147,40.10089812239062,-59.4986483635997
-7.547420129583332,-181.13808311,6.666314196139632,-3.3121887017708342,0.0,4.4262,113,24,265.29550172305323,1065.041608,mp-1212368,Ho2Be2GeO7,https://materialsproject.org/materials/mp-1212368,-16.23078140240846,-35.954300179187605,-14.634399886303456,-34.78820992607029
-4.257423804,-42.57423804,4.4888690791373875,-2.5031644169553795,1.9999997,5.3644,194,10,183.92166799938724,497.188123,mp-557772,CsNiF3,https://materialsproject.org/materials/mp-557772,-54.45013802273322,-63.63254122625355,-26.078638682118825,-18.32765006799005
-4.41114558,-39.70031022,6.83011445737717,-0.7117688966666659,1.3333333333333334e-07,0.0,189,9,180.0353972944989,740.52,mp-13474,LiErGe,https://materialsproject.org/materials/mp-13474,38.783050057335366,-17.534159541437127,20.51806134795022,6.822789371740376
-7.0521640619642865,-394.92118747,5.5572687206424165,-2.955759332678572,5.0000003,2.6872,14,56,987.3165745364464,3304.21832,mp-1022809,Ba4NbFeO8,https://materialsproject.org/materials/mp-1022809,-8.80167800731497,-32.06105091975505,-2.5509963062330328,-31.904015386423893
-5.785931878333333,-69.43118254,2.9161236875105967,-1.2157392669044438,1.5e-07,3.3364000000000003,15,12,190.5762415231066,334.6768,mp-1102794,Mg2BBrN2,https://materialsproject.org/materials/mp-1102794,-26.79558703743207,-28.069418384655947,-6.124556143249763,3.131243898512023
-7.459405854814816,-201.40395808,6.565066296907438,-3.1567096149074083,2.0,0.5701,1,27,364.41851609089616,1440.75608,mp-779308,SrLiLa7(CoO8)2,https://materialsproject.org/materials/mp-779308,16.787026613516062,-69.63728977024356,39.043068350526426,-41.64970406774232
-6.113930896,-122.27861792,4.6596244265014555,-1.338358300357143,7.5e-08,0.0,141,20,365.5566146014201,1025.785296,mp-1237528,Dy(PO)2,https://materialsproject.org/materials/mp-1237528,1.2847031926849122,-16.87562941180316,-29.15167043338564,-17.552975580482734
-3.071443671875,-49.14309875,4.720866785819017,-1.3570360147916667,1e-07,2.7625,140,16,650.4321500465751,1849.1607,mp-23504,Sr2InI5,https://materialsproject.org/materials/mp-23504,3.2673966254873736,-28.745148434264358,-4.859131011382337,-27.06052614788966
-6.547567725,-130.95135449999998,5.538234388959533,-2.2325828442500013,1.9895743000000001,0.0,44,20,279.69058170743125,932.8248,mp-20810,Ca2PdWO6,https://materialsproject.org/materials/mp-20810,-31.745331362803544,-74.74168612017199,-21.402969166717305,-24.722995555505413
-5.32427395,-42.5941916,5.763038027755905,-0.5220774324999997,1.5e-07,0.0,63,8,145.66572859889794,505.54495440000005,mp-1206482,CeAl2Ni,https://materialsproject.org/materials/mp-1206482,39.74194310228406,-14.231208811445901,20.186226351756748,10.187904060639884
-6.008469055217391,-276.38957654,4.063516003102416,-1.8203695775702171,1.99999985,2.4223,14,46,638.3518298113273,1562.11496,mp-735536,BaV2H2(Se2O7)2,https://materialsproject.org/materials/mp-735536,-30.496758449274047,-26.83341477799058,-31.743067951665534,9.333651602683043
-5.647237243999999,-112.94474488,7.054009658306001,-1.7917668975000005,0.0,0.4402000000000004,141,20,334.1619556187552,1419.5279999999998,mp-1208099,Yb(AsO)2,https://materialsproject.org/materials/mp-1208099,19.167494695348502,-35.58287632537539,17.199867202987825,-40.413604599516404
-7.310739898235294,-497.13031308,3.689948695912809,-2.9833013113905054,4.0000369,1.1032000000000002,14,68,898.4005282498392,1996.3709239999998,mp-559244,Sr2MnP3O11,https://materialsproject.org/materials/mp-559244,-24.729834813911648,-33.11457742334116,-1.4827492363845505,-27.266152719473318