energy_per_atom,energy,density,formation_energy_per_atom,total_magnetization,band_gap,sgr,num_sites,cell_volume,weight,mp_id,formula,URL,tsne_cry_0,tsne_cry_1,tsne_xrd_0,tsne_xrd_1
-6.005401817777778,-216.19446544,7.903090580318833,-0.5357456883333332,0.0,0.01529999999999987,62,36,504.5164054377572,2401.1714,mp-21806,YNi5Ge3,https://materialsproject.org/materials/mp-21806,56.846690800153844,37.16175726323912,70.38191334212952,-4.75274761072591
-7.101422736666668,-42.60853642,7.670420079782388,-0.0985300949999998,7.071619500000001,0.0,191,6,83.03795404053255,383.571825,mp-2827,YCo5,https://materialsproject.org/materials/mp-2827,79.77208774745189,20.22535165617755,86.1428143772357,-15.982613103797645
-8.671764294615384,-112.73293583,7.769548728962898,-0.2461987884615389,13.515965300000001,0.0,71,13,164.9673583442378,771.8710000000002,mp-1225229,Gd(Fe5Si)2,https://materialsproject.org/materials/mp-1225229,70.45248419484554,40.05932771596262,83.4261416204428,-19.45888070087359
-5.9016817433333335,-35.41009046,9.623694000959562,-0.3401049650000007,1.5435813,0.0,191,6,79.78591809669746,462.40120999999994,mp-11526,TmNi5,https://materialsproject.org/materials/mp-11526,78.21832883388538,20.849562468429166,87.92110890806732,-15.52457119857807
-7.088400945833333,-170.1216227,7.702568325395094,-0.3127369841666656,9.3061138,0.0,141,24,291.2414574686905,1350.95121,mp-1191660,YCo9Si2,https://materialsproject.org/materials/mp-1191660,73.56076732824718,41.76677822001943,75.06109842813528,-12.370802707601786
-5.9141116333333335,-35.4846698,9.544688233901624,-0.3376627008333332,1.5314428,0.0,191,6,80.15489778132918,460.726,mp-853,ErNi5,https://materialsproject.org/materials/mp-853,78.24705255262911,20.811397054944425,87.89793047915121,-15.524230023534276
-8.366947942631578,-317.94402182,7.3565738819498385,0.007033061052631614,27.06239615,0.0,194,38,505.38156694582125,2238.9578,mp-1207800,Y2Cr2Fe15,https://materialsproject.org/materials/mp-1207800,71.96713567186622,38.74383947784435,82.25376201568666,-20.466260252801995
-5.618574991666668,-33.71144995,9.204225694721153,-0.3119445116666674,1.3e-06,0.0,187,6,82.4917940412206,457.24495,mp-1217589,TbCuNi4,https://materialsproject.org/materials/mp-1217589,78.59195836676682,20.335668367087468,87.53472017112793,-15.243935403148999
-6.617755672105264,-125.73735777,8.01249560603271,-0.10651965263157892,19.3333829,0.0,166,19,252.79092425896908,1219.7763022,mp-1188126,Pr2Al2Co15,https://materialsproject.org/materials/mp-1188126,74.06401395459578,36.083085169300425,86.1721595362941,-21.022008142018578
-6.583309665000002,-39.49985799,7.570291795547192,-0.2432695083333343,3.8866882000000005,0.0,187,6,83.24846424416789,379.52445,mp-1215961,YFeNi4,https://materialsproject.org/materials/mp-1215961,79.83250816130507,20.220963354895392,86.15641556158344,-16.07970981631231
-5.267752724736842,-200.17460354,9.235824499902431,-0.3443759536842111,0.0009413000000000001,0.0,194,38,504.45308287562204,2805.7396,mp-1201787,Lu2Ga5Ni12,https://materialsproject.org/materials/mp-1201787,71.23211600054124,41.547846634732274,88.0868088652496,-20.31164687232432
-4.31548461,-69.04775376,7.003885504230527,-0.2649845375000002,8e-07,0.0,136,16,254.25553358248592,1072.40878,mp-20559,Ga3Co,https://materialsproject.org/materials/mp-20559,43.14030291593182,47.060805698488366,62.96928003943719,-6.758449408051372
-5.91310588,-35.47863528,9.45277533651272,-0.33488184916666697,1.5209502000000001,0.0,191,6,80.52520223887883,458.39732000000004,mp-1553,HoNi5,https://materialsproject.org/materials/mp-1553,78.24445152945883,20.79756993775094,87.87006413458981,-15.498598309468036
-6.30383221074074,-680.81387876,8.655358739920546,-0.13099110837962855,0.0,0.0,64,108,1233.6162930722658,6430.075599999999,mp-569096,Ce2Ni22C3,https://materialsproject.org/materials/mp-569096,72.57110383992163,39.831175486064616,71.20189581652257,-6.186385918930508
-6.207906385833333,-74.49487663,9.230390922612454,-0.17513334062500027,7.399275200000001,0.0,47,12,162.90082821973658,905.5121800000001,mp-1219109,SmEr(Co2Ni3)2,https://materialsproject.org/materials/mp-1219109,78.30293784953989,20.675464168846702,87.8214014446431,-15.413270499223314
-4.7691357666666665,-28.614814600000003,9.745761745060674,-0.2587704600000003,9.32e-05,0.0,191,6,81.13977851193249,476.2122,mp-1215563,YbCu2Ni3,https://materialsproject.org/materials/mp-1215563,78.18502459011097,20.80139387698212,87.99945526907568,-15.458996481893251
-7.982841033157894,-151.67397963,8.212974309201256,0.08082660118421059,28.614417,0.0,160,19,253.24307464444263,1252.53235,mp-1217525,TbNdFe17,https://materialsproject.org/materials/mp-1217525,74.18232732759714,38.568035494816854,86.07515822682907,-21.264236691485642
-5.9098195816666665,-35.45891749,9.82004710483074,-0.3402943783333328,1.5564171999999998,0.0018000000000002456,191,6,79.21071420122959,468.434,mp-11491,LuNi5,https://materialsproject.org/materials/mp-11491,78.19213405802363,20.87525347961,87.97609797642929,-15.535985664827473
-5.322755495,-31.93653297,9.806317491888011,-0.25273545166666683,1.804087,0.0,191,6,78.9953095618298,466.507,mp-2645,YbNi5,https://materialsproject.org/materials/mp-2645,78.21324768002192,20.855454154146702,87.92750160001312,-15.543817418562439
-7.143884534736843,-135.73380616,10.07623686577908,-0.0023207705263156467,5.0041207000000005,0.0,166,19,241.5833763197139,1465.940435,mp-16932,Th2Co17,https://materialsproject.org/materials/mp-16932,70.33236916692779,41.95304639057469,87.81444162368825,-18.44838915140319
-5.461666728333332,-65.54000074,7.6611627977815715,-0.2681240574999997,1.31e-05,0.0,47,12,171.0157823077502,789.0087,mp-1216156,Y2(CuNi)5,https://materialsproject.org/materials/mp-1216156,79.9807214694596,20.147159659188894,85.84085218808312,-15.65901761790276
-4.1804347335,-83.60869467,7.273457050035184,-0.32548973450000035,5e-08,0.0,229,20,303.24847815444593,1328.2824,mp-16852,Ga7Ni3,https://materialsproject.org/materials/mp-16852,43.17182557955636,47.48631282612085,70.66197197173598,-8.686923251743442
-6.410998382222222,-115.39797088,7.5829741069660415,-0.4178572779629637,0.0079161,0.0,191,18,230.22812976792588,1051.35375,mp-567863,Y3Ni13B2,https://materialsproject.org/materials/mp-567863,76.2008701313781,24.532757487728787,75.25096479847446,0.6646672430828297
-7.946066742307693,-103.29886765,7.8597998552986565,-0.24957544000000095,20.4648508,0.0,71,13,164.1822671138241,777.1210000000002,mp-1225375,Dy(Fe5Si)2,https://materialsproject.org/materials/mp-1225375,70.28156416679865,40.239606810130205,83.43916537591355,-19.347769953542663
-8.224148659999999,-106.91393258,8.030744500334832,0.0590746317307684,19.0052708,0.0,71,13,168.01692994304273,812.56809,mp-1220585,Nd(MnFe5)2,https://materialsproject.org/materials/mp-1220585,72.39228359922069,38.65483573336253,82.781220358958,-20.62203973200492
-7.0926359250000015,-99.29690295,9.124517737780224,-0.2979224735714285,4.20950005,0.0,136,14,195.6697765377197,1075.18842,mp-1103568,Tm(Fe2Ge)2,https://materialsproject.org/materials/mp-1103568,68.95828935524452,11.853421559475233,64.65284287228863,-0.6742408249986781
-7.860320485384616,-102.18416631,7.691118913922954,-0.1552980132692312,19.5722414,0.0,69,13,165.16203033328438,764.9810000000001,mp-1219261,Sm(Fe5Si)2,https://materialsproject.org/materials/mp-1219261,70.49668352991921,39.927844778163646,83.43813802417169,-19.505537417787746
-6.446644668333334,-38.67986801,9.48230030750447,-0.2043268058333337,4.730258900000001,0.0,191,6,80.80824818571789,461.445385,mp-1225558,ErCo3Ni2,https://materialsproject.org/materials/mp-1225558,78.10522465483959,20.857647889725925,88.05217852663115,-15.492400786139084
-6.766638684473683,-257.13227001,10.562773964446377,-0.08801223888158018,6.22234655,0.0,194,38,467.15165076147207,2971.5756,mp-567327,Pu2Ni17,https://materialsproject.org/materials/mp-567327,71.05360494491654,42.27293478676754,87.58293557833332,-18.399536647660547
-6.18789478,-86.63052692,7.913278506472429,-0.634167128571428,2.5e-07,0.0,136,14,198.72998176574296,947.0453,mp-1104069,Y(Ni2As)2,https://materialsproject.org/materials/mp-1104069,56.898436779972435,37.293731542970455,70.43108297226475,-4.747946494611026
-6.424384860000001,-89.94138804,9.429141545766546,-0.38825900785714296,0.61571275,0.0,136,14,193.10913741220696,1096.5435599999996,mp-1212824,Er(Co2Ge)2,https://materialsproject.org/materials/mp-1212824,69.12584356145082,11.758696718327286,64.84781009062206,-0.7521320232872716
-6.538520345833334,-78.46224415,8.020093494779081,-0.11984888208333425,9.8476104,0.0,47,12,169.40329239446163,818.1862699999998,mp-1219786,PrY(Co3Ni2)2,https://materialsproject.org/materials/mp-1219786,79.0338426727497,19.075748873458537,86.12147894767327,-14.970661470448782
-6.415216769285713,-89.81303477,9.639615725356453,-0.3850255421428577,0.51875165,0.0,136,14,191.5483264985591,1111.95956,mp-1210890,Lu(Co2Ge)2,https://materialsproject.org/materials/mp-1210890,69.12402962442472,11.758598768450387,64.83684857673673,-0.7514177055183952
-6.1160308625,-146.7847407,7.940364972379844,-0.4675696806249998,0.004712,0.0,141,24,302.52922559891505,1446.6341400000001,mp-1190732,LaSi2Ni9,https://materialsproject.org/materials/mp-1190732,74.118898335043,41.944903967793216,66.36536737468788,-19.29075664079404
-6.876367011428571,-96.26913816,7.494223265169302,-0.8077760720408165,2.78e-05,0.0,136,14,171.91855672986483,775.8902479999998,mp-505598,Zr(Ni2P)2,https://materialsproject.org/materials/mp-505598,57.26264803003669,36.52720262849724,70.74459206182884,-4.514251578639468
-7.8692334352631566,-299.03087054,10.28871285552742,0.0009479376973675508,25.086517100000002,0.0,194,38,480.9110515765358,2979.72863,mp-568820,Pu2Co17,https://materialsproject.org/materials/mp-568820,70.3873250272835,41.99006188272592,87.78203559385858,-18.40823325445804
-6.331137605,-37.98682563,8.106069055242878,-0.5856932191666667,3.1e-06,0.0,65,6,82.54998583624256,402.9751,mp-1072537,CeSiNi4,https://materialsproject.org/materials/mp-1072537,75.4385043986269,21.443114623603133,88.79079339347047,-14.493673524909351
-5.909188927857144,-82.72864499,9.342911715552113,-0.626885984285715,3.71e-05,0.01309999999999967,136,14,196.17252929957226,1103.7516,mp-510482,Er(Ni2As)2,https://materialsproject.org/materials/mp-510482,69.09255924374375,11.744480038620635,64.83660021587282,-0.7302846582581254
-7.944494815384615,-103.27843259999999,7.782272994264157,-0.2463096061538469,20.5269469,0.0,71,13,165.05510849738042,773.5463500000002,mp-1217843,Tb(Fe5Si)2,https://materialsproject.org/materials/mp-1217843,70.32707355315591,40.123666234250884,83.45544662917315,-19.322678417165825
-8.260708310526315,-156.95345790000002,7.33690939303607,-0.010608674210526726,38.153386100000006,0.0,166,19,255.110267152125,1127.1767,mp-1105569,Y2Fe17,https://materialsproject.org/materials/mp-1105569,71.92865692949651,38.58152169254059,82.21315649782719,-20.755518594984647
-6.6020827214285704,-92.4291581,7.101358406676061,-0.8306543263265301,2.55e-06,0.0,136,14,180.3453954956185,771.2539479999998,mp-1104054,Y(Ni2P)2,https://materialsproject.org/materials/mp-1104054,57.18020294535657,36.55832184635221,70.64997656824457,-4.7293333133954185
-8.077450034210527,-306.9431013,8.672193801807081,-0.03172043263158068,36.24311535,0.0,194,38,497.57576074542504,2598.598,mp-1195842,Lu2Fe17,https://materialsproject.org/materials/mp-1195842,69.90406565696624,40.07882339021547,88.3587195230133,-19.97806133713428
-5.898476398571428,-82.57866958,9.403060466182213,-0.6289210157142853,8.45e-06,0.0,136,14,195.50933784639096,1107.10202,mp-1104519,Tm(Ni2As)2,https://materialsproject.org/materials/mp-1104519,69.08910644258218,11.748734947327405,64.83341176383139,-0.730267050129883
-5.43279187,-76.05908618,9.527704460285175,-0.5845708314285716,7e-07,0.0,136,14,194.38278993254062,1115.3136,mp-1104102,Yb(Ni2As)2,https://materialsproject.org/materials/mp-1104102,69.08828514222802,11.755402262274746,64.83023395798824,-0.7348985001502333
-6.215244432407408,-671.2463987000001,8.471794902988378,-0.1170501224537043,0.0,0.0,64,108,1258.4476639770842,6420.3913600000005,mp-573282,La2Ni22C3,https://materialsproject.org/materials/mp-573282,72.56569038924212,39.780543831279424,71.19519626599724,-6.172868922740141
-7.917442068461539,-102.92674689,7.5209775936928125,-0.2086698682692313,20.552582100000002,0.0,71,13,167.5475856447537,758.863,mp-1220494,Nd(Fe5Si)2,https://materialsproject.org/materials/mp-1220494,70.59032540043539,39.75354361392008,83.44745651954675,-20.11941802817713
-6.44393177,-38.66359062,9.381494901058977,-0.19983880916666766,4.718064,0.0,191,6,81.2643635805426,459.116705,mp-1223880,HoCo3Ni2,https://materialsproject.org/materials/mp-1223880,78.09174816116891,20.841765085629667,88.10377007544697,-15.448287354755948
-5.900908103333332,-35.40544862,8.896438654827028,-0.29963618541666764,1.4814025,0.04010000000000069,191,6,82.84124570523542,443.827,mp-1075,SmNi5,https://materialsproject.org/materials/mp-1075,78.74886888129132,20.01293635507929,87.32851048700441,-14.972194791471386
-9.148338195441175,-622.08699729,8.502761109880687,0.01812785522058809,0.53305995,0.0,136,68,865.8095779415604,4433.3628,mp-1197388,Gd2Fe14C,https://materialsproject.org/materials/mp-1197388,72.94116125222466,32.30235571603969,83.39364662025396,-7.337402352611727
-7.949188528461537,-103.33945087,7.9312382236452175,-0.2556228188461533,20.4460701,0.0,71,13,163.69981937050915,781.8800000000001,mp-1225118,Er(Fe5Si)2,https://materialsproject.org/materials/mp-1225118,70.17911676400155,40.33039476501954,83.45306359357456,-19.211190253666942
-6.933367205,-83.20040646,7.987778897939951,-0.05887394812499973,13.676167000000001,0.0,47,12,169.87179019917602,817.14327,mp-1222814,LaYCo10,https://materialsproject.org/materials/mp-1222814,78.99650953174272,19.01540780857464,86.142837003616,-14.867093476594775
-5.8953397842857145,-82.53475698,9.547240644632199,-0.6189714657142856,1.465e-05,0.0,136,14,194.65535239734157,1119.1676,mp-1104964,Lu(Ni2As)2,https://materialsproject.org/materials/mp-1104964,69.09458762058028,11.755010631159374,64.82041358725834,-0.7312981897579842
-6.411967204285713,-89.76754086,9.442441428946623,-0.3885889128571429,0.58360015,0.0,136,14,193.42634078215613,1099.89398,mp-1207971,Tm(Co2Ge)2,https://materialsproject.org/materials/mp-1207971,69.11894804826363,11.761722274775872,64.84171891533371,-0.7486899675658512
-4.619118955625,-73.90590329,6.899044623918326,-0.2311597506250003,7.25e-07,0.23509999999999964,136,16,255.1461062425328,1060.056,mp-636368,Ga3Fe,https://materialsproject.org/materials/mp-636368,43.152693301688345,46.9985341086932,62.94683995024331,-6.753296484362
-7.019722623333332,-42.11833574,8.688857016880856,-0.10567346833333248,5.7485,0.0,191,6,83.0917624692343,434.781975,mp-764,CeCo5,https://materialsproject.org/materials/mp-764,78.76765054169907,19.742136752769625,86.63393745155481,-15.000042632256081
-5.9204867707142865,-82.88681479,9.38162375739351,-0.3184428235714287,0.00015165,0.0,136,14,196.1336960854932,1108.10556,mp-1207593,Yb(Co2Ge)2,https://materialsproject.org/materials/mp-1207593,69.05119531148931,11.805372005066486,64.82479119540557,-0.736297722186109
-7.0924870590909075,-156.03471530000002,8.793827817611426,-0.08521348827908977,1.252207,0.0,166,22,253.90173321250273,1344.604415,mp-1190849,Sm2Co17N3,https://materialsproject.org/materials/mp-1190849,74.71081006505112,39.69595118093232,85.78608331683733,-20.78882811435967
-7.950359883076923,-103.35467848,8.067217322246808,-0.2599897407692315,20.3877611,0.0,71,13,162.52713260863936,789.5880000000002,mp-1222514,Lu(Fe5Si)2,https://materialsproject.org/materials/mp-1222514,70.12009723579354,40.450634546335934,83.47082131059126,-18.970012020502423
-7.419078708235293,-504.49735216,8.648363224611561,-0.15270492392156895,24.363669675,0.0,136,68,877.3503197421037,4569.386239999999,mp-1198179,Dy2Fe6Co8B,https://materialsproject.org/materials/mp-1198179,72.94464529535172,32.212035707518204,83.41676628628899,-7.173629352251357
-5.806407693333332,-69.67689232,7.5884790409125,-0.05797424749999891,5.7777357,0.0,47,12,172.91616501418784,790.207675,mp-1216214,Y2(CoCu)5,https://materialsproject.org/materials/mp-1216214,80.08218283572009,20.047912248468762,85.58426810812828,-15.536658292843962
-6.283775753333334,-37.70265452,9.388945147623426,-0.2603977558333348,3.7787593,0.0,187,6,80.98072982500709,457.8776,mp-1225589,ErFeNi4,https://materialsproject.org/materials/mp-1225589,78.2334748982663,20.72916561745292,87.87158206388081,-15.256501822588591
-5.918398821428572,-82.85758349999999,9.247085009414347,-0.6345743650000009,2.35e-06,0.0,136,14,197.3691052154304,1099.0942400000001,mp-1103507,Ho(Ni2As)2,https://materialsproject.org/materials/mp-1103507,69.08935956632537,11.742199691912575,64.85133936814937,-0.7313024833333795
-7.7989482984210525,-148.18001767,7.852173533880077,-0.05259063552631759,28.0293435,0.0,166,19,252.62094250691516,1194.566,mp-1188924,Sm2Fe15Si2,https://materialsproject.org/materials/mp-1188924,74.05819912593392,35.98923808239812,87.98513467344068,-21.989087342216052
-7.885158343846153,-102.50705847,8.133082738692668,-0.19478820153846227,19.2370337,0.0,69,13,161.21091370162011,789.5880000000002,mp-1222439,Lu(Fe5Si)2,https://materialsproject.org/materials/mp-1222439,70.17039640923258,40.55972763014675,83.45537572056925,-18.705084399029733
-7.053887477499999,-84.64664973,9.147503202108878,-0.2449457774999999,14.5535934,0.0,25,12,164.7234927110454,907.42141,mp-1224982,GdTm(FeNi4)2,https://materialsproject.org/materials/mp-1224982,78.30201884558917,20.54149063732282,87.77668596502741,-15.049041149669804
-7.020310894761903,-147.42652879,8.518084756028795,-0.053404261417142614,9.144557,0.0,12,21,257.0050849810366,1318.361715,mp-1220610,Nd2Co17N2,https://materialsproject.org/materials/mp-1220610,74.66109332928735,39.62308553893917,86.9293093484343,-24.308372478233093
-8.293323716896554,-240.50638779,7.260913104362662,-0.5478186881034489,3.3318422999999995,0.0,225,29,374.48050523456436,1637.4625,mp-1192960,Zr6Fe16Si7,https://materialsproject.org/materials/mp-1192960,62.20998536737445,44.829759737596795,73.25864262604364,-7.75770925859746
-8.099042877894737,-153.88181468,8.108868494507595,0.04036026868420986,21.9605374,0.0,166,19,255.62171576124726,1248.27109,mp-1188192,Sm2Mn2Fe15,https://materialsproject.org/materials/mp-1188192,74.21831017146056,38.44528947983825,86.24298974854166,-21.47592368548501
-7.9099761292307695,-102.82968968,7.735628045314886,0.26189460519230706,28.3071184,0.0,139,13,176.12949773938348,820.5,mp-985581,SmFe12,https://materialsproject.org/materials/mp-985581,70.48598253872548,39.84648152395667,68.2553344421141,5.562583510200006
-7.215520115227273,-317.48288507,5.243535495421288,-0.432409461136363,3.5e-07,0.8013000000000012,116,44,527.4048847951966,1665.4027199999998,mp-680339,Mn4Si7,https://materialsproject.org/materials/mp-680339,41.51918111622754,47.17650875187349,69.23032094432942,-16.762329165449184
-6.454207355277778,-232.35146479,6.590342720084886,-0.7170275725000003,0.0,0.0,62,36,470.2980016643769,1866.5174,mp-21661,YSi3Ni5,https://materialsproject.org/materials/mp-21661,56.95287254328185,36.254130295266435,70.41186718281857,-4.559740151849415
-5.313247081666667,-31.87948249,9.1701936647362,-0.2864439700000005,7.54e-05,0.0,191,6,83.6766430587075,462.09755,mp-1217570,TbCu2Ni3,https://materialsproject.org/materials/mp-1217570,78.64693029757105,19.78028242178356,87.15555764573374,-14.758672354210304
-6.4293809325,-77.15257119,8.585991669507129,-0.15420019395833387,7.1983976,0.0,47,12,167.7085029963337,867.1544449999999,mp-1223140,LaCe(CoNi)5,https://materialsproject.org/materials/mp-1223140,78.76246913910487,19.076535953786095,86.26499147128496,-14.510357609527555
-6.196177898333333,-37.17706739,8.915655689104414,-0.1509933604166669,3.6601809999999997,0.0,191,6,82.75201108606127,444.30659,mp-1219076,SmCo2Ni3,https://materialsproject.org/materials/mp-1219076,78.68719829190744,19.918289557686442,87.5330136481743,-15.01650580609498