energy_per_atom,energy,density,formation_energy_per_atom,total_magnetization,band_gap,sgr,num_sites,cell_volume,weight,mp_id,formula,URL,tsne_cry_0,tsne_cry_1,tsne_xrd_0,tsne_xrd_1
-6.993565177307692,-181.83269461,5.641606057069758,-2.109944009689232,4.99999985,1.6486000000000005,11,26,411.6118213428625,1398.4324900000001,mp-1194034,MnV2(PbO4)2,https://materialsproject.org/materials/mp-1194034,-26.156508495027733,-42.414086297759575,-20.43936109847781,-43.53265234201991
-4.353641854,-87.07283708,6.335738350123117,-1.05915476696875,0.0,2.2443,14,20,343.38954263864673,1310.1928,mp-10798,HgSeO3,https://materialsproject.org/materials/mp-10798,-24.74128136974307,-46.34101623265319,-18.10846470387727,-37.17941143628924
-4.799578566666667,-86.3924142,3.2298361411949514,-1.0009625853968258,0.0,1.3377000000000003,15,18,453.1682850384172,881.4362504000002,mp-9843,Sr3(AlP2)2,https://materialsproject.org/materials/mp-9843,14.989258070887468,-17.880949191850945,4.60886304617109,0.63522163240743
-5.3884466344444455,-48.49601971,7.181362359915887,-1.89427944375,0.6263173000000001,0.0,123,9,143.95860309951274,622.5803,mp-20942,Ba2TlCuO5,https://materialsproject.org/materials/mp-20942,6.779280149318465,-65.62653175655689,10.231953416797452,-48.69170846975543
-7.069031681489363,-332.24448903,4.192477028040105,-3.303260227154256,0.0003677,3.4917,146,47,673.1084115253957,1699.4430631999999,mp-1218595,Sr6Al12Bi2O27,https://materialsproject.org/materials/mp-1218595,-23.61074375530035,-30.47793766950829,-5.9300490961331445,-8.883540697282678
-7.597490911904762,-319.09461830000004,5.639323621208402,-3.3841257764806545,0.6666271,0.0,176,42,636.5829203083782,2161.8866,mp-1214802,Ba2Sm3Si3SeO12,https://materialsproject.org/materials/mp-1214802,-20.06301732574148,-33.276785381054566,-9.95649693124599,-33.542846126965735
-4.087245511,-81.74491022,7.963340621033666,0.002848644416666701,0.0,0.0,63,20,294.2950440050668,1411.331876,mp-752678,AgAuO3,https://materialsproject.org/materials/mp-752678,-20.823400787586007,-34.09785088731651,2.0386821032837474,-47.82078260187303
-4.377908728214286,-122.58144439,3.9632552957517695,-0.9445656624659864,0.0,0.8115999999999999,62,28,788.6935645420201,1882.397144,mp-616026,Sr3InP3,https://materialsproject.org/materials/mp-616026,12.928881270268274,-19.232637056587095,-1.8114696965548167,-27.193933462664557
-4.1772315835,-167.08926334,4.337265397758312,-1.6308812049247128,0.025364575,2.0654000000000003,14,40,786.5286698383679,2054.38324656,mp-504852,Cs2Na3InO4,https://materialsproject.org/materials/mp-504852,-32.43338365996265,-35.69743329874592,-4.236288471969696,-29.01352557701805
-6.847655222999999,-136.95310446,4.807508490912872,-1.8563450229375007,2.999999625,0.05659999999999954,62,20,396.6587380022022,1148.3862800000004,mp-10328,LaCrS3,https://materialsproject.org/materials/mp-10328,13.563693715630874,-16.43325385872528,4.900678460411823,-0.38123231398794666
-8.611771014761906,-180.84719131,4.601977004622093,-3.2009394471909527,0.0,1.4581999999999995,12,21,276.3475518035853,765.8628000000001,mp-775944,Ba2Ti6N2O11,https://materialsproject.org/materials/mp-775944,-11.315323272704775,-20.535363041245052,-6.741467431090106,0.4499351327714363
-6.9911019535714285,-97.87542735,7.988800246775119,-1.830357982142857,5.999999900000001,0.3426999999999998,74,14,196.11670512223668,943.5112,mvc-6966,Ca(WO2)2,https://materialsproject.org/materials/mvc-6966,-8.60671592783247,-52.032962982949236,-3.2119155915801887,-38.66117166790888
-7.994318006190476,-167.88067813,4.611613222749095,-3.109555806845239,9.6e-06,1.4338000000000002,139,21,276.80602318546187,768.73972,mp-753864,Sr2Li2Nb4O13,https://materialsproject.org/materials/mp-753864,-29.965519625921143,-70.67854292879359,-1.479902808921505,-54.14270826399248
-6.105455386666668,-109.89819696,5.07718002671955,-0.6979539810577775,1.00842495,0.0,2,18,431.89677356498083,1320.5456900000001,mp-1246840,Ba4MnN4,https://materialsproject.org/materials/mp-1246840,-0.8488938491620617,-27.15909104644244,-13.151235897813402,-28.38375718628736
-6.51799500265625,-417.15168017,6.36279113418305,-2.9589857703710942,1.999999975,0.0,141,64,998.5188939979288,3826.0872,mp-15509,Yb4Si2S3O7,https://materialsproject.org/materials/mp-15509,-22.172362054823193,-44.294322622283346,-17.086867894504927,-37.284809533607934
-4.961742782857144,-34.73219948,6.053396128846113,-0.5258427242857137,0.0,0.0,12,7,130.29537767471427,474.9840358,mp-12005,Tm2Al3Si2,https://materialsproject.org/materials/mp-12005,36.702589272047376,-13.559655928200064,6.19021904842355,-2.405962784628389
-5.554081361470589,-188.83876629,6.837629993601958,-1.8111620769117651,0.1849941,0.0,99,34,447.02672793697235,1840.7296,mp-1218932,Sr2CaCu2(BiO5)2,https://materialsproject.org/materials/mp-1218932,9.817072997171072,-68.38532225103664,11.841266556224356,-46.25056009166082
-6.7461463592857145,-188.89209806,5.164935376305695,-3.133324181932857,0.0,3.59,176,28,572.5246821588847,1780.7789600000006,mp-1209886,Nd3Ta(Cl3O2)2,https://materialsproject.org/materials/mp-1209886,8.254216315773322,-10.397249364487864,-11.968963578620635,-21.97461473899497
-7.341685356499998,-146.83370713,5.143293987838226,-0.724540838838999,0.0,0.6961000000000004,176,20,440.53600467974684,1364.5004,mp-1106080,Ba3Ir(CN)3,https://materialsproject.org/materials/mp-1106080,-1.3038848328226138,-23.01815083111434,-14.863490538678679,-25.66151352605591
-5.349593672857141,-74.89431142,6.2338325930810905,-1.624650940892857,3.0207822999999996,0.0,122,14,281.97319822571114,1058.55609,mp-675252,Yb2MnS4,https://materialsproject.org/materials/mp-675252,12.958612738676868,-3.7316011717544906,-0.587564884864048,-13.779982657384693
-6.40407497064516,-397.05264818,6.480491307265544,-0.6805732637096772,10.36902945,0.0,12,62,1344.0762069219575,5245.4498,mp-624355,Ce14Si11Ni6,https://materialsproject.org/materials/mp-624355,47.14732919075204,-13.497912840396431,28.318449826490912,10.480953222941746
-4.0629794625,-32.5038357,6.0158491176671305,-0.8085998211979177,2e-06,1.7206,12,8,204.5204960665688,740.9428,mp-1206068,InBi2S4Br,https://materialsproject.org/materials/mp-1206068,2.508653661084525,-7.744538820089004,12.891103086207854,-14.783458164255395
-6.52262954625,-52.18103637,8.692364593048612,-2.3635794760351567,1e-07,0.08590000000000009,107,8,162.94983694401463,852.9877099999999,mp-1215868,Yb2USe3O2,https://materialsproject.org/materials/mp-1215868,9.635028625123487,-68.65179330770663,14.443511445580073,-16.626654302423393
-3.77978042,-52.91692588,5.17714199594918,-1.4958841328571428,0.00036705,2.1035,15,14,552.1647328202964,1721.5104,mp-756245,BaYI5,https://materialsproject.org/materials/mp-756245,2.967803750787028,-28.985381838492643,-4.1954749451547,-29.664489232194853
-7.258046481833333,-435.48278891,6.29160913694983,-0.3683478994722227,9.85e-07,0.0,19,60,881.8596005515338,3341.2739999999994,mp-568966,NdBC,https://materialsproject.org/materials/mp-568966,9.982392295135051,-59.67627435433128,-1.0485142878650526,-32.77272585230885
-6.494527326749999,-259.78109307,5.256368269016962,-2.50304155527825,0.0,3.7087,186,40,645.4812141387944,2043.2443264,mp-561124,Ho3Se4O12F,https://materialsproject.org/materials/mp-561124,-31.242952658213916,-53.011414522074936,-21.386335110483092,-43.57407238419635
-6.1793350730555545,-222.45606263,5.542982782874026,-2.5534808723611118,4.000000475,0.0,62,36,656.4562901552088,2191.292,mp-30093,Ba3FeO5,https://materialsproject.org/materials/mp-30093,-9.379437809385019,-31.805803357445434,-5.7168075862547845,-24.631174809308572
-8.893675831956521,-409.10908827,7.31710607152224,-3.48111214664855,0.0,2.0828,127,46,646.1554701785808,2847.26104,mp-1228430,Ba3Ta4TiO15,https://materialsproject.org/materials/mp-1228430,-32.19446370751127,-67.62650779232341,-4.528883685965499,-56.37302721024395
-6.460981138928572,-1085.44483134,5.0177651321499175,-2.3128670056808045,0.00041686666666666654,3.6441,14,168,2631.663510863947,7952.2788,mp-683974,Pr2(SeO3)3,https://materialsproject.org/materials/mp-683974,-29.90870714912137,-53.16524271474901,-20.659596608032906,-55.00485466616973
-5.007772644285715,-35.05440851,5.844155424560766,-0.5433344385714288,4e-07,0.0,12,7,132.68509257130273,466.97625580000005,mp-3328,Ho2Al3Si2,https://materialsproject.org/materials/mp-3328,36.704894872278274,-13.571625042087529,6.203202294932848,-2.413947205895437
-7.312547377857142,-204.75132658,6.027552686578662,-2.757217249553572,1.9264451,0.0,2,28,353.8117554998987,1284.2932,mp-697672,Ce2(GeO3)3,https://materialsproject.org/materials/mp-697672,-8.912706066970086,-47.511301448812205,0.3707015352901717,-32.41208170754862
-4.486456565555557,-161.51243636,5.978415003947358,-1.0172789903240749,0.0,2.4819,14,36,1103.9792677522432,3974.6408,mp-540939,Ti(TlS)4,https://materialsproject.org/materials/mp-540939,-0.9223213727729276,-22.67226236226658,-13.493513114020386,-29.429099532998947
-7.797847030833334,-374.29665748,5.216619456628288,-2.759006759062501,0.999999475,0.15839999999999987,55,48,738.7044651644234,2320.65612,mp-1201335,LaNb2CuBrO7,https://materialsproject.org/materials/mp-1201335,-29.290927639203954,-68.88926387686557,0.5251377548491049,-51.439251559857844
-6.486427794411764,-220.53854501,4.746417127332247,-2.02819864882353,42.0000018,1.9535,12,34,492.98526743925737,1409.129,mp-1228526,Ba3Fe10SnO20,https://materialsproject.org/materials/mp-1228526,-7.318624695411217,-43.302682010458184,-0.44070529326197133,-26.40796300601155
-5.666729110416667,-136.00149865,5.655845497495204,-1.8132279823697919,0.0,1.5553,173,24,518.7782228171363,1766.9741000000006,mp-554781,Tb3CuSnS7,https://materialsproject.org/materials/mp-554781,12.6801756415009,-13.306375793722253,1.5593434136041142,-5.278084395778152
-6.0432521180555545,-217.55707625,3.6316279406994414,-2.653526398381705,9.216666666666668e-06,3.7843,160,36,636.4254180767467,1391.87352708,mp-1225970,CsNaSiO3,https://materialsproject.org/materials/mp-1225970,-36.263966744392526,-20.038518461254327,2.373541454087034,1.0218568602618674
-4.466451442916667,-107.19483463,4.600372628993299,-1.940255229114584,2.125e-06,2.0868,62,24,697.745301250525,1933.04,mp-18309,Ba2CdS3,https://materialsproject.org/materials/mp-18309,0.21916454310035374,-22.96615684829402,-13.958421759131735,-27.87469574772293
-5.777309118181818,-254.2016012,4.2502952624424,-0.5818711826836362,2.000048825,0.0141,130,44,946.7412359580792,2423.2672,mp-1246863,Sr5(FeN2)2,https://materialsproject.org/materials/mp-1246863,19.845895055031445,-43.51864223257754,0.42061953071316666,-28.726633505103372
-6.108026546153847,-79.40434509999999,6.587975427153574,-2.262954937019232,3.4e-06,0.0,123,13,178.35913078813863,707.61695,mp-9117,Sr2YTlCu2O7,https://materialsproject.org/materials/mp-9117,10.64350302870116,-67.80010882875143,39.80171607925402,-50.01559847452694
-8.3275053222,-416.37526611,7.7498979972851805,-2.8636646798500003,7.9e-06,1.2672000000000003,146,50,553.9397169687494,2585.2908,mp-767456,Li3Ta5Cu2O15,https://materialsproject.org/materials/mp-767456,-35.791660029341884,-78.07970676471425,3.883314092896932,-56.250988305718266
-6.333009320833333,-455.97667110000003,5.373066100692104,-2.516317920015,5.972300700000001,0.03329999999999966,62,72,1364.3579937044542,4414.7024,mp-556954,Ba5Ru2Cl2O9,https://materialsproject.org/materials/mp-556954,12.832834001702892,-18.756705634415408,-2.9100973236192456,-25.672708767113534
-7.215274637916668,-346.33318262,4.460415997884401,-2.935280378270834,3.0000001,2.8758000000000004,5,48,642.0081865083322,1724.51446,mp-562568,KHoCoSi2O7,https://materialsproject.org/materials/mp-562568,-22.354199536430126,-36.94571166734106,-19.477639585278204,-27.628756919871
-4.55182164,-40.96639476,6.396687900666354,-2.5651610457933334,0.0,4.9356,164,9,154.56123700802047,595.3970191999998,mp-1208162,Tl2GeF6,https://materialsproject.org/materials/mp-1208162,-26.693589802820753,-21.28426960250528,-16.915897667383508,-11.259927597042818
-7.236049515499999,-434.16297093,6.008451146548282,-0.3401556389722212,0.013951775,0.0,19,60,904.9885604046632,3274.5869999999995,mp-570767,PrBC,https://materialsproject.org/materials/mp-570767,9.92667205471675,-59.661270988043434,-1.238520521591699,-32.884132507668475
-4.399211346590909,-387.13059849999996,3.31932141192464,-1.687067547390157,0.000187525,1.4296,14,88,1857.4198703940235,3712.8747944,mp-1203218,Rb9Al(HO2)4,https://materialsproject.org/materials/mp-1203218,-4.752366010996054,-33.39290945246041,-2.14960780250414,-28.95684385340668
-5.065379002692307,-131.69985407,8.0058128858102,-1.2124149643269235,3e-07,0.0,12,26,382.75751134702085,1845.3556,mp-557269,Ba2Hg3(PdO2)7,https://materialsproject.org/materials/mp-557269,9.352168382674693,-68.98767043602935,15.2243391915181,-3.3017888069194163
-4.7269837385,-189.07934954,6.369768370704584,-2.0367974729375007,1.795e-05,1.4266,122,40,922.3756484379206,3538.2,mp-684680,Yb2S3,https://materialsproject.org/materials/mp-684680,12.99221942196277,-3.8037155516235517,-4.2491935531787846,-17.331853826021813
-8.02473086125,-128.39569378,4.72884591091926,-3.157252811718749,6.900000000000001e-06,1.7817,5,16,218.02760728500908,620.89414,mp-756854,Sr2LiNb3O10,https://materialsproject.org/materials/mp-756854,-29.72155335688366,-70.16838601877751,-2.0921336170996807,-54.572927175159776
-4.72174805,-28.330488300000003,7.675541446731093,-1.533050381793333,5e-07,2.3945,99,6,122.30150677641852,565.3166,mp-1227332,Bi2BrClO2,https://materialsproject.org/materials/mp-1227332,-3.3187588622012854,-58.087095407498325,2.830995165141145,-48.71115515313187
-7.342030778571428,-51.39421545,3.9825850513261103,-3.3441633357142853,0.0,4.5488,8,7,99.41018262373586,238.422282,mp-550751,BaBeSiO4,https://materialsproject.org/materials/mp-550751,-25.2410891792533,-26.65207561487104,-18.551434581460853,-11.301879575299466
-7.027770170454545,-154.61094375,5.019734179493688,-1.1242888642636355,0.00056065,1.1662999999999997,2,22,495.3643978214145,1497.4641,mp-1246917,Ba3Y3N5,https://materialsproject.org/materials/mp-1246917,-4.0902998170660405,-30.07181389786344,-2.844874484287265,-32.142583355404184
-5.853638918947368,-111.21913946,6.616322535044321,-1.86268689002,13.0053841,0.0,1,19,285.87354407736166,1139.046735,mvc-3060,Ba2Mn3Tl2Zn2O10,https://materialsproject.org/materials/mvc-3060,8.932929543355527,-63.74499429647773,9.786801263804994,-44.65314473040786
-5.9673660704545455,-262.5641071,4.614426349353728,-2.0929428164034105,0.0,3.3052,14,44,638.0509533804592,1773.06227712,mp-559160,NaSmSe2O7,https://materialsproject.org/materials/mp-559160,-29.98879254173764,-53.12456365698257,-15.402664568088241,-50.99346266927079
-6.870467391666666,-82.44560870000001,4.977489682653391,-1.0010013057142852,7.000000675,0.0,62,12,253.38161785985932,759.5150480000001,mp-1211143,LiEuP,https://materialsproject.org/materials/mp-1211143,30.993039719932828,-38.25096828279312,19.26417938846172,4.954454207772396
-7.068088893333332,-42.40853336,4.637499785366635,-1.278535966348889,0.0,0.05249999999999977,59,6,135.19074315600164,377.55634,mp-27848,TiIN,https://materialsproject.org/materials/mp-27848,11.336600768384681,-19.51835378388858,-18.480556558884487,-9.476722184470301
-4.836726312857143,-67.71416838,4.906435855367467,-0.6189270257142857,9.000000000000001e-07,0.0,63,14,269.98013637996934,797.7170000000001,mp-1210778,Li2Sm2Si3,https://materialsproject.org/materials/mp-1210778,32.92264791184978,-23.147226387812893,19.295734194510374,5.015531791610592
-7.617691252,-38.08845626,7.219437753257911,-3.3426856502187503,0.0,2.166,164,5,94.69002195245193,411.6788,mp-13972,Sm2SeO2,https://materialsproject.org/materials/mp-13972,24.47556950767485,-41.12773386628788,20.31560580496914,-36.68891459442854
-5.971066685384615,-77.62386691,7.058400300560836,-2.2075113852884627,0.0003584,0.0,25,13,201.6225574292486,857.0305699999999,mp-1228434,Ba2LaTlCu2O7,https://materialsproject.org/materials/mp-1228434,9.397034744773991,-66.16843726662069,11.14922932464768,-48.32589235374043
-5.599710061666666,-100.79478111,5.9182000100776095,-0.4019371782407409,0.007480199999999999,0.0,193,18,458.06517316599604,1632.5549999999996,mp-1209928,Nd5Si3B,https://materialsproject.org/materials/mp-1209928,32.61119011643108,-40.54291198388562,23.202664533365198,-20.754853578893474
-7.584339143333334,-68.25905229,5.9515565530744565,-2.8248526908333336,0.0,0.9379,148,9,118.80307767907246,425.80344,mvc-15457,La2CrO6,https://materialsproject.org/materials/mvc-15457,11.855591297886429,-83.92342313799628,8.410247287289845,-21.05738519618141
-7.216595126666667,-64.94935614,5.710271244985858,-2.446551699375001,9.693516,0.0,139,9,146.57710628978722,504.0502,mp-1078984,Ce2Fe2S2O3,https://materialsproject.org/materials/mp-1078984,17.672080276603825,-39.99595002394165,17.599800217809246,-41.096234608259294
-7.564120860833333,-363.07780132,3.921115069254545,-3.4026331274375017,2.5e-08,4.6817,14,48,734.3220048595197,1733.9917999999998,mp-559670,KBaYSi2O7,https://materialsproject.org/materials/mp-559670,-23.811121376112858,-33.07035404738162,-6.681896190916344,-24.305261357666645
-7.315742560833333,-175.57782146,3.6698531643409047,-3.4928645121875013,1.7e-06,4.1902,4,24,334.18837089239065,738.5687544,mp-1218879,Sr2Al2SiO7,https://materialsproject.org/materials/mp-1218879,-21.73219275352603,-32.26099970913883,15.994230838287187,-0.12232645914524215
-6.36715805125,-101.87452882,5.862230852061646,-1.939966275625,3.9999998999999997,0.2875000000000001,141,16,300.5574007525965,1061.0632,mp-1214454,BaMoO2,https://materialsproject.org/materials/mp-1214454,23.39240667498693,-42.293984155158775,6.536481965549892,-55.31674154941386
-4.870424978833333,-292.22549873,4.4140554644866965,-1.846617547000001,0.000334325,0.8595000000000006,64,60,1776.4986352530755,4722.299999999998,mp-1096883,Ba5(SnS4)2,https://materialsproject.org/materials/mp-1096883,0.7131376502356014,-23.287487067392696,-13.924239460854384,-27.985941234162112
-6.32779509015625,-404.97888577,5.6481726516276165,-1.1851749410937495,2.990962525,0.0,20,64,1608.936470326224,5472.6512,mp-1215059,Ce3C2Br3,https://materialsproject.org/materials/mp-1215059,26.900445345695015,-20.554580692654934,6.395965862136527,6.761056682969347
-5.5673375133333325,-100.21207524,3.959741438636721,-2.167200695517088,1.145e-05,3.8828,2,18,301.8603220403822,719.8197676,mp-995230,Cs2Si(HO2)2,https://materialsproject.org/materials/mp-995230,-7.130780603977609,-33.94003724311211,-5.122722845928107,-29.291424915476583
-4.6923985508333335,-56.30878261,4.91018456536633,-1.3659936292,0.0,1.1216999999999997,12,12,358.8939631537353,1061.2431,mp-1227976,Ba6Br2N3Cl,https://materialsproject.org/materials/mp-1227976,0.04802688387669507,-27.19574229048064,3.7502320828764772,-58.593188831610576
-4.4008141075,-17.60325643,6.973010159366624,-0.8178688745312499,0.0,0.6898999999999997,186,4,113.95620093049986,478.53,mp-1012435,PbS,https://materialsproject.org/materials/mp-1012435,4.898372089281521,-5.969690367015043,1.1050868579610658,-7.196251507327743
-6.70012129375,-268.00485175,6.633127604148982,-2.4384560363125005,2.00000725,1.4952,55,40,900.7939820339876,3598.2781999999993,mp-557063,Sm7V(Se2O)4,https://materialsproject.org/materials/mp-557063,29.292694317737737,-19.385497264022817,15.803363351698088,1.9215382156077343
-4.163897310833334,-449.70090957,6.556344628785112,-0.8246577713888891,0.0006564583333333334,0.19640000000000013,14,108,1951.5323011511148,7705.2800400000015,mp-684006,Ag3TeIO4,https://materialsproject.org/materials/mp-684006,27.774532473066035,-20.182022370928745,16.41923439737049,1.5116582598577513
-5.777516309,-57.77516309,7.545557385572428,-1.6365489632499999,0.0,2.1209,148,10,166.69682546115394,757.4772,mp-755382,BiSbO3,https://materialsproject.org/materials/mp-755382,-25.242703192293753,-60.69695318149462,-20.956876555403646,-52.509961685307815