energy_per_atom,energy,density,formation_energy_per_atom,total_magnetization,band_gap,sgr,num_sites,cell_volume,weight,mp_id,formula,URL,tsne_cry_0,tsne_cry_1,tsne_xrd_0,tsne_xrd_1
-3.2039907823809517,-67.28380643,5.732100220611043,-0.5237684214609521,9.429999999999999e-05,3.1051,189,21,225.72338031622195,779.18616,mp-643108,Yb4Mg3H14,https://materialsproject.org/materials/mp-643108,1.3781483039810858,-53.250793113154366,0.2603809873031058,-48.29186598243403
-6.811618718421053,-258.8415113,7.435947246743605,-0.6226778801754375,1.55e-06,0.02149999999999963,128,38,388.46021925229684,1739.5373599999998,mp-505720,Ho4NiB14,https://materialsproject.org/materials/mp-505720,8.396330682272763,-58.05551802225282,6.529070188531488,-49.53665598235371
-4.399872822727274,-48.39860105,7.261146182171013,-0.4270688232845462,1e-07,0.08009999999999984,6,11,255.1978725031769,1115.9202,mp-1101007,Tl5NO5,https://materialsproject.org/materials/mp-1101007,-3.43444082469064,-29.29850292550444,-17.947217062155772,-60.94637581569878
-7.3667977929166675,-176.80314703,5.591322962855303,-2.3951287126005743,6.01557495,0.0,15,24,359.200178699156,1209.4893037999998,mp-1213245,CsEu(MoO4)2,https://materialsproject.org/materials/mp-1213245,-47.706861430875435,-54.503048029669095,-21.7308081892358,-58.316540098717326
-5.902390125714287,-82.63346176,3.902810624543376,-0.8678024545914279,2.385e-05,0.0,176,14,297.6912852859085,699.6720240000002,mp-1245891,Sr3ScN3,https://materialsproject.org/materials/mp-1245891,7.1631169217520085,-39.38570860193232,7.020585975904914,-35.052956462393716
-6.914483693125,-221.26347818,6.7998742440191515,-2.8649063379687503,1.000000025,0.0,15,32,443.62853469963414,1816.65,mp-17702,Yb2SiO5,https://materialsproject.org/materials/mp-17702,-14.9363864999343,-34.995165647861306,-16.27666674171611,-35.10230190358667
-6.6693336049999985,-40.01600163,6.806140758072424,-3.191503019583333,0.0,3.6743,166,6,127.27464517824473,521.6674399999998,mp-755565,HoBrO,https://materialsproject.org/materials/mp-755565,25.08015968449897,-44.905548669711024,20.67781566436961,-34.90590572596913
-3.8713620225,-46.45634427,6.716825826558527,-1.0728863974856324,0.0,1.3879,139,12,342.0264345422161,1383.4856836,mp-9986,CsAuO,https://materialsproject.org/materials/mp-9986,2.0575721792727584,-10.062309139757096,-10.27635538408306,-21.733718426043712
-4.092626734117648,-139.14930896,4.628633522454728,-2.821712497160447,0.0,4.680199999999999,64,34,658.5517107613111,1835.6656791999999,mp-17951,Cs4Zn3F10,https://materialsproject.org/materials/mp-17951,-53.65290903670753,-62.11025332344685,-22.476735837377948,-13.761824614106633
-9.520860542608695,-218.97979248,7.898832363115972,-3.404339692173912,0.0,2.1886,38,23,310.92507076753213,1479.00468,mp-769349,BaTa6O16,https://materialsproject.org/materials/mp-769349,-48.05041200695809,-61.566600282627675,-1.8882478839767125,-56.630398862204885
-6.8352954015,-136.70590803,4.793110152114875,-1.9554849054375,1.99952205,0.0,62,20,396.38885248980176,1144.16788,mp-1211380,LaVS3,https://materialsproject.org/materials/mp-1211380,13.541845889673588,-16.286590403561608,4.951426605351216,-0.3741364134432592
-7.074455737142857,-49.52119016,5.322923356127558,-3.6056671539200016,0.0,3.6754,107,7,120.60575902693293,386.6065152,mp-1228342,Ba2ScO3F,https://materialsproject.org/materials/mp-1228342,-3.1788795092343487,-62.2191944468095,-3.261290462638218,-6.181545956923194
-5.683454337532468,-437.62598399,6.3732451837121245,-1.8525995946834413,0.0,1.4716999999999998,1,77,1795.5466957690148,6891.412399999998,mp-1225863,Ho20Cu6(Pb3S14)3,https://materialsproject.org/materials/mp-1225863,7.995162349899714,-5.9632040000718,-6.861793239430478,-13.383388506703534
-5.84516493076923,-75.9871441,5.131792035701117,-1.8262956946153843,0.00011540000000000001,0.0,162,13,243.44844776033523,752.3621999999998,mvc-615,Ba(SbO2)4,https://materialsproject.org/materials/mvc-615,-44.46480195583954,-49.84777365073146,-18.648522994310085,-54.420752982828034
-6.7534180558333325,-162.08203334,4.854195785299676,-2.851055572604168,0.0,3.1716,35,24,340.50326386534715,995.3813,mp-1217786,SrYGa3O7,https://materialsproject.org/materials/mp-1217786,-7.183549008961728,-43.98001399382903,9.317904799435974,-36.43099685656645
-8.0267980995,-160.53596199,4.79476916274759,-2.180516333937501,6.996003999999999,0.0,62,20,470.1446112491294,1357.5320000000002,mp-1189927,EuZrS3,https://materialsproject.org/materials/mp-1189927,9.709238138496168,-7.815701666200402,-8.067925464304732,-12.397143729780812
-4.03387933,-16.13551732,7.13753100901033,-0.5568018175000002,4e-07,0.0,63,4,93.58326969589676,402.251,mp-10651,YbSi,https://materialsproject.org/materials/mp-10651,32.250725224641954,-39.924884211099,12.832445375215983,-18.58689187696146
-4.989583684166667,-59.87500421,6.22292496500782,-1.7540743457031251,1.9978058999999997,0.04469999999999974,8,12,259.4933739228158,972.46,mp-1216030,Yb4FeS7,https://materialsproject.org/materials/mp-1216030,8.702851064626154,-5.237390221761942,-6.004603437127843,-16.821702658627597
-6.952646436111111,-250.29527169999997,4.145687346771034,-3.1680576538194436,0.0,3.8991,20,36,556.303785575054,1388.8632,mp-560233,Sr5B3BrO9,https://materialsproject.org/materials/mp-560233,-19.464851811961452,-31.112161541793647,4.142580641556866,-21.667852573361973
-5.564521258658536,-912.58148642,3.35149078104468,-2.220048072404332,0.010478025,0.0,14,164,3820.240232288208,7710.4479999999985,mp-680314,Rb14Si6Ge4O17,https://materialsproject.org/materials/mp-680314,-4.949654471411222,-32.74761283378886,-7.277163637975971,-30.78452886493694
-5.12030089625,-40.96240717,6.353805431436727,-1.0185535470312503,1e-07,2.5587,217,8,241.054139769496,922.35778,mp-7562,TaTl3S4,https://materialsproject.org/materials/mp-7562,-1.0028895000084412,-24.313351401622505,34.39558912552063,-63.19612207981052
-6.849947831086958,-315.09760023,5.394276584619624,-1.1749812254913043,0.0,1.7783999999999995,2,46,978.8076268213865,3179.66572,mp-560022,Ba9Nb2CN10O,https://materialsproject.org/materials/mp-560022,-2.6421506410146995,-31.212573781265178,-2.8317589813457738,-31.808313724753226
-4.915984273333334,-58.99181128,6.348901389833322,-1.330187957604167,4.5832463,0.024399999999999974,123,12,185.28542631747803,708.4199,mvc-2990,Ba2TlNi2O7,https://materialsproject.org/materials/mvc-2990,7.1494785406606285,-63.554870264272736,8.619585416455951,-47.928062054970475
-3.776030806666667,-22.65618484,5.223881393885615,-0.05213151666666723,0.20374885,0.0,139,6,194.61571607712588,612.2406,mp-1186691,Pr2Mg,https://materialsproject.org/materials/mp-1186691,5.217131436595187,-35.982365508796114,9.722182544353377,-23.78874181972572
-6.958263161666667,-41.74957897,4.1415862621757835,-2.3740773868055567,0.2633351,0.0,59,6,115.28740288557732,287.5408,mp-23002,TiBrO,https://materialsproject.org/materials/mp-23002,11.439356656086462,-19.59810827879172,7.717083615077156,-20.71518177658248
-7.851850536666666,-188.44441288,5.8080070458432695,-2.5641166821839065,7.00000035,2.9235,15,24,348.82179208152945,1220.0613038,mp-1213304,CsGd(MoO4)2,https://materialsproject.org/materials/mp-1213304,-47.703340232278656,-54.63434062049286,-21.57301878733676,-58.414088194435465
-9.009197395869565,-414.42308021,7.404288979183158,-3.4559072372282604,3.3e-06,0.0,127,46,631.3526708913172,2815.1808,mp-1208813,Sr3Ta5O15,https://materialsproject.org/materials/mp-1208813,-32.4656476386867,-67.82042684430888,-4.123025462551927,-56.68572393106484
-7.483290517857142,-104.76606725,8.318030703817811,-0.3415141116071427,0.0,0.0,58,14,221.21991435346698,1108.1425944,mp-569564,Th2Al2C3,https://materialsproject.org/materials/mp-569564,1.3605876233066274,-52.470008946847926,7.0030559852315415,-32.70877340158343
-4.356459038000001,-87.12918076,6.428300477024997,-1.06197195096875,0.0,2.546,62,20,338.4450216822761,1310.1928,mp-9228,HgSeO3,https://materialsproject.org/materials/mp-9228,-25.262430573957893,-46.184569686425455,-33.87664758746716,-81.43660220406348
-6.424489333888888,-115.64080801,6.6486412011232625,-1.863143959351852,1.92258195,0.0,107,18,280.63810017576304,1123.6484,mvc-14949,Ti(BiO3)2,https://materialsproject.org/materials/mvc-14949,-28.296726696963315,-49.84716579693848,-20.018575933545478,-39.651333585526906
-3.4414772459375,-110.12727187,5.5868182060836675,-1.2010541873383622,2.0,0.008799999999999919,14,32,1269.9186263936033,4272.5912075999995,mp-1213362,CsSm2I5,https://materialsproject.org/materials/mp-1213362,6.390305312862881,-25.26887918150397,8.52546225461359,-3.249900048043945
-4.340767066875,-69.45227307,6.2518505779725455,-0.6091734976562506,0.0,0.4641000000000002,62,16,357.67399639109595,1346.6255999999996,mp-22982,CuBiS2,https://materialsproject.org/materials/mp-22982,4.155454830750276,-7.398752000895701,-20.93457960546136,-52.47755049835739
-8.69907774,-173.98155480000003,7.09033565373942,-4.00108556025,2e-06,4.456099999999998,62,20,245.33438417502208,1047.553288,mp-1207696,TmScO3,https://materialsproject.org/materials/mp-1207696,10.429918099915707,-82.63705253364098,50.349423203316924,-55.46673947780109
-6.218609816388889,-895.47981356,5.0638429501313516,-1.862892014305555,16.00062815,0.5413999999999999,1,144,2098.1158484957195,6398.24110848,mp-1076890,K4Na4Mo5W3O20,https://materialsproject.org/materials/mp-1076890,-31.45360512131825,-74.69665754788456,-22.333732057624818,-24.30889350913264
-4.855763641428573,-67.98069098,3.637566336084656,-2.529330086938572,4.45e-06,0.0,8,14,341.9814564648243,749.1424192000002,mp-674232,Ca2Sn2F3,https://materialsproject.org/materials/mp-674232,17.097397555853693,-22.071036581757703,0.7817045845580428,8.814728799304557
-5.804875245294117,-98.68287917,4.784957418187687,-1.5111106231617657,8.1645548,0.0,25,17,239.8026658964172,691.0078700000001,mp-705604,BaLaFe2Cu2O11,https://materialsproject.org/materials/mp-705604,-29.250493992199587,-68.45187161795593,3.0735574087718733,-47.46155335173764
-4.553314965,-18.21325986,4.6212078924557645,-1.27551180875,0.8965920000000001,0.0,166,4,157.24965234733241,437.61894,mp-27679,LaBr,https://materialsproject.org/materials/mp-27679,26.71869628161136,-7.58579266889642,-3.3127027804362155,-3.7583792431842338
-6.519135576428572,-365.07159228,3.9301904499820335,-2.4312423157142864,2.000000025,1.0125000000000002,33,56,980.8251895666107,2321.4328,mp-1237534,Sr2VO4,https://materialsproject.org/materials/mp-1237534,12.179940962575307,-18.34364682777189,-16.267564759851705,-29.85363009580069
-5.4096117785714295,-189.33641225,7.194004331586453,-2.0202243764642858,1.56e-05,0.0,6,35,546.2704121264035,2366.6241,mp-1228463,Ba3Sr5Tl5Cu3O19,https://materialsproject.org/materials/mp-1228463,9.93816872878691,-67.17509320892364,10.746782692088315,-44.084664489825315
-9.829651262307692,-255.57093282,7.490471993190452,-3.3762097699038454,6.0000134,0.0,12,26,371.9028300554877,1677.60448,mp-1225272,EuTa3O9,https://materialsproject.org/materials/mp-1225272,-32.70537441310472,-70.11351985811146,32.024271326225424,-59.567442175841386
-7.111452464166668,-341.34971828,5.270361606054161,-2.4692619945,9.17e-05,1.1595,15,48,668.1055344126697,2120.4908,mp-699636,KTb2Cu(MoO4)4,https://materialsproject.org/materials/mp-699636,-51.0176521493135,-53.81838696564471,-23.626576993998732,-59.82928391486136
-6.448548177222222,-348.22160157,4.3062629387078495,-1.9793588708333336,0.0014332000000000001,3.5355000000000003,15,54,863.3042280349474,2238.80012,mp-1195682,Th(As4O9)2,https://materialsproject.org/materials/mp-1195682,-46.60751260958274,-39.8290339025309,-38.007437875988096,-22.20103052808008
-5.773056305555556,-207.830027,5.30961154412279,-0.5052864077244439,0.024361575,0.0,62,36,748.9845430802839,2394.8952,mp-1245600,Sr4IrN4,https://materialsproject.org/materials/mp-1245600,23.834595320603064,-22.875908962439595,16.409592974865767,2.2700847904093484
-6.148628736388888,-221.35063451,5.961482846944943,-1.7519862744300003,1.012510425,0.1259999999999999,62,36,448.6712684751155,1610.76976,mp-505289,VCuHPbO5,https://materialsproject.org/materials/mp-505289,-22.164176170351716,-44.18102333167346,-17.02843800401036,-37.246134725529366
-3.8448016885,-153.79206754,4.832986465864348,-1.5415142254827583,3.625e-07,1.7129,14,40,998.370414613158,2905.7496304,mp-504601,Cs2ZnO2,https://materialsproject.org/materials/mp-504601,-5.247426557335568,-28.7226144378435,-6.511773376476449,-30.25723382973865
-7.147845698387097,-221.58321665,4.439269410939716,-2.2231276314112907,0.0,1.3110000000000002,12,31,431.02044753810134,1152.286,mp-583506,Tl2V8O21,https://materialsproject.org/materials/mp-583506,-31.135789903562323,-26.65332128189125,-38.09956526338396,-24.700084430343104
-5.2705659675,-295.15169418,5.73617404832291,-0.5698706138771418,2.4225e-05,0.9261,60,56,1294.543356933414,4471.8768,mp-1245756,Ba7GeN6,https://materialsproject.org/materials/mp-1245756,-2.233812229864766,-31.381949199983982,-2.5492379748972183,-32.31720461227545
-5.213144534666667,-156.39433604,4.521633530728458,-1.8661675758994256,4.00000015,1.4819,14,30,744.3436730500189,2026.8414228,mp-1193081,Cs6Cr2O7,https://materialsproject.org/materials/mp-1193081,-6.633203241765567,-28.63759091865273,-6.431060807473877,-30.160494243044838
-6.8553936381666665,-411.32361829,4.403938489366394,-2.303470988666667,2.0,2.1076,9,60,828.0899586623051,2196.1888,mp-1227827,BaV2(AsO5)2,https://materialsproject.org/materials/mp-1227827,-31.16664717311302,-29.320927085883227,-18.99179522354941,18.770673580690943
-3.779955821428572,-52.91938149999999,6.8851106379484674,-0.31597405892113073,1.15e-06,1.1627,11,14,415.2322299078312,1721.6818,mp-28490,Tl3BSe3,https://materialsproject.org/materials/mp-28490,8.295380556508558,-25.55264593988265,5.354026453811647,-33.14817156046812
-8.194196368,-163.88392736,7.140074375533737,-2.48282182425,10.91734645,0.0,14,20,236.25708000694766,1015.8708,mp-1211562,LiEu2RuO6,https://materialsproject.org/materials/mp-1211562,9.081272125538966,-82.6658227435883,50.34024190719997,-54.247837073066556
-4.8672666750000015,-68.14173345,7.837642410682039,-1.6225426909523808,0.0,0.14800000000000013,227,14,209.4195012446167,988.4472,mp-753983,In2HgO4,https://materialsproject.org/materials/mp-753983,-0.3127689303079826,-46.707405280735856,4.304963405672009,-55.10403460528853
-6.457256133658537,-529.49500296,5.092832772693246,-1.9200881753785664,0.0013946,2.1837,4,82,1166.836319773289,3578.6585600000008,mp-1196385,V6H2Pb4Se3O26,https://materialsproject.org/materials/mp-1196385,-26.568421929119573,-42.03580657906738,-20.70359822912037,-34.63194295544343
-8.58980588046875,-549.74757635,7.550735852681295,-2.806764371846713,2.8859,0.02190000000000003,38,64,826.3305320705547,3757.45672,mp-1220008,RbTa7(CuO7)3,https://materialsproject.org/materials/mp-1220008,-36.622286528409326,-77.93919911367016,-1.7814320280952851,-56.70878381359316
-5.718576880535713,-320.24030531,5.5702309153388985,-0.7839971591747609,4.385e-05,1.1059,60,56,1303.568915594375,4372.7847999999985,mp-1245657,Ba7TiN6,https://materialsproject.org/materials/mp-1245657,-2.2413611304293033,-31.27458722884837,-2.661701856999238,-32.24343435113702
-5.453742825277778,-196.33474171,5.739274339666488,-1.7197493251273157,0.0,1.1220999999999997,62,36,739.9985044722985,2557.636,mp-1219482,Sm2InCuS5,https://materialsproject.org/materials/mp-1219482,12.39569836982082,-5.45052927151812,-2.750022464914852,-14.460751075252144
-6.1856451592857145,-86.59903223,4.679533851142431,-0.6346921415557146,0.0,0.29979999999999984,176,14,330.7298596896585,932.0236,mp-1245933,Ba3CN3,https://materialsproject.org/materials/mp-1245933,-3.2697616704503925,-28.374935158180705,-31.263914246105355,-11.175032920555797
-6.8855780176086965,-316.73658881,5.566847498045221,-2.453826509782609,1.7704805000000001,0.0,15,46,670.0548960321977,2246.3148,mp-704669,BaYb2(MoO4)4,https://materialsproject.org/materials/mp-704669,-51.39606985398483,-53.166659451651746,-24.45542873769018,-59.560519246347134
-6.152759087142857,-172.27725444,7.154387781020963,-0.6215660706400011,0.00267135,0.3500000000000001,62,28,384.71147493077945,1657.51904,mp-643930,Eu2H4Pd,https://materialsproject.org/materials/mp-643930,33.33843966452055,-37.93809789434295,16.9029324437462,-23.559989391457872
-5.718269361250001,-137.23846467,5.0834552908582875,-1.8303605125781257,0.0,1.7596999999999996,173,24,548.4135613928577,1678.8739999999998,mp-560300,Nd3CuSnS7,https://materialsproject.org/materials/mp-560300,10.632202738522407,-16.238764423830045,1.225065614700855,-1.619813444064374
-5.94834907,-71.38018884,6.638154419236335,-1.5085794875000005,0.0,2.902200000000001,12,12,234.5290481612721,937.551,mp-543045,Tl2CO3,https://materialsproject.org/materials/mp-543045,-32.79224762668298,-31.81577541002148,-21.77523560515306,-38.790316846755964
-5.861370781666667,-140.67289876,4.7670770124928215,-1.8979691845225704,1.9999999,0.4185999999999997,173,24,567.5648233400298,1629.36562,mp-1191485,La3InNiS7,https://materialsproject.org/materials/mp-1191485,9.368627179012325,-7.893974117263224,-8.854707064509443,-10.407661933359933
-5.980312740714285,-167.44875674,5.267546473755672,-2.099934455,0.0,1.8759999999999997,62,28,438.30353794349566,1390.3824,mvc-5840,Ca(SbO2)2,https://materialsproject.org/materials/mvc-5840,-1.2630789158177729,-49.555903996699705,-6.6246528412499766,1.0765357849982786
-6.5384282760416665,-313.84455725,5.217470788518127,-2.089362854820402,0.0,3.0775999999999994,14,48,782.0708770467452,2457.2936,mp-558816,RbBi(MoO4)2,https://materialsproject.org/materials/mp-558816,-51.97932304550206,-51.69939241817927,-25.922770358864355,-52.89829233024963
-9.543498164615384,-248.13095228,7.404737265123939,-3.5150978789423077,0.0,2.2516,2,26,372.7454829201075,1662.16048,mp-758331,NdTa3O9,https://materialsproject.org/materials/mp-758331,-32.73406337475405,-70.12702296748935,32.045716925906675,-59.56441209240289
-6.1676427799107145,-690.77599135,3.8456194088600486,-2.565330924814538,0.0,3.5923,14,112,1938.486026157483,4489.312991999999,mp-557875,Rb3In(PO4)2,https://materialsproject.org/materials/mp-557875,-25.337283598036297,-35.378953236072675,-8.717540244347349,-28.727431250073643
-7.045390692777778,-126.81703247,5.354729686839868,-1.1145101997614817,2e-07,0.0,15,18,349.64053168940706,1127.4836,mp-1246282,Ba3(TiN2)2,https://materialsproject.org/materials/mp-1246282,-6.531154217057412,-33.388470003925335,15.161681604281974,-20.390021331784094
-11.375139147999999,-56.87569574,7.715221611781894,-3.353309769218749,14.0000006,1.3184999999999998,164,5,91.57105043265013,425.4588,mp-13973,Gd2SeO2,https://materialsproject.org/materials/mp-13973,24.47031065369596,-41.21386448648307,20.618846664333283,-36.600788303808045
-9.3370536575,-74.69642926,10.662795054994099,-0.1539672293750005,4.0378287,0.0,63,8,165.12924403691017,1060.3419999999999,mp-19937,NpSi,https://materialsproject.org/materials/mp-19937,53.97627708397918,-10.146128190715482,6.850384853582583,-32.48381237332696
-5.133230875,-82.131694,4.353752289706384,-2.0478953571142235,0.0,3.5279,11,16,326.26823951947136,855.43974616,mp-8314,Cs2NaAsO4,https://materialsproject.org/materials/mp-8314,-7.059625930138187,-29.01555697966205,-6.643844398738104,-28.930787250402197
-4.8249246275,-19.29969851,7.8326220599202365,-1.3569704242968743,0.0,1.0821,166,4,113.90289246148016,537.2703,mp-1001611,LuTlSe2,https://materialsproject.org/materials/mp-1001611,24.841155658671628,-11.033626066697225,13.704645876808208,19.872975335156962
-7.096603076666668,-170.31847384,4.168323702545067,-2.540704513298612,5e-08,3.0416,15,24,406.7835802185451,1021.1176,mp-1120808,Ti2ZnSn2O7,https://materialsproject.org/materials/mp-1120808,-24.243586855670706,-44.243604527042606,-18.55480633320337,-42.331378253446005
-5.179687692884615,-1077.37504012,7.341173367413847,-1.2124167892608175,9.2e-06,1.4949,205,208,5559.2967751366805,24577.4176,mp-1204271,Hf7Tl18Pb2S25,https://materialsproject.org/materials/mp-1204271,-1.3871987647651245,-22.43818914546987,-16.176902446496676,-31.4183477634797