energy_per_atom,energy,density,formation_energy_per_atom,total_magnetization,band_gap,sgr,num_sites,cell_volume,weight,mp_id,formula,URL,tsne_cry_0,tsne_cry_1,tsne_xrd_0,tsne_xrd_1
-6.517234775546875,-834.20605127,5.5992801426544245,-2.4794645222656246,0.0,2.7735000000000003,14,128,1720.5585938758663,5801.664000000001,mp-558184,BaGe2O5,https://materialsproject.org/materials/mp-558184,-8.438141099368096,-44.38727536493715,-1.957805208209906,-30.99250622230688
-5.396822417,-53.96822417,6.136229736893806,-0.2906462419999997,3e-07,0.0,63,10,217.6302819467411,804.2144000000002,mp-9095,Tb2Si3,https://materialsproject.org/materials/mp-9095,39.89897933324527,-13.023911306341255,22.81993219731586,1.3157538891721778
-8.163561827272728,-89.7991801,4.892670846365952,-3.306968132291667,0.0,0.8413999999999997,139,11,177.05337015184094,521.6763,mp-552963,Pr2Ti2S2O5,https://materialsproject.org/materials/mp-552963,5.7013510365046205,-41.74306751154002,-9.447080818804997,-13.14653957792336
-7.495535852424243,-494.70536626,5.251701990606478,-3.001470759305556,4.25e-06,2.3985,36,66,859.7377939839536,2719.0488,mp-766108,Ba3LiTi5(SbO7)3,https://materialsproject.org/materials/mp-766108,-33.89174493345266,-56.32161337254814,-5.447674995457349,-54.633356365198686
-6.175724583043477,-142.04166541,5.752705623847505,-2.0876085277756524,17.0549595,0.0,139,23,337.17063444288965,1168.0805799999996,mvc-63,Ba2Mg3Mn4Tl2O12,https://materialsproject.org/materials/mvc-63,8.438692003623169,-64.06972063156321,9.998964167679992,-45.827694387535956
-8.4213992459375,-269.48477587,7.111247764206585,-3.014948043489584,5.1675e-05,2.5824,62,32,479.3423937886977,2052.78072,mp-1217858,TaTiTlO5,https://materialsproject.org/materials/mp-1217858,-31.959579354246834,-32.42196662007685,-15.275840536322644,-55.22511408038228
-7.408465403653847,-385.24020099,5.082505378894217,-2.951741519385386,2.999999775,0.0,102,52,937.8596954282947,2870.5600000000004,mp-1200622,Ce3As2ClO7,https://materialsproject.org/materials/mp-1200622,-13.130837638974018,-59.486275601054245,0.7757599509621552,-33.81465057640761
-5.301582966071429,-148.44432305,5.664177887215232,-1.7025431796428572,0.0,3.1515000000000004,4,28,479.27972274940703,1634.846,mp-18578,TlZnAsO4,https://materialsproject.org/materials/mp-18578,-31.258947267286512,-31.09665056086407,-21.033170861048497,-12.928898622445756
-6.096305358461539,-79.25196966,6.9552250493325225,-2.2142275493269237,1.2e-06,0.0,123,13,192.67620953428315,807.03095,mp-654374,Ba2YTlCu2O7,https://materialsproject.org/materials/mp-654374,8.707438216451656,-65.02248257207043,10.609872761258694,-47.655495409092175
-5.619802145,-67.43762574,6.548061852068738,-1.9681490017708343,0.0012408,0.0,123,12,210.08945035001517,828.4531,mvc-2577,Ba2TlSn2O7,https://materialsproject.org/materials/mvc-2577,6.496457153385317,-65.94678086444846,9.090386540975029,-48.47491368894142
-7.20745266125,-172.97886387,3.888037489605432,-3.1208158505208337,3.00000025,3.1023,113,24,343.6701785088525,804.6799900000002,mp-1208846,Sr2CoSi2O7,https://materialsproject.org/materials/mp-1208846,-22.389431774458018,-32.088659417845214,3.7932128633378768,-33.78469816019088
-8.174966287272726,-89.92462916,5.012984608250172,-3.3217518436553024,0.0,0.8251999999999997,139,11,175.01300475666974,528.345,mp-552028,Nd2Ti2S2O5,https://materialsproject.org/materials/mp-552028,5.701055635642043,-41.74085572859883,-9.451059683745918,-13.154108754412384
-4.880198691666667,-87.84357645,5.4485828481769385,-1.5205241568237549,2.92034435,0.1876000000000002,12,18,346.2164654690792,1136.01008472,mp-616507,Cs2Na2IrO4,https://materialsproject.org/materials/mp-616507,-32.48665876038109,-35.65399974449042,-23.00749636603897,-25.227095815571147
-4.57116266875,-109.70790405,6.885495974795827,-1.900884045625,0.0,2.1683,182,24,535.2639487362824,2219.4948,mp-556118,BaHgO2,https://materialsproject.org/materials/mp-556118,2.1968925811051263,-53.768089914267904,-15.000506559688434,-50.06064156307485
-6.448242283483148,-1147.78712646,5.328348853520739,-2.352172940154494,4.0000401,0.0,36,178,2380.0927364125228,7637.2576,mp-1202498,Ba9Ge23O57,https://materialsproject.org/materials/mp-1202498,-8.437523353345034,-44.312582495167945,-2.084585266839244,-30.857302675546993
-6.957193392083332,-166.97264141,3.951200132498832,-3.2008205409375012,1.155e-05,3.901,113,24,343.61944386730323,817.6315999999998,mp-1191240,Sr2ZnSi2O7,https://materialsproject.org/materials/mp-1191240,-22.40713632160531,-32.07591808355532,3.8717377900576184,-33.761234237257746
-7.000579186666666,-252.02085072,5.790465919957792,-2.8088955357986105,0.0,1.287,62,36,697.9509454346659,2433.82484,mp-555681,La3CuS3O2,https://materialsproject.org/materials/mp-555681,-0.02713890811330716,-50.02872488998486,4.701278057032449,-33.956197000485105
-6.196945586315789,-235.48393228,4.523492515410873,-2.0586584665460537,1.0,0.4289999999999998,14,38,623.4619426619598,1698.37948,mp-18267,La2Cu(SeO3)4,https://materialsproject.org/materials/mp-18267,-29.97503168797635,-52.972012343153885,-20.00840088411553,-12.71859430854284
-5.60218887,-44.81751096,5.0132393927138015,-1.6917753567187503,0.3530159,0.0,99,8,133.3634365530025,402.63,mvc-7253,BaCuSbO5,https://materialsproject.org/materials/mvc-7253,-33.89008184308268,-68.60940445670678,1.3312252007246856,-49.71593556615511
-6.785904409166666,-162.86170582,4.256405213109373,-2.6461623610175,5.0000002,2.3398000000000003,113,24,380.3379139409063,974.90769,mp-22458,Sr2MnGe2O7,https://materialsproject.org/materials/mp-22458,-7.650018171683099,-43.53723012743059,3.3541296138120638,-33.132725630892075
-7.17957634984375,-459.49288639,5.536613255780629,-2.7814043585026047,4.83e-05,0.0,8,64,877.8185310100337,2926.8458,mp-773058,Ba6Ti7(Sb3O14)3,https://materialsproject.org/materials/mp-773058,-33.92759748589779,-56.46210339103716,-5.402352385524582,-54.66008144238233
-8.395649435454544,-554.11286274,4.8587424883487245,-3.357421346881312,0.0,2.1934000000000005,1,66,870.1040072551742,2545.92708,mp-686745,Ba3LiTi5Nb3O21,https://materialsproject.org/materials/mp-686745,-33.86421765039858,-56.21601774509621,-5.297560906614384,-54.62514752335362
-5.134925591111111,-92.42866064,4.365398576771968,-2.119910882490421,0.0,3.4746999999999995,2,18,316.7330739425771,832.6610076000001,mp-8313,Cs2Li2GeO4,https://materialsproject.org/materials/mp-8313,-7.287055674213536,-30.437517547687627,-5.7090397636318775,-29.35879460638253
-8.067731482857143,-56.47412038,5.695931169437365,-0.5572797057142854,21.70261,0.0,44,7,165.65767962897706,568.234,mp-1225258,Eu3Si4,https://materialsproject.org/materials/mp-1225258,32.906948123473946,-39.15829348569965,12.025963714934766,-18.793056797287786
-6.163068999230768,-80.11989699,7.256424865541209,-1.7964229800961544,3.9993266000000003,0.0,123,13,225.56347777906933,985.6946386,mp-1266525,Ba2AlTlW2O7,https://materialsproject.org/materials/mp-1266525,6.307818161769289,-65.80751367484244,-11.178469036034603,-60.41380332560258
-7.64965415546875,-489.57786595,6.267258317790192,-3.3159882156835945,1.235e-05,2.6065,141,64,953.903609062863,3600.2528,mp-16590,Tb4Si2S3O7,https://materialsproject.org/materials/mp-16590,-20.85354157857644,-33.953574745611164,-18.541215327715054,-34.94501566073873
-8.81017775560606,-581.47173187,6.550226515877466,-3.433633043093433,0.31209580000000003,0.0,8,66,880.5416687264258,3473.41872,mp-773118,Ba6Li2Ta9Ti7O42,https://materialsproject.org/materials/mp-773118,-33.92154261506408,-56.44157999540159,-5.850079781077294,-54.6437184040197
-5.571060781818181,-245.12667439999998,5.174634766728069,-1.7978284838636371,0.025232175,0.0,10,44,720.469245011831,2245.1536,mp-615789,Ba2(CuO2)3,https://materialsproject.org/materials/mp-615789,-7.556427382718908,-30.893026953823362,-7.6147371206723555,-26.170805592930037
-5.073547848333333,-121.76514836,5.460084828394788,-1.6244770622500002,1.00000015,0.0,69,24,346.5304825129555,1139.44073856,mp-19397,Ba2Na(NiO2)3,https://materialsproject.org/materials/mp-19397,11.72297497380441,-18.448375228092672,6.103870529530942,-21.670418927006526
-6.438043632173914,-148.07500354,5.288866174790077,-2.546916859239132,0.0,2.2538,150,23,334.684036730198,1065.9786,mp-554139,Ba3Ga2(Ge2O7)2,https://materialsproject.org/materials/mp-554139,-8.590277777786834,-43.333288984460104,-2.8736066445395125,-30.86269092813082
-8.184279077272727,-90.02706985,5.233540101642962,-3.339927627291667,0.0002479,0.7798999999999996,139,11,171.51981972975412,540.581,mp-5999,Sm2Ti2S2O5,https://materialsproject.org/materials/mp-5999,5.692364288559427,-41.748305098598706,-9.44698683523417,-13.180050149325671
-7.549339272307693,-196.28282108,6.318294126684332,-3.29345115056,1.02356345,0.0,176,26,423.670691912342,1612.0524599999999,mp-1209663,Pr3Ta(ClO2)3,https://materialsproject.org/materials/mp-1209663,-1.8349588490218218,-60.2450629847062,-0.6867191716027973,-50.29689181998685
-5.638059381363636,-124.03730639,6.769069166516839,-1.8130105850245453,0.0,2.1998999999999995,63,22,426.08029849893603,1736.8859999999993,mp-557563,MoPb3Cl2O5,https://materialsproject.org/materials/mp-557563,-23.938482779990267,-45.91153493218207,-14.18861233871707,-50.33345609821766
-6.238775211666668,-74.86530254,6.4112795654609815,-1.853439045364584,6.0867198,0.0,63,12,251.10057632837712,969.49,mp-1207591,YbEuCuS3,https://materialsproject.org/materials/mp-1207591,14.484140829906881,-18.949151762889915,6.320760811165448,0.13419355804706698
-5.257690911363637,-115.66920005,7.606665427203138,-1.7994300861363646,0.0,0.0,64,22,368.0385273078051,1685.9260000000002,mp-6027,Ba2Tl2CuO6,https://materialsproject.org/materials/mp-6027,7.6209168712298165,-65.89878888828028,10.324387319337614,-48.75309421653126
-5.308698914,-106.17397828,7.431866902647053,-1.5640465292500003,0.00182225,0.0,139,20,382.3721031664656,1711.335,mvc-10756,BaTl(BiO3)2,https://materialsproject.org/materials/mvc-10756,-26.4395680445917,-55.47725928994461,-5.052263536387457,-34.95159055468215
-6.021663737999999,-90.32495607,7.630412757968488,-2.1696673006666667,0.0003346,0.0,139,15,219.96882585554764,1010.788,mp-1208859,Sr2DyCu2(BiO4)2,https://materialsproject.org/materials/mp-1208859,9.650169321359405,-68.45203878300593,11.858171973234613,-46.40199855056593
-6.532486876875,-522.59895015,5.270930874526793,-0.8101495394459988,3.999902625,0.007699999999999819,14,80,1750.9644257903306,5557.961740000002,mp-1246254,Ba8(MnN3)3,https://materialsproject.org/materials/mp-1246254,-2.035996043138855,-27.831460041319556,-2.662701178581388,-31.29662579380878
-6.0205448960000005,-90.30817344,7.570725948320549,-2.167080406,0.00024870000000000003,0.0,139,15,220.9189846127248,1007.21335,mp-1208746,Sr2TbCu2(BiO4)2,https://materialsproject.org/materials/mp-1208746,9.641408545209368,-68.43387906392955,11.862880918990273,-46.411260867343074
-4.580816286666667,-219.87918176,6.893408220827621,-1.9255714322916664,0.0011848,2.1795,150,48,1033.3776933806623,4289.8686,mp-1228453,Ba3Sr(HgO2)4,https://materialsproject.org/materials/mp-1228453,2.2039904810870103,-53.73747535878907,-14.899853369778883,-49.8693351989585
-6.525066374285713,-91.35092924,4.962921270441412,-0.915366173877142,4e-07,0.0,176,14,338.60222999505953,1011.9944,mp-12905,Ba3CrN3,https://materialsproject.org/materials/mp-12905,-2.1631719716349647,-27.737754748250442,-4.410846016252155,-34.679514157593744
-6.729918867083334,-161.51805281,4.404580972007482,-2.1753430468489583,0.00010745,1.3262,39,24,321.027285246035,851.5251,mp-1190417,YV(SeO4)2,https://materialsproject.org/materials/mp-1190417,-29.825461161996323,-31.28377495264668,-22.062703493863445,-14.992736307695589
-5.695436744736843,-108.21329815,6.301829018947503,-2.1754357185526323,0.00020830000000000002,0.4236000000000004,1,19,337.20254856523036,1279.7006,mvc-2768,Ba2Ca2Tl2Sn3O10,https://materialsproject.org/materials/mvc-2768,6.286388655178344,-67.28676762812034,2.3748213180611013,-34.013770590277424
-6.476286892142857,-90.66801649,4.879113165786354,-0.9462293374485712,1.5e-07,0.0,176,14,343.70053399815697,1009.8852,mp-1245925,Ba3VN3,https://materialsproject.org/materials/mp-1245925,-2.343007942268954,-27.596427452882747,-4.765629689717907,-34.8359199948931
-7.264626446346154,-377.76057521,5.117257065167874,-3.0115972766346166,0.0,3.1081,136,52,984.4738652143905,3033.8376399999997,mp-1203678,La3As2BrO7,https://materialsproject.org/materials/mp-1203678,-13.295315233561293,-59.433267120095614,0.7515247650196408,-33.684350965928004
-9.98544762453125,-639.06864797,6.080629226180184,-3.2877957197460947,28.00000065,1.2150999999999996,141,64,975.860945020372,3573.4472,mp-1204595,Gd4Si2S3O7,https://materialsproject.org/materials/mp-1204595,-20.88138159859736,-33.916340659069746,-18.534064302441816,-34.93134953782835
-8.218415933636363,-180.80515054,5.009864050427232,-3.1628342424177123,0.0,1.3643999999999998,74,22,347.48568184181437,1048.36802,mp-1190185,RbPrNb2O7,https://materialsproject.org/materials/mp-1190185,-28.639720040440448,-69.27918705895341,-7.681229176164277,-63.920901511623036
-5.0952444963636365,-56.04768946,6.715187969941468,-2.0001534181618186,0.0,0.3190999999999997,107,11,218.8234433151273,884.9178,mp-1218398,SrBi3Cl3O4,https://materialsproject.org/materials/mp-1218398,-19.09091639603204,-55.408117462662965,-11.032898718075128,-59.50776464799034
-8.258181085,-99.09817302,6.898065574829129,-2.9289544848958338,0.7264507,0.0,123,12,182.04780797987092,756.2470300000001,mp-1211313,LaTa2CuBrO7,https://materialsproject.org/materials/mp-1211313,-32.26356281901349,-68.77203923671532,2.425514776094793,-50.14675867749085
-8.139570380555558,-146.51226685,4.926913162038058,-2.793237117657408,2.0000006,0.5206,1,18,259.33964780700296,769.4753892800002,mp-1221053,NaLa2TaTi2O12,https://materialsproject.org/materials/mp-1221053,-29.189594429261398,-68.54394777080122,-1.7305591275890708,-50.527994728377244
-6.297856106190476,-264.50995646,5.052682939419432,-2.2933042822874152,2.00000175,0.3611,15,42,609.2327378442294,1853.771448,mp-1194948,Ba2Cu2Te2P2O13,https://materialsproject.org/materials/mp-1194948,-29.19289195762332,-27.898039915034882,-12.714483377498162,-28.803164745264954
-6.655576205384616,-86.52249067,8.241114255711407,-1.8088011900961545,2.6616365,0.0,47,13,194.4726680791795,965.1513386,mvc-16281,Ba2AlW3O7,https://materialsproject.org/materials/mvc-16281,6.459387553354246,-67.26047404420329,-0.5811185482224501,-48.70630387776579
-7.212604269166667,-173.10250246,4.389213728444239,-3.0858774084375007,3.0001655,2.905,113,24,379.6498182688347,1003.50799,mp-510015,Ba2CoSi2O7,https://materialsproject.org/materials/mp-510015,-25.37511113684395,-26.537201742138535,-8.844871071379824,-25.79675406092247
-4.544353475555555,-122.69754384,6.767578154478816,-1.6387784706518516,0.0017484000000000002,1.4648000000000003,65,27,556.1924225842433,2266.7794,mp-1226921,CdBi8(Cl5O4)2,https://materialsproject.org/materials/mp-1226921,-2.599250208537286,-58.3257380715697,2.7870812845419293,-50.01223363842554
-5.78994719875,-231.59788795,4.773562399579988,-1.840139401718751,3.000000225,2.8118,62,40,626.3965971891703,1800.70638,mp-567548,BaCo(SeO3)2,https://materialsproject.org/materials/mp-567548,-7.764148105042636,-42.88976876542735,-18.57992583554973,19.16626221561105
-5.918709438571428,-41.43096607,7.2109278702257775,-0.7849091464285708,0.0044503,0.0,44,7,142.71105641275355,619.72595,mp-1217636,Tb3Si3Ni,https://materialsproject.org/materials/mp-1217636,47.329162140379196,-13.613786901425842,12.024019262694207,-18.378300004743352
-5.683689686,-28.41844843,6.727369449705289,-0.6015349090000001,0.0020587,0.0,25,5,103.36750663172563,418.7745,mp-1225750,Er2Si3,https://materialsproject.org/materials/mp-1225750,47.990169138895595,-15.119893992106476,5.26962044225326,-50.68361606887805
-6.411450057391304,-147.46335132,5.772617422530325,-2.2714261975582604,17.048064399999998,0.0,139,23,349.61929815625183,1215.39958,mvc-138,Ba2Ca3Mn4Tl2O12,https://materialsproject.org/materials/mvc-138,9.03977247408458,-65.43479221808447,10.152887484825738,-46.60136862192083
-5.682541161304347,-130.69844671,6.306670392472214,-1.9664031088586964,0.0005239,0.007600000000000051,5,23,400.6054562041649,1521.4858,mp-1218715,Sr4Cu2Bi4O13,https://materialsproject.org/materials/mp-1218715,-26.459843128331162,-55.61358020938098,-16.211988708626524,-31.41228779959383
-5.60936445875,-44.87491567,5.531883541955128,-1.7022836345312509,0.0,0.9338000000000006,194,8,188.19190983187858,626.9384239999998,mp-13312,ScTlS2,https://materialsproject.org/materials/mp-13312,1.6216408238181108,-50.83676717887345,1.8526843098144568,-47.7322844329812
-7.469927041428571,-209.15795716,5.0786536045719455,-2.6016895921428573,5.999999725,2.5397000000000003,59,28,399.3109240696904,1221.2672,mp-541137,BaCr2O4,https://materialsproject.org/materials/mp-541137,13.119627399299171,-17.814305356704093,-5.759594154962988,1.0268756034021058
-5.9273435985714285,-41.49140519,6.54559840152215,-0.7554499846428574,0.23870589999999997,0.0,44,7,150.69819126818268,594.0299,mp-1219191,Sm3Si3Ni,https://materialsproject.org/materials/mp-1219191,33.012684972600475,-39.1259965971209,12.100867398401606,-18.498622972143853
-7.682919328461537,-199.75590254,6.129429204076197,-3.39405195806,0.96645945,0.0,176,26,433.4706817823236,1600.0393800000002,mp-1194221,La3Ta(ClO2)3,https://materialsproject.org/materials/mp-1194221,-1.860947615316107,-60.290765445310676,-0.7211575843041185,-50.37168301545845
-6.579947538200001,-328.99737691,4.020328877748809,-2.231277676605201,11.9999992,1.3743,176,50,691.7889962729038,1674.88942568,mp-1203724,Na3LaMn3(AsO5)3,https://materialsproject.org/materials/mp-1203724,-28.262621157850123,-34.408112758429034,-22.278377100469807,-15.22361577315332
-6.257882163333334,-37.54729298,5.927112052546439,-1.0972311462500002,4.15e-06,0.0,12,6,140.55063988257157,501.6801,mp-1025023,TbCBr,https://materialsproject.org/materials/mp-1025023,20.742778002141712,-2.119171986285615,16.220747923762605,-7.895168611725928
-6.279903653,-62.79903653,4.378217349364217,-0.5801987177020003,1.95e-06,0.0,67,10,163.287664104831,430.5282,mp-1247462,Sr2CN2,https://materialsproject.org/materials/mp-1247462,18.516134814933306,-43.17945377222858,4.1202607030331375,-33.61810394614696
-5.2711388775,-21.08455551,5.28870387900912,-0.5859430637500003,0.42367259999999995,0.0,38,4,105.77379409576778,336.8823386,mp-1219910,Pr2AlSi,https://materialsproject.org/materials/mp-1219910,32.827487086900604,-39.27300836981631,11.868873247811141,-19.04725155025673
-7.470596222307693,-194.23550178,6.2937065244123644,-3.1364673086369232,0.00483465,0.0,176,26,424.9314444208517,1610.5576199999998,mp-1211321,La3Re(ClO2)3,https://materialsproject.org/materials/mp-1211321,-1.8553073523059052,-60.265522876030104,-0.6865662644114678,-50.39017058203722
-6.14372523625,-294.89881134,4.860898271232223,-2.445776647183959,0.0,4.1926000000000005,62,48,838.0502235227314,2453.2256,mp-555650,NdSeClO3,https://materialsproject.org/materials/mp-555650,-31.548458411589216,-34.29421652471511,-20.457586567363123,-29.330557345319427
-6.912846875,-179.73401875,5.543352127324956,-2.3726724612500005,17.0000003,1.5932000000000004,4,26,380.5563938534478,1270.4056,mp-1192895,BaDyFe4O7,https://materialsproject.org/materials/mp-1192895,-3.204978466012043,-44.396171035984004,7.713087057409263,-38.85369534014592
-6.49301102625,-155.83226463,4.4198788962163365,-2.540136042187501,3.0000002,2.015,113,24,369.2726708258303,982.8979900000003,mp-1191317,Sr2CoGe2O7,https://materialsproject.org/materials/mp-1191317,-7.595683775255305,-43.65326523759008,3.4526346491428432,-33.13652881777894
-5.246233293846154,-136.40206564,4.263831214003603,-1.9914186081698075,1.0000002000000001,0.4852999999999996,14,26,438.99193213755814,1127.2168,mp-1193439,Sr2CuSe2(ClO3)2,https://materialsproject.org/materials/mp-1193439,-7.65898223321981,-43.06788935676016,1.137243510969625,-28.683583936611047