energy_per_atom,energy,density,formation_energy_per_atom,total_magnetization,band_gap,sgr,num_sites,cell_volume,weight,mp_id,formula,URL,tsne_cry_0,tsne_cry_1,tsne_xrd_0,tsne_xrd_1
-8.294486135,-99.53383362,12.405796993335144,-0.4233883933333331,2.25e-07,0.0,62,12,168.54769814942753,1259.2107,mp-1208576,TaCoAs,https://materialsproject.org/materials/mp-1208576,59.411313707798975,23.4085497152558,58.20835898302693,10.786111483801868
-7.330526853333333,-43.98316112,8.116012949451818,-0.5064372449999995,7.016927900000001,0.0,65,6,85.72859542478993,419.00513860000007,mp-1224779,GdAlNi4,https://materialsproject.org/materials/mp-1224779,75.09047972818131,21.127694094932405,89.54515825304527,-13.479863064769006
-7.179994338275861,-208.21983581,6.3011079477123655,-0.6374994443103454,5.9641203,0.0,225,29,371.3854329102211,1409.265092,mp-1192939,Sc6Co16Si7,https://materialsproject.org/materials/mp-1192939,46.8141076825221,52.9719856812608,72.02513796753281,-12.731848544931381
-7.203921496666666,-21.61176449,5.018508710263967,-0.37480876666666535,0.0,0.0,139,3,35.7906507218429,108.1671,mp-8937,CrSi2,https://materialsproject.org/materials/mp-8937,47.79409636235125,50.45736942261622,77.3882954718992,-6.847567408526151
-7.23841596875,-347.4439665,4.495436670421379,-0.6528108074999986,0.7672720666666667,0.0,55,48,691.7733858770067,1872.779484,mp-1205070,ScMnSi2,https://materialsproject.org/materials/mp-1205070,49.19199874161743,45.84960189827488,66.63527010540476,-5.760372646359897
-7.4930047925,-29.97201917,6.794058417266108,-0.3937213599999998,0.9418162,0.0,216,4,47.0981998970979,192.7012336,mp-1008530,AlVFeCo,https://materialsproject.org/materials/mp-1008530,44.773996062591465,60.46017342880517,90.30552447181148,-6.798921184326378
-8.102418019375,-129.63868831,5.624555793542208,-0.3634042749999988,6.61635005,0.0,193,16,207.2242621600504,701.90727,mp-1180331,Mn3V2Si3,https://materialsproject.org/materials/mp-1180331,50.558199894464046,47.37833851654147,75.32429212890895,-0.1468722359662383
-8.395368302962963,-226.67494418,7.214440551563955,-0.14359888317456868,44.7990148,0.0,8,27,348.96865909492095,1516.1423999999995,mp-1216299,Y2Ti2Fe22N,https://materialsproject.org/materials/mp-1216299,71.45331024967888,37.96618166302693,81.68415699882871,-20.310828489251328
-6.2606007036666655,-187.81802111,9.606600330545216,-0.5110214776666662,2.4e-06,0.0,191,30,355.19341273040817,2054.8756,mp-8531,Lu5Ni19B6,https://materialsproject.org/materials/mp-8531,73.69578430317743,25.129164675531612,61.66217240491538,15.747365670176418
-7.361388234750001,-294.45552939,11.44805794890234,-0.5391389222499996,0.0,0.0,194,40,514.3035282915047,3545.702,mp-12174,HfNi3,https://materialsproject.org/materials/mp-12174,52.48292038794737,59.19611242769741,72.56613666261158,-16.16342106781325
-7.071173350526316,-268.70458732,8.292399653880262,-0.004056394210525277,9.3642629,0.0,194,38,533.8105542077337,2665.74308,mp-1237201,Dy2Mn12Ga5,https://materialsproject.org/materials/mp-1237201,72.67378842535123,36.14470834442051,88.34987554800263,-20.92287985623369
-8.298283578333333,-99.57940294,7.635074655451867,-0.06865360916666556,5.2652418,0.0,164,12,149.79367637482562,688.7437600000002,mp-1220510,NbFe4Si,https://materialsproject.org/materials/mp-1220510,63.933113190768005,47.88995305113789,78.37273565945432,-3.7591119544397187
-4.4026550055555544,-39.62389505,7.587916841744463,-0.0086905366666667,0.0,0.0,164,9,109.63726311416214,500.99300000000005,mp-1206157,Cu7Si2,https://materialsproject.org/materials/mp-1206157,46.91697437340829,57.10942994562969,87.82083451927281,-5.320385428792763
-6.6846269608333335,-80.21552353,9.89107736643532,-0.3163689591666656,0.342511375,0.0,62,12,158.99166426643987,947.04118,mp-22546,CoAsRh,https://materialsproject.org/materials/mp-22546,60.02024945664283,36.89563391067454,72.7803508020853,-0.6276159751454476
-7.026755699642857,-196.74915959,7.504828681848111,-0.4820742032142858,5.258758,0.0,140,28,346.4340785151914,1565.7135099999996,mp-1193469,CeCo9Si4,https://materialsproject.org/materials/mp-1193469,22.121237298162974,39.14099094870347,66.32598642821175,-22.497987636100245
-7.208506746666667,-43.25104048,8.202507654186473,-0.08535861166666574,2.3807188,0.0,194,6,74.3245831016562,367.13858999999997,mp-10394,CrCoGe,https://materialsproject.org/materials/mp-10394,46.94557466363986,56.51802157989398,84.34462640512555,-1.7982243910517892
-8.433715708333333,-50.60229425,17.042311462150778,-0.253010704583333,1.8e-05,0.0,191,6,107.6989256734569,1105.327,mp-569264,NdIr5,https://materialsproject.org/materials/mp-569264,76.77044150076706,12.106011171710119,62.12316489277065,22.78865964531089
-8.717727918333333,-52.30636751,17.20434926936615,-0.3421516383333341,2.2e-06,0.0,191,6,106.28633624888091,1101.201,mp-30507,CeIr5,https://materialsproject.org/materials/mp-30507,76.77429182210331,12.104132156380564,62.14253518663106,22.82932148466309
-8.645671386,-43.22835693,8.68820468432363,-0.4736722286666663,0.0,0.0,71,5,52.02353128534782,272.1954,mp-9999,Ni(BMo)2,https://materialsproject.org/materials/mp-9999,59.408687846382335,28.965919225869364,66.01289297656336,13.78655827758
-8.02496077875,-128.39937246,8.406371365584299,-0.2191234060416658,20.9587763,0.0,6,16,168.80522085862992,854.5655,mp-1225075,Fe9B4Rh3,https://materialsproject.org/materials/mp-1225075,41.555740683009375,52.149186015322044,67.4127771600426,-8.782752079052893
-4.242732738214285,-118.79651667,7.851804183760276,-0.1492178160714285,0.0,0.0,140,28,422.8858881032247,1999.602,mp-11145,BaCu9Ge4,https://materialsproject.org/materials/mp-11145,22.991554201139483,37.09263459091871,70.51649193667413,-10.390743963781693
-6.251091757586208,-181.28166097,7.668237409542242,-0.199310948374384,0.1328852,0.0,225,29,330.13229223548274,1524.524707,mp-21642,Mn3(Ni10P3)2,https://materialsproject.org/materials/mp-21642,44.319997372127155,53.051323816738126,75.37831037620656,-10.337220657675607
-8.330293160909092,-91.63322477,8.365239099070138,-0.7332177821428574,5.08e-05,0.0,187,11,153.8949072957615,775.27096,mp-1102487,Sc(P2Ru3)2,https://materialsproject.org/materials/mp-1102487,48.20130662425756,40.16583673011952,65.81111422675018,-7.887413114812106
-8.15709516725,-326.28380669,8.248166996380299,-0.04715907018750158,37.5950375,0.0,38,40,519.9090545517981,2582.4726800000008,mp-1224658,Ho2Fe17C,https://materialsproject.org/materials/mp-1224658,74.64759641807761,34.309452928368586,88.47340061873008,-21.24089210390805
-8.011046715882353,-544.75117668,8.375245786873004,-0.12442816803921547,30.75662635,0.0,136,68,896.5731035333122,4522.0376799999985,mp-5861,Tm2Fe14B,https://materialsproject.org/materials/mp-5861,72.72874566713175,31.96147050069068,83.51965563750348,-6.6730358179824325
-6.206341274285713,-173.77755568,7.336418272909642,-0.5897578091071439,1.5e-07,0.0,140,28,352.8616617263569,1558.97614,mp-11726,LaSi4Ni9,https://materialsproject.org/materials/mp-11726,22.10571210206821,39.01818975231242,66.22977103358305,-22.430026789782527
-7.814236513571428,-1312.79173428,9.245009996280368,-0.5915514119642861,0.00250885,0.0,191,168,2004.6072935430225,11160.60148,mp-1198832,Ta13Co40Si31,https://materialsproject.org/materials/mp-1198832,60.344853930715765,45.922915926135474,60.9850879843104,-9.985495735535356
-7.770954210555555,-139.87717579,7.765039240281742,-0.5651945161111122,1.1666666666666666e-06,0.0,166,18,185.82049109079082,868.9367550000001,mp-618324,ZrCo3B2,https://materialsproject.org/materials/mp-618324,59.64957485027678,38.7013462643634,72.4477322431518,-1.2243730971662956
-6.529644791666668,-39.17786875,6.806541707197268,-0.4046818483333337,4.1e-06,0.0,12,6,97.9677631688168,401.5694,mp-1072660,VAs2,https://materialsproject.org/materials/mp-1072660,34.598258115604054,32.003004173704056,66.91077275838613,0.4401075889945795
-7.056255251666666,-84.67506302,4.269096127853281,-0.8173499019841266,0.0,0.0,62,12,170.85706088582498,439.258096,mp-20327,TiP2,https://materialsproject.org/materials/mp-20327,47.54181067712744,50.236979053799324,73.94291160302073,-12.692404172315328
-9.3792900075,-262.62012021,14.418757058652375,-0.030844095892855913,1.385e-05,0.0,227,28,340.7097487983678,2958.4436,mp-1194387,Ni3W3C,https://materialsproject.org/materials/mp-1194387,60.72739343922986,31.424500186642064,66.65201936125602,16.541355410347542
-5.912971506388889,-212.86697423,9.60518047751754,-0.3953400441666667,1.4177153,0.0,194,36,508.85622211573707,2943.4152,mp-1197874,Dy2Ni7,https://materialsproject.org/materials/mp-1197874,74.39834816411705,23.83533702048806,62.83550322800623,17.169737043260742
-7.563378245,-30.25351298,6.86823442315303,-0.2692292349999992,2.0012638,0.0,216,4,47.33651856226245,195.7908236,mp-13079,Mn2AlCo,https://materialsproject.org/materials/mp-13079,44.55173066778474,60.55394924290412,90.18384990487357,-6.706383487806374
-7.783077610454546,-171.22770743,4.808187775992471,-0.6144276486363638,0.01082555,0.0,12,22,303.9765394247152,880.181824,mp-1219499,Sc(VSi)5,https://materialsproject.org/materials/mp-1219499,50.688890595132605,47.09822500423615,72.32858795607838,-5.527005309261542
-8.121701959705883,-552.27573326,8.23182986066378,-0.06769989257352904,30.080878775,0.0,136,68,897.0092926499827,4446.7656,mp-1197275,Tb2Fe14C,https://materialsproject.org/materials/mp-1197275,72.4521098085425,32.1370743500388,83.56392947028712,-6.738076164374268
-4.4011102200000005,-105.62664528,7.367040428596429,0.025807569464285862,0.0,0.0,165,24,299.7092138349774,1329.670572,mp-359,Cu3P,https://materialsproject.org/materials/mp-359,46.953158692896956,57.042442106200994,74.58653304370159,-8.202568496664181
-6.168955233684209,-117.21014944,7.468262608133345,-0.3092272873684212,1.6e-06,0.0,166,19,201.55980502873533,906.5138,mp-17236,Ba(Ni2B)6,https://materialsproject.org/materials/mp-17236,31.1135062987505,44.667238521722744,65.86573224720304,-20.336395909080448
-4.38338502,-21.9169251,5.791247451389018,-0.4840724550000005,1.3e-06,0.0,139,5,90.89799723012509,317.0132,mp-1183490,Ca(CuAs)2,https://materialsproject.org/materials/mp-1183490,31.503966664364313,19.32337937208689,54.28381203004527,-13.17352007870432
-8.427896283333334,-176.98582195,8.485889663953225,-0.7266646650000006,0.0,0.00730000000000075,174,21,297.3527055175481,1519.568158,mp-17042,Sc2P7Ru12,https://materialsproject.org/materials/mp-17042,48.240345560558175,40.13150749554908,65.85627208153117,-5.782337841649892
-6.29294463625,-50.34355709,6.5386441327568825,-0.6129513512499996,0.0,0.0,129,8,130.92896003425898,515.5542,mp-9929,ZrCuSiAs,https://materialsproject.org/materials/mp-9929,37.046686900919596,29.02822688254393,67.73600992275522,-6.9880033237650006
-6.4149355863461555,-667.15330098,8.49165784221429,-0.4250531601923079,3.25e-07,0.0,64,104,1029.034735875072,5262.273679999999,mp-1203552,Tm2(Ni5B3)3,https://materialsproject.org/materials/mp-1203552,53.59188313333056,38.083612324986795,66.15394405852588,-5.750617776585418
-7.197129095,-115.15406552,7.793659711861974,-0.3205104484375001,21.5382563,0.0,166,16,180.8530526570294,848.8250599999999,mp-1225114,GaFe4Co8Si3,https://materialsproject.org/materials/mp-1225114,42.721544412680366,60.12479941744601,91.48031476599232,-8.429358431417695
-5.70535539142857,-159.74995096,8.83354269104837,-0.3218752057142861,1.485e-05,0.0,194,28,415.8778355960998,2212.3386,mp-1193428,PrNi5Sn,https://materialsproject.org/materials/mp-1193428,70.99461516919189,21.82028649434917,63.89759016726136,17.388785671574023
-5.665679515833332,-67.98815419,9.557385022989507,-0.4456144536111116,2.95e-06,0.0,191,12,145.46708952967268,837.2491999999999,mp-1101945,YbNi4B,https://materialsproject.org/materials/mp-1101945,73.73481611442108,25.046170559131674,61.715953679845754,15.767959950908272
-7.842812199523809,-164.69905619,7.588993322833137,-0.6600870911904757,20.730144,0.0,174,21,267.4178871681454,1222.152874,mp-1191843,Yb2Mn12P7,https://materialsproject.org/materials/mp-1191843,55.4198190464097,33.774618872631095,61.70065060483203,-3.856510345065332
-8.860738799318181,-389.87250717,8.51584561978218,-0.11367535369318205,3.0222187999999996,0.0,194,44,514.7502525502125,2639.82573,mp-1211163,Lu2Mn17C3,https://materialsproject.org/materials/mp-1211163,74.84199157842616,33.992857682288104,89.0601915895636,-21.34497833363827
-4.848848349444443,-87.27927029,6.15477366460547,-0.16368787472222282,3.1465451,0.0,166,18,251.41248162263938,931.8582,mp-1227816,Ca3Mg2Ni13,https://materialsproject.org/materials/mp-1227816,40.995178299613755,46.04542298032107,67.68479726009953,-16.29539033000125
-6.784029789375,-325.63342989,6.189537453937879,-0.4803464581249995,0.3660523583333333,0.0,55,48,779.8367144372119,2906.784144,mp-1197663,ScCrGe2,https://materialsproject.org/materials/mp-1197663,48.10619165736203,46.74678816075578,61.43222632543171,4.873798262904527
-6.464361148571428,-135.75158412,6.689112556183478,-0.7561367530952379,3e-07,0.0,174,21,250.9878929393021,1011.048958,mp-3084,Sc2Ni12P7,https://materialsproject.org/materials/mp-3084,44.016778114958676,52.403360180813074,75.08364578162913,-11.017531924073277
-8.102477635147059,-550.96847919,8.06563967145741,-0.03801857772058818,30.05502455,0.0,136,68,901.3845636728306,4378.2428,mp-1196278,Sm2Fe14C,https://materialsproject.org/materials/mp-1196278,72.22928579392243,32.2623219814647,83.79085437443803,-6.7740377482674825
-8.159179446,-163.18358892,8.279170056195088,-0.05030840793750002,37.571849900000004,0.0,12,20,259.9151926985544,1295.8937,mp-1225238,Er2Fe17C,https://materialsproject.org/materials/mp-1225238,74.92437411997452,34.30550204149587,87.7367817685697,-23.437372421283733
-5.516714473846153,-358.58644080000005,10.752767009367282,-0.15635916446153802,0.0003069,0.0,174,65,886.3770490720476,5739.706,mp-1224756,Hf14Cu51,https://materialsproject.org/materials/mp-1224756,61.24161297901607,45.61978756994668,67.52212536536203,-3.4600751791982614
-6.808706585,-27.23482634,7.041496909641096,-0.2734367387500001,3.9868597,0.0,123,4,47.26114435081546,200.410345,mp-1221579,MnSiNi2,https://materialsproject.org/materials/mp-1221579,45.442722820948255,56.95761512614788,85.14787200658499,-3.108489764968713
-6.9788750099999985,-76.76762511,9.896919863082006,-0.7509717763636364,0.0001002,0.0,187,11,175.85531021298704,1048.109,mp-1103596,Ce(Ge2Rh3)2,https://materialsproject.org/materials/mp-1103596,67.86976830427463,9.228315517387523,70.77853588479292,2.54368734330337
-7.3307819375,-29.32312775,6.950962889274142,-0.05353365750000005,6.4698139,0.0,65,4,42.1759535740521,176.54718200000002,mp-1227549,BeFe3,https://materialsproject.org/materials/mp-1227549,46.35294193194343,53.5158606427271,71.81270958921709,-13.127453377674234
-7.276317448333334,-43.65790469,11.125810598287403,-0.038169064166666544,0.0,0.0,12,6,99.630635580199,667.5372,mp-1219536,ReGeAs,https://materialsproject.org/materials/mp-1219536,35.48238356566566,33.502394148041304,57.117813042737616,-8.341078994156097
-7.918903441499999,-158.37806883,7.9322029948169375,-0.10968050343750094,30.084164500000004,0.0,12,20,257.66935167078856,1230.8567,mp-1225614,Dy2Fe15Si2C,https://materialsproject.org/materials/mp-1225614,74.15455589901603,35.103740456862,88.47521942844088,-22.32448152886848
-6.260793497692307,-81.39031547,7.7612820322568785,-0.2999843376923081,11.021682499999999,0.0,71,13,180.7104038487618,844.632,mp-1103910,Zr(GaFe)6,https://materialsproject.org/materials/mp-1103910,44.377466252558754,47.802904158202416,75.74952858259806,-1.1538960471859123
-8.332561954444445,-149.98611518,6.5405785003255374,-0.41053057105777824,0.03265125,0.0,15,18,169.95377421713602,669.4187699999999,mp-1246838,V2Co3N4,https://materialsproject.org/materials/mp-1246838,27.79657475881199,53.10521209379176,70.3353910333558,-2.8340539792764337
-6.153269318333333,-36.91961591,7.712034055341007,-0.018355428333332924,0.17681159999999999,0.0,140,6,86.22106122695946,400.43609,mp-1094140,MnGe2,https://materialsproject.org/materials/mp-1094140,67.70513737084235,35.47496768920375,74.24554358696169,-0.4560979465555761
-7.7175917854545455,-84.89350964,10.12255174585199,-0.7488626136363634,7.063301400000001,0.0,187,11,174.74621350407705,1065.243,mp-1102792,Gd(Ge2Rh3)2,https://materialsproject.org/materials/mp-1102792,67.85940301002117,9.213659488303506,70.82989119741289,2.5717405221748666
-8.245379632794117,-560.68581503,7.900732542256848,-0.03762950213235386,28.226356199999998,0.0,136,68,902.9743207273481,4296.2908,mp-1215108,Ce2Fe14C,https://materialsproject.org/materials/mp-1215108,72.00659347512921,32.34546876220356,84.05642374623628,-6.803914706688629
-7.422441965555557,-66.80197769,7.568046099062254,-0.02066903999999978,5.0588972000000005,0.0,189,9,119.16171032253929,543.0895,mp-1226345,Cr3GaFe3As2,https://materialsproject.org/materials/mp-1226345,45.25619384297128,50.7983366671509,74.2996096335607,-12.371871992445532
-8.603402146666667,-77.43061932,5.652776921551329,-0.9555269596031748,1e-07,0.0,189,9,115.30247181369495,392.510586,mp-11580,TiCrP,https://materialsproject.org/materials/mp-11580,50.54687337063582,47.506861163216115,73.7534011142567,-2.3100492455440427
-5.320532868928573,-148.97492033,8.268992977776442,-0.5389098925000003,0.0006148,0.0,63,28,486.35380277942323,2421.8979999999997,mp-1214327,Ce2(Ga3Ru)3,https://materialsproject.org/materials/mp-1214327,69.53659289744687,15.780758793990216,65.09609928553536,4.992370363385699
-6.0335689399999985,-36.20141364,5.873816487734139,-0.4651361897222218,1.9e-06,0.0,38,6,96.29831157270719,340.6355386,mp-1217076,Ti2AlGe3,https://materialsproject.org/materials/mp-1217076,65.59469396586456,35.6493900039049,64.98626817496975,8.557656511901492
-6.4134465125,-666.9984373,8.339515537850726,-0.4120805155769231,6.3775e-05,0.0,64,104,1031.8645038240518,5182.2028,mp-1199398,Tb2(Ni5B3)3,https://materialsproject.org/materials/mp-1199398,53.6517295303232,38.088305842441,66.17044479485381,-5.7269427120435665
-5.611310340555557,-202.00717226,8.017057576110696,-0.38581394785714296,0.0,0.0,2,36,527.5100424490623,2546.810572,mp-510445,Ni10Sn5P3,https://materialsproject.org/materials/mp-510445,34.50030563323354,31.70547808383483,69.27378866226115,-9.094192802076186
-5.687774797142858,-119.44327074,7.276064092926067,-0.3700301847619044,3.3935801,0.0,6,21,286.247494615154,1254.2644690000004,mp-1191456,Sm2Mn3Cu9P7,https://materialsproject.org/materials/mp-1191456,64.79169735092171,9.636062548506377,61.00067919491556,-2.3752319360937384
-5.907800218888888,-106.34040394,9.586499987485213,-0.3852752477777778,1.30371145,0.0,166,18,252.4471438905421,1457.4089999999999,mp-1189379,Tb2Ni7,https://materialsproject.org/materials/mp-1189379,74.44272678612283,23.843632334768344,62.73682304187075,17.217066472505724
-4.317787488571429,-120.89804968,8.279028597406576,-0.12072533499999948,0.0,0.0,62,28,418.941099996354,2088.7346,mp-30698,PrCu6,https://materialsproject.org/materials/mp-30698,69.50539433896621,31.10915376517729,67.92596218815211,5.616687617229993
-6.010478143448276,-174.30386616,8.310645489274044,-0.33019210517241504,5.44e-05,0.0,225,29,289.3035758457242,1447.9029999999998,mp-977324,Ga3(Ni10B3)2,https://materialsproject.org/materials/mp-977324,39.72173856615957,53.38202024769848,79.37030245347488,-11.301436381069676
-8.301596730714285,-116.22235423,7.9317148239621185,-0.10530018074404726,22.2452692,0.0,44,14,176.15739072242783,841.4317,mp-1225513,ErTiFe11C,https://materialsproject.org/materials/mp-1225513,71.27094336899306,36.17975023518386,83.46675275480055,-21.40986221186912
-6.746582926666666,-40.47949756,8.068771202816643,-0.22649894499999945,2.9495902999999997,0.0,194,6,76.66867697320222,372.54289,mp-21090,MnNiGe,https://materialsproject.org/materials/mp-21090,47.12759394962779,56.488556330971115,84.34084471347431,-1.4641016912135878
-5.946940637241379,-172.46127848,7.5133536664746154,-0.2428325258620693,0.4600491,0.0,225,29,304.46204426169146,1377.5834,mp-1193221,Ca2(Ni7B2)3,https://materialsproject.org/materials/mp-1193221,40.51722552163879,53.36146200694323,79.17547507661239,-10.418831022041033