energy_per_atom,energy,density,formation_energy_per_atom,total_magnetization,band_gap,sgr,num_sites,cell_volume,weight,mp_id,formula,URL,tsne_cry_0,tsne_cry_1,tsne_xrd_0,tsne_xrd_1
-4.989180252857143,-34.92426177,6.606873299446755,-0.11299255908857173,1.4044389,0.0,38,7,84.08489048265798,334.55294,mp-1078008,CaNi5H,https://materialsproject.org/materials/mp-1078008,40.76619248017494,46.469781111893994,68.75102944298357,-17.18346798035159
-7.010493178333332,-168.25183628,8.921875257920723,-0.1454303195833333,17.962269,0.005700000000000038,166,24,338.79615027108923,1820.310705,mp-542327,Ce5Co19,https://materialsproject.org/materials/mp-542327,74.72961130691391,23.692584722629977,62.9975835118785,17.098862930829533
-6.233614469655173,-180.77481962,9.03589235342532,-0.358755773793104,0.0,0.04679999999999929,225,29,300.5206840505833,1635.2958199999998,mp-21608,Tm2(Ni7B2)3,https://materialsproject.org/materials/mp-21608,40.72817748466504,51.294042164805965,67.1695465614163,-9.07837418775836
-7.643298022758621,-221.65564266,9.683851588657953,-0.21914999034482727,16.0063998,0.0,225,29,286.38788876960416,1670.143095,mp-672221,Co21(B3W)2,https://materialsproject.org/materials/mp-672221,40.63456687819015,50.96652092608132,66.77089567915847,-9.355194021692851
-8.229414196111113,-148.12945553,7.224164742137869,-0.001351494652777458,8.488384,0.0,25,18,232.28901230460755,1010.5719,mp-1226144,Cr12As5C,https://materialsproject.org/materials/mp-1226144,46.348224009238606,49.552947219260474,75.49716974559414,-9.967368670027827
-6.004721113333334,-252.19828676,8.121532743604448,-0.4317678784353741,0.0,0.0,164,42,489.82705922204286,2395.695858,mp-29885,Ni10SnP3,https://materialsproject.org/materials/mp-29885,41.28905299069533,51.99172025652258,74.29955963268317,-10.05853090190941
-5.6544637911111115,-101.78034824,8.1137985781716,-0.2738543441666665,2.8669596,0.0,160,18,259.65457386121403,1268.73555,mp-1219896,Pr3MgNi14,https://materialsproject.org/materials/mp-1219896,75.45914324184638,21.786204620097987,62.56666235913679,16.061202591675364
-7.047612186666666,-147.99985592,7.6898552814742995,-0.7259047854761902,5.1530779,0.0,174,21,260.38562159329706,1205.829974,mp-978102,Pr2Co12P7,https://materialsproject.org/materials/mp-978102,56.53285076173224,35.365569936815774,63.303353175400225,-4.1118502876158365
-6.004904091904763,-126.10298593,8.062836544907103,-0.5378213169047622,2e-06,0.0,174,21,289.6855385655791,1406.5837,mp-1191314,Y2Ni12As7,https://materialsproject.org/materials/mp-1191314,56.87028578718272,37.13526502638765,70.46108195664374,-4.741254462376519
-7.53514043,-158.23794903,7.950020794850004,-0.6889616188095241,10.9964209,0.0,174,21,256.4831969219351,1227.9426740000001,mp-1191681,Eu2Co12P7,https://materialsproject.org/materials/mp-1191681,56.107221424919615,35.03586724157113,62.96444787684903,-4.119148360133267
-6.317420882857142,-132.66583854,7.966015227279626,-0.7736815497619061,2.78e-05,0.0,174,21,259.76090945878826,1246.137134,mp-864836,Dy2Ni12P7,https://materialsproject.org/materials/mp-864836,56.25033586938125,35.135614981975266,63.23807787927443,-4.136505080245422
-6.823154832916668,-327.51143198,7.248802039987218,-0.4225421745833333,0.000276625,0.0,55,48,684.4622342288309,2987.9040000000005,mp-1199430,TiFeGe2,https://materialsproject.org/materials/mp-1199430,47.79136008237829,47.21035840802378,71.41962678824534,-6.038040212124642
-6.087090443125,-194.78689418,8.899861779697215,-0.42588254833333306,3.3e-06,0.0,12,32,325.0984041545438,1742.4045999999994,mp-1207614,Yb3Ni19B10,https://materialsproject.org/materials/mp-1207614,53.61882655627708,37.859820729336775,65.32251774498013,-5.537650527894332
-7.373609459230769,-95.85692297,9.21947192218784,-0.20099607807692293,9.776480099999999,0.0,69,13,159.13483537847281,883.5318599999999,mp-1216852,U(Co5Si)2,https://materialsproject.org/materials/mp-1216852,69.9819570170603,41.69474615332194,83.477078683589,-18.258284770256182
-7.664175211862068,-1111.30540572,9.654123076785822,-0.2834494346206893,86.7869728,0.0,87,145,1452.3612670836121,8443.80896,mp-1217955,Ta11(Co52B15)2,https://materialsproject.org/materials/mp-1217955,40.64686139842575,51.00162805116554,66.81536126711535,-9.326676013598416
-6.234914030344827,-180.81250688,9.003038459118361,-0.35390133965517306,0.0010935,0.0,225,29,300.9993859466183,1631.9454,mp-1193830,Er2(Ni7B2)3,https://materialsproject.org/materials/mp-1193830,40.75007089747924,51.37229925600247,67.20154467051718,-9.079012719373072
-7.509379366206898,-217.77200162,9.355809649771855,-0.29250018275862016,20.1014866,0.0,225,29,294.53036637755065,1659.443095,mp-1194066,Hf2(Co7B2)3,https://materialsproject.org/materials/mp-1194066,40.66387330941785,51.045010819204656,66.84082515000212,-9.213267632313226
-5.8973422275,-70.76810673,8.467190300481176,-0.2729390785416672,2.3075718999999997,0.0,47,12,169.98170343304713,866.7471199999999,mp-1222862,LaPrNi10,https://materialsproject.org/materials/mp-1222862,78.71656603980183,18.652429718063342,86.49269156780495,-14.232107357327287
-6.80296856923077,-88.4385914,7.539335157891371,-0.27773783807692304,11.0097212,0.015500000000000291,191,13,179.69451813840215,815.865912,mp-19739,Sc(FeGe)6,https://materialsproject.org/materials/mp-19739,43.95301547967809,47.947313239216115,72.18984167785325,-9.022396275540746
-6.8563416262068975,-198.83390716,8.621230929432466,-0.13617757885057422,22.236156100000002,0.0,225,29,295.0982732304152,1532.0990949999998,mp-1194164,In2(Co7B2)3,https://materialsproject.org/materials/mp-1194164,40.58118850290877,52.1172827365579,79.46749710664814,-10.16321621876649
-7.868557709999998,-228.18817359,8.030949004448066,-0.5438692749999995,4e-07,0.0,225,29,350.87776625353837,1696.9679,mp-541938,Nb6Co16Si7,https://materialsproject.org/materials/mp-541938,62.111495758456726,44.45320285468154,74.07558054907642,-7.9046405908020985
-7.575329115862068,-219.68454436,9.767245727280512,-0.18675135362068845,18.521516899999998,0.0,225,29,284.74750007376497,1674.8770949999996,mp-541852,Co21(ReB3)2,https://materialsproject.org/materials/mp-541852,40.63144357221976,50.96225790410893,66.76356718293935,-9.369821265848676
-6.3939808276315775,-242.97127145,8.021182450663924,-0.3931555002631581,5.5e-07,0.0,36,38,385.7541737688851,1863.3736,mp-1202380,Dy(Ni2B)6,https://materialsproject.org/materials/mp-1202380,31.09324256586634,44.64183737782219,65.73654280215054,-20.04363735141112
-5.218030785238095,-109.57864649,7.184842401495457,-0.2611432319523811,0.0,0.0,174,21,302.0626289454062,1306.9686,mp-541810,K2Ni12As7,https://materialsproject.org/materials/mp-541810,41.11480995066602,47.928441817611244,70.13976699298918,-16.93147242215077
-7.197560392592592,-194.33413059999998,8.03362847883238,-0.2794016615277776,12.440711199999999,0.0,12,27,312.09234671228637,1509.89161,mp-1219302,Sm2Co18Si4C3,https://materialsproject.org/materials/mp-1219302,75.00535660648072,39.66161430873039,66.18314666105553,-19.422556752632392
-7.082915995238095,-148.74123590000002,7.868621418957758,-0.7676211985714284,5.065462999999999,0.0,174,21,258.45947231860214,1224.734674,mp-1005690,Sm2Co12P7,https://materialsproject.org/materials/mp-1005690,56.294510215378295,35.193175528393326,63.17312644545147,-4.153245749746497
-7.6520424552272726,-336.68986803,7.196686104527268,-0.08517413367545533,37.9007765,0.0,194,44,521.5572999099363,2260.40104,mp-1207771,Y2Fe17H3,https://materialsproject.org/materials/mp-1207771,71.4024940428662,37.80810031803421,82.15074875889357,-21.26254402490604
-5.919593493333332,-35.51756096,8.403054089515509,-0.28328117124999963,1.3866962999999999,0.0,191,6,85.44171661968015,432.37247,mp-2317,LaNi5,https://materialsproject.org/materials/mp-2317,78.69725770284899,18.569433868697054,86.35862987794953,-14.198541484975244
-6.3055233438461515,-81.97180347,7.385856139303987,-0.14400046615384535,9.839853100000001,0.0,191,13,178.78571255492076,795.215,mp-20673,Mg(FeGe)6,https://materialsproject.org/materials/mp-20673,43.5883266686382,48.111856642904456,72.19889610932334,-9.085187438517602
-7.662450597931034,-222.21106734,7.47239212938075,-0.6616829649999996,0.050699,0.0,225,29,374.8624875483158,1686.8736199999998,mp-672680,Zr6Co16Si7,https://materialsproject.org/materials/mp-672680,62.089942808067796,44.74256025261385,73.47483657097956,-7.639441402445411
-6.278270330833332,-75.33924397,8.610395968612442,-0.11398322708333335,8.4225467,0.0,47,12,169.05804511436207,876.616975,mp-1220439,Nd2(CoNi)5,https://materialsproject.org/materials/mp-1220439,78.68323472682546,18.870070431934586,86.65625653312254,-14.423586263429776
-7.922076668095237,-166.36361003,7.547584163682943,-0.7194491759523798,0.37572209999999995,0.0,174,21,256.7923395893353,1167.1883340000004,mp-541196,Ce2Fe12P7,https://materialsproject.org/materials/mp-541196,56.45091324123413,35.298063140469885,63.28884337058425,-4.189017845405576
-6.646610063076923,-86.40593082,7.057475293159122,-0.16227869769230646,11.9479326,0.0,191,13,185.8241500122092,789.7732700000001,mp-1211250,Mg(MnGe)6,https://materialsproject.org/materials/mp-1211250,43.943524674831686,47.93998839254272,72.13316209183853,-9.041225011855104
-6.075754036666668,-36.45452422,8.373585709306957,-0.21748540458333449,2.3271256,0.0,65,6,85.7899566749382,432.61226500000004,mp-1222949,LaCoNi4,https://materialsproject.org/materials/mp-1222949,78.60231833575106,18.401750934003672,86.26218232527509,-14.067376622866938
-7.99199488,-111.88792832,6.456661284230107,-0.7075021327551018,4.00691805,0.0,136,14,169.8861115985391,660.566872,mp-510133,Sc(Fe2P)2,https://materialsproject.org/materials/mp-510133,41.06082704673889,47.71163599917779,69.84106144383,-16.552713854029346
-6.211822130000002,-37.27093278,8.447318102480288,-0.131597187916667,3.5631446,0.0,191,6,85.08827718508422,432.85205999999994,mp-1222937,LaCo2Ni3,https://materialsproject.org/materials/mp-1222937,78.69276932479241,18.67410178662621,86.2580633916959,-14.28335692356154
-7.786993312631577,-147.95287294,7.5871054254012416,-0.03550444289473825,29.8428771,0.0,166,19,258.7686624981055,1182.33,mp-1205374,Nd2Fe15Si2,https://materialsproject.org/materials/mp-1205374,74.26511422978355,35.87710177206342,88.36544370759741,-22.392294486620735
-8.548690340625,-136.77904545,6.929755052694307,-0.4783036113095242,8.43574015,0.0,140,16,156.85147729633803,654.5719740000001,mp-12633,Mn5B2P,https://materialsproject.org/materials/mp-12633,36.90903978816689,54.688457339504424,76.73716783307889,-10.838001009788623
-7.881654455,-126.10647128,6.494619704433414,-0.34119797749999936,12.349383900000001,0.0,38,16,184.70985612775885,722.428225,mp-1221382,Mn5Fe5Si6,https://materialsproject.org/materials/mp-1221382,44.561487896031345,57.00489745084312,75.19147033734174,-7.874247295863116
-7.4035465006666685,-222.10639502,6.635625712262304,-0.6340263170000005,9.000000000000001e-07,0.0,139,30,401.8939448537647,1605.99524,mp-1193423,Nb4Si7Ni4,https://materialsproject.org/materials/mp-1193423,63.80952079535874,28.005181894427363,63.54836390086854,9.587440125935373
-6.316270940952379,-132.64168976,7.882040406625744,-0.7704343897619039,8.8e-06,0.0,174,21,261.02221789076,1238.987834,mp-1190664,Tb2Ni12P7,https://materialsproject.org/materials/mp-1190664,56.440766605892534,35.28552944859879,63.23365375878626,-4.107926138840623
-4.6952502350000005,-28.17150141,9.220042970582153,-0.2363356775000002,3.98e-05,0.0,187,6,86.05365237503794,477.80772,mp-1223765,HoCu4Ni,https://materialsproject.org/materials/mp-1223765,77.64762690968911,18.683472540141143,85.41444115404705,-13.814752412793204
-8.173244541666667,-49.03946725,7.1071531135756905,-0.04548812500000091,9.839768199999998,0.0,191,6,86.01132387111807,368.13085,mp-11385,YFe5,https://materialsproject.org/materials/mp-11385,79.27494458332677,18.920396089935178,85.95272827677256,-15.228195778880904
-6.8938306084210526,-261.96556312,7.968730415882767,-0.3941650363157901,7.03413685,0.0,36,38,386.1052875942348,1852.8736,mp-1204079,Gd(Ni2B)6,https://materialsproject.org/materials/mp-1204079,31.098742274168917,44.65072650921145,65.74625558440977,-20.0520347522443
-5.18845345125,-41.50762761,6.425760859120198,-0.6454207425000007,0.0,0.0,63,8,125.64092093282477,486.190624,mp-11401,ScGa2Ni,https://materialsproject.org/materials/mp-11401,47.91601491704624,46.72937291963717,66.11235521999207,-7.389391471316968
-6.312741812380952,-132.56757806,8.068988769545053,-0.7726246416666662,1.13e-05,0.0,174,21,258.4046688295232,1255.655134,mp-540772,Er2Ni12P7,https://materialsproject.org/materials/mp-540772,56.026049785273464,34.947924646164296,63.17461835405755,-4.200212065217029
-6.380052891818182,-70.18058181,9.08973466394247,-0.5366593045454547,0.0,0.0,187,11,171.98213448516015,941.4244,mp-16043,Mg(As2Rh3)2,https://materialsproject.org/materials/mp-16043,45.41342206069786,47.157898529068575,66.42342304300628,-7.7510529407432545
-8.337616252142857,-116.72662753,7.950012994766602,-0.09293477534857228,12.120922,0.0,71,14,172.25708297933318,824.6997,mp-1219059,SmV2Fe10N,https://materialsproject.org/materials/mp-1219059,71.26161931407249,36.440296616427005,83.24557523361496,-21.29287953721576
-6.6421095925,-53.13687674,7.720621344437172,-0.10082105499999994,1.40788315,0.0,12,8,110.53740316282972,513.94,mp-22510,FeGe,https://materialsproject.org/materials/mp-22510,42.47032673836781,49.27328228403651,75.30351028856526,-15.358763263796158
-7.91130265734375,-506.32337007,7.3815988564841994,0.06336317536458314,15.839899875,0.0,217,64,745.3674459264673,3313.3840000000005,mp-653838,ZrFe12Si2B,https://materialsproject.org/materials/mp-653838,45.32460738998528,59.442140580109815,88.02200997204109,-5.586655517945259
-5.846299476666666,-70.15559372,7.932919054444867,-0.3791665962500008,0.4983794,0.0,65,12,174.3726286796819,833.0330786000001,mp-568040,La2AlNi9,https://materialsproject.org/materials/mp-568040,74.79877859795333,21.61545960508972,88.59293112472814,-13.420549031011394
-8.03856048962963,-217.04113322,7.912168219045003,-0.09762716044271733,44.4707092,0.0,8,27,344.85729423730623,1643.18264,mp-1217796,Tb2Ti2Fe22H,https://materialsproject.org/materials/mp-1217796,71.30163444207626,36.59185071821866,83.37588823883189,-21.23443814840019
-7.90122403736842,-150.12325671,7.7212055662488845,-0.15486637447368498,31.311522200000002,0.0,8,19,256.90592768666875,1194.566,mp-1219239,Sm2Fe15Si2,https://materialsproject.org/materials/mp-1219239,73.7716789218367,37.18692720336136,87.67136336908865,-21.836455210022034
-8.682293387619048,-182.32816114,7.810412863579312,-0.7035625316666658,1.3178056999999999,0.0,174,21,255.43657964170558,1201.456334,mp-1191833,Gd2Fe12P7,https://materialsproject.org/materials/mp-1191833,56.22690536768274,35.09601136998725,63.13453918574394,-4.267519233419593
-7.273525681724138,-210.93224477,8.547443448108076,-0.4664820736206899,0.00046369999999999994,0.0,225,29,388.3045179894728,1998.75512,mp-672654,Zr6Co16Ge7,https://materialsproject.org/materials/mp-672654,63.20738465598217,43.57944688102947,73.96132955510679,-7.0882887337559115
-4.538311381875,-72.61298211,7.225481292254942,-0.4285754143749996,1.875e-06,0.0,136,16,286.88020613600133,1248.298,mp-1188977,Ga3Rh,https://materialsproject.org/materials/mp-1188977,42.430755835195185,40.54970136331021,62.40675403282484,-12.01004455494036
-7.106689509285713,-99.49365313,8.62205309381232,-0.2937952535714286,7.024714200000001,0.0,136,14,204.59440620224944,1062.32,mp-20247,Dy(Fe2Ge)2,https://materialsproject.org/materials/mp-20247,68.94659152282014,11.91283582454026,64.35761350029217,-0.4091994519964309
-6.121255167222222,-110.18259301,9.086592159101397,-0.4347673062962972,0.0797707,0.0,191,18,230.51813595058326,1261.41225,mp-541883,Tb3Ni13B2,https://materialsproject.org/materials/mp-541883,74.43525588982808,24.16963870535555,62.15435912753169,16.376424183606275
-5.6563323216666666,-33.93799393,9.471642348253884,-0.46328411,0.0,0.0,129,6,83.36438139801972,475.5068,mp-3274,NiGePd,https://materialsproject.org/materials/mp-3274,60.31326113363603,36.981437725610974,73.85456722068122,-0.41338858278169
-8.654372669999999,-86.5437267,7.206964624015753,-0.3522875674759988,2.50460915,0.0,140,10,112.86126602837477,489.83319999999986,mp-22209,Cr3AsN,https://materialsproject.org/materials/mp-22209,51.383591506690436,49.140798776264226,73.64674053104304,-1.8075230759623384
-5.547369457777778,-99.85265024,9.678039977018448,-0.3773194018518527,2.2327013,0.0,191,18,223.695921269485,1303.7562,mp-865970,Yb3Ni13B2,https://materialsproject.org/materials/mp-865970,74.2972399115923,24.29176609405614,61.98964106480089,15.953637340053413
-8.276453467236843,-629.01046351,6.7186934965747,-0.4204765946052625,9.128010625,0.0,62,76,941.1633669506227,3808.0334399999997,mp-1197207,Mn8Si8Mo3,https://materialsproject.org/materials/mp-1197207,50.27093794428732,46.327646578817244,68.63707694659982,-3.3814935728991364
-9.511204948275862,-275.8249435,9.039237627419565,0.11212475206896452,48.0279203,0.0,225,29,409.2793218379544,2227.935,mp-1194558,Gd6Fe23,https://materialsproject.org/materials/mp-1194558,72.12170366536706,28.00672454452145,62.80921379552691,12.619853363704095
-6.3151655290476185,-132.61847611,8.013019535507109,-0.7740340164285713,2.4e-06,0.0,174,21,259.2444250853348,1250.997774,mp-28412,Ho2Ni12P7,https://materialsproject.org/materials/mp-28412,56.07211438223976,34.968264218481856,63.20496789733469,-4.187164458658656
-7.287058275833334,-174.88939862,7.566939743929027,-0.2499541341145838,14.7292894,0.0,187,24,294.71636492807056,1342.99822,mp-1216253,Y4Co16B3C,https://materialsproject.org/materials/mp-1216253,75.83963112685869,24.993874637186106,75.27198444181289,0.8127371650170803
-7.470129090833333,-89.64154909,8.17760092712703,-0.17409766333333346,3.5104975,0.0,160,12,162.80343255780863,801.7526049999999,mp-1215821,YZr2Co9,https://materialsproject.org/materials/mp-1215821,76.39082588344198,24.193676348122096,76.5772474189847,0.4317959937770493
-7.985010476842105,-151.71519906,7.365984773061394,-0.28215649934210474,19.019788300000002,0.0,166,19,198.21187184386682,879.2479999999998,mp-641957,Nd(Fe2B)6,https://materialsproject.org/materials/mp-641957,31.101848397980174,44.643891727568814,65.86913900215653,-20.30901869739689
-5.83752916857143,-122.58811254,8.651749066242543,-0.5372116357142858,0.0,0.0,174,21,293.55696263515273,1529.4920000000002,mp-1191854,Sm2Ni12As7,https://materialsproject.org/materials/mp-1191854,56.74720115867333,37.13074931742493,70.06379944410756,-4.6251433831691395
-7.503087730999999,-150.06175462,5.391727735059309,-0.6825211059999999,0.9976663,0.0,57,20,262.1725785227226,851.267648,mp-505554,Sc(FeSi)2,https://materialsproject.org/materials/mp-505554,49.247640765160675,46.28222384103259,68.13050277190995,-4.551418279819148
-7.203359364761906,-151.27054666,7.812926697441325,-0.7720670326190473,4.569201799999999,0.0,174,21,255.9474436925203,1204.246674,mp-1191328,Ce2Co12P7,https://materialsproject.org/materials/mp-1191328,56.5387779166093,35.383464250691674,63.28701909875385,-4.225801644225263
-7.10556458,-99.47790412,8.712573605351466,-0.2965820549999997,6.788659299999999,0.0,136,14,203.3951385344651,1067.18064,mp-1212389,Ho(Fe2Ge)2,https://materialsproject.org/materials/mp-1212389,68.90430351415871,11.947502375275686,64.41738464461812,-0.4345051753264792
-5.2467568075,-62.96108169,6.722251884396428,-0.0978272750000002,0.029460400000000005,0.0,74,12,164.78540335045176,667.0899999999998,mp-1101884,CaNi5,https://materialsproject.org/materials/mp-1101884,40.622429967580594,46.47288146417375,68.75379364019936,-17.05708235319187
-6.296300468589744,-491.11143655,8.631426036437661,-0.4860860801282048,0.0020233,0.0,122,78,1287.993527060234,6694.946999999999,mp-1203373,Ge22Rh17,https://materialsproject.org/materials/mp-1203373,34.85412209291294,32.70567180640716,70.36439574770553,-9.030915646365166