energy_per_atom,energy,density,formation_energy_per_atom,total_magnetization,band_gap,sgr,num_sites,cell_volume,weight,mp_id,formula,URL,tsne_cry_0,tsne_cry_1,tsne_xrd_0,tsne_xrd_1
-10.424404505,-41.69761802,11.324700628503015,-0.1544862237500002,3.26e-05,0.0,225,4,62.76326951002589,428.03885999999994,mp-1186203,Nb2CrOs,https://materialsproject.org/materials/mp-1186203,91.99068043457147,17.359500797467867,57.36298075064664,60.562615137076214
-8.199305894444445,-73.79375305,8.588153898344395,-0.4361389977777779,3.0435813,0.0,123,9,116.30340240688497,601.51041,mp-580439,UFe5Si3,https://materialsproject.org/materials/mp-580439,52.10567959643065,0.13352682737706625,50.87371181770497,-1.0621636923106217
-8.135331004500001,-162.70662009,8.423621717613557,-0.6298499878333331,3.66714565,0.0,55,20,267.3995275581097,1356.470648,mp-1219440,Sc2FeB2Ru2Rh3,https://materialsproject.org/materials/mp-1219440,58.489670495395615,39.77482564527091,70.07169491464009,12.431727217330065
-5.2871105044444455,-47.58399454,8.149333930373594,-0.21400659913194486,1.9e-06,0.0,107,9,128.12470517199057,628.7904,mp-1219795,Ni6SnSe2,https://materialsproject.org/materials/mp-1219795,44.057039230949705,49.80412930193408,73.26541001909891,-15.681159033276757
-11.019160632068967,-319.55565833,17.134458161963856,-0.0745713644827592,3.3e-05,0.0,217,29,446.1719916247025,4603.875693,mp-1192984,Al5Re24,https://materialsproject.org/materials/mp-1192984,60.404722597549316,33.23536450639077,70.37978785056883,16.310325297181155
-6.641330252380952,-139.46793530000002,6.686661457337341,-0.6224177554761903,0.8001815999999999,0.0,174,21,241.5377618186468,972.624674,mp-10922,Mg2Co12P7,https://materialsproject.org/materials/mp-10922,39.559987017757564,49.056279534004794,70.17376820288816,-19.089386551711634
-7.83440197,-31.33760788,7.947001204463718,-0.4745181454166669,0.0,0.17189999999999994,225,4,48.51794702815819,232.197,mp-866375,TiFe2Ge,https://materialsproject.org/materials/mp-866375,80.29824389476974,48.08445421422461,90.50592769961109,-4.119830034939048
-6.834994087692308,-88.85492314,8.265770255116253,-0.09965545769230744,13.2061356,0.0,191,13,227.6348244585413,1133.1122699999999,mp-768613,Zr(MnSn)6,https://materialsproject.org/materials/mp-768613,66.76241599337436,15.843429940472404,58.682334608699996,18.641160785432533
-7.470910808571429,-52.29637566,5.228465449472087,-1.2595554347023818,0.7852248000000001,0.0,12,7,116.87750381041172,368.007,mp-1025173,Ti(MoS2)2,https://materialsproject.org/materials/mp-1025173,26.973932706759573,30.45258315126417,31.929714078868226,-50.708737981353494
-9.664588342142856,-135.30423679,14.617452688848381,-0.4227719678571426,2.5e-07,0.0,63,14,146.00894681596253,1285.2928,mp-1104181,Ni(BW)3,https://materialsproject.org/materials/mp-1104181,59.54535137793508,28.317915172335034,65.7016583158432,14.436460572500645
-7.82587497,-375.64199856,5.7211326547658015,-0.6865235825000001,0.9914676416666668,0.0,55,48,704.7176296980941,2427.9965399999996,mp-1197723,ZrMnSi2,https://materialsproject.org/materials/mp-1197723,64.44712133375641,27.61084982986119,62.84714386792415,9.925760976812503
-7.21583008,-21.64749024,7.681431895013059,-0.013700751666666141,3.5113695,0.0,216,3,49.18896830542315,227.5416,mp-961725,CrGeRh,https://materialsproject.org/materials/mp-961725,82.03150855761116,37.35595747131294,50.10707867271269,49.21643966675428
-8.2613488725,-33.04539549,11.799453388876287,-0.3099019899999993,0.0006077999999999999,0.05590000000000028,225,4,50.99510697470189,362.36088,mp-867507,TaGaFe2,https://materialsproject.org/materials/mp-867507,84.9522823275112,38.65888250203545,51.21829914530058,50.81918657714752
-8.082213246666667,-48.49327948,7.415430395846165,-0.2738049822222213,0.9182405999999999,0.0,69,6,54.522664713259495,243.48058999999998,mp-1226217,CrCoB,https://materialsproject.org/materials/mp-1226217,36.277817862135635,55.49349810482176,79.79616148785479,-7.793889799310204
-7.635530299,-152.71060598,7.947788055628401,-0.054681691687501664,30.533111199999997,0.0,12,20,269.48996232273333,1289.8517,mp-1219379,Sm2Ga2Fe15C,https://materialsproject.org/materials/mp-1219379,76.35072484136833,35.3120785154517,86.50444102492618,-23.597644513179656
-1.4594838160714283,-40.86554685,6.710137788543209,-0.15728366714285716,8.909999999999998e-05,0.0,226,28,464.2172946790155,1875.8740000000007,mp-672707,SrZn13,https://materialsproject.org/materials/mp-672707,50.84038561942065,51.40559396659379,69.26924899645695,-11.031701686415326
-6.10195350625,-48.81562805,7.5094926456181375,-0.2421457145833337,2.12824685,0.0,51,8,142.223495941386,643.18048,mp-1079716,YInCo2,https://materialsproject.org/materials/mp-1079716,76.46283065671085,14.569822191943665,88.42733203968542,-13.059488647695384
-7.303695025555554,-131.46651046,8.110098664888802,-0.33832053111111154,0.00074355,0.0,193,18,304.4314157517052,1486.8478,mp-18032,Nb5Ga4,https://materialsproject.org/materials/mp-18032,65.08120466271903,33.12783807210041,70.49150771725894,5.499841756033512
-7.295873396,-72.95873396,4.680452716512447,-1.465328191770834,0.00011435,0.0,11,10,170.29664214834298,480.004,mp-1216784,TiMoS3,https://materialsproject.org/materials/mp-1216784,26.87968431387052,30.47640235323749,31.898831050551077,-51.001660192341355
-7.542563612272727,-165.93639947,5.331335688962957,-0.4468231574715909,0.00359885,0.0,55,22,366.73643615042397,1177.4460000000001,mp-619905,Ti9Se2,https://materialsproject.org/materials/mp-619905,53.54890032131704,44.88191396385695,67.61676281224558,-4.546117346620932
-7.79700958625,-62.37607669,6.089680109006331,-0.5999150810714289,4.4667863,0.0,6,8,93.95332136094136,344.554183,mp-1221749,Mn3FeP4,https://materialsproject.org/materials/mp-1221749,17.280803640627738,37.51991675232117,68.08340741211852,-23.688252897637376
-7.5332262000000005,-67.7990358,5.578318431277554,-0.5453016999999991,1.3333333333333334e-07,0.0,180,9,133.13087762232018,447.23214,mp-2478,NbSi2,https://materialsproject.org/materials/mp-2478,41.08322180637085,38.863607550918786,57.54703783817904,-10.556310148617852
-5.305931945853659,-652.62962934,3.8296251414843994,-0.31640785796747883,0.0003513,0.0,2,123,1773.0268167135198,4089.0505494000004,mp-1229249,Al79(Fe13Si9)2,https://materialsproject.org/materials/mp-1229249,43.11351456242614,43.8972743597771,66.86847196185697,-14.557471984015601
-7.180584603125,-114.88935365,8.291936842477382,-0.17845719979166666,3.5619185,0.0,62,16,150.28319999439898,750.4423400000001,mp-20373,Co3B,https://materialsproject.org/materials/mp-20373,39.36677017549047,55.33098636834027,79.11980050064778,-13.833420794102604
-4.388651551666666,-26.33190931,7.919883570105107,-0.33972866166666665,0.476951,0.0,65,6,98.58547157879973,470.2000000000001,mp-1226676,CeGa2Cu3,https://materialsproject.org/materials/mp-1226676,74.83374909537953,15.403873524770615,84.84113118185483,-11.324754307856374
-6.989797340416667,-167.75513617,9.288882505177883,-0.4096586962499996,3.4746517999999997,0.0,191,24,277.02553666547766,1549.6520099999998,mp-976597,Ho2Co7B3,https://materialsproject.org/materials/mp-976597,73.51646482855548,25.94201580826168,60.089006404195594,15.291554550807922
-7.533226026666666,-67.79903424,5.577440715444976,-0.5453015266666656,1.6666666666666665e-07,0.0,181,9,133.15182828500866,447.23214,mp-12104,NbSi2,https://materialsproject.org/materials/mp-12104,41.08003227065029,38.86313100532211,57.53488864490232,-10.546520582822472
-5.6232632075,-22.49305283,6.40746851603144,-0.4454305487500001,5e-07,0.0,123,4,40.03570408396814,154.484482,mp-1227312,BeSiNi2,https://materialsproject.org/materials/mp-1227312,40.06971181612125,59.14099533149781,63.06093069451308,-29.64371677709516
-5.801392875,-23.2055715,6.185361596755384,-0.41307325125000016,1.1e-06,0.0,225,4,41.046042145151894,152.89289,mp-867293,LiCo2Si,https://materialsproject.org/materials/mp-867293,40.09045974311007,59.137348987569965,62.99250566994414,-29.83657820845608
-8.66991276625,-69.35930213,8.886426548185913,-0.29855892458333244,3.5000000000000004e-06,0.0,26,8,81.70820282476599,437.264,mp-1228661,B2MoRu,https://materialsproject.org/materials/mp-1228661,58.777740859172546,27.17129096440351,65.10255710376343,14.34975643083895
-5.477097495,-21.90838998,10.325383345676393,0.20591888125000055,3.7000000000000006e-06,0.0,225,4,65.9586649181078,410.13700000000006,mp-1184667,Ge3Ir,https://materialsproject.org/materials/mp-1184667,92.36250770634994,13.784449113599255,56.92098531147917,64.84605027532544
-4.652499743333333,-27.91499846,5.80305403098091,-0.1992237975000002,4e-07,0.0,216,6,85.60340998405192,299.1566,mp-13434,CaMgNi4,https://materialsproject.org/materials/mp-13434,47.57415518827036,42.115756904175576,66.14575039384017,-15.708334352091095
-8.584478233125,-137.35165173,7.603859845550332,0.2169203265624997,2.6487403,0.0,25,16,165.59351640366538,758.2777999999997,mp-995434,Fe11MoC4,https://materialsproject.org/materials/mp-995434,31.43634227020409,56.340722461118936,79.4292192984402,2.0168494370260333
-8.717642936666666,-52.30585762,7.768866153189451,0.8443934666666664,5.5e-07,0.0,227,6,103.30520230013407,483.31552,mp-1071283,Nb2Fe,https://materialsproject.org/materials/mp-1071283,81.87892601206305,14.244425629434794,62.76300802200941,25.350725948154288
-5.218839321846153,-339.22455592,8.185158213284923,-0.16146681092307674,4.3799999999999994e-05,0.0,174,65,916.5718361852423,4517.982,mp-1216441,Zr14Cu51,https://materialsproject.org/materials/mp-1216441,54.2927802002948,51.828033234305174,79.2262130247882,2.068953555211376
-7.415701329230768,-96.40411728,9.181796150531731,-0.5026528192307685,0.0,0.0,87,13,215.19455979919644,1189.8983,mp-7221,Nb5(AsPd)4,https://materialsproject.org/materials/mp-7221,62.95220489389336,35.476073847911984,70.62740118563454,4.9871928081195485
-7.510389336666666,-22.53116801,7.44002877999681,0.13669223833333533,0.0036131,0.0,216,3,40.735742002503855,182.51609,mp-1008920,Mn2Ge,https://materialsproject.org/materials/mp-1008920,41.10007314586276,60.31987796279884,63.15967300588504,-29.82891144966501
-6.071957285,-24.28782914,11.525815682532244,-0.6761226512499992,1.5399999999999998e-05,0.0,225,4,65.80297321082361,456.739,mp-1184560,HfZnPd2,https://materialsproject.org/materials/mp-1184560,95.55139414176371,10.083357514221966,61.67789570374595,65.19966887870257
-7.293925952916666,-175.05422287,5.538436825824436,-0.5786784756944433,4.25e-07,0.0,55,24,229.1627519339587,764.33218,mp-1207600,YCoB4,https://materialsproject.org/materials/mp-1207600,46.87974833530899,-0.3046654241633863,50.32785567860445,-4.968833569401786
-4.0094438808333335,-48.11332657,2.4898418608340136,0.14221254916666715,0.000200925,0.0,12,12,214.68598770891774,321.904,mp-1073359,MgSi2,https://materialsproject.org/materials/mp-1073359,36.43056635610071,22.07345254614123,56.76001186623068,-1.89778547173984
-5.5232849025,-44.18627922,9.471030677992259,-0.1872431812500004,5e-08,0.0,194,8,103.37008766044414,589.5803999999998,mp-20112,Ni3Sn,https://materialsproject.org/materials/mp-20112,54.31458093062985,64.90261647652517,83.22299710076994,5.298175437543349
-3.63038855,-7.260777099999999,6.6371930919418825,0.9822609563100002,0.0001379,0.0,221,2,19.868771092260808,79.4157,mp-999469,ZnN,https://materialsproject.org/materials/mp-999469,39.90640043259149,59.08293762782225,60.373764836542655,-28.16066786113693
-8.247519465,-181.44542823,7.582104571508462,-0.017478172102275126,34.986288200000004,0.0,166,22,277.529232461305,1267.2124,mp-978091,Pr2Fe17C3,https://materialsproject.org/materials/mp-978091,78.07112207113441,34.301964702901934,88.68553175604738,-25.96334330417777
-7.2358408245,-144.71681649,7.298560564564062,0.07797086854799888,1.65e-06,0.0,59,20,186.2837802084817,818.77235,mp-1246516,Co5NiN4,https://materialsproject.org/materials/mp-1246516,27.272595662020574,53.9723087535282,74.05245529486417,4.939686483559073
-9.847555486944444,-354.51199753,13.019716449525061,-0.5114365908333333,1.5575e-05,0.0,55,36,449.8817793042065,3527.3685600000003,mp-1195339,NbBOs,https://materialsproject.org/materials/mp-1195339,59.39517028072189,30.816633034485264,70.06677710860633,13.387871181748359
-5.149329338636363,-113.28524545,9.359168650547478,-0.5941759940909095,4.6e-06,0.0,229,22,329.10385845276267,1854.9028,mp-1191851,Yb3(SiNi3)2,https://materialsproject.org/materials/mp-1191851,71.42940838209141,26.737256197481397,61.379859077489,13.313287576800873
-3.9865877066666666,-47.83905248,2.5781879427152004,0.16506872333333375,7.5e-07,0.0,62,12,207.32939995414725,321.904,mp-1073529,MgSi2,https://materialsproject.org/materials/mp-1073529,39.591482832967394,26.608093921341272,61.45581415716795,1.671060677085893
-3.6395132967346937,-178.33615154,6.8518457463866165,-0.11050057877551003,5.3177885,0.0,148,49,784.6663124207657,3237.75136,mp-580480,Mn8Zn14Ga27,https://materialsproject.org/materials/mp-580480,52.39252238091751,50.85138267522203,67.93365029968626,-2.801656545026581
-7.182084130833334,-86.18500957,13.524902901861472,-0.2752523197222227,0.0,0.0,43,12,151.97165956117794,1237.792,mp-28897,BIrPd,https://materialsproject.org/materials/mp-28897,59.179094301008654,31.164718376279954,49.524513311194866,7.432146293346236
-7.313048517692307,-95.06963073,7.2782669852605295,-0.4927305492307688,0.0,0.0,87,13,189.60613704403943,831.0579,mp-13967,Nb5(CuSi)4,https://materialsproject.org/materials/mp-13967,62.79530877480885,28.0878723529004,63.69926791488776,9.615906297888195
-8.922354836,-44.61177418,6.749236686110043,-0.24581640495199936,2.1032841,0.0,164,5,47.44205378267952,192.827535,mp-1001117,Mn3N2,https://materialsproject.org/materials/mp-1001117,28.821058023313732,54.05422736477534,73.26775712982797,4.248998455374875
-6.079642214,-30.39821107,8.545935264405736,-0.6141426539999998,3.47e-05,0.0,107,5,72.17059288281145,371.4247,mp-1225459,ErSiNi3,https://materialsproject.org/materials/mp-1225459,64.11198570970919,7.9836745681387065,51.4598436610782,12.235003486312163
-7.460102760833332,-89.52123313,12.206092349393229,-0.5291980024999994,1e-07,0.0,62,12,196.24325553453758,1442.52152,mp-1103346,NbGePt,https://materialsproject.org/materials/mp-1103346,57.85431172457634,18.212889010872267,54.986006987000216,15.652152043059244
-6.037052540882352,-205.25978639,6.338110712200963,-0.6296769969327727,1.885e-05,0.03539999999999921,64,34,450.83532382539744,1720.7931440000002,mp-16156,Sr(Ni5P3)2,https://materialsproject.org/materials/mp-16156,20.96567580259445,38.371801389310654,68.32570919016166,-22.136027853316584
-9.753816281,-97.53816281,13.057176487929473,-0.6482566136666662,4.05e-06,0.0,127,10,111.75142135462437,878.7255200000002,mp-1095076,Ta2FeB2,https://materialsproject.org/materials/mp-1095076,59.45068739922028,28.22201934818572,65.55297062221463,13.651235847848682
-6.297721703055554,-226.71798131,8.840940747270679,-0.8321917190277782,0.0002675,0.0,189,36,551.5402907971327,2936.4772,mp-1205128,Ho5Zr3(Ni4As3)4,https://materialsproject.org/materials/mp-1205128,66.59911231866053,8.181301884376483,51.40467679687554,9.360754163417724
-7.925732859999999,-317.0293144,7.932715112548211,-0.038189423437501084,72.70347609999999,0.0,8,40,532.9089451314887,2545.8087649999998,mp-1219288,Sm4Fe27Co7C2,https://materialsproject.org/materials/mp-1219288,76.7332484474562,34.747431258287584,87.76835197135954,-24.52264475126516
-8.39499574047619,-176.29491055,8.927855641102715,-0.6819803440476191,3.1226115,0.0,174,21,253.51420383293944,1363.014154,mp-865419,U2Fe12P7,https://materialsproject.org/materials/mp-865419,54.92230458533885,33.28833013551516,62.36949974792595,-4.885121862102889
-6.940899218999999,-69.40899219,7.024455278526807,-0.6521031261562505,4.11e-05,0.0,11,10,201.278318764138,851.45276,mp-1220396,NbMoSe3,https://materialsproject.org/materials/mp-1220396,31.787872553557143,28.493340837779478,56.86051192591075,-3.894876661952882
-8.4297995915,-168.59599183,13.641759341177806,-0.8531417003333331,0.0,0.0,127,20,267.9658034989206,2201.408648,mp-22014,Sc2SiB2Ir5,https://materialsproject.org/materials/mp-22014,53.45420677524165,21.393266533819478,68.75373370938621,13.003802984932523
-9.10807373,-54.64844238,14.956658391848805,-0.03571929499999982,5.55e-06,0.0,227,6,115.7680164026317,1042.7352999999996,mp-2498,PrOs2,https://materialsproject.org/materials/mp-2498,82.92223365205382,11.121173455729457,60.578056561645745,25.25658805597398
-8.130559761111114,-658.57534065,4.737914244620992,-1.0625434096031758,3.1407407407407407e-06,0.0,189,81,1199.026768834903,3421.109574,mp-30218,Ti2P,https://materialsproject.org/materials/mp-30218,54.14261489123656,45.65405701935617,73.20078496359598,-1.2429261267735443
-8.947091541999997,-89.47091542,7.875763897763194,-0.2595588399999997,0.002571,0.0,127,10,145.05525872121945,687.982,mp-1087230,Si2Mo3,https://materialsproject.org/materials/mp-1087230,62.65184448775612,27.433070282870048,59.02988879300224,18.971311441711194
-3.930370230833333,-47.16444277,2.6414358676020244,0.22128619916666692,9.15e-06,0.0,1,12,202.3649961327383,321.904,mp-1073562,MgSi2,https://materialsproject.org/materials/mp-1073562,41.446480992031866,25.44803912796133,61.49606180961124,3.927066320940311
-7.267911077857143,-203.50151018,5.5552465458223335,-0.9761694873214292,2.79681505,0.0021000000000004353,15,28,449.5481997456373,1503.94,mp-542189,Fe(MoS2)2,https://materialsproject.org/materials/mp-542189,26.987360623929128,30.42421884539888,31.852549302620677,-50.77537563346571
-5.5192183825,-44.15374706,9.592840173658287,-0.16843306437500072,1.5e-06,0.0,25,8,102.58545932966679,592.6304,mp-1219799,Ni6SnSb,https://materialsproject.org/materials/mp-1219799,54.28500664342114,65.01186610695463,83.22669422527245,5.292384309389939
-6.1468448575,-24.58737943,10.051739449819538,0.57894298125,4.5e-06,0.0,225,4,67.50117486815411,408.6048,mp-1183184,As3W,https://materialsproject.org/materials/mp-1183184,94.06768667790271,8.944489152941658,58.56756684243613,66.64477265031807
-5.694647625,-22.7785905,14.130169761019356,-0.7043843125000002,0.0,0.0,123,4,56.49002961034089,480.6955386,mp-12550,AlCuPt2,https://materialsproject.org/materials/mp-12550,54.49202292915634,41.539696471295954,78.76345240836696,11.388401748909185
-5.9790065665384615,-155.45417073,8.868053565360542,0.681823363557693,0.00632535,0.0,227,26,346.63564802826136,1851.1961600000002,mp-541419,Nb6Ni6O,https://materialsproject.org/materials/mp-541419,64.23515627982022,42.41715920358925,74.47736463786613,2.192832367931511
-11.5694704775,-46.27788191,15.402371823791784,-0.26097627187500017,0.2037635,0.0,225,4,64.58332468518633,599.04426,mp-1187201,Ta2VRe,https://materialsproject.org/materials/mp-1187201,92.59249393523343,14.639460468788368,57.952650435396635,62.23493766261207
-8.261920453636364,-181.76224998,7.6501359737904595,-0.03356878642045625,35.2944602,0.0,166,22,276.5087190757537,1273.8810999999996,mp-1190844,Nd2Fe17C3,https://materialsproject.org/materials/mp-1190844,78.05369290440211,34.305525805234005,88.65612608061396,-25.964053442747673
-8.586234623,-171.72469246,13.842321852563925,-0.7061253613333335,4.29618395,0.0,127,20,270.7433413177871,2256.927648,mp-22425,Sc2FeB2Ir5,https://materialsproject.org/materials/mp-22425,53.48550507416881,21.40757824961115,68.75297127016395,12.957963955348887
-6.4427311525,-25.77092461,11.19545463106369,-0.8920504625000003,2.42e-05,0.0,225,4,65.9246845318862,444.46820999999994,mp-865195,TmGaRh2,https://materialsproject.org/materials/mp-865195,95.65382673935659,10.0221583431248,61.78385785162235,65.09036015383961
-8.566073458,-171.32146916,9.86807833710175,-0.2126950909999991,7.29269145,0.0,198,20,259.2201583834413,1540.46654,mp-20330,Mn3SiIr,https://materialsproject.org/materials/mp-20330,42.92688188641992,42.4721935015829,62.89924735895949,-12.940348322639991
-8.594453715,-68.75562972,6.432721770362562,-0.22024827687499915,1.49e-05,0.0,200,8,94.74843045241778,367.04363860000007,mp-1228922,AlCr6Si,https://materialsproject.org/materials/mp-1228922,49.82857493762646,55.20914337676471,78.76330441837705,-6.589300662252938