energy_per_atom,energy,density,formation_energy_per_atom,total_magnetization,band_gap,sgr,num_sites,cell_volume,weight,mp_id,formula,URL,tsne_cry_0,tsne_cry_1,tsne_xrd_0,tsne_xrd_1
-7.756920223888887,-279.24912806,8.002528544580901,-0.7420334134920634,1.52553885,0.0,62,36,443.7602567979345,2138.585144,mp-1201079,DyFe5P3,https://materialsproject.org/materials/mp-1201079,55.72136504767904,34.283905506534644,61.96023910489136,-4.080994715858771
-3.969394114285714,-27.7857588,8.726513917092536,-0.287479487142857,2e-07,0.0,119,7,98.52120228461331,517.7515386,mp-1215553,YbAlCu5,https://materialsproject.org/materials/mp-1215553,50.143673784551936,43.78162548977554,63.689937755867064,-9.190971016583774
-6.552705872692307,-681.48141076,7.435954492356959,-0.4098076096153847,4.2925e-05,0.0,64,104,1032.1592425015383,4622.0468,mp-1204725,Y2(Ni5B3)3,https://materialsproject.org/materials/mp-1204725,54.43126226154094,37.865144232141,72.42883937508799,-2.452097039600524
-6.237804124166666,-74.85364949,9.556933308398731,-0.5182339019444449,3.685e-05,0.0,191,12,146.143606447636,841.1031999999999,mp-1101842,LuNi4B,https://materialsproject.org/materials/mp-1101842,73.76743492986488,25.022291745256677,61.700875463834684,15.724702811164349
-7.336929182222222,-264.12945056,6.996592884015273,-0.8829195882142863,7.509225900000001,0.0,189,36,459.46826826677864,1935.9450989999998,mp-1216287,Y5Co19P12,https://materialsproject.org/materials/mp-1216287,57.85174007085729,36.039780653704376,72.07832084389162,-2.2058578886509435
-7.45355695375,-59.62845563,6.325407629913123,-0.5109829362499996,0.0,0.1673000000000009,198,8,88.13336945282951,335.722,mp-871,FeSi,https://materialsproject.org/materials/mp-871,43.422760871557905,58.02076813175538,78.13960069408891,-7.600517976372376
-5.895361361666668,-35.37216817,7.553290475554812,-0.4294526399999998,0.000226,0.0,187,6,88.3486100335012,401.87113860000005,mp-1226683,CeAlNi4,https://materialsproject.org/materials/mp-1226683,74.90536563114756,18.239367714481446,87.11734358711017,-11.786007373879965
-5.833086446923077,-75.83012381,8.147564687267352,-0.28169558307692344,1.1784639,0.0,139,13,191.25630080823518,938.414,mp-1212901,Gd(Ga2Fe)4,https://materialsproject.org/materials/mp-1212901,67.72628148928733,33.662013043266484,68.97143600000106,2.4794190670422243
-4.463022172142857,-124.96462082,9.258067726721675,-0.16055909642857102,1.129799,0.0,26,28,421.9311552914048,2352.409138,mp-1227915,Ce2Cu11Au,https://materialsproject.org/materials/mp-1227915,70.44224197222997,23.99888443399307,59.99116859353412,18.584286503574212
-6.256628768947368,-237.75189322,7.643359276230322,-0.681984524511278,0.0047,0.0,11,38,498.66996060471627,2295.34722,mp-1210070,Nd2Ni12P5,https://materialsproject.org/materials/mp-1210070,23.241547029659195,39.81239982922916,65.06879211277679,-20.07754957527758
-3.4610678761538463,-44.99388239,7.932218860583829,-0.21711740384615405,4e-07,0.0,139,13,206.2026108281047,985.008,mp-1103929,Yb(Ga2Cu)4,https://materialsproject.org/materials/mp-1103929,70.66444041701541,17.680092348192932,66.83077938199894,4.278102676645917
-5.7692752233333335,-34.61565134,8.294557276490648,-0.5248463900000004,7e-07,0.0,65,6,84.93427642758711,424.2551386,mp-1225297,DyAlNi4,https://materialsproject.org/materials/mp-1225297,75.24860232088096,20.98400987637488,89.72333778865419,-13.465368070666738
-6.7094570719444455,-241.54045459,8.639204403878868,-0.7863245604365079,0.05888045,0.0,62,36,431.03203038501573,2242.5090440000004,mp-1199692,YbCo5P3,https://materialsproject.org/materials/mp-1199692,55.56592185962011,34.46447577056891,62.01102965615792,-4.234969385689459
-7.591311894545455,-167.00886168,7.762392062244268,-0.07290365663,35.2620779,0.0,166,22,263.68353681623194,1232.62082,mp-1190701,Ce2Fe17H3,https://materialsproject.org/materials/mp-1190701,76.48238822782264,34.90420518617252,88.29061956490263,-24.696819466365966
-7.192515697777778,-64.73264128,5.032658966971791,-0.3634029677777764,0.0,0.3864000000000001,181,9,107.07005595194988,324.5013,mp-11191,CrSi2,https://materialsproject.org/materials/mp-11191,47.8045846480121,50.453282014214594,77.23617209800507,-6.815918348483311
-7.489758565000002,-104.85661991,7.656016917412568,-0.4444124935714292,5.0840913,0.0,136,14,190.20519550726783,876.9526999999998,mp-1208545,Tb(Fe2Si)2,https://materialsproject.org/materials/mp-1208545,67.3783927387813,12.09959905723464,63.84730646068163,-0.6918457039654629
-7.702662612857143,-161.75591487,7.061053744367586,-0.13526482273809529,26.930041100000004,0.0,12,21,280.5168098026688,1192.8321,mp-1216379,Y2Ga3(Fe7C)2,https://materialsproject.org/materials/mp-1216379,70.92160381269771,37.41407163269753,82.15302646168556,-21.635993652047116
-8.387737545625,-134.20380073,6.0506020227943385,-0.7122289066406271,1.285e-05,0.0,121,16,202.96574237040383,739.558,mp-7945,V3S,https://materialsproject.org/materials/mp-7945,51.04296708311961,47.42770350821215,73.28080729648637,-4.475148988002812
-4.871338132592593,-131.52612958,9.766194526205188,-0.145579920370371,1.9e-06,0.0,166,27,510.15925732668745,3000.42,mp-1217443,Te2Pd7,https://materialsproject.org/materials/mp-1217443,65.94647905277188,35.50258438103937,57.91614505805934,59.529198057504615
-7.1925142200000005,-64.73262798,5.030730079569542,-0.3634014899999996,0.0,0.3863000000000003,180,9,107.11110885656157,324.5013,mp-1222,CrSi2,https://materialsproject.org/materials/mp-1222,47.804855353175746,50.451302845744145,77.24347604211968,-6.812954777979902
-7.06825042,-35.3412521,5.309429804037079,-0.7876184069999994,2.6600000000000003e-05,0.0,139,5,68.49076848007432,218.993302,mp-4131,Sc(CoSi)2,https://materialsproject.org/materials/mp-4131,34.10731467582766,45.813519198384206,60.12404615613327,-5.995337932134419
-7.335294359,-293.41177436,12.571104114479024,-0.0749702659999997,0.0,0.7418000000000005,60,40,632.3284521115453,4787.04,mp-16610,Ge3Os2,https://materialsproject.org/materials/mp-16610,35.1002725799676,33.52053429411359,58.01173465788429,-11.163608147593024
-6.419440620288461,-667.62182451,8.493839270726522,-0.42269412298077,1.9399999999999997e-05,0.0,64,104,1026.150436116901,5248.8719999999985,mp-1199522,Er2(Ni5B3)3,https://materialsproject.org/materials/mp-1199522,53.61061161896408,38.07925610011126,66.16239407285211,-5.745186343653566
-6.936234976428572,-194.21457934,7.609047644422654,-0.4750697412500001,4.1130202,0.0,140,28,343.4899213549112,1573.9655099999998,mp-17319,NdCo9Si4,https://materialsproject.org/materials/mp-17319,22.117097294336734,39.15178278067135,66.34644807984394,-22.487420985387
-6.249459732,-31.24729866,5.539080561482924,-0.3362025869999989,4.4392078,0.0,139,5,88.50705941937491,295.2340900000001,mp-19824,Ca(MnGe)2,https://materialsproject.org/materials/mp-19824,31.41434164931625,19.518425994053672,54.225019727222026,-13.224990887456773
-7.174828879230769,-93.27277543,7.4767054170085885,-0.3164168069230759,11.6103311,0.0,191,13,189.7522373689121,854.3741200000002,mp-22267,Y(MnGe)6,https://materialsproject.org/materials/mp-22267,67.75417254776553,34.20812171885433,73.97665679086077,-0.4283082699958219
-6.3520693758333335,-228.67449753,6.870482712110787,-0.28647913990740725,4.55e-06,0.0,63,36,310.1921021155545,1283.4202772,mp-1194505,AlNi9B8,https://materialsproject.org/materials/mp-1194505,36.56013012574467,54.93551927603478,76.16884851104744,-10.318965458703088
-5.770642436666668,-34.62385462,8.427254103099461,-0.5307772891666674,2.4299999999999998e-05,0.0,65,6,84.0757681134848,426.6854586,mp-1223899,HoAlNi4,https://materialsproject.org/materials/mp-1223899,75.29753705209531,20.97638029778793,89.75185197225264,-13.527543636091266
-8.4878631,-50.927178600000005,16.758059430538896,-0.2802421029166666,4e-07,0.0,191,6,108.99693527368105,1099.99047,mp-1384,LaIr5,https://materialsproject.org/materials/mp-1384,76.77225144504891,12.102470322358002,62.12575054253646,22.79697566867896
-7.270265538333334,-130.86477969,10.085892285474811,-0.4611823711111119,0.0005846,0.0,166,18,328.67019911785815,1996.2988800000005,mp-1190346,La2Rh7,https://materialsproject.org/materials/mp-1190346,72.82304469778198,15.58399597391008,58.88269392599618,20.21476686505403
-4.29907858,-17.19631432,2.90064703701042,0.5798434590950006,0.000503,0.0,225,4,48.81149948173753,85.26444000000002,mp-978497,Si3H,https://materialsproject.org/materials/mp-978497,37.97272944418625,47.22064032458762,50.30002471919039,48.98014808285514
-4.328267021785714,-121.19147661,8.402435322691021,-0.13385999428571335,0.0,0.019199999999999662,14,28,415.423920189482,2102.072,mp-1945,NdCu6,https://materialsproject.org/materials/mp-1945,69.49745163292597,31.10798977621611,67.92089860795447,5.634979948916513
-7.555349056551724,-219.10512264,10.41410082575691,-0.6049329643103449,1e-07,0.0,225,29,354.2013442436715,2221.38018,mp-4502,Ta6Si7Ni16,https://materialsproject.org/materials/mp-4502,60.48309196868515,45.911211303253005,61.88234837841079,-7.180937422559477
-7.888650781111113,-70.99785703,7.08884467728674,-0.6539113283333349,0.6806800666666667,0.0,189,9,124.89568296635845,533.179935,mp-1205741,TiMnAs,https://materialsproject.org/materials/mp-1205741,45.8458276994423,49.99081225930292,73.54231567983274,-10.695911453048812
-7.1013901675,-255.65004603,8.491527146758047,-0.850553165992063,1.1271958999999998,0.0,62,36,435.316575321341,2226.085884,mp-1195792,TmCo5P3,https://materialsproject.org/materials/mp-1195792,55.59614604022072,34.4753638323511,62.03456242631725,-4.204992277175592
-8.177467882857142,-171.72682554,7.5822710437289045,-0.7138532116666657,16.2839772,0.0,174,21,265.8566146382132,1213.9412940000002,mp-1190589,Tm2Mn12P7,https://materialsproject.org/materials/mp-1190589,55.43818362808259,33.79975442015421,61.64313121698967,-3.8259272867866967
-7.215551845,-28.86220738,8.3038800681929,0.13167066875,7.4370761,0.0,123,4,57.24083122605116,286.245,mp-1225154,Fe3Sn,https://materialsproject.org/materials/mp-1225154,65.94803837554419,35.625527102148894,69.46915120920409,3.1047965139229463
-8.36858001125,-468.64048063,6.770096024101659,-0.2761684926785709,4.4880396625,0.0,92,56,649.2173570109753,2646.8898,mp-608655,Mn5Si2,https://materialsproject.org/materials/mp-608655,46.13832546975423,54.26963033072117,77.0386925750456,-9.214933011986108
-7.676724875555557,-69.09052388,7.120077813171375,-0.6751248861111129,1.0752343999999998,0.0,189,9,124.98237004110293,535.9007999999999,mp-1095148,TiFeAs,https://materialsproject.org/materials/mp-1095148,45.75916810498632,50.082603487617284,73.48804492792556,-10.680095229485453
-6.959273245,-208.77819735,5.174540004362525,-0.5167552805555554,3.0,0.0,160,30,428.91297377646345,1336.5704074,mp-1217391,Ti13Al9Co8,https://materialsproject.org/materials/mp-1217391,49.21214578326561,45.30502881802092,68.30902378471254,-3.9705596696413097
-6.910760391111111,-62.19684352,7.617336947678353,-0.22315969611111086,3.010062566666667,0.0,189,9,121.38670506151743,556.8333,mp-4989,CrNiAs,https://materialsproject.org/materials/mp-4989,45.342388169275424,50.62636607108612,74.06496830238095,-11.861546113244527
-7.1063759325,-255.82953357,8.676611753417571,-0.8502399809920631,1.088307175,0.0,62,36,430.6488933959301,2250.217044,mp-1196904,LuCo5P3,https://materialsproject.org/materials/mp-1196904,55.52669301495961,34.472361988165176,61.998092093654975,-4.240036573824237
-7.191444158333333,-43.14866495,10.80172845541822,-0.2977517766666651,0.0,0.0,191,6,103.52924105061348,673.45285,mp-11562,TbRh5,https://materialsproject.org/materials/mp-11562,73.36078271593442,15.193625192868044,65.67566100108229,1.6761779942115709
-7.070909795714287,-197.98547428,7.336109758371937,-0.7240870820153061,5.6200000000000004e-05,0.0,59,28,346.4262861752372,1530.4796800000001,mp-504771,LaCo8P5,https://materialsproject.org/materials/mp-504771,23.04474554217777,39.71839763414353,65.33740322496031,-20.187785935876306
-9.955723494375,-159.29157591,8.897502391869422,-0.5483158705650002,0.0,0.0,186,16,164.15463992322339,879.5735999999998,mp-2811,MoN,https://materialsproject.org/materials/mp-2811,32.01094671145676,48.237535782440965,67.94108029179696,9.04794046336981
-9.752511633928572,-273.07032575,12.387033757278939,-0.07950478998285705,0.73662135,0.0,8,28,324.4479338125832,2420.2668,mp-1225423,Fe4W2N,https://materialsproject.org/materials/mp-1225423,54.22418710703429,39.25267926707802,68.91545534787419,13.841136036584633
-8.07070251875,-64.56562015,5.6698734271595885,-0.5474534148214278,0.0,0.0,62,8,97.19772179354123,331.879448,mp-21048,CrP,https://materialsproject.org/materials/mp-21048,16.965173455983113,37.82284780923882,68.15521717819979,-23.515550777391905
-7.2647558863888895,-261.53121191,10.070752070665922,-0.4556727191666678,0.0036701,0.0,194,36,658.328633748021,3992.597760000001,mp-568375,La2Rh7,https://materialsproject.org/materials/mp-568375,72.81888177169165,15.58669030349848,58.874482130259544,20.231688784579326
-5.7177307046428565,-160.09645973,8.938420375466395,-0.33690564500000064,0.000122775,0.0,194,28,413.47595359635307,2225.676,mp-1192615,NdNi5Sn,https://materialsproject.org/materials/mp-1192615,71.06870209398248,21.833538467351538,63.95055730823812,17.40772132151286
-6.426710740000001,-186.37461146,7.753270236827189,-0.4889834560344841,1.7899999999999998e-05,0.0,225,29,371.54179460788237,1734.7764,mp-582759,Ti6Ni16Ge7,https://materialsproject.org/materials/mp-582759,46.7400065474233,52.793824660107134,71.95630520036167,-12.753817923561414
-6.630231545,-39.78138927,16.137423351419553,-0.7617755395833328,1.8000000000000001e-06,0.0,191,6,114.66396499033267,1114.32547,mp-1832,LaPt5,https://materialsproject.org/materials/mp-1832,76.77819128472656,12.089651455550154,62.083658263777984,22.77378787491232
-9.6006498,-211.21429559999999,15.46957530412751,-0.2230697031060616,0.73274155,0.0,65,22,234.46668984728282,2184.2907800000003,mp-1226558,Co2Re5B4,https://materialsproject.org/materials/mp-1226558,54.12473711638896,39.239677550463576,67.64351587992758,2.043300688050689
-4.882786721785714,-136.71802821,7.3055881560892155,-0.4870174953571426,0.0,0.0,63,28,446.465286379724,1964.23657,mp-21625,Y2(Ga3Co)3,https://materialsproject.org/materials/mp-21625,67.63459341636299,33.73339733249078,70.34969751047656,3.1373748335280376
-7.357017718666666,-220.71053156,7.527919956900947,-0.16752573441666715,18.78866685,0.0,42,30,405.2284078817301,1837.07034,mp-1223611,LaGa3Fe10C,https://materialsproject.org/materials/mp-1223611,22.895066895251638,37.10439983843997,64.23801090389821,-21.242490636500694
-5.688872615,-22.75549046,7.540945028290553,-0.4391824875000001,1.95e-05,0.0,225,4,47.24917135089135,214.57092859999997,mp-1183148,AlGaCo2,https://materialsproject.org/materials/mp-1183148,44.11601600748757,60.74600019996191,90.15412029597069,-6.9246113969355925
-7.90123260125,-63.20986081,5.686701401505563,-0.626716287321428,4.8232325,0.0,6,8,99.17932721680151,339.650683,mp-1221742,Mn3VP4,https://materialsproject.org/materials/mp-1221742,17.075203886776332,37.72455412227888,68.0635647466886,-23.441375499227213
-5.065777171071429,-141.84176079,8.361927473776321,-0.695385880357143,1.25e-06,0.0,63,28,483.1354623697742,2432.911,mp-1213907,Ce2(Ga3Rh)3,https://materialsproject.org/materials/mp-1213907,69.48403179028772,15.827940065298815,65.14438165688404,5.063001806030144
-7.152865713333332,-42.91719428,8.307568250831066,-0.18886911166666565,3.16916065,0.0,194,6,74.56073451766756,373.02248,mp-20565,MnCoGe,https://materialsproject.org/materials/mp-20565,46.89659551628852,56.49972904259106,84.30387537290972,-1.6710867053879042
-7.326269553846153,-95.24150420000001,7.67651176903986,-0.3078468807692299,12.0544201,0.0,191,13,185.3147630592572,856.6922700000001,mp-22084,Zr(MnGe)6,https://materialsproject.org/materials/mp-22084,67.76520306434581,34.26034087484807,74.03407269173528,-0.4697845081380424
-6.81852423,-68.1852423,2.493369357679959,-0.136057168166667,0.0,1.3157000000000003,58,10,93.16874664218511,139.89679999999998,mp-1079629,Mg(BC)2,https://materialsproject.org/materials/mp-1079629,37.19416790383615,46.38772225319673,-10.535377100107397,-74.13540479822667
-6.675957892758619,-193.60277889,8.226128722678009,-0.4249628913793103,0.0002491,0.0,225,29,305.29660937674373,1512.406,mp-1193952,Zr3(Ni10B3)2,https://materialsproject.org/materials/mp-1193952,40.87165745526337,52.37943843506741,79.26556089991692,-9.975586760914789
-6.8807303991666675,-330.27505916,7.260799575898684,-0.6697182529166668,0.0009959583333333333,0.0,55,48,799.4571414384749,3495.6709440000004,mp-1196513,ScGe2Ru,https://materialsproject.org/materials/mp-1196513,47.90425729073452,46.62106201700273,66.1542666770447,-6.210366752400098
-7.993545752222222,-143.88382354,9.462039881322386,-0.3696999233333334,12.9273725,0.0,166,18,254.59167744366292,1450.7076,mp-669713,Gd2Ni7,https://materialsproject.org/materials/mp-669713,74.47123243491083,23.79879956991547,62.689293707980674,17.242343742071036
-8.032169318684211,-305.22243411,7.830746189874352,0.036007993026315355,79.29249759999999,0.0,8,38,526.7315204688493,2483.95295,mp-1219904,Pr3DyFe34,https://materialsproject.org/materials/mp-1219904,74.56551537022744,37.170904642439595,86.78026769877432,-22.96678448186556
-4.57056399,-31.99394793,7.489410296780324,-0.31092328483630993,1.6100000000000002e-05,0.0,166,7,124.96843908519811,563.6361999999998,mp-1078086,In2Ni3Se2,https://materialsproject.org/materials/mp-1078086,70.01015915893895,13.426022985985455,51.32461942771955,6.154275502411218
-3.707953608205128,-144.61019072,7.593967249178507,-0.21880996301281969,0.00010956666666666667,0.0,191,39,631.2839498187136,2886.9840000000004,mp-1208763,Sm(Ga2Cu)4,https://materialsproject.org/materials/mp-1208763,70.86610380839983,17.63608343399459,66.71943313236038,4.405645874304875
-7.495841507142857,-104.9417811,7.989042751726577,-0.4718220671428576,4.01120895,0.0,136,14,186.4371547909539,896.9704199999999,mp-1104799,Tm(Fe2Si)2,https://materialsproject.org/materials/mp-1104799,67.33074962256511,12.090126256150048,63.79655991646914,-0.6990917126237853
-7.859577489999999,-94.31492988,8.665812166514806,-0.1391867070833328,3.7152049,0.0,156,12,149.13178660418168,778.2702,mp-1220724,Nb3Co8Si,https://materialsproject.org/materials/mp-1220724,64.50176855847789,46.83499806852256,78.3931631182358,-3.020626185510475
-7.334843963181819,-161.36656719,7.8284330511895135,-0.045441560493637734,35.5612524,0.0,166,22,264.5195896120626,1247.0492099999994,mp-1192456,Nd2Fe15Co2H3,https://materialsproject.org/materials/mp-1192456,76.52845577308288,34.87732955376045,88.3456266277593,-24.829036937337676
-4.289211158333333,-102.9410678,7.508097007189338,-0.19296679479166612,1.25e-06,0.0,141,24,340.6489798719578,1540.2381544000002,mp-973410,NdAl2Cu9,https://materialsproject.org/materials/mp-973410,71.59155591807648,18.472943418876977,70.2251261754409,-6.510609986806522
-6.062708266153847,-78.81520746,8.002656165084517,-0.08844855230769172,11.5684488,0.0,69,13,191.50725640774482,922.9332699999999,mp-1222429,Lu(MnGa)6,https://materialsproject.org/materials/mp-1222429,69.21518153633582,34.849114405688525,67.10641162465738,3.3450727286642272
-8.23346464,-263.47086848,7.393605895485952,-0.11590702062500036,35.5591037,0.0,12,32,447.38236069816816,1991.985,mp-1214504,Ce3Ti6Fe23,https://materialsproject.org/materials/mp-1214504,73.07798550722994,37.358056601751926,83.24237048982602,-21.502278868009785
-5.77009298,-34.62055788,8.437483824632059,-0.5320029308333337,8.7e-06,0.0,65,6,84.43212937221088,429.0141386,mp-1225548,ErAlNi4,https://materialsproject.org/materials/mp-1225548,75.29080164332557,20.937119306096577,89.71270997445222,-13.554815923848206
-5.287802266896552,-153.34626574,8.117324574500417,-0.5973600665517241,2.45e-05,0.0,225,29,492.56774345359435,2407.8520000000003,mp-1194145,Zr6Ga16Pd7,https://materialsproject.org/materials/mp-1194145,69.36700107000924,18.328338752282434,65.700492317116,6.592587578548981