energy_per_atom,energy,density,formation_energy_per_atom,total_magnetization,band_gap,sgr,num_sites,cell_volume,weight,mp_id,formula,URL,tsne_cry_0,tsne_cry_1,tsne_xrd_0,tsne_xrd_1
-5.8451689375,-46.7613515,5.679451968149152,-0.7406696275000009,0.0,0.0,62,8,197.63859234399035,675.9725999999998,mp-9968,PrSi,https://materialsproject.org/materials/mp-9968,32.485086942214004,-39.79294654121661,12.628166351737706,-18.674957171093915
-7.839170665,-376.28019192,4.821723235583184,-2.8315940435008344,0.9999978,0.21350000000000025,55,48,737.9705197402092,2142.85212,mp-1198693,LaNb2CuClO7,https://materialsproject.org/materials/mp-1198693,-29.56565938452579,-69.2133390707172,0.6034723529761241,-51.47150863640909
-4.486810774444446,-40.38129697,6.480472881281189,-2.5683000424599998,0.0,4.3135,164,9,164.36779348784856,641.4670192000001,mp-10401,Tl2SnF6,https://materialsproject.org/materials/mp-10401,-57.415523920186246,-45.459886974225256,-26.23652792907981,-17.855491334647148
-6.664516958846153,-173.27744093,5.1229528515803135,-2.2208683718269238,3e-07,2.8525,4,26,389.48416704116653,1201.6032,mp-19049,BaTeMo2O9,https://materialsproject.org/materials/mp-19049,-49.09094691153989,-43.224820619925566,-26.04064381858468,-23.299649998760795
-6.605679594166666,-79.26815513,5.419855052933774,-1.0210422855952384,0.56504015,0.0,14,12,247.6334639099633,808.2540960000001,mp-568080,CeP2,https://materialsproject.org/materials/mp-568080,16.176093527518233,-7.623176897077168,2.338116387276896,-6.890257122573493
-7.3228497013333325,-439.37098208,5.734141297202447,-0.3793191323055548,4e-08,0.0,19,60,936.6852530987967,3234.5434,mp-568090,LaBC,https://materialsproject.org/materials/mp-568090,9.877125931491538,-59.6349534835006,-1.5470749176667535,-33.058798032269046
-3.8878303342500002,-155.51321337,6.076319895440335,-0.5132651494687501,0.00033339999999999997,0.0,14,40,945.1148508699307,3458.4072,mp-1226093,Cu3Bi2S3Br2,https://materialsproject.org/materials/mp-1226093,12.141433618180333,-24.335854455618787,-14.015450011630625,-48.0920273621294
-7.119543283928572,-199.34721195,5.238299695879969,-3.3795196767857143,0.0,4.6289,62,28,465.0220929095449,1466.9484,mp-17612,Ba2SiO4,https://materialsproject.org/materials/mp-17612,-10.34381192777417,-31.77106418612578,-6.5501510263701705,-24.906919228324412
-6.266141256818183,-137.85510765,4.713812590482453,-2.080579636022728,2.99999985,2.5534,2,22,322.75003848306017,916.19839,mp-1191386,BaCoAs2O7,https://materialsproject.org/materials/mp-1191386,-30.800134866190692,-29.509822970260018,-30.676395617113556,9.509217324903897
-7.87446721125,-251.98295076,5.6470398715464345,-3.41525966044922,2.5e-08,2.3068,57,32,527.9506953278241,1795.4161600000002,mp-17834,La2SiSeO4,https://materialsproject.org/materials/mp-17834,28.86784476761365,-17.595376741777095,16.059695268345067,0.1478469798837319
-7.207152274615384,-374.77191828,4.881440204896519,-1.3877770506176923,4.5e-07,2.5219000000000005,117,52,686.9165897452518,2019.3095000000005,mp-1202424,Li5La5(SiN3)4,https://materialsproject.org/materials/mp-1202424,-23.902779795486087,-29.711322092875356,-9.304541035230116,-10.997026002732254
-2.821143504375,-45.13829607,4.643445515589239,-0.7305903278749999,0.0,1.5181999999999998,140,16,651.5931160484408,1822.0813,mp-23534,KSn2I5,https://materialsproject.org/materials/mp-23534,3.905534459874132,-31.303277943911567,-5.0498794400137905,-26.656821683422
-7.599831763214285,-212.79528937,6.419238995302769,-3.6874746647957144,2.5e-07,2.8525,225,28,340.86993320464364,1317.7200384000002,mp-541097,Zr3Pb(O2F3)2,https://materialsproject.org/materials/mp-541097,-12.6708554950263,-33.64133970033407,-1.4777749011991637,-55.378765427918644
-7.205584206249998,-172.93402095,3.846800392108888,-3.4015406521875007,0.0,4.4989,4,24,360.37233169250015,834.8376000000002,mp-1227482,BaSrMgSi2O7,https://materialsproject.org/materials/mp-1227482,-25.77002023005624,-26.594034830881238,-18.44747508599212,-28.65155091427485
-7.812229813636364,-85.93452795,4.186023446561192,-3.21247111988091,0.0,1.7990000000000002,119,11,156.83737627452632,395.3685632,mp-753719,SrLiNb2O6F,https://materialsproject.org/materials/mp-753719,-29.542489889047445,-69.41132916644942,-6.106277701818705,-56.51870917947873
-6.627503853333334,-39.76502312,6.431690790616213,-0.6515410472222231,0.14761715,0.0,129,6,123.12771192710385,476.905,mp-20954,DyTiSi,https://materialsproject.org/materials/mp-20954,37.85755545762528,-14.119522312112085,14.439118507065194,-17.031283665156653
-8.197511803815791,-623.01089709,4.929911459457174,-2.1428295172984204,1.94821095,0.006800000000000139,19,76,1151.0188949626809,3417.2164,mp-677082,Ce4Si4N7ClO3,https://materialsproject.org/materials/mp-677082,-23.56672887761224,-29.966696669327394,-17.893173891833516,-27.86248112894341
-5.283888324705882,-179.65220304,3.836403140035785,-2.6250217652629413,0.0,3.814,4,34,841.4625702709405,1944.06127712,mp-1221346,Na2Nd4NCl9O,https://materialsproject.org/materials/mp-1221346,8.531437891887375,-10.143009902204398,-16.529396026625516,-5.2469211866163965
-3.1931066666666665,-76.63456,3.778973550413776,-1.1066132898132182,0.0,0.9377,61,24,657.1368892664763,1495.48,mp-776890,Rb2O,https://materialsproject.org/materials/mp-776890,-4.033581667536335,-33.79516506725685,-0.9500100342385882,-30.843225771846644
-4.301525844583334,-103.23662027,6.665499523566848,-1.0238255037066668,1.0925e-05,1.5132,1,24,441.2306078616117,1771.12512,mp-626690,TlHO,https://materialsproject.org/materials/mp-626690,-25.365127241375603,-45.753184326310254,-13.328892905715005,-28.103249001103364
-6.470701211153847,-168.23823149,5.21595611103822,-0.6407974735984615,0.00023119999999999998,0.7275999999999998,15,26,505.9953347623536,1589.3932,mp-1246905,Ba5(CN3)2,https://materialsproject.org/materials/mp-1246905,-6.595577141351368,-32.56079747658449,4.217658568120591,-27.37280497681705
-4.225005696428572,-118.30015949999999,5.0429655018509925,-1.6368236861720038,0.0,2.1175,14,28,739.6019113187074,2246.1302228,mp-28381,Cs3InO3,https://materialsproject.org/materials/mp-28381,-5.215660386902632,-28.36266227007506,-6.426240032213905,-30.866561654526702
-8.31726031625,-199.61424759,6.912143674272054,-2.729963588180833,20.00000065,0.0,139,24,318.61261605930144,1326.25378,mp-1183437,BaEu2Mn2O7,https://materialsproject.org/materials/mp-1183437,16.765697588469614,-72.5445322452064,41.871954571287105,-45.08357212226225
-8.255425391000001,-165.10850782,8.077274150134032,-3.3349614442500006,1.999999425,1.5799000000000003,62,20,225.24072364686074,1095.6268,mp-755583,LuVO3,https://materialsproject.org/materials/mp-755583,9.096853460339515,-80.9848531849171,51.56274812555375,-52.504506698678256
-6.4942827020000005,-129.88565404,4.75506872974715,-0.8880981984999992,6.046437325,0.0,141,20,383.84186260070436,1099.1578,mp-1237139,PrV2O2,https://materialsproject.org/materials/mp-1237139,10.64802462558002,-18.801748833259285,-16.739262896426172,-12.804081796423366
-4.584957950384615,-238.41781342,4.588703914736307,-2.7188056525499333,11.999999699999998,3.0056,14,52,1050.1964052159399,2902.0939826,mp-573016,Cs7Co4F15,https://materialsproject.org/materials/mp-573016,-53.66076078301678,-61.90759475580121,-22.443306437742482,-13.73775909829596
-5.678933527532468,-437.27788162,6.483941495780458,-1.8508451716964287,0.0,1.481,1,77,1776.8199511779685,6937.985999999999,mp-1228844,Er20Cu6(Pb3S14)3,https://materialsproject.org/materials/mp-1228844,8.015652641319264,-5.88362828710667,-6.866987374590735,-13.519196595171662
-5.258713650972221,-378.62738287,4.494788127068095,-2.0765850032495208,0.0,3.0623,14,72,1713.2211059340743,4637.3892456,mp-573150,Cs2GeO3,https://materialsproject.org/materials/mp-573150,-5.71958799001351,-27.849290122963122,-6.946813086838483,-30.162255759023964
-6.603269997083332,-158.47847993,5.030225306862443,-2.361750366767241,0.99999995,0.0,13,24,413.1821384224999,1251.6413037999996,mp-1213343,CsYb(MoO4)2,https://materialsproject.org/materials/mp-1213343,-49.396702565437536,-51.73289861376536,-29.809769192347158,-54.93838976918902
-4.11063798,-65.77020768,3.8648807228214457,-1.5162913678286638,0.0,1.477,9,16,437.0204460143137,1017.1588,mp-756570,Rb4SnO3,https://materialsproject.org/materials/mp-756570,-3.940854364637148,-29.351221647108932,-18.108605010903197,-60.90681506290482
-6.005271572857143,-252.22140606,8.429492300093003,-1.7988404278747618,3.9999867999999994,0.5562000000000005,8,42,673.854517615406,3420.7274449999995,mp-1222044,MnBi12W2(ClO8)3,https://materialsproject.org/materials/mp-1222044,-18.472284587121234,-56.06456185465398,-10.544521999024047,-58.088188631910036
-5.2867715925,-21.14708637,6.935829328790174,-1.8209722332812504,0.0,1.4473000000000005,166,4,104.33026569683676,435.7723,mp-4123,ErTlS2,https://materialsproject.org/materials/mp-4123,4.5709773401650216,-5.0178928478389935,-2.396067616387603,-5.362765941058738
-7.366050073333334,-176.78520176,7.197472155788872,-2.6419617903089083,0.0,3.4707,15,24,356.5980268347768,1545.6453037999993,mp-1213150,CsNd(WO4)2,https://materialsproject.org/materials/mp-1213150,-47.55636575997221,-56.284221290562094,-21.140964437492915,-61.052874868898456
-8.769873954166666,-105.23848745,6.331948490755668,-2.825115068164445,0.0,1.3748000000000005,71,12,162.19185028895444,618.4681099999999,mp-754845,La3Ti2N3O4,https://materialsproject.org/materials/mp-754845,16.568855277736688,-72.4198022397551,41.767711772457936,-45.11304072386898
-5.221173855441176,-355.03982217,7.957506752885429,-1.8002045017482358,0.0,2.9939999999999998,62,68,1244.7390942162365,5964.942412799999,mp-554249,Bi6Cl3O7F,https://materialsproject.org/materials/mp-554249,-19.038120747003155,-55.107374418601076,-13.802350992115556,-56.05998721725955
-7.096693541578947,-269.67435458,5.503868804484808,-1.8709646531978943,20.0000001,0.0,12,38,439.77641288375764,1457.64214,mp-757454,Mn6PbO12,https://materialsproject.org/materials/mp-757454,-20.322952580847584,-41.35571290144327,-8.820015823271447,-38.27809678783448
-6.036343305,-96.58149288,7.001788085721189,-2.077116238125,3.1e-06,0.0,10,16,236.49026821761598,997.17905,mp-1218582,Sr2YCu3(PbO4)2,https://materialsproject.org/materials/mp-1218582,11.512497090574513,-68.40269229061349,41.42856215352378,-50.281900858781384
-5.961621481666668,-143.07891556,4.850254027169019,-1.8872417295225703,1.3130313,0.0,173,24,557.9958462385266,1629.84521,mp-1192284,La3InCoS7,https://materialsproject.org/materials/mp-1192284,9.392253847863378,-8.009115541176339,-8.866704966766457,-10.463495289304667
-6.998906604666669,-104.98359907,6.3008259409581395,-1.1071382925353324,0.5611715,0.0,148,15,341.66135297774366,1296.4155999999996,mp-1104571,Ba6Re2N6O,https://materialsproject.org/materials/mp-1104571,-2.1982493070244957,-31.39826052994857,-4.388182792513368,-34.519254854969965
-3.299481459166667,-39.59377751,3.353462038717816,-0.3683401641666671,0.0,0.3466999999999998,62,12,402.72402273157866,813.302,mp-1106,Sr2Si,https://materialsproject.org/materials/mp-1106,2.7941717186072186,-29.202111278820148,0.6672141006319393,-30.136871850581517
-3.807781663181818,-83.77119659,4.369240264482404,-1.8668771348863635,0.0,3.2909,186,22,712.7788033394289,1875.47644,mp-755949,Ca4I6O,https://materialsproject.org/materials/mp-755949,3.1095864924889014,-28.502232171825113,-4.5889386191945025,-29.267157411273843
-6.605178498095237,-277.41749692,4.493110441582892,-2.9582644388095245,0.0,3.5871000000000004,173,42,653.745726911439,1768.9146,mp-561305,BaZnSiO4,https://materialsproject.org/materials/mp-561305,-25.731199037368174,-28.35268431575841,-9.870593239569263,-25.143451462184206
-6.505167367884615,-338.26870313,3.6432278139554604,-2.7466583497527477,0.0,3.9634,14,52,744.5399190112303,1633.5228960000002,mp-8810,SrZn2(PO4)2,https://materialsproject.org/materials/mp-8810,-29.762683328992143,-27.845304731284514,-31.19815891389009,9.714025535971428
-5.903029586875,-283.34542017,4.473749383822212,-2.026096092711028,0.0,0.0243,14,48,774.6295520975473,2086.972,mp-1209322,RbSm(SeO4)2,https://materialsproject.org/materials/mp-1209322,-29.823773078847985,-52.798911269979726,-27.506272279367074,-52.319826805108264
-7.2911325245,-145.82265049,6.0363354389777735,-2.1669208610833337,0.0,0.8182999999999998,65,20,273.7401971480149,995.0911199999999,mp-557680,NbAgO3,https://materialsproject.org/materials/mp-557680,-5.1278226767694886,-45.440895274861184,22.335597537221407,-37.55548773255081
-6.1804573650000005,-173.05280622,5.155962683096451,-2.2669064414285707,0.499731725,0.5201,2,28,531.8936988782999,1651.5264,mp-1194124,YbMoBrO4,https://materialsproject.org/materials/mp-1194124,-31.80995267708073,-34.13490506428381,-25.947140808079176,-27.49090870170305
-4.281141892666667,-128.43425678,3.8498363016592343,-0.4283662917466662,13.99999995,0.5777000000000001,12,30,333.78029625497885,773.8448,mp-1181729,Eu2Mg3H10,https://materialsproject.org/materials/mp-1181729,-24.549594667284364,-17.849687965115475,-8.86914328072648,-28.596527478316077
-6.104615470416667,-146.51077129,4.516851398230772,-2.1515035163541683,7.7778538,0.0,46,24,344.58057608624136,937.2976,mvc-567,Sr2GaFe2O7,https://materialsproject.org/materials/mvc-567,-6.407452461214364,-45.198536700738686,9.608999819871348,-35.642866911666495
-5.208046620588235,-177.0735851,3.6942298339953976,-2.7639867356376477,1.0,0.6162999999999998,11,34,863.6476764265709,1921.37187712,mp-555829,Na2Pr4Cl9O2,https://materialsproject.org/materials/mp-555829,8.544937450097265,-10.13608809193764,-16.460022790310088,-5.21115772616092
-5.2624170625,-21.04966825,7.027913186642095,-1.8189259345312507,1.3300000000000001e-05,1.3556,166,4,103.35908384389994,437.44751,mp-1066791,TmTlS2,https://materialsproject.org/materials/mp-1066791,4.5577547413457395,-5.043234495404663,-2.417940156141309,-5.426099257892235
-7.5227993828571424,-52.65959568,7.468046080344446,-0.33874176708333337,2.45e-05,0.0,65,7,83.4944473292046,375.5048000000001,mp-568624,Tb2B2C3,https://materialsproject.org/materials/mp-568624,8.718477032757981,-57.97699525494164,5.667813593976692,-48.937188283273926
-5.572219208333332,-133.733261,5.3389405046546665,-1.9329522063541664,0.9996861375,0.0,61,24,744.1822568335552,2392.6837600000003,mp-680698,CeSI,https://materialsproject.org/materials/mp-680698,18.048161584315675,-15.168396321517921,3.6297661841099385,0.6791772217995421
-4.837787551052632,-91.91796347,6.874423777137225,-1.4569633056578952,6.0515621,0.0,1,19,277.8617342393702,1150.3128,mvc-3068,Ba2Tl2Zn2Ni3O10,https://materialsproject.org/materials/mvc-3068,9.010308770670022,-63.4841705302275,10.011868820757046,-44.20583542384747
-6.931395130833334,-83.17674157,5.457168641787125,-3.038218170196112,1.00000015,0.0,12,12,185.2237694742081,608.7164,mp-1207488,YbTiClO3,https://materialsproject.org/materials/mp-1207488,-32.691398503757256,-37.535494579752786,-24.515065391958213,-11.101051057245913
-7.2061183787499985,-172.94684109,3.5637299873909227,-3.4221198496875007,0.0,4.495900000000002,113,24,342.6745581337963,735.4236000000002,mp-6564,Sr2MgSi2O7,https://materialsproject.org/materials/mp-6564,-21.906912783893965,-32.273780863001626,-1.1956024746022174,-18.84709247107155
-8.126446658235292,-138.14959319,6.025330662016658,-3.1551574833235283,1e-07,0.0,139,17,228.45921714959408,828.9731785600002,mp-20135,Na2Ca2Ta3O10,https://materialsproject.org/materials/mp-20135,-32.11450008047796,-74.0933297999597,31.62643527066188,-63.80671658399243
-6.8128082905,-136.25616581,7.111674519849832,-0.5743513618333331,3.9e-06,0.0,127,20,198.1700372585432,848.71284,mp-568143,TmB4,https://materialsproject.org/materials/mp-568143,7.908034819531353,-59.20498625301131,4.603317064432765,-48.83773980984441
-5.9598627693333315,-89.39794154,4.054400069372694,-2.6144176774396555,0.9208120000000001,0.0,99,15,213.70412968787312,521.7836,mp-1033667,RbHfMg6O7,https://materialsproject.org/materials/mp-1033667,-12.302661383769266,-19.31253032221748,-5.92754499619687,1.0759566950045194
-7.345546475833332,-176.29311542,8.231697457216404,-2.502890471875,0.0,2.9539999999999997,15,24,343.1013170558791,1700.8370000000002,mp-18041,SmTl(WO4)2,https://materialsproject.org/materials/mp-18041,-47.37730273669596,-56.389703699414795,-20.08435014470787,-61.48285173082406
-5.3208279225,-42.56662338,4.5168834869821755,-0.4798696518750001,1.7899999999999998e-05,0.0,164,8,167.19382287204738,454.7890772,mp-1207200,NdAlSi2,https://materialsproject.org/materials/mp-1207200,23.921031350296893,-6.442773830902867,19.745480211339935,19.197087134113268
-7.623977023333333,-182.97544856,8.183690052791027,-2.3167975066666657,6.00184315,0.0,15,24,345.76495812567583,1704.0449999999996,mp-1212775,EuTl(WO4)2,https://materialsproject.org/materials/mp-1212775,-47.34766649752561,-56.370691271496135,-20.06918121863408,-61.44667047447997
-7.796963556666667,-46.78178134,5.702972476766156,-3.4752860998166675,7.0000004,0.8960999999999997,129,6,120.20427482943134,412.8308064,mp-556382,EuClF,https://materialsproject.org/materials/mp-556382,23.397367547409324,-8.668428371363863,0.3216700582357196,-7.446395131243925
-6.59149497625,-210.92783924,4.085789429097898,-2.928996525625,0.0,3.2815000000000003,57,32,601.6339767464792,1480.3324,mp-1208766,Sr2VBrO4,https://materialsproject.org/materials/mp-1208766,27.798234251082896,-18.56405422246201,4.717826143016137,-22.25319281475163
-7.40845920203125,-474.14138893,5.231177669602978,-2.807715848601191,0.0,2.6472999999999995,33,64,922.3816000071524,2905.768496,mp-6706,TiTlPO5,https://materialsproject.org/materials/mp-6706,-32.94595951382405,-30.530156307159082,-20.156570959360405,-29.622911926585
-6.218399227789472,-590.74792664,5.450242474634805,-2.1328856321666656,0.0022939,1.8848,81,95,1096.2924803219453,3598.2652,mp-1204954,Cd12Ge17(B4O29)2,https://materialsproject.org/materials/mp-1204954,-7.766955286491973,-45.181181687436535,9.57806420313707,-35.5240206397487
-5.47367158625,-306.52560883,5.647560331453698,-0.7156497354842851,0.00239405,0.8508999999999998,60,56,1262.4545190125175,4293.6588,mp-1245389,Ba7SiN6,https://materialsproject.org/materials/mp-1245389,-2.2299572366028197,-31.294232265424515,-2.4678204410898115,-32.389557183962765
-8.808126410909091,-96.88939052,6.308100921648758,-3.393506985750001,2.1000000000000002e-06,2.2524,119,11,167.36396808393818,635.7867992800002,mp-1220741,NaLaTa2O7,https://materialsproject.org/materials/mp-1220741,-32.16946808155565,-68.98422857153601,1.2723892811654989,-51.65275607708939
-6.977783791111111,-62.80005412,5.6064316717491325,-2.463438536041666,8.0002287,1.6445999999999996,139,9,149.76088461270555,505.6335,mp-1079573,Pr2Fe2S2O3,https://materialsproject.org/materials/mp-1079573,17.680171175409484,-39.98880618427225,17.63547585446521,-41.11175002386185
-7.830908323636364,-689.11993248,5.727961991607675,-2.8899866563636376,9.000002275,1.3205999999999998,33,88,1220.5431513720441,4210.21404,mp-1224288,La3Si(Mo2O7)2,https://materialsproject.org/materials/mp-1224288,1.4502925745640558,-54.69763054278406,-6.0610042076471045,0.8730174238717671
-6.78452892923077,-88.19887608,5.922952375873438,-2.2504756754807715,17.000344600000002,0.0,216,13,181.57853038120945,647.6698,mp-1214329,BaLuFe4O7,https://materialsproject.org/materials/mp-1214329,-3.160281900495728,-44.149322421600324,8.407258435117697,-39.158045633580414
-5.2906805625,-21.16272225,6.8480683041037445,-1.8222185557812507,0.0,1.4796999999999998,166,4,105.10263926801235,433.44362,mp-1007665,HoTlS2,https://materialsproject.org/materials/mp-1007665,4.581265220331488,-5.011527087071956,-2.434138563163069,-5.354623843495545
-5.760241247333333,-86.40361871,7.7724504300835395,-2.113351879333333,0.0022037,0.0,139,15,218.20081477533355,1021.328,mp-1208481,Sr2YbCu2(BiO4)2,https://materialsproject.org/materials/mp-1208481,9.630755783408949,-68.57389605752324,11.926857426008024,-46.365946541297504