energy_per_atom,energy,density,formation_energy_per_atom,total_magnetization,band_gap,sgr,num_sites,cell_volume,weight,mp_id,formula,URL,tsne_cry_0,tsne_cry_1,tsne_xrd_0,tsne_xrd_1
-7.07269387,-155.59926514,8.22443357980378,-0.4705476842207798,1.23e-05,0.0,59,22,257.2091406232637,1273.923372,mp-630883,Ni6Mo2P3,https://materialsproject.org/materials/mp-630883,59.50226653942737,37.35574929682593,74.44129013779906,-9.458561031063294
-5.213398495,-93.84117291,9.171917413244868,-0.559735901666667,1.3666666666666666e-06,0.0,189,18,266.4055084965199,1471.4796,mp-1222813,LuGa2Ni3,https://materialsproject.org/materials/mp-1222813,69.39455819627982,12.269854953264874,63.12983710394106,0.565066024818327
-8.431880086428572,-118.04632121,8.086563349344745,-0.19783703195571434,17.964358800000003,0.0,71,14,172.81846898243717,841.5987000000001,mp-1225484,ErV2Fe10N,https://materialsproject.org/materials/mp-1225484,71.23230744639741,36.26363729802572,83.40592694817198,-21.231789776530174
-7.792241532380951,-163.63707218,7.8909979803980885,-0.714076758333333,1.0875818000000002,0.0,174,21,253.53309183367432,1204.8070340000004,mp-1191561,Tb2Fe12P7,https://materialsproject.org/materials/mp-1191561,55.98979405887216,34.85542428966707,62.915305330605094,-4.319928329723731
-4.621581982142857,-64.70214775,5.877894046274817,-0.44743161489795824,1.5e-06,0.0,136,14,201.26249856330318,712.4190480000001,mp-22295,Ca(Cu2P)2,https://materialsproject.org/materials/mp-22295,41.52626144890322,46.05708194291197,66.6060949232059,-7.730846816949338
-7.033580852307693,-91.43655108,7.2710388235359344,-0.30800913769230714,10.9050672,0.0,187,13,184.4161794943217,807.5071820000002,mp-1219367,ScMn6GaGe5,https://materialsproject.org/materials/mp-1219367,44.12930635543243,47.87311733572003,72.15100442824523,-8.96891536470572
-7.102548027619048,-149.15350858,8.17164531646107,-0.7957184135714283,4.9951934,0.0,174,21,252.3562705049308,1241.865374,mp-980937,Tb2Co12P7,https://materialsproject.org/materials/mp-980937,55.8353807903798,34.89371240290854,63.08450600138775,-4.382435213692538
-6.5033189433333325,-39.01991366,8.298069648380297,-0.2521222733333334,2.7678861,0.0,187,6,86.19494044839622,430.7346,mp-1226721,CeFeNi4,https://materialsproject.org/materials/mp-1226721,78.51667192661651,18.36004721577056,85.41120853181707,-13.838448016832492
-8.066294640526316,-153.25959817,8.124261635840025,-0.009870736842106896,39.610234000000005,0.0,166,19,259.0095243447133,1267.2157,mp-571149,Tb2Fe17,https://materialsproject.org/materials/mp-571149,73.90543500388436,37.33088730621007,87.13533037765399,-22.270159867991968
-6.085303498888888,-54.76773149,8.489690557722831,-0.6247316338888891,6.666666666666666e-07,0.0,189,9,113.36608104398589,579.5967,mp-1080033,SiNiPd,https://materialsproject.org/materials/mp-1080033,60.034342198870974,37.10064797379805,72.96634380966283,-0.10245665185528777
-7.315126336666666,-175.56303208,8.60641221809726,-0.8691247879166669,0.0006309,0.0,194,24,425.2715595614039,2204.1411,mp-1207662,YGeRh2,https://materialsproject.org/materials/mp-1207662,66.61327745459194,13.122603369846912,58.64906603960225,18.16085261653116
-8.107605418125,-129.72168669,6.027479518607597,-0.3485806937499998,11.51880775,0.0,193,16,197.77588569237838,717.89345,mp-1111,Mn5Si3,https://materialsproject.org/materials/mp-1111,50.41130471357867,47.60819443148508,75.29621576182744,-0.1984710453716677
-4.4111322075,-35.28905766,7.228113390495116,0.0157855819642867,0.0,0.0,164,8,101.82324560876356,443.223524,mp-7540,Cu3P,https://materialsproject.org/materials/mp-7540,45.61968388014403,56.88881741377064,74.3474693336415,-8.074001655868841
-5.7913754129166675,-416.97902973,9.183058236051084,-0.6149687262499997,1.09e-05,0.0,174,72,1063.8978710197568,5883.532920000001,mp-1208263,TmNi3Ge2,https://materialsproject.org/materials/mp-1208263,68.94485231669022,11.804766279491565,62.49664508936336,0.051883349177732255
-3.762528023333333,-22.57516814,6.972725299516563,-0.06577557166666638,0.0,0.01909999999999989,191,6,96.5332020050564,405.35,mp-2726,SrCu5,https://materialsproject.org/materials/mp-2726,73.3974369972328,15.385858083102965,65.81345185508096,1.820530270798948
-7.490546558333333,-44.94327935,9.680710887250688,-0.29020093333333224,0.0,0.0,191,6,103.50734025459136,603.43335,mp-11565,YRh5,https://materialsproject.org/materials/mp-11565,76.7985792416387,12.125359618671911,62.1569268871269,22.796619374541216
-6.4885602238095235,-136.25976469999998,6.960116501462468,-0.7674932478571437,2e-07,0.0,174,21,262.18633573677107,1098.948834,mp-1191078,Y2Ni12P7,https://materialsproject.org/materials/mp-1191078,57.88384354685209,36.32811404837953,72.03563996792377,-2.6301360295615943
-6.099248649142858,-426.94740544,7.481182334280584,-0.5891330141428568,0.13814405,0.0,71,70,943.4529239330037,4250.513344,mp-569969,Sc6Ni18Ge11,https://materialsproject.org/materials/mp-569969,46.79550135734881,52.09168493096241,74.6267162247877,-10.1033665612744
-6.422882742380952,-134.88053759,7.518814230562318,-0.7525834730952378,0.8567978999999999,0.0,174,21,265.3237980463836,1201.369134,mp-569521,Ce2Ni12P7,https://materialsproject.org/materials/mp-569521,56.804299181351844,35.59726641532339,63.40723134892668,-4.0647722276037035
-8.315308475517242,-241.14394579,6.946262071969267,0.06994229586206988,23.9706007,0.0,225,29,431.5356606259703,1805.17273,mp-1193646,Y6Mn14Fe9,https://materialsproject.org/materials/mp-1193646,69.65940521677835,31.199537347071338,68.57523416615497,5.5272540788485705
-3.896819344166667,-93.52366426,7.441963209685878,-0.17117398999999978,0.01125565,0.0,194,24,349.4351919301796,1566.0479999999998,mp-13225,DyMg2Cu9,https://materialsproject.org/materials/mp-13225,68.35869888287864,40.291014111695034,63.826336768981406,-7.054815037276343
-5.941193074285715,-166.35340608,9.039850341636587,-0.3933354921428582,0.0,0.0,194,28,405.8049871886202,2209.172,mp-574423,CeNi5Sn,https://materialsproject.org/materials/mp-574423,71.17361134059254,21.815921213760003,64.06519583610664,17.38744690677736
-7.4689201375,-119.50272220000001,7.631747768759967,-0.043575394062498767,25.5364212,0.0,97,16,212.38858087483368,976.12645,mp-1222132,Mn10CuGe5,https://materialsproject.org/materials/mp-1222132,46.81030584356742,49.46342338327753,74.73368421140921,-6.553666075476625
-7.629285428684209,-289.91284629,6.649713405159253,-0.12314279605263173,28.4335328,0.0,194,38,519.7018567852962,2081.1726316,mp-1196730,Y2Al3Fe14,https://materialsproject.org/materials/mp-1196730,72.20958379279357,37.930714605275824,83.3892935814935,-21.980111001804623
-6.769737633333333,-121.85527739999999,7.012118948622813,-0.29807381333333505,7.4795369,0.0,11,18,257.6812598093046,1088.1356,mp-1105435,CaFe5As3,https://materialsproject.org/materials/mp-1105435,41.12063713246424,47.926933541515396,70.14621696338597,-17.169604583535687
-5.60074074,-33.60444444,6.948460862534638,-0.4992020266666669,0.0,0.0,164,6,69.00211921112876,288.7366772,mp-1025044,AlNi2,https://materialsproject.org/materials/mp-1025044,44.14393690130604,60.28377021273803,90.46429017413419,-7.340068237039937
-6.128867495714286,-85.80414494,7.587470778826718,-0.5944037150000006,2.2899999999999998e-05,0.0,136,14,188.02636071699774,859.145424,mp-1104526,Sc(Ni2As)2,https://materialsproject.org/materials/mp-1104526,41.16174691885009,47.95420574946048,69.89822516798249,-17.265016118145034
-7.96430413736842,-302.64355722,8.002321137345374,-0.0050900210526334064,77.616839,0.0,1,38,520.7256776127118,2509.434585,mp-1219400,Sm4Fe31Co3,https://materialsproject.org/materials/mp-1219400,74.19187446407986,37.37553013033139,86.74964280084356,-22.58558220006007
-7.104007222857144,-149.18415168,8.153937444917439,-0.7992748269047625,4.9717933,0.0,174,21,254.3602574487096,1249.014674,mp-1191588,Dy2Co12P7,https://materialsproject.org/materials/mp-1191588,55.79214867875993,34.83681369718638,63.077831878036356,-4.351193175577872
-5.75695920375,-46.05567363,6.06160346690081,-0.5744758775000003,4.9000000000000005e-06,0.0,4,8,94.48533978075373,344.9076772,mp-1228043,AlSiNi2,https://materialsproject.org/materials/mp-1228043,43.75186579956016,58.078935429508455,77.95198547257658,-7.459753165447585
-3.962491955,-31.69993564,5.3536224340316005,-0.5020198112500003,4e-07,0.0,63,8,147.77631317171853,476.4348,mp-1080561,CaGa2Ni,https://materialsproject.org/materials/mp-1080561,31.69777228382269,19.27413838186345,58.31139530125807,-1.5744635894572738
-5.9095269677777775,-53.18574271,8.531328518501981,-0.4541293751587305,5.333333333333333e-07,0.0,189,9,114.49930232002548,588.261486,mp-1087499,NiPPd,https://materialsproject.org/materials/mp-1087499,60.042639305791155,37.07532149951145,73.15992310357917,0.12729075776668775
-4.221132061142857,-295.47924428,6.585276858961754,-0.1398495922857137,0.00025350000000000004,0.0,2,70,1185.9534035536344,4703.19054,mp-1196402,Mn6Ga29,https://materialsproject.org/materials/mp-1196402,36.060707309637756,30.804616583503122,58.27474026060658,-1.093781919287644
-6.317460636086956,-871.80956778,8.749283268425009,-0.4087158391304352,7.833333333333333e-07,0.0,14,138,1452.049839221328,7650.765840000001,mp-567285,Ho2(Ni5B2)3,https://materialsproject.org/materials/mp-567285,53.58717193803106,38.106133019480964,66.20543020733382,-5.7451574410934425
-6.301547598095239,-132.33249956,8.23599728950553,-0.7653868440476198,0.00014280000000000003,0.0,174,21,256.27294017125524,1271.071134,mp-974057,Lu2Ni12P7,https://materialsproject.org/materials/mp-974057,55.69932623911236,34.70664113046413,63.13119925737486,-4.284497306818622
-5.948710756666666,-124.92292589,8.397184824286539,-0.532395688333334,0.1523525,0.0,174,21,298.4047756420628,1509.004,mp-1191623,Ce2Ni12As7,https://materialsproject.org/materials/mp-1191623,56.74816707587843,37.15703206837853,70.09995810531184,-4.603838700174993
-4.973675660625,-79.57881057,7.021464481109193,-0.3841693931250001,0.0,0.4149999999999996,136,16,293.4794999627647,1240.9560000000001,mp-672204,Ga3Ru,https://materialsproject.org/materials/mp-672204,42.42020617861531,40.54069335463945,62.368836639329565,-11.991796870477865
-5.925149936666667,-35.55089962,12.475111606196661,-0.1658071950000005,0.0,0.6744000000000003,70,6,87.76512560883457,659.352,mp-570875,Ga2Os,https://materialsproject.org/materials/mp-570875,54.11481334813786,42.406151640466476,57.78434796149313,-10.657610440655246
-5.268999909333333,-79.03499864,2.738784984286972,-0.13895264577777766,0.0059229,0.0,191,15,140.85164826774388,232.3115386,mp-1222150,Mg4AlB10,https://materialsproject.org/materials/mp-1222150,33.083888617847336,43.65992228253234,61.24397914253473,-20.48767240541203
-4.8309943192307685,-62.80292615,8.192265180847624,-0.10168652249999938,3.9766586999999998,0.0,44,13,189.13295840634518,933.086975,mp-1219048,SmGa7Co5,https://materialsproject.org/materials/mp-1219048,69.19188337644354,34.997074481409605,82.1600728052703,-21.898958655111205
-5.834157831428572,-122.51731446,8.411890799342894,-0.5274276940476189,2e-07,0.0,174,21,298.19564290755386,1510.5873,mp-861597,Pr2Ni12As7,https://materialsproject.org/materials/mp-861597,56.74375670892992,37.164132897991706,70.08082812114127,-4.6025959103158565
-6.036763893333332,-144.88233344,6.868489452905124,-0.2554049374999998,1e-07,0.0376000000000003,194,24,369.04774129611343,1526.4925772,mp-13096,Y3AlNi8,https://materialsproject.org/materials/mp-13096,51.32227822524332,44.94048961030479,64.12187442161093,-6.912674156128907
-6.3271166775,-151.85080026,8.120994385336276,-0.3269845783333333,0.0,0.020500000000000185,1,24,286.3998010575356,1400.6603400000001,mp-1226179,Co3SiGe2,https://materialsproject.org/materials/mp-1226179,43.97049165172752,58.11800761614168,77.27434002348934,-7.792345490328679
-7.7943184247619035,-163.68068692,7.950575767423464,-0.7182508688095238,0.9133889999999999,0.0,174,21,253.12642332499505,1211.956334,mp-1190791,Dy2Fe12P7,https://materialsproject.org/materials/mp-1190791,55.815564736933965,34.687830175423684,62.80721183301115,-4.334866217625364
-8.285794852794117,-563.43404999,7.139138591664243,-0.09024187824754858,61.15988285,0.0,65,68,903.4539102794811,3884.2102,mp-1216422,Y4Fe28BC,https://materialsproject.org/materials/mp-1216422,71.44101489072794,37.74803315582808,71.55066419774766,-6.0539554042715515
-6.690935233333334,-40.1456114,7.964178227318407,-0.2494392366666661,3.2099322999999997,0.0,65,6,84.38575683301794,404.72593,mp-1219690,PrCo4Si,https://materialsproject.org/materials/mp-1219690,75.11107750676959,21.327019430594003,88.98124024863041,-13.757779482290161
-6.404516761842107,-243.37163695,7.719591381730187,-0.3952887148684216,2.8e-06,0.0,36,38,392.97006995735467,1826.8576,mp-1202698,Nd(Ni2B)6,https://materialsproject.org/materials/mp-1202698,31.10380007507338,44.65634963233217,65.74173757159434,-20.080652001524626
-4.2852660745945945,-317.10968952,7.2173734360840776,-0.2439472430405405,1.9699999999999998e-05,0.0,225,74,1180.8752393166794,5132.5608,mp-1195752,Sr7Cu44As23,https://materialsproject.org/materials/mp-1195752,69.19014679961428,35.30625952225002,70.28868791358545,-8.909835002708208
-5.25083842125,-84.01341474,8.792017181105436,-0.6015687950000004,1e-07,0.0,2,16,248.29901841354692,1314.6629999999998,mp-30923,Ga5Rh3,https://materialsproject.org/materials/mp-30923,66.29063183781324,35.60544840356052,71.99427776367959,-7.0981383595677725
-7.45485868375,-715.66643364,7.358135978027263,0.10006252212333304,3.792480025,0.0,218,96,937.9018143883127,4156.00532,mp-1245557,VCo7N4,https://materialsproject.org/materials/mp-1245557,37.98948878459317,53.591526606735975,68.38324698140897,-22.44825214540424
-7.134258315416666,-171.22219957,7.689263046297655,-0.27420565559027804,15.435108600000001,0.0,191,24,301.718987854055,1397.13467,mp-1220135,NdY3(Co4B)4,https://materialsproject.org/materials/mp-1220135,75.12586048263523,25.61988923925193,75.00205445127419,1.2259885486538966
-3.9826974679166662,-95.58473923,7.108954203058188,-0.14631216958333285,0.65733475,0.0,194,24,355.3468989411243,1521.28,mp-542934,CeMg2Cu9,https://materialsproject.org/materials/mp-542934,68.27367033131168,40.28803018676675,63.888421188202955,-7.063308845185075
-6.772399533333334,-40.6343972,8.723131213313884,-0.0613460654166668,7.0347849,0.0,191,6,84.71533755833842,445.025975,mp-1429,SmCo5,https://materialsproject.org/materials/mp-1429,78.54932661767515,19.047316590697307,86.99884114197022,-14.360398638644906
-6.2591372566666665,-300.43858832,6.689343008544504,-0.5871313054166668,0.0,0.0,55,48,742.2343794425287,2990.029284,mp-21739,ScCoGe2,https://materialsproject.org/materials/mp-21739,47.98144201243401,46.816610936009646,66.42159866958589,-5.648222679723702
-7.8271839175,-62.61747134,5.466413477509977,-0.2961734050000002,0.5354293000000001,0.0,198,8,97.30593833252254,320.3264,mp-7576,CrSi,https://materialsproject.org/materials/mp-7576,44.16388681080271,57.81207357290471,78.3030989703343,-6.8995401322293946
-6.9282175271428565,-193.99009076,7.982466785894327,-0.4811726046428565,5.33889635,0.0,140,28,336.99763535370397,1619.99951,mp-1213148,ErCo9Si4,https://materialsproject.org/materials/mp-1213148,22.155542688113126,39.24295327705385,66.36533843775739,-22.471942701705142
-5.997495528275862,-173.92737032,8.03523301855887,-0.4174628711330046,1e-07,0.0,225,29,342.188004071972,1655.823972,mp-568562,Ni21(SnP3)2,https://materialsproject.org/materials/mp-568562,62.15085386307678,43.58456906883996,73.47740807635306,-0.03294935889332859
-8.052365514736843,-152.99494478,8.054056146553746,0.008141409342104717,39.743155200000004,0.0,160,19,259.95811043663025,1260.866,mp-1220213,NdErFe17,https://materialsproject.org/materials/mp-1220213,74.01844601765497,37.321096032269935,87.06030783961089,-22.378318276159725
-8.06451973,-145.16135514,7.036880370482677,-0.4461835615277781,0.37177815,0.0,193,18,231.95696559506516,982.966,mp-1189345,V5As3C,https://materialsproject.org/materials/mp-1189345,51.34314491679425,48.609977302554825,73.00871993484938,1.2570728696684212
-5.160670278571429,-144.4987678,7.7792065728897954,-0.714127427857143,4.45e-06,0.0,63,28,475.6009303007909,2228.0704,mp-1207775,Y2(Ga3Rh)3,https://materialsproject.org/materials/mp-1207775,69.49844251408176,18.319486570513284,65.33507831876292,5.094469965672801
-6.318901378095237,-132.69692894,9.752467655863807,-0.39219840547619017,2.1057595,0.0,174,21,290.278991180661,1704.82982,mp-865508,U2Ni12As7,https://materialsproject.org/materials/mp-865508,68.61450549732261,11.985111019787588,61.158932873910324,-2.0273149048419565
-7.800872217777778,-70.20784996,4.9825706807519845,-1.217127679583334,5.7999999999999995e-06,0.0,87,9,127.63140265282156,382.9675,mp-1133,V5S4,https://materialsproject.org/materials/mp-1133,41.15288005784363,47.086249095820676,68.78590248672991,-17.323170557697672
-8.427811291428572,-117.98935808,8.021452652867223,-0.19105161517000066,18.029183800000002,0.0,71,14,173.2360773301057,836.8397000000001,mp-1225106,DyV2Fe10N,https://materialsproject.org/materials/mp-1225106,71.23540880086084,36.28507233294294,83.37449675389244,-21.268559802649268
-5.807861083055554,-418.16599798,9.120222797884164,-0.616582242222222,1.5e-07,0.0,175,72,1067.567679353361,5863.430399999998,mp-570035,ErNi3Ge2,https://materialsproject.org/materials/mp-570035,68.9561060462204,11.780203985922887,62.49661920864243,0.058589097267893485
-6.4879659033333335,-38.92779542,8.87069153153134,-0.2503114966666675,5.378853400000001,0.0,10,6,87.0203603156698,464.867585,mp-1225818,DyGaFeCo3,https://materialsproject.org/materials/mp-1225818,77.39988671088307,18.431639970420374,88.48798416252528,-13.344088946105366
-7.036642680769233,-91.47635485,8.791406363197348,-0.23282035307692275,10.973911099999999,0.0,191,13,179.32463811201148,949.4,mp-19725,Hf(FeGe)6,https://materialsproject.org/materials/mp-19725,68.35754929762449,34.38263893898229,68.79493032001247,2.1866739474866117
-3.870783615,-23.22470169,6.536938961236774,-0.1209909241666664,0.0,0.0,191,6,90.8918006344528,357.80800000000005,mp-1882,CaCu5,https://materialsproject.org/materials/mp-1882,41.266457522593775,46.147221135982925,66.72112350636525,-12.005015428126011
-6.257280696666666,-37.54368418,8.453376284600054,-0.20095530291666697,3.7895098,0.0,187,6,85.42184553801486,434.8606,mp-1220174,NdFeNi4,https://materialsproject.org/materials/mp-1220174,78.58625216555775,18.392848378441514,86.42368503450723,-14.040531080175938
-6.658202171904763,-139.82224561,7.283654403615098,-0.7390268330952394,0.0,0.0,174,21,251.5970826486609,1103.585134,mp-18648,Zr2Ni12P7,https://materialsproject.org/materials/mp-18648,58.15681034321142,36.465968779009216,72.25279548306587,-2.650190614228233
-7.055112609047619,-148.15736479,6.3980088744060275,-0.260419183735119,3.6768019142857145,0.0,8,21,261.17118007616506,1006.285,mp-684641,Fe2S,https://materialsproject.org/materials/mp-684641,16.90406287939702,37.981023944034426,68.2119445942487,-23.2227965392838
-8.347874950833333,-100.17449941,16.183474096296987,-0.5087308902083324,0.00012713333333333332,0.0,166,12,221.9061796694124,2162.679,mp-1101882,NdIr3,https://materialsproject.org/materials/mp-1101882,76.80662624691746,12.124059866607368,62.06706284110485,22.86256347386698
-6.5855590975,-79.02670917,8.156102663144425,-0.1303148908333339,9.1019016,0.0,160,12,169.98847051477145,834.935755,mp-1227012,Ce2MgCo9,https://materialsproject.org/materials/mp-1227012,75.54129620444623,21.83911028854409,62.631499966303615,15.92154248316323
-7.126835199310344,-206.67822078,11.158531698345078,-0.3701431318965528,6.28e-05,0.0,225,29,376.9832834547456,2533.26168,mp-582719,Ta6Ni16Ge7,https://materialsproject.org/materials/mp-582719,61.49114698118881,45.53706695370261,66.9137414719408,16.024621412147273
-7.097087325,-42.58252395,11.050568286132908,-0.12506430979166674,1.9287322,0.0,191,6,79.71184287753341,530.467,mp-1025137,NpNi5,https://materialsproject.org/materials/mp-1025137,77.45153404376484,20.945792615888077,88.36726510878731,-15.293888903823815