energy_per_atom,energy,density,formation_energy_per_atom,total_magnetization,band_gap,sgr,num_sites,cell_volume,weight,mp_id,formula,URL,tsne_cry_0,tsne_cry_1,tsne_xrd_0,tsne_xrd_1
-6.3464490902272725,-279.24375997,8.945326210585833,-0.4327412415909089,2.675e-06,0.0,141,44,453.34741863668063,2442.1832,mp-31130,ErNi7B3,https://materialsproject.org/materials/mp-31130,53.448482182186034,38.209379542913105,67.12144433548862,-8.937851302992017
-7.203113871052632,-136.85916355,7.8539704142200435,-0.3442884409210538,6.5690883,0.0,166,19,192.60333996516638,910.96981,mp-1106274,La(Co2B)6,https://materialsproject.org/materials/mp-1106274,31.092918147652195,44.647291521309356,66.0452070507432,-20.491777046564945
-6.294964537333333,-377.69787224,7.673428834158324,-0.6045601759047619,0.29341815,0.0,62,60,736.5820436405542,3403.780192,mp-582274,Ce(Ni5P2)2,https://materialsproject.org/materials/mp-582274,22.905512164128908,39.64124247287344,65.55542056937097,-20.096916109962283
-5.7205702050000005,-34.32342123,9.792285807852403,-0.584353324583334,5e-07,0.0,191,6,113.78658679417327,671.0054700000002,mp-30753,LaPd5,https://materialsproject.org/materials/mp-30753,71.94625265187744,15.96025930746705,65.25314794241024,2.669365166045277
-6.334629375384616,-247.05054564,7.2338898558382825,-0.2657850942307694,37.7562781,0.0,8,39,543.4217950170313,2367.335736,mp-1219537,Sc3(Ga4Fe5)4,https://materialsproject.org/materials/mp-1219537,44.1905071372238,47.892450467411976,72.71681644868724,-8.992106836724535
-5.8776327708333325,-70.53159325,6.986444079786401,-0.3379108280555556,5.175e-06,0.0,62,12,174.982974708624,736.212,mp-1101311,TiCuGe,https://materialsproject.org/materials/mp-1101311,47.1842423721361,46.9464308675898,67.3114236756674,-11.164918150061906
-6.496650635,-51.97320508,9.75553217613544,-0.5118085724999997,0.0,0.18489999999999984,198,8,119.52199051094513,702.182,mp-20866,GeRh,https://materialsproject.org/materials/mp-20866,66.20748567919489,37.34530802806549,73.67210930490701,2.879317503276288
-7.42991771173913,-341.77621474,6.250592477354399,0.2303260612478257,2.45802665,0.0,136,46,431.62141209559235,1624.70709,mp-1246536,Co11(CN5)2,https://materialsproject.org/materials/mp-1246536,27.02662880592876,53.174483472614796,59.477090830445384,-4.025992871306212
-7.21005732375,-57.68045859,7.7639597686959005,-0.8239297812499995,0.0,0.0,62,8,112.06429495714696,523.964,mp-818,SiRh,https://materialsproject.org/materials/mp-818,29.79869721242561,28.58393965106883,67.48149634354583,1.9068237176913918
-6.96194822,-27.84779288,7.183509670137023,-0.3549675375000003,4.9742682,0.0,225,4,46.39214789083394,200.6929286,mp-10884,AlFeCo2,https://materialsproject.org/materials/mp-10884,44.09463936050628,60.49280787872913,90.54057647848022,-7.3452217764821714
-7.044077285,-56.35261828,7.137034441041185,-0.2899874787500005,7.999998,0.0,166,8,92.49298749034851,397.5369572,mp-1228949,Al2CrFeCo4,https://materialsproject.org/materials/mp-1228949,44.07621674781175,60.45205068484401,90.61490440726679,-7.468992531919532
-5.117356595333335,-153.52069786,2.560302367125745,-0.12010595677777758,8.7e-05,0.0,2,30,286.60761886262014,441.906,mp-35040,LiMg9B20,https://materialsproject.org/materials/mp-35040,33.188237767003244,43.68170831178937,62.0314843319823,-20.13448019230961
-8.2475806675,-32.99032267,6.758132475902718,-0.687054102916667,0.0,0.4027999999999992,225,4,46.10559173325166,187.6425,mp-866141,TiFe2Si,https://materialsproject.org/materials/mp-866141,43.99327804147353,60.26576112627691,90.69449441019262,-7.482779053409534
-5.476445234,-54.76445234,6.486861343676674,-0.5102500740000003,0.15152625,0.0,123,10,117.7752452046805,460.0865544,mp-1229048,Al2Ni3,https://materialsproject.org/materials/mp-1229048,45.6239168297058,59.84169188781398,87.9321428279485,-5.557467597100857
-8.555526074814813,-230.99920402,8.349472850351571,-0.032242631384445136,38.939855200000004,0.0,12,27,358.6097213583072,1803.1507,mp-1220727,Nd2Fe20Mo4N,https://materialsproject.org/materials/mp-1220727,70.71796726794891,35.65255317341875,83.41742361547776,-22.173472747120165
-6.972641161666666,-41.83584697,7.877349088115711,-0.2532989783333323,5.7000000000000005e-06,0.0,12,6,103.62181348338713,491.5664,mp-1337,MoAs2,https://materialsproject.org/materials/mp-1337,35.199596694668436,31.804702190425,68.53979423480396,-8.040883267460169
-6.717461419166668,-322.43814812,6.372293429999753,-0.5331417379166664,1.5477440833333331,0.0,55,48,766.6707724533587,2942.087484,mp-1200195,ScMnGe2,https://materialsproject.org/materials/mp-1200195,48.07961702555389,46.77906663142272,61.62966266100256,4.8016046195881525
-4.440885711071429,-124.34479991,8.323937752608371,-0.06745048874999984,1e-07,0.0,226,28,383.1759055104248,1920.78133,mp-13486,LaCoCu12,https://materialsproject.org/materials/mp-13486,22.317813934762718,37.86355662841122,65.24960229317226,-21.90919202607064
-5.118718236206896,-148.44282885,7.221901162526669,-0.4179852058620687,3.19e-05,0.0,225,29,417.008355002121,1813.6238,mp-1194458,Ti6Ga16Ni7,https://materialsproject.org/materials/mp-1194458,48.55068734248421,48.940362568734685,73.47979391977464,-6.198275899639738
-9.164840664,-274.94521992,12.677276908035864,-0.6168479728888883,1.904e-05,0.0,59,30,328.3701859444547,2506.92075,mp-1193187,TaCoB,https://materialsproject.org/materials/mp-1193187,59.222943773684605,28.539554641042123,67.54711972718299,2.6016974055192392
-7.0270788526666665,-105.40618279,9.643123979279046,-0.5290428174761901,0.0012923,0.0,166,15,234.14197666986016,1359.715162,mp-1228867,As4PRh10,https://materialsproject.org/materials/mp-1228867,37.20461159518239,49.606185845893286,69.29106471460753,-14.305379226520689
-8.763414366666668,-52.58048620000001,10.724219002110322,-0.2937313416666664,6.9699717,0.0,191,6,104.0180888439604,671.7775,mp-571283,GdRh5,https://materialsproject.org/materials/mp-571283,73.35199710925288,15.19348274022266,65.66470770579713,1.6897986003617185
-7.248143138333332,-43.48885883,4.557132294124621,-0.6152117930952379,4.9000000000000005e-06,0.0,12,6,82.26955876667411,225.77804799999998,mp-9923,VP2,https://materialsproject.org/materials/mp-9923,16.46329472755914,38.11231626594274,65.46667766308327,-21.360966506029772
-7.737277408333332,-92.84732890000001,10.213119420507088,-0.11715213083333255,1.1527174999999998,0.0,164,12,144.62801068749604,889.5323199999999,mp-1218046,TaCo4Si,https://materialsproject.org/materials/mp-1218046,63.971049927341674,48.07366985955308,62.66439544387554,-7.804903404284839
-7.862438535,-31.44975414,6.773328298782857,-0.4256959700000005,0.0,0.0,225,4,46.48524908277457,189.6130386,mp-5778,AlVFe2,https://materialsproject.org/materials/mp-5778,44.31567381746722,60.45098252897278,90.53476262131242,-7.2591225580135825
-7.50497794875,-60.03982359,5.071600998041632,-1.2331660107812503,0.0001381,0.0,62,8,108.71165446728504,332.0259999999999,mp-1868,VS,https://materialsproject.org/materials/mp-1868,15.610745661080651,38.12326265151947,62.605006617181466,-20.432030348563863
-7.032594854615384,-91.42373311,8.151658052833547,-0.317408955384615,11.5985779,0.0,191,13,189.0324066869596,927.96827,mp-20668,Dy(MnGe)6,https://materialsproject.org/materials/mp-20668,68.21968048399191,34.214784998507035,68.87272086074647,2.2110432173564303
-7.8542076425,-125.66732228,7.197242979509134,-0.4367636506249992,0.00180875,0.0,140,16,221.2465175944061,958.9446,mp-7022,V5As3,https://materialsproject.org/materials/mp-7022,46.77300718061729,49.52558997746986,74.51933808184589,-6.547981834689553
-9.136552081,-91.36552081,8.46793200235736,-0.4282380456666672,1.81290095,0.0,127,10,105.63646677426513,538.694,mp-1078299,Fe(BMo)2,https://materialsproject.org/materials/mp-1078299,59.360392044327796,28.7512318308912,65.71184007689399,13.875437123324005
-7.819086229,-312.76344916,4.6640881492273945,-1.1067838320238097,0.75880615,0.0,55,40,596.6100733769962,1675.746192,mp-1208222,Ti11CuP8,https://materialsproject.org/materials/mp-1208222,51.67916789085166,46.66478138079864,72.10659760015618,-5.049016584082047
-6.529032756206896,-189.34194993,8.283584299493647,-0.3735296679310356,0.0107382,0.0,225,29,296.65791850344664,1479.8754,mp-5172,Zr2(Ni7B2)3,https://materialsproject.org/materials/mp-5172,40.43251243130898,52.552943534644385,79.40312050942522,-10.43656862894026
-7.496310488571429,-104.94834684,7.789583480684513,-0.4541102442857152,3.90904935,0.0,136,14,188.46782886176487,884.102,mp-1104283,Dy(Fe2Si)2,https://materialsproject.org/materials/mp-1104283,67.3525485845788,12.06295859958057,63.824612792464144,-0.7016593033452295
-5.30547188625,-42.44377509,8.125909041690491,-0.30398023812500075,1e-07,0.0,8,8,106.75644472431765,522.4166,mp-1224925,GaNi4Ge3,https://materialsproject.org/materials/mp-1224925,42.277309374711855,49.291254097038575,75.2221118790064,-15.451450627600176
-6.286335881666666,-37.71801529,8.180360768602853,-0.20309449458333265,3.7106004,0.0,187,6,87.18949041858812,429.52407,mp-1222931,LaFeNi4,https://materialsproject.org/materials/mp-1222931,78.03130897793537,17.455379631209993,86.1604387112255,-13.48908383933146
-5.23093291125,-209.23731645,6.5963236369149945,-0.4564160747500005,1.295e-05,0.0,223,40,743.2163771325974,2952.3520000000008,mp-1201179,Ca3Ge13Rh4,https://materialsproject.org/materials/mp-1201179,45.96843276047967,10.709583249637095,47.367676375314005,-10.059975297748684
-8.936884936666667,-107.24261924,12.441085825394001,-0.44374666738095203,1.535e-05,0.0,62,12,146.1504294912475,1094.987828,mp-1102504,CoPW,https://materialsproject.org/materials/mp-1102504,60.18189123964935,24.476242387928767,58.673871366627175,11.251746964450989
-7.490921034999999,-74.90921035,8.695349540737391,0.000941168524001057,3.33722475,0.0,74,10,115.84222379763183,606.6034000000002,mp-1246554,Fe3SbN,https://materialsproject.org/materials/mp-1246554,50.92798381622281,61.37581515764723,77.95020295023599,7.762868755315847
-7.42980374875,-59.43842999,4.224308965998791,-0.7685814895833342,0.001839075,0.0,62,8,119.42506331875731,303.81,mp-7092,TiSi,https://materialsproject.org/materials/mp-7092,51.87939129500226,46.426026453353465,74.32962357673355,-4.881067332493428
-8.184333636666667,-171.87100637,7.515646634469224,-0.7122205916666671,16.2026938,0.0,174,21,267.4731138269767,1210.5908740000002,mp-1191019,Er2Mn12P7,https://materialsproject.org/materials/mp-1191019,55.48767848874454,33.80605395814168,61.626045229824,-3.805385104051124
-8.3898609040625,-268.47554893,6.081031812720869,-0.7143522650781264,1.75e-07,0.0,133,32,403.9001831154178,1479.116,mp-555283,V3S,https://materialsproject.org/materials/mp-555283,50.99637673914238,47.42219972920866,73.25928335608721,-4.513219672439567
-7.032387986923077,-91.42104383,8.213809899733294,-0.3201276803846145,11.571225,0.0,191,13,188.5641455566085,932.72727,mp-3453,Er(MnGe)6,https://materialsproject.org/materials/mp-3453,68.2667973277457,34.235846437613965,68.83482718309571,2.2094284291725437
-7.484294145454545,-329.3089424,8.12400897770976,-0.08669311935727303,37.7523807,0.0,194,44,522.1939096053306,2554.77764,mp-1213248,Dy2Fe17H3,https://materialsproject.org/materials/mp-1213248,74.87562103327666,34.04727392608391,88.79090393965181,-21.354566534423068
-4.15954079625,-99.82897911,7.979622354417317,0.07688884249999954,0.0,0.0,165,24,331.5736487223656,1593.3575999999996,mp-8066,Cu3As,https://materialsproject.org/materials/mp-8066,52.209914823242066,52.93012184705884,73.99626558589804,-6.219557438183945
-6.198255738977273,-545.44650503,7.910420470444716,-0.3208852113257579,3.5e-05,0.0,11,88,816.6834986397113,3890.4896,mp-1204832,Ga3Ni27B14,https://materialsproject.org/materials/mp-1204832,37.73903520345914,54.57661176794714,77.36049349673524,-11.372813065813244
-7.1710642423529425,-121.90809212,8.176453163254276,-0.6006803923529418,0.7722055,0.0,229,17,246.4001744831881,1213.2683650000001,mp-18135,Zr4Co7Ge6,https://materialsproject.org/materials/mp-18135,62.920517242085154,43.155359966955025,73.81747626714738,0.3748113924544627
-4.9998599365,-99.99719873,7.99069382555995,-0.2571291899374998,3.75e-07,0.0,139,20,317.30523924553114,1526.9072,mp-569983,Ni2PdSe2,https://materialsproject.org/materials/mp-569983,16.424510771716136,25.69003708558191,20.003746561512877,-47.09351912542253
-5.106151043076922,-66.37996356,7.832845276613108,-0.2715534851923073,6.2265258,0.0,139,13,196.18321779422288,925.4060000000001,mp-1209923,Nd(Ga2Fe)4,https://materialsproject.org/materials/mp-1209923,67.64233245348612,33.549102645953035,68.93597264153178,2.542152446065688
-8.04966749631579,-152.94368243,7.9133082845072655,0.016112661842103797,39.633948700000005,0.0,166,19,262.3194839865453,1250.085,mp-1426,Sm2Fe17,https://materialsproject.org/materials/mp-1426,74.41351350236485,37.241029799829604,86.88640291268648,-22.752187420979833
-8.552769493103451,-248.03031529999998,6.795935200339465,0.049542157931034767,1.8335983,0.008799999999999919,225,29,439.08680652136223,1797.0101350000002,mp-1355,Y6Mn23,https://materialsproject.org/materials/mp-1355,69.61988666118336,31.174857863491017,68.55785910977262,5.5359694594108495
-5.9158586938888895,-212.97091298,9.890247837019805,-0.4066789438888894,1.38738455,0.0,194,36,500.5815804057866,2981.4872,mp-1200559,Er2Ni7,https://materialsproject.org/materials/mp-1200559,74.41823662588696,23.91523475351841,62.912176443205865,17.13766850171908
-7.819176208333332,-46.91505725,7.4133517185394915,-0.16372945333333178,5.0436324,0.0,129,6,82.78678535632002,369.59538,mp-610522,Mn2As,https://materialsproject.org/materials/mp-610522,45.12141101486775,50.06784016542236,73.61523440750551,-13.241991972565785
-7.756935263125,-124.11096421,7.285758836258884,-0.17468381125000046,0.45978359999999996,0.0,8,16,216.64028251360514,950.528,mp-1216572,V5Cr5Ge6,https://materialsproject.org/materials/mp-1216572,46.84745611553068,49.54812108550888,74.8094872534924,-6.596199923347582
-8.298883165714285,-116.18436432,7.954383329167251,-0.10182585931547652,22.036371399999997,0.0,44,14,175.16924513591078,839.1030199999999,mp-1224127,HoTiFe11C,https://materialsproject.org/materials/mp-1224127,71.2845706645495,36.19487015779736,83.48288971647844,-21.39310591338125
-6.08072866,-79.04947258,7.855459838405439,-0.10245410269230712,11.3498811,0.0,69,13,192.97411715691263,912.89659,mp-1224143,Ho(MnGa)6,https://materialsproject.org/materials/mp-1224143,69.22412837142154,34.879969286704714,67.08724608418882,3.3497248685929835
-6.765234397931034,-196.19179754,8.490573658742338,-0.3522789955172429,4.7e-06,0.0,225,29,296.7750215259105,1517.4531399999996,mp-1210153,Nb3(Ni10B3)2,https://materialsproject.org/materials/mp-1210153,40.45821411630896,52.52398653362137,79.33702894090243,-10.368582196777348
-7.905480985,-63.24384788,8.012174982897612,-0.5675742510714281,0.0,0.0,62,8,109.4653185970092,528.1750480000001,mp-12636,PRu,https://materialsproject.org/materials/mp-12636,29.87788109559593,28.660804255642663,67.44419307219135,1.8412505841873272
-6.5407416554545454,-71.94815821,10.321161264176066,-0.7042114409090914,4e-07,0.0907,187,11,175.3923029772064,1090.1594,mp-20082,Yb(As2Rh3)2,https://materialsproject.org/materials/mp-20082,67.85327556048202,9.19710765193544,70.96467419243669,2.474320128187705
-6.962000041794872,-271.51800163,7.181517086128899,-0.8805234294322347,0.0,0.0,174,39,491.08990663617965,2123.8709059999996,mp-14298,Zr6Ni20P13,https://materialsproject.org/materials/mp-14298,57.91344722705777,36.08037975557895,72.19064984108414,-2.2591534794153576
-5.691201435,-22.76480574,7.5324409847141425,-0.4415113074999999,2.12e-05,0.0,123,4,47.30251514912789,214.57092859999997,mp-1228893,AlGaCo2,https://materialsproject.org/materials/mp-1228893,45.31983216513794,59.483666091822826,88.38721565046396,-5.658025762448507
-5.003521591944446,-180.12677731,8.670181365407776,-0.5655621377777772,0.0002093,0.0,6,36,555.6553023060386,2901.2459999999996,mp-1226188,Dy2(GaNi)5,https://materialsproject.org/materials/mp-1226188,76.50017849232182,15.34224120051593,63.05006293051514,0.616124664187475
-5.96263182,-35.77579092,7.719302960834991,-0.06085739333333251,1.2616542,0.0,140,6,86.53007042591162,402.25,mp-21117,FeGe2,https://materialsproject.org/materials/mp-21117,67.73998928282961,35.432182800163005,74.16132906722402,-0.4456138917695912
-7.0150984266666665,-147.31706696,6.424254857749097,-0.22040500135416674,0.4951135428571428,0.0,8,21,260.104177817732,1006.285,mp-851357,Fe2S,https://materialsproject.org/materials/mp-851357,51.98941861760446,47.61152263215251,70.30750886847662,-0.5618542694295388
-6.4483904658333335,-154.76137118,7.6146318306635505,-0.3313848358333331,0.08143116666666668,0.0,160,24,346.87332389771944,1590.635685,mp-1216367,Y2CoNi5,https://materialsproject.org/materials/mp-1216367,76.18337794835584,24.28894472434366,75.98946180978706,0.6988894980217096
-5.107769695308642,-413.72934532,2.5144585787659834,-0.10564585925925904,0.0026323,0.013700000000000044,191,81,773.0420306322429,1170.573,mp-530613,Li4Mg23B54,https://materialsproject.org/materials/mp-530613,33.188765718788424,43.687282728009045,61.96638333077507,-20.146135801062783
-6.62584028,-576.44810436,8.240620091236234,-0.4066759163218393,0.1690637,0.0,164,87,907.7240799695613,4504.6874,mp-1216773,Zr8Ni61B18,https://materialsproject.org/materials/mp-1216773,40.721287524383435,52.4175776665882,79.34769849398005,-10.133893440041943
-6.749659903333334,-40.49795942,8.481169573857205,-0.030482024583333118,7.0063149000000005,0.0,191,6,85.93435387748974,438.907975,mp-569,NdCo5,https://materialsproject.org/materials/mp-569,78.3616363968482,17.999078523232885,86.40199927907213,-13.684288640075769
-9.877070795862071,-286.43505308,8.40800117768973,-0.09628201008620728,0.0061255,0.0,225,29,302.4958003092286,1531.6623,mp-641575,Cr21(WC3)2,https://materialsproject.org/materials/mp-641575,45.92102537479497,42.07242795461304,66.49241923050869,-8.930622276229455
-6.7898634683333325,-40.73918081,9.445424807431834,-0.3692104262500007,4.4e-06,0.0,191,6,99.33053723419329,565.00877,mp-1018742,LaNi2Rh3,https://materialsproject.org/materials/mp-1018742,73.50654185471353,15.193573789457318,65.54742186903704,1.761455426021274
-5.465927271041667,-262.36450901,5.991203667337067,-0.3242844565277778,0.0,0.0,194,48,623.0814719259947,2248.07,mp-28170,Ca5Ni15B4,https://materialsproject.org/materials/mp-28170,49.086116479891956,42.754662398534336,66.99365231901791,-5.236322345484703
-8.55686285,-119.79607990000001,7.289597367705732,-0.18710744159857126,18.0587333,0.0,71,14,173.86406531807705,763.2455500000002,mp-1215812,YV2Fe10N,https://materialsproject.org/materials/mp-1215812,71.37921365666485,37.883801164183346,81.66145238679769,-20.256961483119788
-6.671279163965517,-386.93419151,8.485954579800488,-0.3330631182758629,0.0229072,0.0,166,58,587.1782985472425,3000.6933,mp-1220806,Nb5Ni41B12,https://materialsproject.org/materials/mp-1220806,40.33220660724093,52.64357171817867,79.40733225369125,-10.457211239245355
-8.351877755,-133.63004408,5.765436579011505,-0.433818535625,0.00034695,0.0,72,16,197.0766864863221,684.2556,mp-1216681,V2(CrSi)3,https://materialsproject.org/materials/mp-1216681,50.63864329977437,47.41409375850953,74.72994832430905,-6.9614248320261405
-5.678289835555557,-102.20921704,8.174445504386552,-0.3157895397222224,0.5407839333333333,0.0,191,18,278.5953347804826,1371.4597049999998,mp-1179854,PrGa2Co3,https://materialsproject.org/materials/mp-1179854,76.54940000270484,15.451203115444764,62.7943226222246,0.18874772650254396
-4.210724355,-33.68579484,11.876028123228906,0.19889061750000006,1.11174475,0.0,194,8,105.33413458009748,753.3404,mp-976935,Ni3Hg,https://materialsproject.org/materials/mp-976935,52.393717160624725,58.83743723592081,72.2241592032311,-16.015476781912437
-5.711683835384616,-74.25188986,8.352970423254236,-0.29077345230769297,11.044601,0.0,71,13,184.17437086178174,926.448,mp-1104436,Yb(GaFe)6,https://materialsproject.org/materials/mp-1104436,68.41231321196064,34.35324937765593,68.91494087636069,2.1345609762025717