energy_per_atom,energy,density,formation_energy_per_atom,total_magnetization,band_gap,sgr,num_sites,cell_volume,weight,mp_id,formula,URL,tsne_cry_0,tsne_cry_1,tsne_xrd_0,tsne_xrd_1
-5.957365640625,-95.31785025,4.006398518685645,-2.2458739340300005,0.0,4.1388,122,16,187.56793439506592,452.54695999999996,mp-23884,SrGe(HO2)2,https://materialsproject.org/materials/mp-23884,5.957667971777898,-56.68050100798835,-38.241366067666256,-57.29390881933095
-4.6747296600000015,-51.42202626,7.560105741080317,-1.2691521468181817,0.0046415,0.0,139,11,283.57374039272565,1291.05514,mp-546846,BaBi4(IO2)2,https://materialsproject.org/materials/mp-546846,-21.002239339862047,-55.38448879492137,-14.47563389376027,-50.70583145288865
-8.943982377173912,-411.42318935,7.289057300498753,-3.5031406654891297,8.235e-05,2.4728000000000003,100,46,668.3964599883437,2933.97504,mp-1228281,Ba3ZrTa4O15,https://materialsproject.org/materials/mp-1228281,-32.274534413347126,-67.56096346390197,-4.8355692877868135,-56.483028436453296
-6.872613577272728,-302.39499739999997,3.7969693416140355,-2.673718971412339,1.00000035,0.7906,14,44,568.7238175492078,1300.437296,mp-14931,SrCuP2O7,https://materialsproject.org/materials/mp-14931,-24.439672121074185,-32.52399493974424,-3.4101715893363536,-25.44578074480247
-4.863111063888889,-87.53599915,7.600845512319294,-0.20853553910527803,0.0003106,0.6145000000000005,58,18,419.5147357990994,1920.26,mp-1246658,Bi4S3N2,https://materialsproject.org/materials/mp-1246658,4.062066463873576,-6.272101484089139,-19.918927388247248,-51.764119598428614
-7.3412663729411785,-124.80152834,5.80442310901943,-2.797979112044707,0.9999952,0.0,139,17,256.64613877028967,897.1079527999999,mp-1210028,Nb3Pb2(O2F)4,https://materialsproject.org/materials/mp-1210028,-58.334995432956035,-43.99997165676484,-18.33227181915313,-66.58905127918014
-6.361439266388889,-229.01181359,5.317985024482682,-0.8243612424999998,0.151684125,0.0,62,36,726.5771617119448,2326.910944,mp-1212960,Er2Sc3Si4,https://materialsproject.org/materials/mp-1212960,37.02118498981265,-14.31164405212636,14.383246908493126,-2.911825400820005
-6.674897130952381,-280.3456795,4.021128038373576,-2.7100299094409532,2.9999995999999998,1.0435,176,42,678.5108221985575,1643.0682,mp-555204,Sr5Cr3ClO12,https://materialsproject.org/materials/mp-555204,-22.608849321118285,-33.09171185769077,-7.041195740686578,-26.418027520925822
-5.701660205857142,-399.11621441,4.811774578921365,-1.9647461299375,0.0,1.6583999999999994,146,70,1601.3688400307253,4640.316,mp-1220718,Nd9Ga5S21,https://materialsproject.org/materials/mp-1220718,11.999790097787624,-14.570227662411472,1.0602473889774742,-3.4245860319842594
-8.148253172,-814.8253172,6.233507505135315,-3.039521054493333,5e-08,2.5386999999999995,6,100,1280.4613798185705,4806.731687039999,mp-693144,Na9CaTa9TiO30,https://materialsproject.org/materials/mp-693144,-32.41076585447679,-74.24533522595158,-22.496655345758718,-24.322686098575286
-7.074307305416667,-169.78337533,4.689679565816782,-2.210150078750002,0.0,2.0141,11,24,343.6049361230908,970.406,mp-18996,TlV3O8,https://materialsproject.org/materials/mp-18996,-30.74853048074621,-26.894284050554944,-25.88905780882033,-8.788801366824659
-8.242601438518516,-222.55023884,6.259045512116884,-2.7663523921296296,0.0,2.6457,148,27,389.20573409745265,1467.0274799999993,mp-1192336,Nb2PbO6,https://materialsproject.org/materials/mp-1192336,-48.73997760151687,-55.003688862458155,-19.83618549476177,-55.80965966523967
-5.192158078846154,-134.99611005,6.253058698765303,-1.1188438173076918,0.9864779,0.0,43,26,347.04658660772736,1306.8664,mp-1194267,Cu3TePbO8,https://materialsproject.org/materials/mp-1194267,-23.244225586802578,-43.025615098629245,-17.24254280719385,-36.535883411634174
-6.544696823571428,-549.75453318,6.9126571485512205,-2.507788269910714,0.0,3.0637,2,84,1263.631656972599,5260.3716,mp-1202045,Lu2(TeO3)3,https://materialsproject.org/materials/mp-1202045,-32.30508799461882,-58.39940855320805,-12.30907756207685,-51.39903660304355
-5.390271688125,-344.97738804,4.536030854447109,-1.7713772560325003,6.0000002,2.6334000000000004,14,64,1152.6868021340574,3148.7503599999995,mp-562378,SrCo2Te3(ClO4)2,https://materialsproject.org/materials/mp-562378,-39.32201810441447,-44.26987187783234,-19.71914732388533,18.444180358475847
-6.850700297222222,-369.93781605,5.655684260141503,-2.533581757770369,15.000001199999998,1.2986000000000004,64,54,795.4605881779898,2709.28525,mp-30895,Ba6Mn5O16,https://materialsproject.org/materials/mp-30895,-8.584256716914826,-81.57881427668956,17.672634139811798,-73.22071227465705
-7.297845104999999,-277.31811399,4.593126028429574,-2.8307803381515773,0.0,3.3351,20,38,642.8528372812692,1778.16,mp-560326,Ba5B3CNO9,https://materialsproject.org/materials/mp-560326,-23.544900899134067,-25.383837726456637,-9.226088324935935,-18.91363624723716
-7.964764547894737,-151.33052641,7.237580721948671,-3.1417354721052635,0.0,1.9052,139,19,241.88526517864227,1054.2746,mp-557438,Sm2Ti3(BiO6)2,https://materialsproject.org/materials/mp-557438,-15.465962430192794,-58.287506636947825,-8.546257301843038,-55.72012322660407
-5.080380319285714,-142.25064894,7.341272658043122,-1.7559962457142857,0.0,1.3147000000000002,62,28,365.5570893619862,1616.1344,mp-756460,Ga2HgO4,https://materialsproject.org/materials/mp-756460,-8.520050546515519,-44.60704721339624,15.265019357657616,-3.3425295694468713
-8.72136875,-104.656425,5.85219888215607,-2.781883573333334,6.9999999000000015,2.9683,11,12,168.07375448059906,592.3384,mp-757238,GdAsO4,https://materialsproject.org/materials/mp-757238,-29.26940860304644,-57.80240775574585,-18.89689519493196,-23.31542530984397
-7.1390378907142855,-199.89306094,6.1960298060056855,-2.600356982857143,1.175e-06,2.7064000000000004,2,28,521.7079292739518,1946.6678,mp-1192573,TbWBrO4,https://materialsproject.org/materials/mp-1192573,-32.02012175726323,-34.05225185936335,-37.338839949108454,-24.232078693470047
-5.569929666785713,-155.95803067,5.634500900725581,-1.6586987503257145,0.023163125,0.0,62,28,742.8462130318437,2520.6078,mp-639135,Pr3RuCl3,https://materialsproject.org/materials/mp-639135,20.260714254644267,-1.3632532012532097,14.936060141334872,2.107708007942247
-6.848963240897437,-534.21913279,6.733775166723615,-2.554828406282052,5.90759505,0.0,88,78,1309.6860613678673,5311.0052,mp-559484,Ba11(OsO6)4,https://materialsproject.org/materials/mp-559484,-16.77003974097835,-80.00291264895644,-16.788187020779635,-53.714693577846155
-5.5855541183333335,-201.07994826,5.240217075548983,-1.8048400792939825,1.225e-06,0.8934999999999995,62,36,781.4349701689854,2465.99976,mp-1224037,La2InCuS5,https://materialsproject.org/materials/mp-1224037,12.21412509645834,-5.720289170888384,-2.939272025515323,-14.138083179013648
-5.2337218850000005,-146.54421278,5.968607183559973,-1.759082800206667,0.00356255,0.0,214,28,660.9720313947893,2375.7842,mp-1208487,Tb3BCl3,https://materialsproject.org/materials/mp-1208487,19.17548438770859,-42.42267376274937,0.8769009756246346,-35.815729157711466
-5.2782599775,-21.11303991,5.0827077644702925,-2.160450387117458,0.0,2.4152,166,4,106.03649597508587,324.5648,mp-9370,RbLuS2,https://materialsproject.org/materials/mp-9370,5.311144894759589,-4.3306369550021095,-3.3754498017442818,-4.930723545941825
-6.715705013888888,-241.76538050000002,4.8747426234764095,-1.1325112538355548,8.6475e-05,1.6155,52,36,760.2020359987149,2231.678496,mp-1247132,Ba3Sc2N4,https://materialsproject.org/materials/mp-1247132,-3.4417942855130117,-32.05869743987038,-3.6375743976619668,-32.29260167719039
-8.049750365769231,-418.58701902,6.986267900837753,-3.7399701604751288,1.9025e-05,4.7387,14,52,754.8542870433887,3175.8448000000008,mp-1199026,Tb4BClO7,https://materialsproject.org/materials/mp-1199026,-11.770882148844187,-55.82527350398283,-2.925742659171678,-50.79883999365161
-7.273141558750001,-174.55539741,5.364299419726165,-2.8597925516666667,0.0,3.9925,14,24,344.0066817401232,1111.29868,mp-4917,LaAsO4,https://materialsproject.org/materials/mp-4917,-29.309121501760586,-53.4031933733896,-15.857893979124654,-51.20936905222417
-4.4178756028571415,-123.70051688,7.0201695129529345,-1.1899663667857143,2.5775e-05,2.2335,62,28,858.5467770759632,3629.63096,mp-619661,Pb3(IO)2,https://materialsproject.org/materials/mp-619661,-20.9453397615918,-55.0926169340336,-13.398132421797644,-55.08522809082032
-7.146718646666668,-128.64093564,5.428735860489901,-3.2797203922685187,0.00657505,2.8109,140,18,330.2550431944956,1079.69,mp-1214495,Ba3TiO5,https://materialsproject.org/materials/mp-1214495,-9.069661863761716,-32.107626120627906,-2.2415686685202942,-33.81534513161353
-5.063375170714286,-70.88725239,5.152975890716776,-2.2103952228386703,0.0,2.1887,12,14,392.6370217638989,1218.4291114,mp-779546,Cs3DyO3,https://materialsproject.org/materials/mp-779546,-5.437203982081359,-27.19655627088124,-25.812704223244648,-49.80286197289358
-7.11963882902439,-291.90519199,3.888055385674378,-3.340134451746516,0.0,2.6767000000000003,143,41,624.4133943686915,1462.027572,mp-1218894,Sr10P6O25,https://materialsproject.org/materials/mp-1218894,-20.100049561299734,-32.533104935477034,-10.062644139670509,-33.683077284135926
-4.336457561617647,-294.87911419,6.229734277833122,-0.6205801708272063,0.0,0.6525999999999996,62,68,1469.9628993982267,5514.762400000001,mp-559551,Cu4Bi4S9,https://materialsproject.org/materials/mp-559551,4.576555481541717,-7.865771948384478,-20.455801764668525,-35.26727559921389
-5.8300338225,-23.32013529,7.51361330386168,-0.8283443474999999,2e-07,0.0,63,4,85.31455944981464,386.03164,mp-12899,HoSi,https://materialsproject.org/materials/mp-12899,31.00824884533185,-41.24345418715552,13.68881929339132,-17.665889739477674
-4.327401508529412,-294.26330258,4.756958888946178,-0.7424533525659234,0.9846372999999999,0.1229,14,68,2717.0903202564764,7783.6694228,mp-1203892,Cs3Ti3Te11,https://materialsproject.org/materials/mp-1203892,13.707844215392944,0.3215694945725087,-15.115972867046105,-6.10255296308345
-3.74200002375,-29.93600019,6.932182846369575,-0.6371126922916668,0.0,1.1909,121,8,281.4343608867971,1174.89225,mp-1219779,PrTl2InTe4,https://materialsproject.org/materials/mp-1219779,6.881124530113352,-30.56296386284166,4.059101481515174,-32.62110747183292
-5.970038211333335,-89.55057317,6.61162331403192,-2.061698936333334,1e-06,0.0,65,15,206.97447595891288,824.0922,mp-6583,Ba2Er(CuO2)4,https://materialsproject.org/materials/mp-6583,24.085458280759163,-77.61659805920767,42.6906415675124,-48.31061125038146
-5.218252873928571,-146.11108047,5.210276466701712,-1.3727117324999998,1.075e-06,0.4486000000000008,62,28,876.988127529093,2751.727296,mp-18660,Sr(ScTe2)2,https://materialsproject.org/materials/mp-18660,-0.5197301251702469,-26.710133740711733,-6.079602562376956,-25.849625637534572
-9.442522433333332,-84.98270190000001,7.8836951121453485,-3.460911211111111,5.2e-06,0.0,123,9,126.82723846806877,602.13416,mp-1205976,NdTa2O6,https://materialsproject.org/materials/mp-1205976,-32.400763106265046,-69.3676849673547,31.85216077853507,-59.749305688085954
-4.932976603999999,-98.65953208,5.3657521125018555,-0.5851935785000002,9.375e-06,0.0,62,20,358.9826862381134,1159.9920632,mp-1208898,SmAl3Ni,https://materialsproject.org/materials/mp-1208898,39.578826652752795,-13.945307607015511,3.627181341418285,10.463755915750305
-6.552126314166667,-157.25103154,4.3064946456334114,-2.307086320264168,7.00100345,0.0,46,24,360.01324690609823,933.6697800000001,mvc-572,Sr2Mn2GaO7,https://materialsproject.org/materials/mvc-572,-6.325120036576815,-45.22772570144697,9.832514369034183,-35.69537931486396
-8.093632041428572,-339.93254574,5.2043075235339025,-3.5933458932738103,3.0,2.5382,143,42,603.6811044511546,1892.001355,mp-1228420,BaLa8Co(Si3O13)2,https://materialsproject.org/materials/mp-1228420,-18.948230479563712,-34.242190399275465,-10.766358967420874,-33.96591078786079
-4.22882361125,-169.15294445,4.672682971187232,-1.5178794208534492,4.99999925,1.3230999999999995,14,40,1114.9712330414168,3137.4794380000008,mp-1201412,Cs5FeO4,https://materialsproject.org/materials/mp-1201412,-5.351242637243804,-28.12425643545836,-6.4585852368395225,-30.773907220055708
-4.178492817058824,-71.03437789,4.675263121314534,-2.40879056039574,3.0000532000000004,0.11959999999999993,12,17,324.00668590164406,912.2438396,mp-505031,Cs4Cu3F10,https://materialsproject.org/materials/mp-505031,-53.65647310180524,-62.125564286424655,-22.619830940312017,-13.843515076890956
-4.847419459285715,-67.86387243,4.614830337358296,-0.6156926107142857,1.85e-06,0.0,63,14,278.23417463269345,773.245,mp-571109,Li2Nd2Si3,https://materialsproject.org/materials/mp-571109,32.915477612087145,-23.174743284612926,19.285709704181095,4.976380902560798
-6.413670415,-384.82022489999997,3.978050561795882,-2.106077556962644,5.999999975,2.1846,62,60,949.6686567831359,2275.0624,mp-622624,Rb2Cr2As2O9,https://materialsproject.org/materials/mp-622624,-37.15430749165881,16.119082452965973,-18.02922495851706,19.571093892382592
-7.483270775416668,-1077.59099166,4.45397581416429,-2.5737537937083332,2.594124875,0.0,1,144,2111.2766451531743,5662.965391360001,mp-1076887,K5Na3TaNb7O20,https://materialsproject.org/materials/mp-1076887,-30.7713709325355,-74.7244787684245,-22.07232458914604,-24.130672795357146
-7.539520260666666,-452.37121564,5.767887762158424,-3.323933604583334,0.0,3.6092,14,60,975.4661361394316,3388.2848,mp-15577,Pr4Ga2O9,https://materialsproject.org/materials/mp-15577,-11.694213619910407,-60.161839366402646,-19.983674093352235,-58.25998012846888
-4.3204760515,-86.40952103,3.752264218236078,-1.9024299951379304,0.0,2.2799,60,20,402.25301117367655,908.9576,mp-756372,Rb2MgO2,https://materialsproject.org/materials/mp-756372,-4.909715251035792,-35.58578177996718,11.615899089859973,-20.604258140709085
-6.661577894166666,-319.75573892,4.916785429398306,-1.9475955866666663,4.999999775,2.5518,62,48,783.6701624040745,2320.414,mp-645796,TlFe(MoO4)2,https://materialsproject.org/materials/mp-645796,-50.80385198307322,-42.16678311625569,-37.734449618254644,-22.184176344037247
-6.458886900714285,-90.42441661,5.983189232549825,-0.8365584416326521,13.985259099999999,0.0,12,14,292.8913308531392,1055.334572,mp-1104145,Eu2Zn2P3,https://materialsproject.org/materials/mp-1104145,32.98123927057517,-13.707070283425619,19.92123853222786,-1.3227208232962606
-4.405021101428573,-30.83514771,3.635055712322564,-1.9901728135207153,1.2e-06,0.0,139,7,170.76657804902354,373.82199999999995,mp-1147579,Sr2Cu(SCl)2,https://materialsproject.org/materials/mp-1147579,13.253960940945847,-19.63349159577917,4.712845687200541,-22.731399984428638
-6.501015162692307,-169.02639423,5.829407578380373,-2.111867373557693,13.000000199999999,0.19700000000000006,186,26,368.9195880376575,1295.11116,mp-18804,BaDyCo4O7,https://materialsproject.org/materials/mp-18804,-3.2261907057722783,-44.04897113310546,8.24709373466939,-38.485315523771376
-8.744342098043479,-402.23973651,8.225726148141726,-3.0405685436630425,0.0,2.4247,26,46,645.2734028345923,3196.4574,mp-1223615,KTa5Pb2O15,https://materialsproject.org/materials/mp-1223615,-32.264493892052734,-68.92039076135663,-3.4454571028233985,-54.82959939574439
-8.764337092857144,-245.4014386,4.8767288697369295,-3.651315532410714,0.0,2.0596,197,28,385.0448356756681,1130.8130800000001,mp-754191,La2Ti3O9,https://materialsproject.org/materials/mp-754191,-20.1190224958458,-37.55519426215357,-25.031513569366638,-17.387423845027744
-3.574317655833333,-42.89181187,4.662201514971792,-0.5373763238541667,6.08e-05,1.6367999999999996,62,12,399.9503179916317,1122.91788,mp-23041,SbSI,https://materialsproject.org/materials/mp-23041,19.609953288284427,-8.875580621818482,-16.374700801317537,-7.277920064178198
-6.791845651666668,-40.75107391,7.056768849839107,-3.5892168112255565,0.0,4.4477,129,6,131.04611779716672,556.9048,mp-30273,AcClO,https://materialsproject.org/materials/mp-30273,0.973974192392128,-52.12687373114964,-2.1906378409738894,-43.66352602870266
-6.673521643333332,-280.28790902,4.037901790300461,-2.708654421821904,2.9998961,1.0688,173,42,675.6922365066999,1643.0682,mp-1179227,Sr5Cr3ClO12,https://materialsproject.org/materials/mp-1179227,-22.608749228859146,-33.0919483044374,-7.04108530820349,-26.418104984819266
-3.5544605315,-142.17842126,4.7356059334330745,-1.5075699764999997,0.0007834,2.6895,14,40,1616.4632873412977,4609.90856,mp-771829,Sr2YI7,https://materialsproject.org/materials/mp-771829,3.4167467609234863,-28.62038367339488,-4.196589315753485,-29.421895993349658
-5.3936409849999984,-53.93640985,5.1636275475604645,-1.1246103468749993,0.051307900000000004,0.0,12,10,322.27729325656236,1002.15645,mp-23382,Y4CI5,https://materialsproject.org/materials/mp-23382,26.332903335147385,-19.9470409047977,8.1493501907632,0.4559257690920816
-4.370172454583334,-104.88413891,7.005218262233979,-0.6881283307812502,0.0,0.6334,62,24,546.0729032967929,2303.6856,mp-624191,CuBiPbS3,https://materialsproject.org/materials/mp-624191,6.288136800049716,-9.266913893943324,-4.177165953380671,-9.362506893259594
-8.56901865625,-137.1042985,6.077930782800156,-3.335075807968749,1.12e-05,2.189,119,16,215.81642760400538,789.9346400000002,mp-774479,LiCa2Ta3O10,https://materialsproject.org/materials/mp-774479,-33.75680687807181,-71.03933064197305,-26.038094145160947,-31.707256198404146
-4.2238906059999985,-168.95562424,4.704680963099699,-1.512946415603449,5.0000032999999995,1.5583,14,40,1107.3879684635808,3137.4794380000008,mp-562735,Cs5FeO4,https://materialsproject.org/materials/mp-562735,-5.3356115396038115,-28.172437030460248,-6.143355371225983,-30.49743665477808
-8.528502775,-136.45604440000002,5.849642901944687,-3.3301581219999994,0.0023646,2.1844,119,16,228.79463569593358,805.98340928,mp-1221096,NaCa2Ta3O10,https://materialsproject.org/materials/mp-1221096,-33.798955634076684,-70.88227593134073,-25.98583099430663,-31.750153294743033
-8.003224323000001,-160.06448646,7.915572143840898,-3.0760597324420003,3.9999998999999997,0.4221000000000004,62,20,228.13335341847,1087.48182,mp-554270,TmMnO3,https://materialsproject.org/materials/mp-554270,9.106966828476816,-81.16952180474566,51.61050501937753,-52.521974685992326
-5.891545305999999,-58.91545306,6.765564769027161,-1.8854952096875004,1e-07,0.9102000000000006,129,10,256.143589395371,1043.61054,mp-1078431,LaBiSe2O,https://materialsproject.org/materials/mp-1078431,22.42943815631742,-9.534757484816653,6.894972635713723,-0.7099390492944017
-4.186188901666666,-251.1713341,5.740643457795215,-0.9039313063020836,0.0,0.0,55,60,1392.652535414185,4814.534000000001,mp-21934,In9Pb4S17,https://materialsproject.org/materials/mp-21934,8.015593799156893,-5.175679113478043,-8.049949389116819,-18.280863411784534
-5.8248080286666655,-174.74424086,4.298984908639182,-2.017452294302083,3.00000015,2.8214,2,30,475.14047933083197,1230.0955900000001,mp-17540,Sr2Co(SeO3)3,https://materialsproject.org/materials/mp-17540,-29.342770791705345,-33.181120821283706,-2.8884682213670367,-30.50453991449388
-3.5093681966666668,-73.69673213,3.378297267240777,-0.9773246057123808,0.0,3.8686,174,21,342.2735742695551,696.3412800000001,mp-23827,Sr7(H6Cl)2,https://materialsproject.org/materials/mp-23827,-5.998293612318977,-19.21418470397138,-21.245578571734487,-65.53023288219474
-7.641934051304347,-351.52896636,3.3574358224002925,-3.2390326271666683,0.0,3.3673,46,46,608.7102392055302,1230.74827712,mp-561352,BaNa2Ti2(Si2O7)2,https://materialsproject.org/materials/mp-561352,-24.246718883891692,-28.65124407855365,-3.367705062985772,-25.167857639574017
-8.833625644404762,-742.02455413,8.217246201569267,-0.4590260993361899,0.00028509166666666665,0.4685999999999994,205,84,1371.9625720288102,6789.2136,mp-1029619,Ba(ReN2)2,https://materialsproject.org/materials/mp-1029619,-22.883360095421075,-43.2336366510761,-12.080698567602818,-22.3150856301582