energy_per_atom,energy,density,formation_energy_per_atom,total_magnetization,band_gap,sgr,num_sites,cell_volume,weight,mp_id,formula,URL,tsne_cry_0,tsne_cry_1,tsne_xrd_0,tsne_xrd_1
-8.72273646888889,-157.00925644,6.465876305758088,-0.2268710155022215,3.51653535,0.0,15,18,168.2420692841846,655.1080000000001,mp-1246113,Cr2Fe3N4,https://materialsproject.org/materials/mp-1246113,27.760499148323913,52.98576253064128,70.40350969152948,-2.9233140101552864
-6.896635984444446,-62.06972386,11.026530000908576,-0.6422516711111107,0.0,0.0,189,9,138.6556039254043,920.7192,mp-1079860,HfGaNi,https://materialsproject.org/materials/mp-1079860,59.562534062741264,22.22450465122176,57.90001452480439,11.114565463744023
-4.000844398333333,-48.01013278,2.4724971856040545,0.1508120316666671,1.8125e-05,0.0,12,12,216.19201924453083,321.904,mp-1073663,MgSi2,https://materialsproject.org/materials/mp-1073663,39.346647715659024,23.45571491592232,58.91394363511762,2.111865665402544
-9.445467082,-47.22733541,14.237630424299624,-0.4345547006666678,1.2e-06,0.0,71,5,52.24983577118032,447.9954,mp-1070761,Ni(BW)2,https://materialsproject.org/materials/mp-1070761,59.421109923715846,28.422591332264112,65.73936453513132,13.624359314082275
-7.077947376111112,-254.80610554,8.617727476518237,-0.9002163765476191,7.2512746,0.0,189,36,450.1376386282882,2336.086899,mp-1216929,Tm5Co19P12,https://materialsproject.org/materials/mp-1216929,56.63703203427794,33.607596301537875,62.70806322349953,-2.97921547181566
-10.279570726333333,-308.38712179,14.171926386876152,0.13330678591666847,0.0010698833333333334,0.010800000000000587,227,30,345.45346069881134,2948.2842,mp-504619,Fe2W2C,https://materialsproject.org/materials/mp-504619,60.72050841288873,30.6548473675024,66.44444762917465,16.70470995194539
-7.7445793161111105,-139.40242769,6.518125819345436,-0.1425719927244447,0.87579575,0.0,15,18,171.2473365446063,672.1984,mp-1245694,Cr2Ni3N4,https://materialsproject.org/materials/mp-1245694,27.687910928928247,52.855196701480075,70.32705714028496,-2.9600270581991857
-6.96529822,-125.37536796,9.177715851003539,-0.3686106748148145,6.809686500000001,0.0,191,18,213.32004014653006,1179.009145,mp-30907,Dy3Co11B4,https://materialsproject.org/materials/mp-30907,73.72103259915664,26.01945850417051,60.15059091220169,15.333057424870846
-6.2558937175,-25.02357487,15.905684394971535,-0.005416562499999778,0.0277903,0.0,123,4,53.01329564699928,507.794595,mp-1226004,CoNiPt2,https://materialsproject.org/materials/mp-1226004,53.16028601000398,59.2907821344437,87.57880560840593,2.7640190065277337
-7.427829130833333,-89.13394957,5.4063126588741195,-1.1437205498809522,0.20677075,0.0,62,12,165.6915336950142,539.451476,mp-1103160,ScCoP,https://materialsproject.org/materials/mp-1103160,48.2798875212858,45.532217090678145,66.9552627582043,-6.325843036349894
-7.51348053,-75.1348053,7.2028404773464745,-0.15879427599999899,7.758992500000001,0.0,12,10,145.08187169580285,629.31467,mp-28916,Mn3As2,https://materialsproject.org/materials/mp-28916,23.077326955077506,35.81055653927953,63.530198975020284,-21.67467385350644
-11.633431711666667,-69.80059027,13.520583517981073,-0.14450697833333473,0.0,0.0,227,6,112.72117162676241,917.808,mp-675,ZrW2,https://materialsproject.org/materials/mp-675,82.67283170485547,12.41552595587455,62.13378710821285,25.4995417427312
-4.88364411,-19.53457644,7.1651609685228665,-0.3618361562499999,3e-07,0.0,225,4,45.64764461814171,196.9678,mp-16349,LiNi2Ge,https://materialsproject.org/materials/mp-16349,42.77343766303071,61.39402652444471,61.95761548686331,-30.64741027662793
-6.4693714627586205,-187.61177242,8.199770419246695,-0.2772005551724135,0.1684216,0.0,225,29,283.37495191621275,1399.3104,mp-1207902,V2(Ni7B2)3,https://materialsproject.org/materials/mp-1207902,39.233350181289076,53.60104080623001,79.21724046579784,-12.004511779354004
-5.380778287142856,-112.99634403,7.491428742281862,-0.3106052711904762,12.974833199999999,0.0,174,21,342.01791381487703,1542.994635,mp-1191920,Pr2Mn3Cu9As7,https://materialsproject.org/materials/mp-1191920,66.74260321675514,9.836819277073744,52.3729725191217,8.742155202992187
-6.568976488275862,-190.50031816,6.259723147633326,-0.7612335170689664,1e-07,0.0,225,29,372.8229866702639,1405.428372,mp-5382,Sc6Si7Ni16,https://materialsproject.org/materials/mp-5382,46.89070726328457,52.89567172328484,72.0807751000561,-12.692019240324896
-7.539090556666666,-158.32090169,8.330822053002388,-0.15162822988095231,25.2425425,0.0,12,21,268.0680798206411,1344.88104,mp-1224208,Ho2Ga3(Fe7C)2,https://materialsproject.org/materials/mp-1224208,76.29031492800061,34.107259775688966,87.87319285096541,-24.52929747223569
-7.089527801,-141.79055602,8.701487296714857,-0.1914945107500003,23.054438,0.0,166,20,234.9580439724067,1231.217325,mp-1222148,Mn4Co11Ge5,https://materialsproject.org/materials/mp-1222148,79.10414514189938,49.43359314799832,92.13024772796152,-5.34239812059635
-9.044370736666666,-54.26622442,18.37696858000364,-0.42286435,0.0,0.0,191,6,107.81035033221292,1193.12306,mp-312,ThIr5,https://materialsproject.org/materials/mp-312,76.33430858369144,12.484844030125325,62.091076008743045,22.7390965123275
-4.318799267692308,-56.14439048,7.169884722725315,-0.21800705230769232,0.0,0.0,87,13,218.9495065958535,945.3814,mp-14786,Ba(Cu2As)4,https://materialsproject.org/materials/mp-14786,16.327792770583233,25.576511361889917,20.053880272893533,-47.126805058250724
-7.377177929,-295.08711716,5.290374708145631,-0.6232677385000003,1.98379665,0.0,128,40,606.4817449959862,1932.21334,mp-1198388,Y2Mn3Si5,https://materialsproject.org/materials/mp-1198388,64.96993972723878,9.541448896167491,60.93196827186126,-1.0790519363881947
-7.217891216190476,-151.57571554,8.221294001794606,-0.08896042369047748,24.1160762,0.0,1,21,274.4424942570361,1358.7590400000001,mp-1224299,Ho2Ga4Fe13C2,https://materialsproject.org/materials/mp-1224299,76.55067240942253,33.945971103824036,88.2123100364223,-25.735600069953705
-6.586772927777778,-59.28095635,7.644146009692688,-0.4874245384920626,0.014658833333333334,0.0,189,9,96.84143677144024,445.801071,mp-1206541,CoNiP,https://materialsproject.org/materials/mp-1206541,42.796869034863356,54.64786204173295,76.59401804801095,-12.255070483095741
-7.084780370833332,-255.05209335,8.753253914055357,-0.9004256837698423,7.0752567,0.0,189,36,448.89042997922513,2366.250849,mp-1222910,Lu5Co19P12,https://materialsproject.org/materials/mp-1222910,56.55902474928482,33.639118852592404,62.704042323633615,-2.981975890751193
-6.876054773703704,-371.30695778,9.95041416287595,-0.7294684045370372,4.02e-05,0.0,176,54,883.9449059461681,5296.845,mp-1209148,SmGe3Rh5,https://materialsproject.org/materials/mp-1209148,67.95979563984882,9.267193368964028,52.646777962867354,8.57505538999683
-8.612632424500001,-172.25264849,7.818178747474634,0.07689125887499984,11.53964835,0.0,186,20,181.36252712149545,853.8942,mp-18257,Fe7C3,https://materialsproject.org/materials/mp-18257,39.497674756208134,55.90187623694539,79.2833694488072,-13.982162082749175
-6.908168275833333,-82.89801931,15.380300740719795,-0.7681407052777777,0.0765571,0.0,191,12,201.0882094019637,1862.526,mp-20051,CeBPt4,https://materialsproject.org/materials/mp-20051,64.23568021017698,15.244649576466232,53.48862705035821,13.376649141110375
-7.802677803333334,-23.40803341,8.051811669868544,0.5641323333333332,0.45867349999999996,0.0,216,3,43.40732429009261,210.4784,mp-631256,FeNiMo,https://materialsproject.org/materials/mp-631256,41.54840753092173,60.82057641024457,62.58304419241231,-30.383558057345343
-6.8834407725,-27.53376309,8.311589515422266,-0.300975105,2.0227009,0.0,225,4,47.655127139760154,238.53089,mp-22790,VGaCo2,https://materialsproject.org/materials/mp-22790,79.62964822939594,48.729525888439646,91.17186241277076,-4.7092925038097775
-7.952847488333332,-47.71708493,7.776163785699419,-0.30359075722222073,2.2810092,0.0,69,6,53.249837019997294,249.36448,mp-1221661,MnCoB,https://materialsproject.org/materials/mp-1221661,36.55295121754273,55.60789298563107,79.81784511304916,-7.888843097301469
-7.1144220988888875,-256.11919556,6.146050432690537,-0.626235993333333,0.0,0.0,62,36,576.3437027332169,2133.185296,mp-21719,Sc2V3Ge4,https://materialsproject.org/materials/mp-21719,36.07055953898,29.43746609126202,68.31318275044177,-1.8472114135172384
-7.651262571428572,-107.117676,6.79939015542719,-0.4712130578571429,0.09636195,0.00020000000000042206,12,14,209.3105725590545,857.0616,mp-2623,V4As3,https://materialsproject.org/materials/mp-2623,23.070265671503602,35.812748747106596,64.3165208769295,-20.980854794856704
-8.072886288382353,-548.95626761,7.750949420308219,-0.0005057783088254972,30.566047425,0.0,136,68,921.7806411845797,4302.624,mp-1200780,Pr2Fe14C,https://materialsproject.org/materials/mp-1200780,71.8426600294987,32.41907966603786,84.28903856119456,-6.7407162526562105
-6.401811481666666,-230.46521334,6.538437714259317,-0.6096058647222217,1.5e-07,0.0,194,36,453.50005168864374,1785.6742719999993,mp-27918,Sc3Si4Ni11,https://materialsproject.org/materials/mp-27918,46.84499188189082,52.861561650794116,72.06094825086308,-12.643148905162304
-6.711888496666668,-20.13566549,9.219710863280763,-0.6274180788888893,0.0026225000000000003,0.0,139,3,46.955285032358454,260.707,mp-1018121,TiPd2,https://materialsproject.org/materials/mp-1018121,65.29298619458305,35.570411790877046,75.57618545420078,7.050648979988273
-7.650222724705883,-130.05378632,12.613075313608718,-0.21373669529411726,17.314138399999997,0.0,229,17,263.45067758259086,2001.11118,mp-20246,Mn4Ge6Ir7,https://materialsproject.org/materials/mp-20246,45.300971513195364,41.31211648362497,61.84299085236918,-10.720476492235873
-7.20736807,-43.24420842,8.169143711873415,-0.24119631222222185,1.98785705,0.0,140,6,52.31241784857868,257.35478,mp-493,Co2B,https://materialsproject.org/materials/mp-493,36.915657479727614,55.61070452270312,79.87440031563675,-8.103166523896263
-7.179852788333334,-86.15823346,5.990296292120337,-0.6097904058333334,3.85e-06,0.0,194,12,163.438251596919,589.5938179999998,mp-27319,Sc2Co3Si,https://materialsproject.org/materials/mp-27319,63.52277752257529,49.86678956190254,79.87394159706656,-3.899528466989317
-7.78901015125,-62.31208121,8.629220300061059,0.11226334875,5.4098748,0.0,194,8,110.29212894665883,573.14827,mp-1185930,Mn3Sb,https://materialsproject.org/materials/mp-1185930,54.926712464872274,52.8784732362373,81.84397306196568,5.556164453050572
-8.30116311681818,-182.62558857,8.205559801472717,-0.0907827566477279,34.455917,0.0,166,22,267.1079860562504,1319.9151,mp-1191671,Er2Fe17C3,https://materialsproject.org/materials/mp-1191671,76.29429165455814,33.93201917814725,88.9137731658137,-24.75852029455936
-5.269517231666667,-31.61710339,7.718585637266124,-0.3632632466666663,0.5344774999999999,0.0,65,6,88.5445352689808,411.57633860000004,mp-1226666,CeAl(CuNi)2,https://materialsproject.org/materials/mp-1226666,74.38939155143376,21.45587979761971,89.26489560392699,-13.378207013214496
-7.899496515,-63.19597212,5.958479029126292,-0.6149747110714285,1.370885175,0.0,62,8,95.7693457159747,343.6472280000001,mp-2662,MnP,https://materialsproject.org/materials/mp-2662,17.270268195151314,37.554351826975406,68.07067520200287,-23.677154953701052
-6.8277562825,-27.31102513,8.616941993892732,-0.2252796349999997,4.1009485,0.0,225,4,46.736565521039246,242.52743500000003,mp-21171,MnGaCo2,https://materialsproject.org/materials/mp-21171,79.04080371309318,49.499658630001896,92.32521074745871,-5.3946960497628025
-6.669202567777778,-60.02282311,7.6276221906245025,-0.5698541784920627,1.6666666666666665e-07,0.0,189,9,97.0512256597102,445.801071,mp-1226037,CoNiP,https://materialsproject.org/materials/mp-1226037,42.903175297153844,54.600013182505435,76.58168927134426,-12.234870205774758
-9.733278848,-48.66639424,14.32375625389618,-0.4560188946666671,2.4e-06,0.0,71,5,51.96346734796285,448.23519500000003,mp-7573,Co(BW)2,https://materialsproject.org/materials/mp-7573,59.411983051544816,28.398197797823208,65.75312829020882,13.610000030157115
-5.742001391904763,-120.58202923,6.837908824506366,-0.4196142590476193,10.4469002,0.0,174,21,301.61805524144563,1242.0284689999999,mp-1191086,Nd2Mn3Cu9P7,https://materialsproject.org/materials/mp-1191086,64.87771948630632,9.584366836417091,60.679447020069844,-1.9748987793859647
-5.985841797692308,-77.81594337,4.236139381888694,-0.21668602615384625,2.4157264,0.0,139,13,200.99174262233169,512.7425588000001,mp-30177,Y(Al2Cr)4,https://materialsproject.org/materials/mp-30177,41.35556538275321,43.32255937254387,58.29371180089172,-16.263782845836634
-1.5593489441666666,-37.42437466,5.84606008782065,-0.2179843633333333,1e-07,0.0,62,24,471.13263338235083,1658.66,mp-1435,SrZn5,https://materialsproject.org/materials/mp-1435,31.02279955094947,21.701002500845608,57.96958280195241,-1.3121458183700772
-3.3439205508333334,-40.12704661,6.6118524576105475,-0.003933604166666882,0.0,0.0,33,12,204.8110152565688,815.5064,mp-1100815,ZnCuAs,https://materialsproject.org/materials/mp-1100815,51.640356479533864,51.10725082960763,66.91868717111659,-12.597144247239804
-6.628368855555554,-59.65531970000001,7.926304368485117,-0.7206651727777782,0.3717311333333333,0.0,189,9,144.0557203873133,687.6258,mp-1206921,TiAsPd,https://materialsproject.org/materials/mp-1206921,47.01612802707723,44.830521680324686,63.92225805578191,-8.902131309412646
-5.4134074175,-86.61451868,10.37710772461099,-0.3678405187500005,5e-08,0.0,82,16,252.3068866664199,1576.7264,mp-1105134,AsPd3,https://materialsproject.org/materials/mp-1105134,62.83679339819499,35.74736045207046,73.59815190513706,4.815973347775097
-9.067479329310343,-262.95690055,7.725717167291747,-0.15800576021551702,15.192140300000002,0.0,160,29,286.3041189727832,1332.040135,mp-1222106,Mn23(BC)3,https://materialsproject.org/materials/mp-1222106,39.629353733297975,54.41088697295928,79.15034583252219,-11.883663920279114
-4.3979770251724135,-127.54133373,9.049469148339618,-0.19396372827586206,5.550000000000001e-05,0.0,225,29,447.0980138063317,2436.558,mp-1194041,Dy6Cu23,https://materialsproject.org/materials/mp-1194041,71.2497952113352,28.784780503503214,62.554554834777186,11.695783549395705
-7.06304781,-28.25219124,8.515426556504227,-0.12311202999999883,3.0534079,0.0,216,4,46.69151957211554,239.43924,mp-999552,MnGaFeCo,https://materialsproject.org/materials/mp-999552,79.03903893805891,49.488811434788616,92.35478764820051,-5.417006747039854
-8.274400425833333,-99.29280511,7.356572653547668,-0.7249168675000005,8.75e-06,0.0,62,12,162.45206858296783,719.7003,mp-1095573,NbCoSi,https://materialsproject.org/materials/mp-1095573,62.60644199347532,28.571614775179125,72.19884038019825,1.0039429539909668
-8.597608380833334,-103.17130057,7.175612861248887,-0.5981793124999998,0.929039225,0.0,62,12,163.69029301320887,707.3475199999998,mp-1209887,NbFeSi,https://materialsproject.org/materials/mp-1209887,62.65760690281326,28.492365079719896,72.22853706041238,0.965412903955178
-8.919034362857143,-124.86648108,7.732060080048147,0.009343849642857349,8.864957,0.0,1,14,129.2766469227398,601.9580249999998,mp-1221847,Mn5Fe5C4,https://materialsproject.org/materials/mp-1221847,39.493496368361384,55.90923766730636,79.29601078554592,-13.990377056680416
-7.822837205,-46.93702323,7.173065869713894,-0.3745109033333343,2.05586325,0.0,164,6,64.7150545669749,279.551,mp-22787,Fe2Si,https://materialsproject.org/materials/mp-22787,42.022283377564015,60.091346104277534,91.69861541878143,-8.878465526705028
-10.300130546666667,-61.80078328,13.826255563902507,-0.19201335333333228,3e-07,0.0,42,6,90.87398309868463,756.65003,mp-1217987,Ta3Co2Mo,https://materialsproject.org/materials/mp-1217987,66.47872871670567,20.87012131611868,65.57019993369775,17.303669213742698
-6.780467962222222,-61.02421166,7.816091466682822,-0.5510729788888887,9.516666666666667e-05,0.0,189,9,140.14152066030164,659.640585,mp-1079246,ZrGaCo,https://materialsproject.org/materials/mp-1079246,62.812729812946536,36.00721074185224,72.30863100054188,4.044289407115199
-8.324681928636364,-183.14300243,8.143690870165152,-0.2844351489609096,37.8072122,0.0,166,22,268.41746390847146,1316.3851,mp-1190690,Dy2Fe17N3,https://materialsproject.org/materials/mp-1190690,76.88411540285152,34.10820586739534,88.90363268573117,-25.07021877269907
-8.4290815025,-33.71632601,6.35231553408988,-0.5188457429166675,1.9998993999999999,0.0,225,4,48.57687354905053,185.82859,mp-865652,TiMn2Si,https://materialsproject.org/materials/mp-865652,82.46222722868096,43.790251298989794,89.3069403412607,-3.7812082127894535
-7.054804665,-56.43843732,13.69347505007123,-0.3115181174999995,0.0,0.0,62,8,128.47152002222904,1059.428,mp-208,GeIr,https://materialsproject.org/materials/mp-208,34.95465942904086,32.901989327101525,70.51893021817723,-9.503579539548332
-7.6741782516666674,-46.04506951,9.720283628362823,-0.7092684083333332,0.0010803,0.0,216,6,109.44270397180591,640.64385,mp-1226466,CeYRh4,https://materialsproject.org/materials/mp-1226466,80.90625354548548,12.457190723231076,62.00788350857769,27.359268568414073
-9.834196273,-98.34196273,10.932846701544475,-0.4467569836666669,3.5e-07,0.0,127,10,119.82230117079823,788.89976,mp-1079659,Ta(BMo)2,https://materialsproject.org/materials/mp-1079659,59.2161825049491,30.035458349130554,64.6050562313374,15.432574576666513
-9.230987729166666,-110.77185275,8.475324239440582,-0.16954177249999938,2.705e-05,0.0,194,12,223.2822123537357,1139.6234,mp-1102030,YTc2,https://materialsproject.org/materials/mp-1102030,80.80526964142994,12.657066156261143,60.22748662284611,26.47878791188732
-6.659041644375,-106.54466631,10.304007640853632,0.2608347537500002,0.0276237,0.0,139,16,216.32538900883182,1342.346315,mp-1210958,Mn7Pd9,https://materialsproject.org/materials/mp-1210958,54.64802351265501,62.51930017733854,86.44345724585558,7.739226745217603
-4.214826607777779,-37.93343947,8.208269790939399,-0.10140956875000028,0.0,0.0,65,9,106.07991223247112,524.3674,mp-31217,Cu8O,https://materialsproject.org/materials/mp-31217,51.89212859248713,53.6015584476426,82.41371984778331,0.4839074487267093
-8.66715977,-69.33727816,11.664275103870516,0.19753920943499992,2.0019598000000003,0.0,194,8,77.77289276439274,546.30719,mp-1246337,CoReN2,https://materialsproject.org/materials/mp-1246337,51.16636523435883,19.0959505992788,50.206172084679615,6.895184279325818
-5.468762859444443,-98.43773147,7.316287955587871,-0.5222227488888893,0.0,0.0,63,18,275.013933967949,1211.7036,mp-17396,SrNi5As3,https://materialsproject.org/materials/mp-17396,20.78367439431881,37.94955561160253,68.0412082593043,-22.35496566989129
-8.472343985,-67.77875188,7.987926540788363,-0.08285565375000026,1.195e-05,0.0,223,8,96.00361288116028,461.8198,mp-1213747,Cr3As,https://materialsproject.org/materials/mp-1213747,48.89802822285004,55.11835453628611,78.90194336658277,-6.570814501210452
-7.536583960555557,-135.65851129,7.691499055776174,0.1874032872755546,0.0293137,0.0,2,18,169.61813267517238,785.6591599999998,mp-1245575,Co4RuN4,https://materialsproject.org/materials/mp-1245575,26.707268860281445,53.59122411466704,61.04042464130477,6.757462547716863
-8.5828810375,-137.3260966,6.4439468358528265,-0.406338360625,2.25330645,0.0,38,16,219.58133103483613,852.1151199999999,mp-1220777,Nb2(CrSi)3,https://materialsproject.org/materials/mp-1220777,63.8567700113307,28.03683412494238,63.596481013451026,9.65143021956486
-6.164684677241381,-357.55171128,7.744775899441281,-0.3751786306896561,0.0001943,0.0,166,58,572.6975919062896,2671.069093,mp-1228559,Al5Ni41B12,https://materialsproject.org/materials/mp-1228559,39.16538843343075,53.4778904049285,79.34467883218838,-11.881436713195631
-9.232665003333333,-110.79198004,11.072822691153181,-0.17680370791666652,9.2377868,0.0,156,12,152.61804462056543,1017.68914,mp-1218037,Ta3Fe8Si,https://materialsproject.org/materials/mp-1218037,65.15844932350865,48.57604603176362,72.12586916711452,18.26295346481278