energy_per_atom,energy,density,formation_energy_per_atom,total_magnetization,band_gap,sgr,num_sites,cell_volume,weight,mp_id,formula,URL,tsne_cry_0,tsne_cry_1,tsne_xrd_0,tsne_xrd_1
-5.384948132142856,-150.7785477,4.525974947421501,-2.2852405906958126,2.5e-08,2.7439,14,28,721.5576894839357,1966.6818708,mp-768976,Cs3ScO3,https://materialsproject.org/materials/mp-768976,-5.414369968967388,-28.560507540916014,-6.4045233914045445,-30.745755052585803
-6.5575100955,-131.15020191,5.0938063431052685,-0.964792061499999,6.086168225,0.0,141,20,370.64197098010317,1136.9672,mp-1209711,SmV2O2,https://materialsproject.org/materials/mp-1209711,10.628407671976523,-18.787442035959455,-16.735990262781495,-12.764411901956118
-5.981374020714285,-167.47847258,5.898955218206866,-1.875457748571428,0.0,3.829,186,28,529.1955431392487,1879.9322,mp-556157,LiTl3(MoO4)2,https://materialsproject.org/materials/mp-556157,-32.98177718460732,-32.00217065408926,-19.57813761138441,-54.98558779250657
-8.607490914782607,-395.94458208,5.6485541773877666,-3.2710690638586954,4.8e-05,0.0,127,46,657.3786377948271,2236.1647399999997,mp-1228649,Ba2LaNb5O15,https://materialsproject.org/materials/mp-1228649,-28.784498395850843,-70.23140789958474,-3.8547582855814975,-55.31163530948288
-5.975066346666668,-250.95278656,4.859685361271418,-2.4428052816666663,0.0,2.8892,173,42,695.7772819241617,2036.2416000000005,mp-757722,BaZnGeO4,https://materialsproject.org/materials/mp-757722,-7.0348711637761125,-42.3485105146725,-9.92745916415726,-25.374588637994698
-5.473055855277778,-197.03001079,3.814807205000656,-1.551551225667778,0.0,3.9744000000000006,227,36,804.2675150535707,1847.6684,mp-569782,Sr2LiCBr3N2,https://materialsproject.org/materials/mp-569782,26.05236144111184,-41.2315317885317,21.51343313463029,-30.99040600152441
-6.835567386666668,-328.10723456,4.139667662024833,-2.333915279882813,0.000198925,2.0681000000000003,62,48,715.8784650138065,1784.6608,mp-1200210,BaV2SeO8,https://materialsproject.org/materials/mp-1200210,-29.399734915092374,-26.787952895530683,-31.10754421515384,9.273637533605452
-4.683238428666667,-140.49715286,6.439932821394113,-1.9930521631041669,0.0004677,1.5531,36,30,684.2446257913113,2653.65,mp-1194076,Yb2S3,https://materialsproject.org/materials/mp-1194076,7.63867567966616,-7.059632955952955,2.0851148600515845,-7.103049452649777
-3.4879855141666667,-41.85582617,4.956260224288162,-0.22500034857142856,0.0,1.0424000000000002,15,12,297.94842259011523,889.2955119999999,mp-29244,Cd2P3I,https://materialsproject.org/materials/mp-29244,19.435527301024038,-8.80286244095409,-8.431156003118172,-16.659862332586854
-4.902300693181818,-107.85061525,5.6755116967936265,-2.1731246357181817,3.99999925,1.2244000000000002,63,22,337.4683179335888,1153.423882,mp-24555,MnTl2H2OF5,https://materialsproject.org/materials/mp-24555,-34.01724530098275,-28.87988640395536,-12.426238206937034,-22.171058158081454
-5.3587511515625,-171.48003685,5.578665338865211,-1.3821828129296885,0.0,3.0952,14,32,529.9720352237738,1780.4679999999998,mp-662535,PbSe2O5,https://materialsproject.org/materials/mp-662535,-25.755765369756123,-46.55479339749608,-20.30765653729024,-43.424565741316655
-4.947263096,-24.73631548,4.3269389785953285,-0.5959777979519991,0.0202027,0.0,164,5,131.53458375444407,342.7454,mp-1245728,Ba2CaN2,https://materialsproject.org/materials/mp-1245728,2.918318322077912,-62.244999535893456,-25.19696818211034,-70.48058201772946
-3.5430694835,-70.86138967,3.3550115212829685,-1.9618951625689651,3.6000000000000003e-06,4.6282999999999985,62,20,723.1269791080473,1461.0312,mp-1209238,RbCaBr3,https://materialsproject.org/materials/mp-1209238,-1.6382106827529883,-27.07869889806427,-6.074133811555709,-25.424349599297248
-5.35845453625,-42.86763629,5.153834499517206,-1.4674381318749994,4.59e-05,0.0,65,8,126.28833921245922,391.9626,mp-3988,BaCu3O4,https://materialsproject.org/materials/mp-3988,11.124376260246462,-18.823687416049463,4.330861522355429,9.221867756190539
-7.636916717692308,-198.55983466,6.0291580198943615,-2.4263498923076927,12.9998735,0.0,8,26,352.94781060238665,1281.4984,mp-1213273,Eu2Cu(GeO4)2,https://materialsproject.org/materials/mp-1213273,-8.860978407832436,-47.62026921420463,-3.634144850748635,-51.109686482731114
-7.207907102678571,-403.64279775,4.241427717343096,-2.8188839755676787,0.0,4.1968,62,56,920.9534258944307,2352.343,mp-1204472,Y3Se2ClO8,https://materialsproject.org/materials/mp-1204472,-33.41437418259803,-58.57271991116941,-8.407903587901734,-50.144548528803796
-3.700355670625,-59.20569073,6.744627935845872,-0.3320321174218752,9.8025e-05,0.6494999999999997,11,16,476.7088800906099,1936.2532,mp-567318,TlSbSe2,https://materialsproject.org/materials/mp-567318,8.69930354739621,-24.79565191736159,6.634221346660098,-22.623212437242934
-7.38476272475,-295.39050899,3.84608532376204,-3.4270395050000007,0.0,4.6034,14,40,565.4297540680699,1309.6296,mp-561547,SrSiO3,https://materialsproject.org/materials/mp-561547,-21.196242157328868,-32.22277491332135,0.5596364615343742,-31.4701021316917
-6.311874002000001,-63.11874002,6.493389838250656,-2.1143099163750003,0.7137298000000001,0.0,129,10,219.52977277804973,858.4516,mp-610469,CeBiS2O,https://materialsproject.org/materials/mp-610469,4.531452912313162,-6.9078880949615264,0.84854326577481,-10.85603844939041
-5.10141219125,-40.81129753,5.7472237169152764,-0.6037092043749999,1e-07,0.0,63,8,151.98612410664518,526.0329544,mp-1025458,SmAl2Ni,https://materialsproject.org/materials/mp-1025458,39.43234248576388,-13.828738460446205,11.4562654898227,-17.503322093834733
-8.512997393414635,-349.03289313,4.500023678230876,-3.526324942215448,0.0,2.5281,1,41,550.4950944377408,1491.8294,mp-1228496,Ba4Ti11O26,https://materialsproject.org/materials/mp-1228496,-11.320236581210725,-20.541970549510552,-6.7383658698431566,0.4818223604584648
-8.51462953125,-136.2340725,6.281334056589764,-3.3439730952316804,0.0,2.1782000000000004,123,16,242.1278959371587,915.8990919,mp-10347,CsCa2Ta3O10,https://materialsproject.org/materials/mp-10347,-33.890722884760606,-70.87179959894743,-26.193189310080513,-31.465734207829357
-6.519939118289473,-495.51537299,6.490683801532701,-2.5099509357665792,0.0,2.801,2,76,1191.997573453572,4659.2577200000005,mp-557285,Ho11Te16ClO48,https://materialsproject.org/materials/mp-557285,-32.145033636555965,-58.093062478983704,-21.407660988407432,-57.212538047052576
-7.4867928971875,-479.15474542,3.5091714972685013,-3.054851631300544,0.0,3.0134,33,64,924.8426272832007,1954.444496,mp-6539,RbTiPO5,https://materialsproject.org/materials/mp-6539,-34.994855208385914,-22.237562333102566,-7.406336711019615,-28.74629706323234
-5.319261444285714,-148.93932044,3.0064816533333087,-1.3654777212893876,0.0,0.9613,68,28,515.4008911686209,933.156816,mp-1214602,BaP2(HO)2,https://materialsproject.org/materials/mp-1214602,-3.5410384972073286,-22.464683328703828,6.215357107329781,-25.975377081671887
-6.62067841125,-158.89628187,5.135508503485873,-2.8377153953125007,0.0,3.1853000000000007,35,24,330.8480248048133,1023.2056,mp-1227208,CaSmGa3O7,https://materialsproject.org/materials/mp-1227208,-7.555823357720609,-43.880535971789506,9.093582807900972,-36.02980336018638
-8.250811377,-165.01622754,7.674713652674424,-3.3220389552500014,1.99999995,1.5713,62,20,230.38427425534582,1064.7948,mp-19205,ErVO3,https://materialsproject.org/materials/mp-19205,9.300029998511912,-81.24059521550184,51.28330634339612,-53.14851254422437
-4.672670654,-93.45341308,4.989807687688841,-1.3337602722580002,0.00023490000000000002,1.1050999999999995,166,20,598.473514736911,1798.3725,mp-1228723,Ba10Br4N5Cl,https://materialsproject.org/materials/mp-1228723,0.07224607637213158,-27.26789926224333,3.739405903117442,-58.595679483715344
-8.248248475499999,-164.96496951,7.550760710587887,-3.317345935750001,2.00000005,1.5714000000000006,62,20,232.11778865203414,1055.4800799999996,mp-19024,HoVO3,https://materialsproject.org/materials/mp-19024,9.376022821185863,-81.3024179127667,51.22405078469101,-53.36806218677515
-1.56538295,-9.3922977,5.958320078509195,-0.0113793900000001,0.0004665,0.0,12,6,206.447033467959,740.77,mp-1187902,Yb2Mg,https://materialsproject.org/materials/mp-1187902,1.259744027207419,-34.0289914206789,1.0261160750862723,-49.448913668265725
-7.37869769875,-177.08874477,4.993557400099516,-3.3456439974244447,0.0,4.0854,11,24,394.15906596755883,1185.31144,mp-558195,Ba2HoB2ClO6,https://materialsproject.org/materials/mp-558195,-23.326051427493287,-26.304563745591317,-16.334972700331946,-28.270539598707035
-5.756350270833334,-69.07620325,6.147220991252212,-1.8184582234375009,8.148102799999998,0.0,123,12,189.8254745551489,702.7231,mvc-2967,Ba2TlFe2O7,https://materialsproject.org/materials/mvc-2967,6.9300819738697195,-63.73707977718136,8.625515468091969,-48.05525876788767
-6.277938310454545,-138.11464283,4.5147464874138885,-2.1155665683097733,4.9999998,3.5646,2,22,363.8807213337334,989.33489,mp-559195,SmMnSe2ClO6,https://materialsproject.org/materials/mp-559195,-36.28318052657988,-43.38546324544646,-21.923238107274127,-27.9588204314893
-6.554258408636364,-288.38736998,4.800461137264738,-1.8475273389043192,1.00000015,0.6263000000000001,2,44,705.8901545778699,2040.6616,mp-554419,GdCuSe2ClO6,https://materialsproject.org/materials/mp-554419,-36.44243687073855,-43.37302955205332,-21.76722298159014,-27.939538721342398
-7.120914702142858,-99.69280583,7.969995631259934,-0.2859389659523807,0.1141101,0.0,140,14,277.2179981771241,1330.5476,mp-570271,Ti4FeBi2,https://materialsproject.org/materials/mp-570271,39.53177069881147,-8.183047975753116,1.1284204180924633,-12.20926896755468
-6.735132951999999,-134.70265904,6.913937177949883,-2.6075105061874986,0.0,2.0963000000000003,14,20,455.98172695915633,1898.5576,mp-755362,Sm2Se2O,https://materialsproject.org/materials/mp-755362,29.02235354439545,-19.05528985200052,15.510744896628516,3.2278708510894414
-7.334933523333333,-44.00960114,3.9395892761362985,-1.5087287496822224,0.0,0.5597000000000001,59,6,119.51875657571104,283.5554,mp-27849,TiBrN,https://materialsproject.org/materials/mp-27849,11.445370710640864,-19.577472303517546,7.859678436001471,-20.62565726104853
-5.635851999375,-180.34726398,6.157205956295947,-1.4382667617187508,0.0,0.3355999999999999,19,32,459.19054276443313,1702.6584,mp-1200529,CuAsPbO5,https://materialsproject.org/materials/mp-1200529,-23.322407991894533,-43.49830131586441,-17.008497202746028,-37.29696267641134
-6.9155874710714285,-193.63644919,5.5335894626543425,-2.2525853977953574,0.0,1.5240999999999998,62,28,651.6946353406945,2171.7108000000007,mp-554001,Nd3S3N,https://materialsproject.org/materials/mp-554001,10.664583963144366,-5.9224209906750485,-8.275649168851976,-12.431240996935855
-7.641524263636364,-84.05676690000001,6.643453703786589,-2.9950286346164776,3.081487,0.0,38,11,215.2933424915472,861.3416,mp-552177,Ce4Se3O4,https://materialsproject.org/materials/mp-552177,23.61865602470355,-41.10763919922866,16.83602501983863,-21.890799998142448
-9.495742288928572,-265.88078409,6.587186331978196,-3.365422224642859,2.25e-07,0.7010000000000005,14,28,399.3157980857437,1584.0444,mp-554546,Eu2SiO4,https://materialsproject.org/materials/mp-554546,14.248162638515206,-64.91048230501512,16.042400552247667,-39.23402620576704
-3.3322194091666666,-39.98663291,4.779658568924996,0.04134361297103458,0.000322475,0.5598000000000001,62,12,295.0566921578391,849.2846076,mp-1247210,CsZnN,https://materialsproject.org/materials/mp-1247210,-5.489881733197807,-29.531159892243572,-4.227985696531444,-30.71584520381137
-7.30246509,-146.04930180000002,5.056239405249629,-3.100778024375,9.4475e-05,2.1692,62,20,470.2102578005037,1431.76136,mp-754794,La2S2O,https://materialsproject.org/materials/mp-754794,10.610984347009085,-5.951490428288934,-9.870092308895199,-20.502109000898532
-4.62699719653846,-120.30192711,6.305698865729923,-0.9983067175961532,0.00334465,0.0,59,26,363.2179064779499,1379.27666,mp-1181021,Ho(IO3)3,https://materialsproject.org/materials/mp-1181021,-29.22926472938753,-58.50945068005517,-11.089878263773286,-50.399475455609426
-6.004825375454545,-66.05307913,4.5131805003703915,-1.9660464503454549,5.45e-05,0.0,71,11,278.4900246148145,756.90828,mp-569637,La4C2Cl5,https://materialsproject.org/materials/mp-569637,8.565781980391048,-9.768163631002723,-10.152976954139133,-21.010857637495274
-5.61381804,-44.91054432,4.567056015714123,-0.480552855,1.255e-05,0.0,164,8,162.3567232253776,446.5370772,mp-9400,CeAlSi2,https://materialsproject.org/materials/mp-9400,23.951501686770158,-6.426117910568682,19.752232964337875,18.976884431076137
-6.9558928433333325,-62.60303559,5.591570543222884,-2.409789793263889,8.0000005,0.0,139,9,148.96973294581983,501.62914000000006,mp-1211279,La2Fe2S2O3,https://materialsproject.org/materials/mp-1211279,17.66118935435462,-39.983864128529895,17.539879049324032,-41.00442442364278
-8.502301494634146,-348.59436128,4.462993678547677,-3.51562904343496,0.0,2.7188,1,41,555.0626189831186,1491.8294,mp-760078,Ba4Ti11O26,https://materialsproject.org/materials/mp-760078,-11.31059460732358,-20.5384971267514,-6.681860186003107,0.5293360855030126
-5.5906680955555546,-100.63202572,4.135296343167035,-2.486478835823755,5e-08,3.8533,2,18,298.5752493724739,743.5520076,mp-504849,Cs2Li2SiO4,https://materialsproject.org/materials/mp-504849,-7.022942692459595,-34.058949194374115,-5.203390942204371,-29.382988332613074
-6.232990621597222,-897.55064951,5.329961075767397,-1.841792734513888,3.99999994375,0.5348000000000002,1,144,2102.899911480902,6749.84110848,mp-1076195,KNaMoWO5,https://materialsproject.org/materials/mp-1076195,-31.53242865951102,-74.68846434043999,-22.343964759335094,-24.301987601438718
-6.502128891333332,-195.06386674,5.934710083385197,-2.1996621560277787,0.0,2.6782,176,30,458.06154744678383,1637.0964,mp-17020,TiTl2(GeO3)3,https://materialsproject.org/materials/mp-17020,-32.01967740770439,-30.775095128742795,-8.688225121959375,-27.73243202520101
-6.24352075,-162.3315395,4.657877783430443,-1.9925171300000004,5.99999975,2.3174,2,26,344.61173955651367,966.6495800000001,mp-1193940,SrCo2(AsO4)2,https://materialsproject.org/materials/mp-1193940,-7.1607577806714096,-44.23131431220788,0.5499548711089468,-26.328807222728503
-7.296732707187499,-700.48633989,4.673539725425137,-2.763294054032737,0.0,2.7981,61,96,1468.9858484536435,4134.418736000001,mp-560794,BaNbTePO8,https://materialsproject.org/materials/mp-560794,-50.105087603775075,-42.033663286553036,-34.04178038610979,-15.838863566403456
-5.607210810232559,-241.11006484,6.652821292038665,-1.1928894424888377,4.0000001,0.04879999999999996,148,43,790.1341028582518,3165.6112,mp-868032,Pb13(N2O13)2,https://materialsproject.org/materials/mp-868032,-23.330814038895227,-55.66114264411613,-13.913052718620165,-56.26886487813856
-4.557076268461538,-118.48398298,4.899216119813031,-1.7256136336137824,0.00010955,2.0852,127,26,809.7060256429165,2388.938,mp-1193666,Ba4In2Te2S5,https://materialsproject.org/materials/mp-1193666,5.385053757018901,-10.421427869864065,-14.259547635965786,-25.81109605805907
-4.9769006075,-139.35321701,4.4669286844737215,-1.2321823082974142,0.99999995,0.15280000000000005,19,28,917.3770808563072,2467.7878076,mp-573969,CsCeSiSe4,https://materialsproject.org/materials/mp-573969,15.229318133974619,-23.19383060054461,-6.469401558309026,0.46453075803317
-8.1401068596875,-260.48341951,4.1695682609390765,-3.1202474910326856,0.00024700000000000004,2.701,62,32,487.83991205268563,1224.95272,mp-1219566,RbTiNbO5,https://materialsproject.org/materials/mp-1219566,-45.68424458634436,-50.503020442391026,-17.264081215908867,-21.22208466723448
-4.4703254942857145,-62.58455692,5.546750704883653,-1.3484927846577384,3.8e-06,1.4624,12,14,342.8673179597747,1145.29047,mp-553874,Ba2LaAg5S6,https://materialsproject.org/materials/mp-553874,21.01175135468872,-8.003850822954725,4.26098429762918,-21.206838403994286
-6.7453471115,-134.90694223,6.2533783104465375,-2.77125728675,0.0,2.559,1,20,367.414138157032,1383.6348,mp-697853,Ba3WO6,https://materialsproject.org/materials/mp-697853,-50.90989172438914,-51.90157882896033,-25.001490719986826,-59.226722599124535
-6.377543152083334,-153.06103565,5.077328802272742,0.4143037887499996,0.0,3.031200000000001,62,24,422.15161188159516,1290.7872,mp-1192077,BaC2,https://materialsproject.org/materials/mp-1192077,9.632183097481017,-59.422936688616026,-8.762416519627749,-30.108526448980307
-5.2166410025,-62.59969203,7.0955394175580455,-1.4299928978645835,0.0,1.5919999999999996,36,12,253.640868476215,1083.8159999999998,mp-1222325,LuCuPbS3,https://materialsproject.org/materials/mp-1222325,14.418364898224704,-19.170717638457987,6.228567710554625,-0.12612281599513336
-9.664091963333332,-57.98455178,8.962856726398805,-3.0600795229616664,4.99999985,0.0,129,6,109.47631087679312,590.9048,mp-27981,PuClO,https://materialsproject.org/materials/mp-27981,0.8501702501191019,-51.890419679907076,4.011447081526834,-38.401803668375756
-5.790469209583333,-138.97126103,5.243766561329885,-1.8563940259114584,2.0,0.3192000000000004,173,24,509.17319462981004,1607.9027999999996,mp-1192232,Sm3GaNiS7,https://materialsproject.org/materials/mp-1192232,12.364567667496068,-13.434036876469564,1.4673752595042877,-4.91815342946091
-9.376870897142854,-262.55238512,6.836474350061477,-0.5826637447619041,14.170146525,0.0,14,28,358.07928739274604,1474.22,mp-28366,Gd2B5,https://materialsproject.org/materials/mp-28366,8.510785738520623,-58.57416200062607,-1.4413292496703158,-33.250808851901155
-5.497724945882354,-186.92264816,4.123951255746803,-2.2881086524016223,0.9968094000000001,0.6342000000000003,136,34,690.5819024560009,1715.0612151999999,mp-628617,Cs4K2Cu(SiO4)2,https://materialsproject.org/materials/mp-628617,-7.216410037640434,-29.20751859534848,-9.12601903804564,-25.21812848762051
-6.929930352142858,-194.03804986,5.406380751395892,-2.5822975235714294,1.475e-05,1.9453,2,28,500.15451785032593,1628.4023999999995,mp-1194158,ErMoBrO4,https://materialsproject.org/materials/mp-1194158,-31.809660507655906,-34.11389020210221,-37.416252784926094,-24.61702907556129
-5.47203497,-27.36017485,6.8026006836044175,-0.7210627540000004,0.0,0.0,71,5,100.81798697265327,413.0131786,mp-10528,Ho2AlSi2,https://materialsproject.org/materials/mp-10528,30.427806009005664,-39.28564427461678,14.610907011955517,-18.536576825413764
-7.095768049130435,-326.40533026,4.419933129767762,-2.3471656269384056,2.00000005,0.0,6,46,910.4818302564099,2423.47136,mp-1223604,La4Ti5(S6O)2,https://materialsproject.org/materials/mp-1223604,9.783546482732367,-9.889538443975882,2.6880458580374915,-0.26737169513266223
-7.679680599583333,-184.31233439,7.105834266461335,-3.0362449665141673,7.9999994999999995,0.0,12,24,316.4349840010755,1354.0991800000004,mp-554136,BaTb2Mn2O7,https://materialsproject.org/materials/mp-554136,17.865021883100802,-74.76880335603904,42.06532031489787,-52.20189976656416
-7.998591994078947,-607.89299155,4.916339902386381,-2.186150081245789,0.0,3.0981,19,76,1158.4744759531268,3429.8828,mp-699390,Pr4Si4N7ClO3,https://materialsproject.org/materials/mp-699390,-23.54938418515052,-29.97326843083263,-17.876343618297863,-27.86042318770891
-6.5527468494444445,-235.89888658,4.798011697777456,-0.9395870682800004,0.000486175,0.7504,52,36,894.0440833356392,2583.278,mp-1245452,Ba3Y2N4,https://materialsproject.org/materials/mp-1245452,-3.0582350249628587,-24.850970574990157,-26.90089412398689,-51.382003097699595
-5.9572148325,-214.45973397,5.749174558095686,-2.2629016127233337,0.0,2.9145,2,36,618.7685007151878,2142.32128,mp-558875,HoTe2ClO5,https://materialsproject.org/materials/mp-558875,-14.176533187445711,-60.00130505774124,-8.806684897760551,-49.34834403771975
-8.2432478565,-164.86495713,7.797746047981891,-3.3323220197500008,1.999999675,1.5817999999999994,62,20,228.1762358586004,1071.49564,mp-755258,TmVO3,https://materialsproject.org/materials/mp-755258,9.1932304654829,-81.14107870309594,51.33142140850565,-52.809378873552035