energy_per_atom,energy,density,formation_energy_per_atom,total_magnetization,band_gap,sgr,num_sites,cell_volume,weight,mp_id,formula,URL,tsne_cry_0,tsne_cry_1,tsne_xrd_0,tsne_xrd_1
-8.74941032787234,-411.22228541,6.835643624388531,-3.135272238308509,1.0,0.036100000000000236,38,47,657.1079222378946,2704.99848,mp-1224166,K6Ta11O30,https://materialsproject.org/materials/mp-1224166,-33.85453232085954,-69.92626117309848,-25.90817707452535,-31.89153172450295
-5.16308191078125,-330.43724229,5.301934988293459,-1.5768652806249994,3.6875e-06,3.0118,133,64,1003.7420739817192,3204.848,mp-779698,ZnTe2O5,https://materialsproject.org/materials/mp-779698,-40.985187802931755,-45.55691007260325,-26.98862541295631,-24.449717065706796
-4.967600344210528,-94.38440654,7.236970859372665,-1.5101915003947377,2.0399999999999998e-05,0.0,1,19,267.28214683123645,1164.8706,mvc-2616,Ba2Tl2Zn2Cu3O10,https://materialsproject.org/materials/mvc-2616,9.41568711558187,-63.497464387953215,9.989027769321481,-45.44998523815711
-7.112002602916667,-170.68806247,5.258890611505326,-2.624704605100574,0.0,3.5531999999999995,49,24,392.6234166858417,1243.4297238,mp-1213172,CsTm(MoO4)2,https://materialsproject.org/materials/mp-1213172,-49.34263848071475,-51.88483670362338,-29.77482145566286,-55.003912236201046
-7.363643942916667,-176.72745463,7.0793181818161,-2.638006836350575,0.0,3.5343,15,24,360.98543201810514,1538.9766037999998,mp-1213319,CsPr(WO4)2,https://materialsproject.org/materials/mp-1213319,-47.56897445847747,-56.2483132205071,-21.174445789655827,-61.02595091135847
-5.3213664875,-42.5709319,4.388673752484284,-0.4757617462499999,2e-07,0.0,164,8,169.55495507928862,448.1203772,mp-571554,PrAlSi2,https://materialsproject.org/materials/mp-571554,23.90815255122067,-6.473698994958199,19.69651129949721,19.23081609478431
-8.18701627617647,-556.71710678,6.082015108376849,-1.5704775205247057,0.0,1.9651999999999996,64,68,988.1784306133408,3619.3766,mp-569576,La5(SiN3)3,https://materialsproject.org/materials/mp-569576,18.541722944536254,-48.13662417911549,15.023665363714967,-25.827602420165963
-5.3585578296000005,-267.92789148,6.8746228236941205,-1.5071254263312517,0.0,3.2058,2,50,905.5866667104821,3749.124,mp-1197501,Bi6Se3(BrO7)2,https://materialsproject.org/materials/mp-1197501,-23.68071086901192,-52.72889780561815,-12.78400321442672,-55.0516179556768
-6.418595126923076,-333.7669466,4.1400005780330815,-2.2707080545604392,0.001118175,2.5225,15,52,790.5957210265552,1971.086896,mvc-9630,ZnSn2(PO4)2,https://materialsproject.org/materials/mvc-9630,-23.516898156870926,-45.07045665710765,-18.545207692416575,-43.15343469601016
-8.369570196956522,-385.00022906,5.095839683334542,-3.1121101886712887,0.0,1.9456,127,46,661.0847584012616,2028.7279399999998,mp-1209583,Rb2LaNb5O15,https://materialsproject.org/materials/mp-1209583,-29.024301632806715,-70.2162751386884,-3.902622901739688,-55.51107406035901
-3.748820839,-37.48820839,8.285575430087402,-0.3706130164374997,0.0,0.0,55,10,269.79895284590344,1346.2132,mp-28954,Tl2PdSe2,https://materialsproject.org/materials/mp-28954,39.08848151526047,-43.996495622022465,6.294570658779594,-33.380295053052265
-7.7401305509375,-247.68417763,6.525579374949187,-0.19067656722656245,0.9230954,0.0,189,32,546.0188326309984,2145.742525,mp-1209974,Pr12(MnC3)5,https://materialsproject.org/materials/mp-1209974,20.771668228435683,-43.739814605434496,17.156715156083383,-27.428719163475733
-4.151676803125,-132.8536577,6.097442648964881,-0.7872029757812511,0.0,1.9,14,32,889.8411730054314,3267.4664,mp-653561,Tl2GePbS4,https://materialsproject.org/materials/mp-653561,-0.5197146719594348,-21.6863696404736,-13.945438791930735,-28.853539028589864
-6.890333540256409,-537.44601614,3.912735630710996,-2.9200817382783884,2.000000383333333,3.9939,14,78,1079.3412872077631,2543.2567440000007,mp-14884,Sr2Ni(PO4)2,https://materialsproject.org/materials/mp-14884,-24.13841175981816,-34.67312792718578,-15.819965406320724,-30.435352670774613
-7.2025660700000005,-100.83592498,6.723367331095103,-2.863551740000001,2.0000001,2.198900000000001,36,14,197.83214993770517,801.00388,mp-690517,La2NiO4,https://materialsproject.org/materials/mp-690517,18.997694627534656,-71.5077790257822,15.668391189885845,0.005070925410796495
-6.122195351578947,-116.32171168,4.357472322145152,-1.0162024109363152,2.6e-06,1.8245,2,19,294.05816169955347,771.6472,mp-555994,Sr6Li2Cr2N8O,https://materialsproject.org/materials/mp-555994,19.820672464331256,-46.803392273598725,15.544086762095109,-24.649117112303266
-8.6898997065,-173.79799413,7.147746244667474,-3.649132183083334,0.993898225,0.0,62,20,236.76814526744843,1019.1622,mp-768409,TbTiO3,https://materialsproject.org/materials/mp-768409,9.88555407666557,-81.58676844373595,51.05790508361022,-54.27844675054811
-8.82347495095238,-741.17189588,5.298203066165791,-1.1147948437409512,0.0003124916666666667,2.2735000000000003,205,84,1426.040189882296,4549.9987200000005,mp-1029502,Ba(NbN2)2,https://materialsproject.org/materials/mp-1029502,-7.440628275942407,-41.96567883319915,2.356285752348561,-26.831116889009266
-5.546048452261903,-465.86806999,4.168950216262447,-1.5788820092435707,5.999999825,2.6006,13,84,1139.7035213157887,2861.34028,mp-735600,SrCo2H2(SeO3)4,https://materialsproject.org/materials/mp-735600,-31.235713739706892,-29.392012115359996,-17.861930363089186,19.613226795198287
-7.148365644166668,-85.78038773,5.719249075834397,-0.5162469402083332,7.3551822,0.0,99,12,243.22438743706437,837.71644,mp-1223332,La3Y(MnSi)4,https://materialsproject.org/materials/mp-1223332,41.58905780578558,-6.030775132157704,25.2446339166778,15.718025434364018
-5.750335763214286,-322.01880274,5.485463411042365,-0.7692992842342861,0.004072,1.0088,60,56,1376.2125955212953,4546.212799999998,mp-1245936,Ba7ZrN6,https://materialsproject.org/materials/mp-1245936,-2.055075045958286,-30.723212062443853,-2.7317153164999946,-32.344066107182776
-4.632690405,-185.30761619999998,4.30457728585327,-1.80409642121638,0.0,2.0249,136,40,851.1505333729074,2206.4180152,mp-556400,Cs2K2TeO5,https://materialsproject.org/materials/mp-556400,-7.284446545078232,-28.999718909716226,-30.93868660973991,-6.726139765150527
-5.566318588888889,-200.38746919999997,6.117378401884673,-1.968216252812501,4.9075e-05,0.0,62,36,757.4770987894691,2790.524000000001,mp-1215834,YbSm2CuS5,https://materialsproject.org/materials/mp-1215834,12.50497616439768,-5.133965498233387,-2.72218867669689,-14.413650333239918
-5.972563691,-238.90254764,4.042084005517132,-0.6848873582857145,1.04375e-05,0.2508999999999997,33,40,860.7820035881499,2095.3154879999997,mp-1200190,PrSiP3,https://materialsproject.org/materials/mp-1200190,8.928961271375671,-17.112108743930655,3.0685590130512064,0.5046730843444126
-5.8433322,-23.3733288,7.308710625412698,-0.8279516674999998,3.6000000000000003e-06,0.0,63,4,86.60205046496823,381.171,mp-2620,DySi,https://materialsproject.org/materials/mp-2620,31.06549680066677,-41.20208898698109,13.69031116269922,-17.640318716794482
-9.039709888888888,-81.357389,6.625189950613722,-3.205536224861111,14.0,0.4447999999999994,123,9,111.06043417353183,443.10699999999997,mp-1184317,Gd2Mg2O5,https://materialsproject.org/materials/mp-1184317,35.39461211615321,-77.53947810011717,66.4506358940596,-36.69692445346855
-6.87388161625,-164.97315879,4.924848729425039,-3.0949299086744446,0.9999998999999999,0.0,11,24,405.12692080094894,1201.5308,mp-556696,Ba2YbB2ClO6,https://materialsproject.org/materials/mp-556696,-23.351734045424557,-26.31114678421313,-16.368647630836293,-28.279177665042443
-7.059537995,-169.42891188,6.288401134612895,-2.5682657846839065,0.0,2.9061000000000003,15,24,331.53084891822783,1255.4953038,mp-1213189,CsLu(MoO4)2,https://materialsproject.org/materials/mp-1213189,-47.915820367839935,-55.1711001870115,-20.751705992339975,-58.7212358730408
-6.976883235833332,-83.72259883,7.875075508630731,-2.038552234270833,4.6108304,0.0,47,12,197.8225576810836,938.1698,mvc-1363,Ba2W3O7,https://materialsproject.org/materials/mvc-1363,-31.804883927706506,-67.0687002779426,2.2444336178241784,-50.43140550401455
-8.356297292391305,-384.38967545,4.786705601873464,-3.2781202496920288,0.0,1.9831,7,46,639.9338295012645,1844.6870399999998,mp-1218661,Sr3TiNb4O15,https://materialsproject.org/materials/mp-1218661,-29.517759501298304,-70.06030316948629,-3.4675800501676113,-55.71097476343696
-4.8997599225,-39.19807938,7.12364063918603,-1.0796921167968754,1.0000001,0.0,140,8,234.23047409499875,1004.8386,mp-1078723,CeTlSe2,https://materialsproject.org/materials/mp-1078723,39.01962822035675,-43.971937900376794,12.815253469694845,-20.280374302065823
-5.449744237000001,-54.49744237,6.645458546836733,-1.4757008539687504,0.0,2.9091,11,10,166.9960718964245,668.3163999999998,mp-20716,PbSeO3,https://materialsproject.org/materials/mp-20716,-26.931745424580733,-46.07307728235524,-24.35634556385403,-40.07246306703394
-5.126309768421053,-97.39988559999999,5.414550509858265,-1.8268858926126328,2.9999862,0.0,217,19,272.22981557424345,887.6648192,mp-1232328,Cu3Sb4(OF)6,https://materialsproject.org/materials/mp-1232328,-51.577377824873885,-62.30262196652614,-25.04923645635758,-20.266348823803753
-3.830052265,-122.56167248,5.6154752070908485,-0.6292568401562502,0.0,1.7009000000000003,62,32,965.5819145065843,3265.3259999999996,mp-5704,Tl3AsS4,https://materialsproject.org/materials/mp-5704,-0.5918684129572742,-21.900718075143295,-13.960413560834649,-28.62481597677225
-4.618628155357143,-129.32158835,4.763808614485798,-1.1625591536545572,0.0,1.6613,19,28,936.611554402501,2686.9818075999997,mp-1192812,CsSmGeSe4,https://materialsproject.org/materials/mp-1192812,15.29031899744019,-23.054487997261205,-17.146987907748812,-28.507355652094645
-8.476253011555555,-381.43138552,4.930318148421028,-3.2134709040555554,0.0,2.173,1,45,655.6044547814367,1946.5598,mp-1228768,Ba2Sr3Nb10O30,https://materialsproject.org/materials/mp-1228768,-28.892315304045663,-70.65111049481305,-4.441394113351001,-55.94075315991088
-4.730386666666667,-56.76464,4.5374460802960055,-1.4091403563990663,4.0007553,0.0,63,12,337.4721274672108,922.1472938,mp-561685,CsYbCoS3,https://materialsproject.org/materials/mp-561685,-2.390029534193253,-12.166025655915046,-16.80422200685296,-27.014813700717248
-6.681879004,-100.22818506,6.4278500461405645,-0.9537328622019998,2.0449243999999998,0.0,148,15,336.9881682727567,1304.4616,mp-1104257,Ba6Os2N6O,https://materialsproject.org/materials/mp-1104257,-2.020273852757334,-31.534240543172398,-4.389225505985129,-34.51884972033954
-8.613772976388889,-310.09582715,5.907037999514907,-3.174457924201389,0.0,0.0,189,36,556.0384707686508,1977.99648,mp-559929,Ba3Ta6Si4O23,https://materialsproject.org/materials/mp-559929,-34.023712288482535,-69.58379047389565,-25.266280059650327,-32.68909354481629
-7.972209262000001,-239.16627786,4.993109351386374,-3.70142120475,0.0,4.1704,2,30,426.7858530198978,1283.3112515999999,mp-771703,LaAlO3,https://materialsproject.org/materials/mp-771703,-21.87607573957846,-36.006972853547815,-18.089809614104357,-32.300189805038464
-7.6956463484375,-246.26068315,6.181235645940772,-3.285019685156251,0.0,3.8801,14,32,474.0143775912332,1764.484,mp-1205383,Nd2GeO5,https://materialsproject.org/materials/mp-1205383,-12.659441626545055,-59.63802772125682,-18.95385202919784,-57.691253774952024
-3.2649781085714285,-182.83877408,4.6261811466557266,-0.4364229106958127,0.0,0.8099999999999996,2,56,2190.256547755241,6101.9484056,mp-582185,Cs12Nb(In2As3)3,https://materialsproject.org/materials/mp-582185,-3.213526860006833,-25.532548173637014,-7.5311564337659,-31.06680217491683
-3.0761703060000003,-76.90425765,5.478186541336997,-0.2033981851448283,4e-06,0.0,87,25,971.7721781549848,3205.9163557,mp-1191593,Cs3Te22,https://materialsproject.org/materials/mp-1191593,18.784168348420483,-9.356099436688922,-5.0982181903870805,-7.796128727980741
-7.647777400333334,-229.43332201,5.304963253806841,-3.2663207735833337,7.5e-07,3.2346,194,30,519.2363814750456,1658.81672,mp-540794,Ba3SrNb2O9,https://materialsproject.org/materials/mp-540794,-15.253667925940519,-80.04177369836663,-19.60430491784452,-55.77613704061232
-10.569902505,-295.95727014,7.081923555498173,-1.9025887804516068,21.0004495,0.9187,62,28,677.7630075688422,2890.5468,mp-1193201,Gd3Se3N,https://materialsproject.org/materials/mp-1193201,29.30937830212761,-18.962561551587715,15.880660988177569,2.0694434159098374
-6.2087948509375,-198.68143523,4.230464461804627,-2.5096458484878568,1.000000025,0.4507000000000001,19,32,520.1624629323444,1325.189448,mp-556604,BaCuPClO4,https://materialsproject.org/materials/mp-556604,-28.278291834005014,-27.018722851321073,-30.680781098735324,9.225555659364073
-6.9632967400000005,-250.67868264,7.967623678246539,-3.6777736666206255,0.0,2.8809,176,36,578.7362502436978,2776.9010784,mp-1195358,Ho2SeOF2,https://materialsproject.org/materials/mp-1195358,11.673098788558535,-64.64211527564059,6.917984239102948,-36.66070999055708
-6.400848087272728,-281.63731584,3.5943730431508576,-2.2684320923863646,1.00000085,0.5998000000000001,176,44,599.7891298063657,1298.2928000000004,mp-1214218,Ca5As3O14,https://materialsproject.org/materials/mp-1214218,-48.29046161454718,-5.551147071283849,-8.124521942355845,-27.908899898257605
-6.810954987142857,-95.35336982,8.308188288866159,-1.707062420714286,6.00000005,0.24219999999999955,74,14,182.27244798373192,911.9652,mvc-6926,Mg(WO2)2,https://materialsproject.org/materials/mvc-6926,-8.575540465598543,-52.20412407983556,-3.2784327139131366,-38.25623034559896
-6.143772464423076,-319.47616815,6.0175439876000665,-1.9912866783653849,13.9999999,0.34739999999999993,33,52,726.4049285843437,2632.3823199999997,mp-22743,BaYbCo4O7,https://materialsproject.org/materials/mp-22743,-3.07750172512307,-44.10471838051485,7.811557627564497,-38.189916257705896
-4.433377983214286,-124.13458353,5.054746958453677,-1.8053659281958123,0.0,2.8922000000000003,14,28,678.6212880767953,2065.7502228000008,mp-770463,Cs3GaO3,https://materialsproject.org/materials/mp-770463,-5.457528368862602,-29.18335159539107,-3.837914774415859,-32.38741274375053
-8.38636749652174,-385.77290484,5.343388732807751,-3.2768156320833346,1.5e-07,2.3377,7,46,665.9476801718497,2142.92904,mp-1228388,Ba3TiNb4O15,https://materialsproject.org/materials/mp-1228388,-28.35150139921206,-70.24522501226731,-3.9507272966983455,-55.197904433156424
-8.564353121086956,-393.96024357,5.635275471233045,-2.7511931465036232,7.0000004,1.9516,127,46,635.0164309612959,2155.0186,mp-1212605,GdNb5Ag2O15,https://materialsproject.org/materials/mp-1212605,-30.115936049871863,-68.28020528611343,-3.6808419254743368,-55.36809249005296
-6.200631752272727,-136.41389855,4.843711756206936,-2.4513584299406816,0.0,3.0309000000000004,186,22,534.9360893154695,1560.3826,mp-558143,Pr4S3NCl3,https://materialsproject.org/materials/mp-558143,8.9663944232701,-9.858787737209669,-9.016742118455193,-11.241881772517123
-2.4545988606944444,-176.73111797,5.408854200685928,-0.3395206567261905,0.0,1.379,61,72,2191.528369618422,7138.439472,mp-568545,Cd4P2I3,https://materialsproject.org/materials/mp-568545,18.948847347666817,-8.823833671132189,5.6439018154539635,4.763019439426676
-5.137315964090909,-113.02095121,6.708264660675894,-1.3989758686647735,0.0,1.5457999999999998,63,22,440.5474396722415,1779.7286,mp-1192137,Er2TlCu3S5,https://materialsproject.org/materials/mp-1192137,14.633251428744847,-17.060114449410932,5.3737806581568615,-24.000273613213764
-6.2955013203,-629.55013203,4.281210837102092,-2.209548025675,0.0006716000000000001,2.7108,14,100,1684.4187360131962,4342.7775999999985,mp-1200758,Ba3V2(SeO4)4,https://materialsproject.org/materials/mp-1200758,-30.053107694109578,-26.58457530269573,-21.256273424231892,-12.485607739187438
-8.046874410769231,-104.60936734,6.635145071226001,-3.3548677362276917,3.0000005,1.3720999999999997,65,13,184.83388156394497,738.555125,mp-756496,La4MnO8,https://materialsproject.org/materials/mp-756496,16.155805917403548,-69.55252213081846,38.92270026155494,-41.764462143050146
-7.354781413650794,-926.70245812,7.096553011195195,-2.3106196489087307,0.0,2.1844,4,126,2084.3290680593745,8907.680799999998,mp-707290,Nb10Pb14O39,https://materialsproject.org/materials/mp-707290,-22.766314683990053,-56.364349681231175,-13.231932577045985,-56.001202225394856
-8.236818286818181,-181.21000231,7.663865991121563,-0.2773879161363624,2.21301975,0.0,176,22,285.4497195340021,1317.43268,mp-28827,Tb3(MnC3)2,https://materialsproject.org/materials/mp-28827,30.4914001223949,-52.24740629553257,19.3099704530145,-28.950663582589694
-6.2359019605,-498.87215684,4.078663811620974,-0.5494418894519996,1.49938564375,0.0197999999999996,11,80,1681.8722758956524,4131.063120000001,mp-1246137,Sr2MnN2,https://materialsproject.org/materials/mp-1246137,18.04415363852316,-44.59727084627221,-1.1790991906057346,-28.24563613396966
-5.1720918494444446,-93.09765329,3.760625272941748,-2.130156603965517,0.0,3.3651,2,18,283.8830622405788,642.9104,mp-8450,Rb2Li2GeO4,https://materialsproject.org/materials/mp-8450,-6.722791262761785,-34.35731391043255,0.6523629315114785,-28.98598821989186
-5.597694645681819,-246.29856441,6.345561084421071,-1.9706003987878788,1.9819873,0.2336999999999998,140,44,656.2455151949771,2507.7676,mp-679985,Ba3In4(CuO4)3,https://materialsproject.org/materials/mp-679985,18.50759026182028,-49.71494348925506,9.856635711905023,-20.49596910631547
-4.224589795135135,-156.30982242,5.850928364224275,-0.9143140059093467,1e-07,1.1906,12,37,869.7985009118332,3064.745,mp-1203419,In10(Pb2S7)3,https://materialsproject.org/materials/mp-1203419,7.903126598097282,-5.225549138286199,-17.640571393529758,-34.61838770745636
-4.958339225357143,-138.83349831,5.432795191771714,-1.255965611309524,1.45e-06,0.0,214,28,823.1130709216429,2692.9838,mp-1209395,Pr3BBr3,https://materialsproject.org/materials/mp-1209395,27.04588926915389,-7.07103805715867,16.96469364626784,20.520618738582435
-7.06100641,-141.22012819999998,4.9718294726237895,-2.3198968788749994,2.999999775,1.0976,62,20,362.08603630692045,1084.12388,mp-18885,LaCrS2O,https://materialsproject.org/materials/mp-18885,-0.22938069915985115,-49.84146928187192,-2.096141052835122,-29.64383171752481
-8.043980379615384,-209.14348987,6.62410011734433,-3.3519737050738456,3.00000075,1.2910000000000004,141,26,370.2841432131784,1477.11025,mp-769598,La4MnO8,https://materialsproject.org/materials/mp-769598,16.167640651091187,-69.5537079243315,38.889079393923936,-41.7626399926432
-7.748206426818182,-681.84216556,5.960791429036858,-2.829306935909092,9.0000005,1.3266,33,88,1190.7081570476143,4274.2524,mp-1220991,Nd3Si(Mo2O7)2,https://materialsproject.org/materials/mp-1220991,1.4606061636762475,-54.71926514677228,-6.091667493839381,0.8831511053848873
-7.003414471190478,-294.14340779,3.928270852530352,-3.07090418110762,0.0,3.9452,176,42,691.8748138006669,1636.7406,mp-556224,Sr5V3ClO12,https://materialsproject.org/materials/mp-556224,-22.594325474063925,-33.08505209877568,-7.022689509729342,-26.3871225786102
-6.647354149615384,-691.32483156,5.07960668653674,-3.2027782004807697,3.75e-08,3.5745,64,104,1870.5835264883872,5722.135017600001,mp-560978,Ba4Al2O7,https://materialsproject.org/materials/mp-560978,-9.822018631139356,-31.90340607096573,-0.4226189964153884,-31.55667959560507
-4.832958427,-96.65916854,4.5897304036371365,-2.0383362269827585,0.0,2.8121,14,20,444.02583584741785,1227.2875432,mp-755292,Cs2BeO2,https://materialsproject.org/materials/mp-755292,-6.696862803730652,-32.098578089800576,-5.279776304841243,-29.365565288572093
-6.5661331558928575,-735.40691346,4.44418418157045,-2.239859418035716,10.00000084375,1.9016,62,112,1871.2922494812015,5008.2336,mp-558611,Ba(FeO2)2,https://materialsproject.org/materials/mp-558611,-5.814593730518481,-42.13885746204213,-9.442686088094696,-25.102068986216736
-7.678337824642857,-859.97383636,6.4300470923296285,-0.35597422252976074,0.8629242125,0.0,33,112,1660.7902902856933,6431.02,mp-680054,Ce5B4C5,https://materialsproject.org/materials/mp-680054,10.18708819204881,-59.76264307696891,-1.1210510505077145,-32.812348918104945