energy_per_atom,energy,density,formation_energy_per_atom,total_magnetization,band_gap,sgr,num_sites,cell_volume,weight,mp_id,formula,URL,tsne_cry_0,tsne_cry_1,tsne_xrd_0,tsne_xrd_1
-5.956513661071428,-166.78238251,8.570263818610673,-0.37769515660714204,0.6242741,0.0,42,28,370.01858338019633,1909.71534,mp-1224721,LaFe(Ni2Ge)4,https://materialsproject.org/materials/mp-1224721,22.283877076684934,37.94618910767279,65.36599679129921,-22.121839629008008
-6.856328352727274,-75.41961188,15.178980654872355,-0.880594533831169,0.7759511,0.0,38,11,204.77831631672015,1871.877762,mp-1102498,Ce2PPt8,https://materialsproject.org/materials/mp-1102498,64.24958145708304,14.76522108328005,56.26014449553031,-7.373969347827374
-7.274592161428571,-152.76643539,6.8467710866796745,-0.8053747030952374,4.9102837,0.0,174,21,245.9063567781657,1013.926498,mp-1191428,Sc2Co12P7,https://materialsproject.org/materials/mp-1191428,43.851756241368655,52.61596591557538,75.17418771446894,-11.084157028231669
-6.251498715694443,-450.10790753,9.074167075333722,-0.3737981673611104,7.3086001125,0.0,6,72,1103.0667191946443,6027.808720000001,mp-1222766,Mn2Ge3Pd4,https://materialsproject.org/materials/mp-1222766,66.85035527492423,35.11557925405569,70.24389847022813,2.9561438801236712
-8.034399166842105,-152.65358417,7.7463489618249035,0.0365121981578945,39.969264100000004,0.0,166,19,265.350373479782,1237.849,mp-1510,Nd2Fe17,https://materialsproject.org/materials/mp-1510,74.86939596677739,37.00863614863585,86.8763979312306,-23.06573533684589
-6.957886268275861,-201.77870178,9.064730181184824,0.0679460479310337,52.566965100000004,0.0,225,29,425.4834327818765,2322.675,mp-669649,Yb6Fe23,https://materialsproject.org/materials/mp-669649,71.54162712778869,28.330127320598844,62.66917651203741,12.42554607888821
-8.3343268675,-33.33730747,7.112627885314981,-0.4782808062499999,0.8223815000000001,0.0,225,4,44.52545939392348,190.717,mp-4595,VFe2Si,https://materialsproject.org/materials/mp-4595,42.43808684622047,60.09382192167425,91.61263682126814,-8.633093504067581
-7.275967375,-43.65580425,6.808793914639986,-0.044447119999999764,2.70910835,0.0,194,6,69.24125233230635,283.91348,mp-10365,MnCoSi,https://materialsproject.org/materials/mp-10365,46.16553543261932,57.57926036639634,71.99634378267581,-18.083711769807856
-8.498623640714285,-237.96146194,9.326841607871788,-0.04901332624999912,0.0,0.0,227,28,338.9222899827332,1903.6436,mp-569179,Ni3Mo3C,https://materialsproject.org/materials/mp-569179,63.428216071464604,42.59765213092179,74.57248304963062,1.8204642625543432
-6.972501272000001,-34.86250636,8.2278014074372,-0.02712489472399966,6.216476,0.0,221,5,57.42440723503985,284.532075,mp-1210555,Mn3SnH,https://materialsproject.org/materials/mp-1210555,51.407751019479,61.74919269141652,84.40642495803544,9.682154658171491
-6.131304321111112,-55.18173889,7.385247022148984,-0.4758685518253974,3.333333333333333e-07,0.0,189,9,100.07458293209028,445.08168600000005,mp-21167,Ni2P,https://materialsproject.org/materials/mp-21167,43.1793496841543,54.37626900414168,76.42283753710879,-11.810278107482256
-6.656772109230769,-86.53803742,7.828091979335432,-0.07200713999999883,13.201922,0.0,191,13,219.57937051207023,1035.13827,mp-1215332,ZrMn6(GaSn2)2,https://materialsproject.org/materials/mp-1215332,67.57606187307383,15.594670310540753,59.092943946984995,18.307933264642415
-6.1506391972413805,-178.36853672,8.187296770908485,-0.4734680248275862,0.0002672,0.0,225,29,480.7624752873485,2370.402,mp-1193884,Zr6Ga16Ru7,https://materialsproject.org/materials/mp-1193884,69.28545131932657,18.601033828584217,66.01083702324658,6.662348403745159
-8.497476343125,-135.95962149,7.989592081711299,0.15376520468750066,5.598162925,0.0,121,16,149.265515067582,718.1828,mp-1205436,Fe3C,https://materialsproject.org/materials/mp-1205436,39.61950103192114,54.41032227504099,76.8171293057193,-12.375516931183936
-5.145892063571429,-144.08497778,8.153037713983789,-0.5286464835714284,0.00148915,0.0,63,28,493.9158365372416,2425.0646,mp-1210301,Pr2(Ga3Ru)3,https://materialsproject.org/materials/mp-1210301,69.62761788394438,15.687370381852668,64.93042018129687,4.902100426872846
-7.920432246,-39.60216123,7.147327243163258,-0.067504117,8.9041806,0.0,69,5,58.422997262724024,251.4655,mp-1225135,Fe4Si,https://materialsproject.org/materials/mp-1225135,78.23386844264763,49.66619099165514,83.45144352650983,-0.1091517976792836
-9.94321066,-39.77284264,8.957133402217965,-0.5358030361899999,6.7e-06,0.0,194,4,40.76545016600061,219.8934,mp-1065394,MoN,https://materialsproject.org/materials/mp-1065394,31.933743034204163,48.23095043639048,68.0506839165417,9.777264153368236
-5.6963662416666665,-34.17819745,8.852296469769938,-0.35990207333333285,1.0669191999999998,0.0,191,6,89.13392032624823,475.170935,mp-568687,TbGa2Co3,https://materialsproject.org/materials/mp-568687,77.11456380455627,16.313323136349524,86.24968512181368,-11.87503315208251
-4.158723680714286,-58.22213153,6.105922994392994,-0.2861720300223217,3e-07,0.0,1,14,199.13638727955117,732.2389999999999,mp-685108,Cu9S5,https://materialsproject.org/materials/mp-685108,16.182796670199327,25.526302326473594,70.10333690587134,-21.320355528308333
-8.804272664444445,-79.23845398,11.437611422563426,-0.25845512944444393,1.9867289666666668,0.0,189,9,134.37753506049515,925.5777750000003,mp-1079643,TaMnGe,https://materialsproject.org/materials/mp-1079643,59.6863185894731,23.057637596865163,57.53772777803668,11.482402277058807
-5.700020917142857,-79.80029284,8.748630654294761,-0.4048574828571429,0.3601114,0.003500000000000725,140,14,232.43957495625855,1224.6192,mp-510125,Ce(Ni2Sn)2,https://materialsproject.org/materials/mp-510125,34.22209595050133,30.706060038094392,68.92121411041128,-9.748106216437517
-6.2593550815384615,-81.37161606,5.870097090008103,-0.5215367776923068,1e-07,0.0,139,13,196.98957155479752,696.3689999999999,mp-27961,Zr3(Cu2Si3)2,https://materialsproject.org/materials/mp-27961,56.68332723572651,32.047211187542345,62.95398950529806,-1.7107905610078904
-4.83368657,-29.00211942,8.286157453306402,-0.7712063395833333,1e-07,0.0,191,6,112.40679178311373,560.91447,mp-21201,LaGa3Pd2,https://materialsproject.org/materials/mp-21201,72.52651210781676,15.6785505011131,65.1924225204617,2.548535439980144
-8.375070115,-100.50084138,9.040612920535636,-0.29507239750000025,2.4e-06,0.0,194,12,145.75204560630237,793.53017,mp-1226069,Co3SiMo2,https://materialsproject.org/materials/mp-1226069,64.60328461427363,46.65817535918354,78.12826473336438,-2.0513720595602183
-3.3978108671794867,-132.51462382,7.795992375007392,-0.1538603948717944,2e-07,0.0,139,39,629.4173313801252,2955.0240000000003,mp-1200769,Yb(Ga2Cu)4,https://materialsproject.org/materials/mp-1200769,70.43646397750791,17.80286302806192,66.73199903330439,4.3057723447927385
-4.621964916666667,-27.7317895,8.146512571476416,-0.3195071966666673,0.0016265000000000001,0.0,191,6,91.11684589223455,447.0142,mp-1226538,CeZn2Ni3,https://materialsproject.org/materials/mp-1226538,77.04907170837805,16.34685952920168,85.7742826065327,-12.013205238618786
-7.367271348823528,-250.48722586,7.740157471670684,-0.4487290829411772,9.000000000000001e-07,0.0,64,34,525.827522772307,2451.004,mp-636525,Zr7Ni10,https://materialsproject.org/materials/mp-636525,66.45916292969343,33.58797474783239,72.07199544889632,1.852567803554692
-7.62141299,-91.45695588,5.728228059727659,-0.8106000372222214,0.0,0.0,62,12,156.40645599273276,539.54278,mp-21306,TiCoSi,https://materialsproject.org/materials/mp-21306,49.18334050623489,46.975865672474264,73.90577851682403,-10.10081993246018
-5.818494895,-23.27397958,10.706493959263726,-0.35333533000000017,0.44846270000000005,0.0,221,4,54.44616909145253,351.0472,mp-1185497,LuNi3,https://materialsproject.org/materials/mp-1185497,53.36986059452302,59.0708325003774,87.53415799849968,2.6745054639764088
-7.238684483750001,-289.54737935,5.4768994812656535,-0.6945998102500001,0.000177025,0.0,128,40,589.1267688837409,1943.0968,mp-1197725,Y2Fe3Si5,https://materialsproject.org/materials/mp-1197725,64.92360743761438,9.48376538823841,60.94469941592268,-1.1154805201172688
-10.21892501,-61.31355006,8.470043762560229,-0.1281889833333333,0.0,0.0,227,6,111.00420672161007,566.2080000000001,mp-2049,ZrMo2,https://materialsproject.org/materials/mp-2049,80.9778753410333,12.517151309789064,61.75447699754801,27.086063411177392
-6.8046163325,-108.87386132,10.430393924953735,-0.4792503056249995,1.7e-06,0.0,55,16,233.21413884294785,1464.895,mp-624221,Ge3Rh5,https://materialsproject.org/materials/mp-624221,61.748406138945256,37.42580001424507,73.82538595872391,5.028825681894606
-7.317935151666667,-87.81522182,6.403056462092213,-0.3711759833333339,1.9920476000000003,0.0,62,12,143.9570659045557,555.0999999999998,mp-1103085,CrSiNi,https://materialsproject.org/materials/mp-1103085,44.318836148963186,52.88813457132333,74.95728439759014,-10.42445020161184
-6.299056616666667,-37.79433970000001,15.180950619462815,-0.813473755555556,0.6155501,0.0,216,6,113.2410146790683,1035.27,mp-1071478,CeInPt4,https://materialsproject.org/materials/mp-1071478,82.45564619671309,11.997816671565964,61.73355567249386,25.94492854590237
-3.072951902,-15.36475951,5.255411177934703,-0.31426373100000016,2e-07,0.0,139,5,99.90133478335486,316.1760000000001,mp-13911,Ca(ZnGe)2,https://materialsproject.org/materials/mp-13911,31.903821805829292,18.834601651430305,54.707021845967006,-12.86536930281718
-5.523289541666667,-33.13973725,9.154237949419278,-0.4141707350000008,4.5e-07,0.07730000000000015,70,6,87.25711740319706,481.032,mp-1072429,Ga2Ru,https://materialsproject.org/materials/mp-1072429,54.436160093824576,54.43238147632844,80.45086532483637,-1.024336481769391
-7.848241310833332,-94.17889573,12.087662238758874,-0.42942136916666607,0.0,0.0,62,12,171.59819546857716,1249.12512,mp-22636,TaNiGe,https://materialsproject.org/materials/mp-22636,59.478771625104905,23.291215005768805,58.10434267678149,10.784715903423992
-7.795093706666666,-46.77056224,9.009606961369778,-0.7413403766666656,0.0,0.0,227,6,108.6371108682458,589.4337,mp-921,YRh2,https://materialsproject.org/materials/mp-921,80.95076886699988,12.841442072064885,61.83750690041085,27.27069604034299
-7.128842833333334,-64.15958549999999,4.640042508377839,-0.4855629433333341,0.11274013333333333,0.0,181,9,114.99753780327856,321.3375,mp-11190,VSi2,https://materialsproject.org/materials/mp-11190,47.88343519677579,50.34702291876477,76.87828813784648,-6.7105074448078526
-7.128844388888888,-64.1595995,4.640835431319541,-0.4855644988888888,0.11265239999999999,0.0,180,9,114.9778895767226,321.3375,mp-10711,VSi2,https://materialsproject.org/materials/mp-10711,47.883120067808285,50.34906261960503,76.8805221105211,-6.709349952139293
-5.6395575566666665,-33.83734534,9.439955957931863,-0.007008134999999528,0.03926325,0.0,194,6,83.14575710460139,472.67319000000003,mp-20237,CoNiSn,https://materialsproject.org/materials/mp-20237,53.38866921206917,56.11940141420104,81.85392746473894,4.806372991391346
-6.385933454615384,-83.01713491,9.22106967524472,-0.2139031973076912,8.4980002,0.0,71,13,178.53890630191708,991.43691,mp-643092,U(GaFe)6,https://materialsproject.org/materials/mp-643092,69.20699042271904,24.287388847773208,83.51680834877935,-18.1758176970837
-3.18780132,-15.939006599999999,5.106985524451549,-0.362807441,0.0,0.0,12,5,103.71326393091385,318.97,mp-2461,CaGa4,https://materialsproject.org/materials/mp-2461,32.07495428031371,18.783096894482828,54.843977647975635,-12.714144409743922
-7.25207704,-65.26869336,11.120918847075071,-0.5537801066666661,0.00015069999999999998,0.0,189,9,137.58618009853458,921.438585,mp-1095158,HfGaCo,https://materialsproject.org/materials/mp-1095158,59.57975341606369,22.005175713251194,57.971310917806036,11.081120093115336
-4.224583334285714,-118.28833336,8.064325560357206,-0.09261195696428512,3.755e-05,0.0,226,28,374.95271999268,1820.939304,mp-1192952,LaBeCu12,https://materialsproject.org/materials/mp-1192952,22.1597408678806,37.969035180808156,65.75352394712962,-22.492252594636607
-7.338846567241379,-212.82655045,9.874842316176624,-0.7817882674137936,1.2e-06,0.0,225,29,371.06416083179886,2206.6329,mp-580744,Hf6Si7Ni16,https://materialsproject.org/materials/mp-580744,60.48828658785911,45.9048334280045,61.608710183586865,-7.027694405008888
-6.442417670714287,-90.19384739,7.448842417134942,-0.27833114214285765,0.0,0.0,15,14,119.13448189613531,534.4132,mp-569404,Ni4B3,https://materialsproject.org/materials/mp-569404,37.233899748039995,55.14872722919693,77.57194122741477,-11.112629658198765
-5.5861136433333325,-33.51668186,6.752594503960411,-0.38865613833333335,1.5e-06,0.0,216,6,85.57329544947831,347.98445,mp-3433,YMgNi4,https://materialsproject.org/materials/mp-3433,66.37704696464236,49.757575358276185,73.96171249543661,21.124995207696408
-8.959533188,-179.19066376,5.759735275431588,-1.1528033695233333,2.7312062999999998,0.0,44,20,187.95386223312488,651.935585,mp-675585,Ti7Co3N10,https://materialsproject.org/materials/mp-675585,30.471205943661275,54.531163118039494,70.33154148162704,-1.065182885852156
-8.5475260575,-34.19010423,7.078772375472754,-0.3217598212499997,1.0017254,0.0,225,4,45.25041316897241,192.899635,mp-20211,Mn3Si,https://materialsproject.org/materials/mp-20211,42.705953553293135,60.248932358164474,91.25119301303205,-8.270354865275888
-10.460437415357145,-292.89224763,14.420788380268874,-0.14460267855428452,2.101155775,0.0,227,28,337.64522146217683,2932.2468,mp-28452,Fe3W3N,https://materialsproject.org/materials/mp-28452,60.74822903761602,31.239209340824328,66.61276704767418,16.593801106187676
-7.427661138421053,-141.12556163,7.5675485238501,-0.11751221631578952,27.725245899999997,0.0,166,19,260.6321074837906,1187.7746158,mp-1106052,Dy2Al3Fe14,https://materialsproject.org/materials/mp-1106052,72.98040926909701,35.41652049795743,88.09789490094593,-21.509339953501172
-6.93143636,-55.45149088,11.011154802440084,-0.5219146125000007,0.00019180000000000003,0.0,194,8,125.96357482631906,835.2736,mp-1078574,HfNi2Sb,https://materialsproject.org/materials/mp-1078574,68.5967621400688,17.396781863044968,65.90688091755774,11.42403154659262
-4.9617213675,-19.84688547,7.520012248556238,-0.3980571300000007,4.1e-06,0.0,123,4,46.56596557049254,210.8813,mp-1215533,ZnSiNi2,https://materialsproject.org/materials/mp-1215533,45.46276778661145,56.87074968920329,85.12050335752669,-3.089270779768279
-5.572796984,-27.86398492,5.145360278646948,-0.496445799,0.0,0.0,139,5,73.65206565126657,228.21891200000002,mp-6969,Sc(CuSi)2,https://materialsproject.org/materials/mp-6969,33.81228744112094,45.77369071857874,60.07167685883365,-6.033369178340059
-5.170702923928571,-144.77968187,10.729705242845652,-0.6651039010714282,5e-07,0.0,63,28,473.3077936174293,3058.316,mp-1213136,Dy2(Ga3Ir)3,https://materialsproject.org/materials/mp-1213136,62.36057661821186,13.32296381353569,54.75426812743584,-9.367124367401797
-5.00323252,-50.0323252,10.296334328049227,-0.16281907771875054,1.65e-06,0.0,114,10,162.77140862895132,1009.28,mp-7818,Pd4Se,https://materialsproject.org/materials/mp-7818,63.30765674140812,35.132710497496355,71.40598232263224,3.331069744281579
-7.701472052222222,-69.31324847,6.204198863257147,-0.4638129222222223,0.0,0.14009999999999856,180,9,122.13643992425207,456.333,mp-8938,Si2Mo,https://materialsproject.org/materials/mp-8938,40.770323464828074,38.92479419770883,58.31245770842693,-10.81143731946993
-6.93533509,-83.22402108,9.606394104373054,-0.32793962777777824,3.6759003,0.0,191,12,145.72275473316768,843.0215599999999,mp-1210782,LuCo4B,https://materialsproject.org/materials/mp-1210782,73.61025523224465,25.199772798216852,61.578449790501935,15.787020621577735
-7.4530032775,-149.06006555,8.100283955276332,-0.07463014968749918,29.3163531,0.0,12,20,266.3157638241924,1299.116285,mp-1219365,Sm2Ga2Fe12Co3C,https://materialsproject.org/materials/mp-1219365,76.13614870902083,35.455161079027704,86.62346609106147,-23.379253528928906
-5.2437422,-26.218711,6.107941596179607,-0.6728439510000002,1e-07,0.0,139,5,83.54646541209564,307.308,mp-4744,Ca(NiAs)2,https://materialsproject.org/materials/mp-4744,31.15486535479489,19.730690338043352,19.64274712232625,-55.14075403657347
-5.1806343039285725,-145.05776051,10.606577462292712,-0.6718894539285719,8.55e-06,0.0,63,28,476.56369352971944,3044.0174,mp-1208535,Tb2(Ga3Ir)3,https://materialsproject.org/materials/mp-1208535,62.36230404422253,13.31961696854693,54.75816386498077,-9.361456525012619
-5.953815098461537,-77.39959628,7.7242377652481755,-0.29454880538461536,11.5025642,0.0,71,13,196.1313454105343,912.33335,mp-645166,Tb(GaFe)6,https://materialsproject.org/materials/mp-645166,67.87724870109726,33.695564700620025,68.8533624632811,2.415156086635523
-7.440077733333332,-66.9606996,6.860582524806538,-0.4984928373809525,1.3542696,0.0,189,9,102.86475364191406,424.98978600000004,mp-1079966,CrNiP,https://materialsproject.org/materials/mp-1079966,44.01017074880986,53.14434185557232,75.51850438449411,-10.928601625559374
-6.3722998691666675,-152.93519686,6.249443258600423,-0.6413629213888884,0.0001083375,0.0,58,24,420.2684842422045,1581.6816,mp-604647,TiAs2,https://materialsproject.org/materials/mp-604647,34.483838499759464,30.27745469479583,66.95955285409035,0.4742378821707718
-5.944026077692307,-77.27233901,4.1152217631605135,-0.3321522673076913,7.4429807,0.0,139,13,193.91161704821147,480.5604008,mp-31081,Sc(MnAl2)4,https://materialsproject.org/materials/mp-31081,41.94040705644781,44.19011933128024,66.68408774536164,-12.214543567301181
-7.2126436325,-86.55172359,5.670689771622177,-0.8457432997222227,0.0,0.0,62,12,157.712576445159,538.5835999999998,mp-510409,TiSiNi,https://materialsproject.org/materials/mp-510409,49.01544286264853,46.864005054662904,73.85444702035805,-10.106691689714454
-6.227241395,-37.36344837,9.321386135019695,0.2991661566666662,0.65897305,0.0,194,6,83.18854246795206,466.97639000000004,mp-1025124,FeCoSn,https://materialsproject.org/materials/mp-1025124,53.37375684009617,56.138054288321456,81.90621117663879,4.8263179538305625
-4.174851668333333,-25.04911001,2.3561427136960047,0.2897772259166669,0.0001087,0.0,99,6,114.39357339415164,162.31330788,mp-38994,NaAlSi4,https://materialsproject.org/materials/mp-38994,68.5842380782031,36.02620110970041,57.99705300318274,-17.19692666300669
-5.88304576,-82.36264064,8.535796518010715,-0.04888702535714223,12.0899683,0.0,65,14,228.69388344941385,1175.5727550000001,mp-1103832,Sm2(InCo3)3,https://materialsproject.org/materials/mp-1103832,76.55807198010791,14.983369023609836,88.31646787875248,-12.995796665054598
-5.113122885714286,-143.1674408,8.925063465491752,-0.5267730571428574,7.25e-06,0.0,63,28,470.80272771116717,2530.47,mp-1212887,Er2(Ga3Ru)3,https://materialsproject.org/materials/mp-1212887,69.3712395080814,15.77972311408507,64.85141234867216,5.366017208170168
-9.00390621,-18.00781242,9.27789079194104,0.15156831380999947,2.2e-06,0.0,187,2,20.04674362551496,112.0067,mp-998900,TcN,https://materialsproject.org/materials/mp-998900,32.19476935188784,48.27844404734585,68.1263957841539,9.719783350285324
-8.629326628888887,-155.32787932,6.352232058264973,-0.4015926062698409,0.5437894833333333,0.0,44,18,211.6889750718938,809.7957719999998,mp-29184,Cr2P,https://materialsproject.org/materials/mp-29184,44.157160287570115,53.37994163090644,76.26227447303353,-11.280536039842485
-6.0722399175,-24.28895967,5.522664984655359,-0.4638118924999999,2.1621319,0.0,123,4,50.39183940660738,167.59452219999997,mp-1221656,MnAl2Ni,https://materialsproject.org/materials/mp-1221656,46.23075048917897,60.0356302881993,79.94862258689075,-4.683410469459308
-7.64997465,-137.6995437,7.870475975069628,-1.0322766663888885,3e-07,0.0,166,18,300.0605420033346,1422.2004,mp-569280,Y4Si5Rh9,https://materialsproject.org/materials/mp-569280,66.33792906180857,12.981268052860765,57.652270175695314,16.767386468928116