energy_per_atom,energy,density,formation_energy_per_atom,total_magnetization,band_gap,sgr,num_sites,cell_volume,weight,mp_id,formula,URL,tsne_cry_0,tsne_cry_1,tsne_xrd_0,tsne_xrd_1
-3.312186993333333,-79.49248784,7.123522390252862,-0.3485524996875,0.0,0.9032999999999998,60,24,552.1060146189357,2368.4716,mp-4762,TlAg3S2,https://materialsproject.org/materials/mp-4762,31.25530147529472,-17.30392844045187,14.8965771030093,-25.24267020095392
-7.1151410425,-313.06620587,3.2551491062577784,-3.1430607375487014,0.0,5.3660000000000005,14,44,583.3164587008353,1143.473296,mp-18469,SrMgP2O7,https://materialsproject.org/materials/mp-18469,-23.997227255947895,-32.298753156444285,-20.0788021599827,-29.965908812290934
-2.913996468333333,-17.48397881,9.85882096545492,-0.6489436477083336,0.0,1.3022,152,6,109.44163270954994,649.7682,mp-7826,HgO,https://materialsproject.org/materials/mp-7826,5.841551147416156,-61.380206208021406,27.181139381170066,-33.35793150621998
-6.090850101785714,-170.54380285,5.399818135904262,-2.3778726125,5.00000015,1.0982,62,28,489.0572661461219,1590.3391800000002,mp-17478,Ba2CoO4,https://materialsproject.org/materials/mp-17478,-9.475303956652695,-31.557588432286696,-6.35090414470109,-25.86197971507979
-5.591559288157893,-212.47925295,4.340462741156368,-1.6665073478289476,0.0,1.9765000000000008,161,38,892.4106070453888,2332.6612,mp-542269,Pr4(GeS4)3,https://materialsproject.org/materials/mp-542269,-2.196232664412336,-11.491755972539284,-9.134521087340504,-11.82880218602473
-6.9745147402469145,-1129.87138792,4.629916505719488,-2.4906488357355965,0.018116,0.2850999999999999,59,162,3451.331457316513,9623.0056,mp-662600,La20Ti11(S22O3)2,https://materialsproject.org/materials/mp-662600,9.81238683098149,-9.702379007336972,2.466763764151749,-0.4767795834999146
-5.223382,-20.893528,5.336167767887671,-1.9178295896425,0.0,1.1005000000000005,166,4,95.73910980636603,307.65910319999995,mp-1018096,Ba2NF,https://materialsproject.org/materials/mp-1018096,-3.592678563475011,-26.460819156960834,-13.9676991434241,-66.28881175734824
-7.1751173999999995,-645.760566,3.9046165989505295,-3.0238867147777784,8.495e-05,0.0,161,90,1502.2389608446192,3532.3874,mp-560124,Sr9YbV7O28,https://materialsproject.org/materials/mp-560124,-23.65064846539801,-34.69936495382549,-18.615388722015354,-30.52364478330654
-7.124299827083332,-170.98319585,4.877317211886362,-2.6084843377499998,7.04e-05,3.4274,2,24,355.0833654883529,1042.947,mp-1211595,KDy(MoO4)2,https://materialsproject.org/materials/mp-1211595,-51.249400292714796,-53.22570104323057,-24.585388644504604,-59.44131330624258
-4.7560176625,-190.2407065,6.060082823261973,-0.34310622674999963,0.26821809999999996,0.0,140,40,1107.710325148998,4042.5525404,mp-1209154,Sm12Al7Si,https://materialsproject.org/materials/mp-1209154,32.75744302787602,-41.72692795514384,19.81460889420961,-18.967913958290893
-4.339290080526316,-82.44651153,6.3680159815665744,-0.6270490745065797,0.0,0.0,12,19,422.36622368396934,1619.736,mp-27124,Cu4(BiS2)5,https://materialsproject.org/materials/mp-27124,4.571930526847378,-7.76096349817529,-20.494171818005587,-35.51944665965797
-5.854579310178572,-327.85644137,5.119801852211356,-1.6461047493749998,10.000000275,2.1308,62,56,828.3356546549531,2553.9384,mp-540592,Fe2(TeO3)3,https://materialsproject.org/materials/mp-540592,-46.06611465357929,-45.00249662632545,-26.31868148842551,-11.156657223355383
-8.331139810641028,-649.82890523,5.195564221162137,-3.6069232711538466,0.0,2.3519,127,78,1402.7248863917882,4388.90448,mp-1212566,La4TiO8,https://materialsproject.org/materials/mp-1212566,-10.932125506857364,-59.780087484848174,-19.91870693316678,-57.97546342971463
-7.6824653768181825,-169.01423829,4.950577658861407,-2.872279368482728,27.99999885,0.8845999999999998,186,22,561.2124023704465,1673.1468,mp-28546,Eu4Cl6O,https://materialsproject.org/materials/mp-28546,9.021735670258524,-9.793684533261073,-8.998444124139896,-11.201077890697425
-3.052562075625,-48.84099321,8.020978250624744,-0.4972171440234376,0.0,0.38519999999999976,140,16,521.594303127848,2519.481,mp-28921,Tl5Se2Br,https://materialsproject.org/materials/mp-28921,39.3075728233296,-44.003785019577045,5.3789013757015045,-33.012609660621585
-5.81966236,-23.27864944,7.710455759085313,-0.8232981799999992,2.5e-07,0.0,63,4,84.1395576693538,390.689,mp-378,ErSi,https://materialsproject.org/materials/mp-378,30.976900049405927,-41.255501374611505,13.659281548580136,-17.699125291095665
-6.847563692222222,-123.25614646,5.525588433899555,-3.2552110143055555,0.0,3.5418,140,18,312.57693379077244,1040.127,mp-7765,Ba3SiO5,https://materialsproject.org/materials/mp-7765,-9.049208592831643,-32.15737056774693,-2.225495158984625,-33.91599676398735
-5.8368819815625,-186.78022341,4.818098006058324,-1.642333050095,2.8137488,0.0,72,32,481.55493551687,1397.2443999999996,mp-972470,V2Cu3Pb(ClO4)2,https://materialsproject.org/materials/mp-972470,7.934882100388003,-17.109330254951438,-24.255439031566528,-10.684008929263653
-10.094792115,-201.89584230000003,7.141680280140442,-3.2628202222500007,5.000000825,0.0,62,20,238.27053679727155,1024.7588,mp-541177,GdVO3,https://materialsproject.org/materials/mp-541177,10.44825727185918,-81.54025670629319,51.103646289860286,-54.55744019027868
-6.962443143928572,-194.94840803,6.176299713982337,-3.1356553428571425,2.45e-06,3.9479,19,28,440.87438034248197,1639.81228,mp-541280,BaLaGaO4,https://materialsproject.org/materials/mp-541280,15.116663757275932,-66.00344974712381,1.5832221151136985,-32.762742526363155
-8.824853271,-176.49706542,7.0568986667311755,-2.7722423699760013,0.0,1.6121999999999996,26,20,251.33762143163653,1068.1255199999998,mp-556340,CaTaNO2,https://materialsproject.org/materials/mp-556340,-33.105321410790516,-78.13466317137967,30.24125667755989,-62.15829616080936
-5.566485038421051,-211.52643146,4.669831473492522,-1.6556083291447363,0.0,1.983,161,38,856.3570188669687,2408.28,mp-1195802,Sm4(GeS4)3,https://materialsproject.org/materials/mp-1195802,-2.163879662840856,-11.502551464708645,-9.129945527842274,-11.856759447177328
-5.285146739,-52.85146739,8.174522869307248,-1.2467973412500002,2.0,0.7130000000000001,146,10,128.2486300951048,631.344,mp-998527,NiBiO3,https://materialsproject.org/materials/mp-998527,1.0965110845304369,-78.4030344906774,46.78111330848942,-60.53833733240501
-6.073240109456521,-558.73809007,5.429865944790317,-2.1569673958143483,5.0,2.6718,14,92,1556.6714514900657,5090.22498,mp-559046,Sm2MnTe5Cl2O13,https://materialsproject.org/materials/mp-559046,-42.22738077846208,-46.85177077148721,-8.813780345819046,-28.844912140444283
-7.927717393958333,-380.53043491,4.9516843454581885,-2.588836586791666,14.00029835,2.9106,15,48,670.8909463033192,2000.5794,mp-1211850,KLiGd2(MoO4)4,https://materialsproject.org/materials/mp-1211850,-51.37670092460298,-53.398454625888775,-24.38616115128257,-59.6846742147233
-7.901470344791666,-379.27057655,4.576826706283321,-2.603641288987068,7.00000035,3.1131,60,48,816.4675659213298,2250.3720000000003,mp-1209393,RbGd(MoO4)2,https://materialsproject.org/materials/mp-1209393,-51.32908796526,-52.719331741449,-25.041132268400826,-56.664344927249005
-6.358711932272728,-139.89166251,5.155710426319778,-2.753968879683637,0.0,2.8178,36,22,510.2569100363015,1584.2668,mp-1220227,Nd4S4Cl2O,https://materialsproject.org/materials/mp-1220227,9.427609992597622,-9.426262197546675,-8.419499452400267,-11.825656562601907
-4.37150671,-39.34356039,6.938426531483273,-0.7018743350000002,1.5e-06,0.0,189,9,178.4277197573407,745.5456300000002,mp-1205941,LiTmGe,https://materialsproject.org/materials/mp-1205941,38.81802287601463,-17.402598585740105,20.511728608400333,6.850242884863057
-5.86008212,-46.88065696,5.927845647198606,-0.76487575125,0.0,0.0,62,8,193.09311236930225,689.31,mp-9967,NdSi,https://materialsproject.org/materials/mp-9967,32.38293383376685,-39.85416847501532,12.737391180545428,-18.62276261772864
-4.328398659285715,-181.79274369,6.488972086184771,-0.6284715364136911,8.25e-05,0.0,12,42,951.443062136526,3718.002,mp-672295,Cu4Bi5PbS11,https://materialsproject.org/materials/mp-672295,4.703882156581392,-7.7644418329802845,-20.4514187939494,-35.403067589841314
-6.165266258055556,-221.94958529,4.024837063848421,-0.8573133945299998,0.0,1.2191999999999998,62,36,690.6760563456912,1674.07,mp-567601,Sr4CN4,https://materialsproject.org/materials/mp-567601,6.869231323622751,-39.102719479476725,0.6635781233494911,-34.780364537060926
-8.568274896666667,-179.93377283,4.664112369925794,-3.512305900178572,0.09484069999999999,0.001000000000000334,12,21,274.08494684146444,769.8482,mp-7733,Ba2Ti6O13,https://materialsproject.org/materials/mp-7733,-11.29836293165456,-20.542102199741407,-6.75093762602934,0.4981105020060268
-2.1012714258750003,-168.10171407,6.908228500109296,-0.15644436441071435,0.0,1.3411000000000002,14,80,2616.7822329717637,10886.42252,mp-569421,Hg9P5I6,https://materialsproject.org/materials/mp-569421,9.155531465635617,-24.277704707557035,-19.623931799371565,-34.3226935394671
-8.14940726,-89.64347986,5.327888025111369,-2.916093643219698,9.9e-06,1.1594000000000002,119,11,169.72955308803742,544.58223,mp-1222828,LaNb2AgO7,https://materialsproject.org/materials/mp-1222828,-29.46677820447354,-69.15331029794082,1.4077120444726898,-51.8258919497512
-9.063054722941176,-462.21579087,5.225735534061218,-3.2642639673529414,0.0,1.9434,71,51,758.4875695316409,2386.9691399999997,mp-862893,ThNb4O12,https://materialsproject.org/materials/mp-862893,-36.027423737176406,-48.59624741326903,32.29840562837996,-59.19404940147351
-7.764075195,-46.58445117,4.498241083992382,-1.7210722191266672,0.0,1.6957999999999998,59,6,136.686047398703,370.2694,mp-570157,ZrBrN,https://materialsproject.org/materials/mp-570157,11.81503038439258,-19.643585758743157,7.781575513828657,-20.124499735099086
-6.370991003472222,-458.71135225,4.576564999570167,-2.6572458979464293,0.0012625,4.1273,14,72,1119.0026238165954,3084.0516960000004,mp-1195039,Ba2Zn2TeP2O11,https://materialsproject.org/materials/mp-1195039,-28.76551633469573,-27.127861241323966,-29.990698250671443,9.16086556683486
-5.079651425581394,-436.8500226,5.623337596699071,-1.6566662758286046,0.0010925999999999998,1.1326999999999998,4,86,1187.1332480087278,4020.1710799999996,mp-690912,Cd10As6HClO25,https://materialsproject.org/materials/mp-690912,-7.000678536103037,-46.81205829636946,10.296791359575822,-34.335775530609695
-9.8029689971875,-627.39001582,6.688530696559079,-3.100614428251955,27.99999895,1.0750000000000002,141,64,1026.8772969647416,4136.1872,mp-558965,Gd4Si2Se3O7,https://materialsproject.org/materials/mp-558965,29.53297814684419,-17.65059454419722,16.160043866282013,0.1923718116237624
-4.371659608,-21.85829804,3.8623342689210918,-0.6202637469999999,0.0,0.6704999999999997,164,5,89.40234147917899,207.945564,mp-1018630,Ca(BeAs)2,https://materialsproject.org/materials/mp-1018630,1.3212126637830084,-58.956900074579,20.794575418913634,-36.67506774324777
-7.311191899777778,-658.00727098,3.902047109500296,-3.094420316555556,0.0,3.5781,161,90,1499.7336958557212,3524.1758200000004,mp-555221,Sr9TmV7O28,https://materialsproject.org/materials/mp-555221,-23.660610754641407,-34.694766322051095,-18.63138759951333,-30.514568073463806
-8.775665015,-315.92394054,7.222396808340795,-0.4276386675925923,27.6732321,0.0,128,36,380.95859366779837,1656.9523900000002,mp-1198624,Gd4CoB13,https://materialsproject.org/materials/mp-1198624,8.912994517995392,-57.5666018653968,6.589398169410238,-49.42271080887788
-6.017774949333331,-90.26662424,7.856717736179412,-2.1742628873333327,5.6e-06,0.0,139,15,214.9927296333643,1017.22221,mp-1208757,Sr2TmCu2(BiO4)2,https://materialsproject.org/materials/mp-1208757,9.72775550172982,-68.56081507748253,11.866184042300324,-46.33250612260783
-7.790194663636364,-171.38428259999998,6.374332637832823,-2.8719423432954563,1.99999985,0.4386000000000001,58,22,303.0634250517324,1163.3734800000002,mp-29581,La2Mo2O7,https://materialsproject.org/materials/mp-29581,-6.1212310140847865,-71.96590961667555,5.930004929450894,-24.31191411750174
-4.103759495416667,-98.49022789,6.056461711581347,-0.5953016068923619,2.295e-05,0.5941000000000001,14,24,584.5695886317268,2132.0928,mp-605863,AgSbPbS3,https://materialsproject.org/materials/mp-605863,6.058662987233396,-6.491880592099438,-2.174128814334657,-4.358281628456297
-5.949876516923077,-77.34839472,6.882076678258402,-2.2357501829807704,3.6000000000000003e-06,0.0,25,13,184.0888248515755,762.9531,mp-1218759,Sr2NdTlCu2O7,https://materialsproject.org/materials/mp-1218759,11.309295159174221,-68.13424506669493,40.000491361952854,-50.13186979284309
-8.289961452857144,-174.08919051,4.704977757065985,-3.2600327890674596,6.0,2.0451,12,21,274.6189506493208,778.1064,mp-1228511,Ba2Ti4Cr2O13,https://materialsproject.org/materials/mp-1228511,-11.297756206526664,-20.545376987494908,-6.747337329942548,0.4918732264445185
-7.36757667125,-176.82184011,7.379868012687996,-2.647550593642241,0.0,3.4595,15,24,350.5378036840737,1557.8813037999998,mp-1213147,CsSm(WO4)2,https://materialsproject.org/materials/mp-1213147,-47.52486100407282,-56.32282435459028,-21.058932906543575,-61.1765563080159
-5.863542019464285,-328.35835309,5.539491722148338,-1.6550674586607133,9.99926665,1.8538000000000008,62,56,765.5782572972983,2553.9384,mp-605856,Fe2(TeO3)3,https://materialsproject.org/materials/mp-605856,-41.487912902949375,-45.25173755272122,-17.48800110527059,18.52708224163954
-5.308961333,-106.17922666,5.897798126257343,-1.2967590672499996,6.8459823,0.0,119,20,312.84584035224367,1111.1461800000002,mvc-353,BaTl(CoO3)2,https://materialsproject.org/materials/mvc-353,7.3975849077182,-62.818784001694354,9.142363639002612,-44.13603064323305
-7.6269743242857135,-53.38882027,6.2674100558097985,-3.57509164,0.0,2.4959,139,7,97.00112499884136,366.11354,mp-754808,La2MgO4,https://materialsproject.org/materials/mp-754808,16.734053067711066,-70.67570787233721,38.289793419400226,-42.47459460647265
-6.6371225330434775,-152.65381826,5.636566718421175,-2.6744744295652194,0.0,2.9486000000000003,150,23,325.23230804635534,1103.9750099999999,mp-672262,La3Zn3Ge2SbO14,https://materialsproject.org/materials/mp-672262,-8.002298632048932,-46.379090919094295,7.891007869275574,-35.474713598880314
-9.208954908333334,-110.50745890000002,6.776988005819947,-3.631289645104168,14.000000699999998,2.6616,139,12,139.1941600870273,568.0788772000002,mp-545404,SrGd2Al2O7,https://materialsproject.org/materials/mp-545404,17.739298083652354,-68.26923975165796,37.909084778413856,-41.37835568531664
-4.490335200555554,-80.82603361,7.775443684535936,-0.12742663785714273,0.0,0.5754000000000001,189,18,387.7021172107669,1815.408073,mp-27370,P10Au7I,https://materialsproject.org/materials/mp-27370,13.019275520607062,-24.701953173748997,5.018441873072452,-35.32108956482397
-7.1182835933333335,-170.83880624,5.0721372518258905,-2.6235495184339084,5e-08,3.6204,13,24,405.982723735372,1240.0793038,mp-1213354,CsEr(MoO4)2,https://materialsproject.org/materials/mp-1213354,-49.34202330542996,-51.79149655339137,-29.82118376528501,-54.94821252994284
-7.401038406666667,-44.40623044,5.033084832712731,-0.0058392466666674645,14.80578965,0.0,63,6,216.58435286994842,656.466,mp-1183936,Eu2Mg,https://materialsproject.org/materials/mp-1183936,0.9970091238684108,-34.07030932051633,-2.0003096680046437,-34.68871981590199
-6.427767994705883,-218.54411182,5.879461251751473,-2.460321274824118,4.999999900000001,0.0,36,34,603.3972348000037,2136.4452,mp-561481,Ba5Ru2ClO9,https://materialsproject.org/materials/mp-561481,-14.849258020593743,-81.11719856510446,15.554993223866589,-70.6606911913478
-8.140588107083332,-195.37411457,4.815054623918993,-3.3154221753411113,6.9999898,3.1318,11,24,403.473922939221,1169.9508,mp-866304,Ba2GdB2ClO6,https://materialsproject.org/materials/mp-866304,-23.36918879079504,-26.26334864431703,-16.34083067401006,-28.222713126061052
-5.234010441666666,-62.8081253,6.572789571824673,-1.4304296920312505,0.0,1.6678999999999995,36,12,265.708066401672,1051.7327,mp-1217605,TbCuPbS3,https://materialsproject.org/materials/mp-1217605,14.409739957616036,-19.22138224046006,6.2152894498759865,-0.05896848522575054
-1.46796726,-8.80780356,2.1271322087167377,0.16294050000000007,0.18263855,0.0,187,6,212.6950384110556,272.46000000000004,mp-1094323,SrMg2,https://materialsproject.org/materials/mp-1094323,0.3571918670717835,-34.51475614784592,-7.700783747571383,-24.04082182376161
-4.1348553400000005,-99.23652816,5.872831475414093,-0.6263974514756955,0.0,1.0831,14,24,602.8477653623247,2132.0928,mp-560848,AgSbPbS3,https://materialsproject.org/materials/mp-560848,5.307874870474393,-7.428721166988098,-16.57257863411586,-31.538524138473026
-7.086643383333333,-85.0397206,4.0456606363068826,-2.8217892091071426,0.0,4.167000000000002,12,12,164.14271212422383,399.90972400000004,mp-1095485,BaGe(PO4)2,https://materialsproject.org/materials/mp-1095485,-30.552434322426386,-26.935207370643692,-29.281037244220247,7.7966600784154165
-8.050199834411767,-547.41358874,6.2701277534093345,-1.475693454495294,0.00031395,1.8766,64,68,969.1365702334367,3659.4202,mp-1200944,Pr5(SiN3)3,https://materialsproject.org/materials/mp-1200944,18.573605267364265,-48.12478201606887,15.013209900898289,-25.765475856587358
-4.982525146666666,-29.89515088,5.202286284176499,0.20724745967541655,1e-07,0.0,129,6,137.07898750782041,429.4534,mp-1246092,SbSeN,https://materialsproject.org/materials/mp-1246092,18.74085337368424,-58.57119808735285,1.8707925387061703,-47.531012421652385
-4.9185274283870974,-152.47435028,4.8107441885671225,-2.265028175616775,0.0,3.0901,71,31,693.0050898302982,2007.7036,mp-1227157,Ca5Bi6(Cl3O2)4,https://materialsproject.org/materials/mp-1227157,-18.704834098345952,-54.15792440520846,-13.33986377564284,-48.745307639427345
-10.076716763333334,-90.69045087,8.027066837501533,-3.4811571313888896,6.8281092999999995,0.0,123,9,126.15940329951106,609.8561599999999,mp-20092,EuTa2O6,https://materialsproject.org/materials/mp-20092,-32.39237277902904,-69.35962491354704,31.821759890982232,-59.78187034210272
-6.375622693333333,-229.52241696,5.164426598395837,-0.8300929572222218,0.104982575,0.0,62,36,735.9396731410492,2288.838944,mp-1213190,Dy2Sc3Si4,https://materialsproject.org/materials/mp-1213190,36.9923290454524,-14.336526436979256,14.357766151028338,-2.9095896199297067
-3.340266900909091,-73.48587182,5.80915520613935,-0.3900060221261906,0.0,0.9346,12,22,505.02480437524963,1766.756096,mp-568540,Ag5Hg4P8Cl5,https://materialsproject.org/materials/mp-568540,-0.5909753219956477,-19.61277648575436,-20.22094661466771,-35.804098990124885
-7.758844962,-155.17689924,7.772105223961586,-2.98950344625,2.9999999,1.3251,14,20,225.5255390502025,1055.5658,mp-1225428,Dy2VFeO6,https://materialsproject.org/materials/mp-1225428,9.186612847422193,-80.71309500818775,51.84083869485957,-52.2732909124524
-8.3215247775,-133.14439644,5.434970382345166,-3.32727419578125,0.9999857,0.040299999999999336,119,16,197.0512808630283,644.95194,mp-1223172,La2Ti3CuO10,https://materialsproject.org/materials/mp-1223172,10.929984884233086,-94.2040818842363,42.92569765794172,-37.25412484185306
-7.298633160625,-116.77813057,4.883982085283779,-0.6686295847321428,6.987145875,0.0,12,16,333.0410068045431,979.5411439999999,mp-1188909,EuP3,https://materialsproject.org/materials/mp-1188909,8.698246776842058,-17.283158792078712,3.080097625408185,0.7032968933987543
-4.102275449,-41.02275449,5.35219391106278,0.4594216450000005,0.001299,0.0,227,10,374.75540075719925,1207.8990772,mp-1209964,Nd4Al,https://materialsproject.org/materials/mp-1209964,0.5764711092934608,-26.478585622352057,-15.799101226015447,-22.11698350622761
-7.58757894,-151.7515788,4.282908722980387,-2.8257954973189663,0.0,2.8214,12,20,351.0699843317082,905.48952,mp-756063,RbNbO3,https://materialsproject.org/materials/mp-756063,-45.64134118885809,-50.457072885292646,-17.287075842446125,-21.27676422446877