energy_per_atom,energy,density,formation_energy_per_atom,total_magnetization,band_gap,sgr,num_sites,cell_volume,weight,mp_id,formula,URL,tsne_cry_0,tsne_cry_1,tsne_xrd_0,tsne_xrd_1
-5.902781281666668,-70.83337538,9.960378059427097,-0.4245734754166672,0.3573766333333333,0.006699999999999484,166,12,170.55415310508934,1023.03156,mp-2042,HoNi3,https://materialsproject.org/materials/mp-2042,74.13812237147549,23.796613119582283,62.440633366475026,17.30849711266274
-6.886230955714287,-144.61085007,10.17426414884814,-0.7026942497619053,0.00014539999999999998,0.0,147,21,340.9741789744693,2089.17784,mp-1224190,Ho2As7Rh12,https://materialsproject.org/materials/mp-1224190,67.7134451272039,9.016963307050498,52.43488466370246,9.01529567923142
-10.4200838925,-41.68033557,15.14415465985667,-0.5238395387499981,0.0001541,0.0,225,4,66.12428314811449,603.0550000000002,mp-865179,Hf2FeOs,https://materialsproject.org/materials/mp-865179,95.14949182515603,9.494513108979818,61.34836932801018,64.34377064937482
-5.953745072222223,-53.58370565,4.842132914232589,-0.6680295755555553,0.0,0.0,189,9,140.52199765018878,409.762236,mp-15322,ScCuSi,https://materialsproject.org/materials/mp-15322,48.08439413902071,44.18038514573738,65.35208542635753,-4.306485206100709
-3.911478111428572,-54.76069356,6.5269922460599945,-0.029969005212053493,1e-07,0.0,1,14,245.94273702157003,966.714,mp-685107,Cu9Se5,https://materialsproject.org/materials/mp-685107,16.611724139637875,24.670606137616943,67.72531416889649,-15.604739495284033
-5.2268071675,-62.72168601,6.147909458154688,-0.22159207916666665,0.5489415,0.0,164,12,148.77827818455842,550.8304,mp-1101998,LiFeAs,https://materialsproject.org/materials/mp-1101998,42.767120113664106,43.11767815953293,61.10096057856933,-13.257728200771432
-5.815070095,-46.52056076,13.124686518040953,-0.4752825424999996,1.725e-06,0.0,62,8,135.49006395965878,1070.896,mp-542640,GePt,https://materialsproject.org/materials/mp-542640,29.984745197107767,27.88641850815397,58.709666090390066,-10.645973056101061
-6.5828736625,-26.33149465,15.868371866331685,0.005062624999999875,0.1319625,0.0,123,4,52.814787049202,504.7064,mp-1224968,FeNiPt2,https://materialsproject.org/materials/mp-1224968,53.108637858401366,59.27563759889014,87.79083172361227,2.8620885312883657
-9.539987444500001,-190.79974889,10.891656433536218,-0.5799829541666653,1.4e-06,0.0,128,20,242.5114537322353,1590.65904,mp-1106338,Nb2B2Os,https://materialsproject.org/materials/mp-1106338,59.24070671114868,29.963015697078475,65.51557153032974,12.776473926698776
-7.042888050476191,-295.80129812,5.811832354279589,-0.5540678321428575,2.3395181000000003,0.0,139,42,700.2577715899478,2450.879308,mp-1212513,Sc7(Mn3Ge4)2,https://materialsproject.org/materials/mp-1212513,47.73406945454471,44.406000925004655,62.06004371519393,-1.0731621585418534
-6.647268430555554,-239.3016635,4.352010606563364,-0.8411136766666658,1.65e-06,0.0,62,36,556.4570830445199,1458.3861439999996,mp-542486,Sc3(Si2Ni)2,https://materialsproject.org/materials/mp-542486,44.02607852159178,26.370426665737728,58.22647319307697,5.003758253764009
-8.187483166136364,-360.24925931,7.875614210303565,-0.05559730460227544,67.64417519999999,0.0,1,44,544.2978032871209,2581.498785,mp-1219351,Sm4Fe31(CoC2)3,https://materialsproject.org/materials/mp-1219351,77.84313667521837,34.33446809102971,88.32347139857046,-25.925370779507183
-8.297315656363638,-182.54094444,8.029425461326763,-0.08147588755681894,34.7231745,0.0,166,22,269.5203861244291,1303.2478,mp-1191539,Tb2Fe17C3,https://materialsproject.org/materials/mp-1191539,77.35143246195467,34.265596301009175,88.88170383754498,-25.219210847296072
-8.304595797727272,-182.70110755,7.684958281015072,-0.2498352296427271,38.3881023,0.0,166,22,276.5496608992581,1279.8691,mp-4383,Nd2Fe17N3,https://materialsproject.org/materials/mp-4383,78.03909720057571,34.31104927345719,88.66443798389466,-25.978446812954626
-6.2220810029999996,-248.88324012,8.494266686682112,-0.2854732855000002,4.10513899,0.0,12,40,473.1778633705269,2420.47845,mp-604537,MnGaNi2,https://materialsproject.org/materials/mp-604537,78.3220182567437,49.60603971332983,83.75045577787866,-0.3107273402757969
-5.51640472125,-44.13123777,9.614473408729124,-0.1508758062500002,2.4e-06,0.0,59,8,102.88140780177844,595.6804,mp-672371,Ni3Sb,https://materialsproject.org/materials/mp-672371,54.24413377242722,65.05840928048174,83.21909403027806,5.303006349815243
-6.614726263333334,-39.68835758,6.155695302697677,-0.6676123023958335,9.45e-06,1.2587999999999997,194,6,136.96078833195722,507.72,mp-1018807,MoSe2,https://materialsproject.org/materials/mp-1018807,55.14793268347474,-79.09236866141562,43.277727871699135,-79.01205401804201
-7.657432763125,-122.51892421,12.039544626017767,-0.3598761181249994,0.0,0.0,11,16,196.97059436452756,1428.11232,mp-569776,TaNi3,https://materialsproject.org/materials/mp-569776,49.874496424002324,67.5467688428513,72.95743866098164,-16.793931707303734
-6.65296374,-26.61185496,8.615659412769274,-0.2253416900000005,5.0208198,0.0,225,4,46.91832498328249,243.43438999999998,mp-30551,GaFeCo2,https://materialsproject.org/materials/mp-30551,79.17684719360828,49.63538585984582,92.39481157942413,-5.260780671529306
-9.886042427777776,-177.9487637,13.121648029525941,-0.6193748099999996,0.0011073,0.0,51,18,222.34422971199413,1756.9732800000004,mp-1205358,TaBRu,https://materialsproject.org/materials/mp-1205358,60.78759499849657,30.33180550898228,65.08615259879994,15.832495433613213
-4.973586378333334,-29.84151827,9.234612427786438,-0.3377024766666672,1.7199999999999998e-05,0.0,191,6,120.3742633080418,669.427,mp-2606,BaPd5,https://materialsproject.org/materials/mp-2606,71.70415987328649,16.026554265725196,56.0535192520227,13.43148591474408
-4.676817308333333,-28.06090385,9.074828642860329,-0.2948739520833327,0.0,0.0,160,6,93.49770705611094,510.964,mp-1219099,SmCu4Pd,https://materialsproject.org/materials/mp-1219099,75.39935585902847,28.967208958893448,68.11559850206365,24.939510372947513
-6.01868332,-24.07473328,10.344473050124828,0.5781622893750002,4.34e-05,0.0,225,4,65.97095037439698,410.9718,mp-1186907,ReAs3,https://materialsproject.org/materials/mp-1186907,92.54053597069372,13.76205187980073,57.22280944115264,64.77130740469194
-10.671111475,-42.6844459,12.036629399133014,-0.2877303275000003,2e-07,0.0,225,4,64.89918021763356,470.43,mp-1184589,HfTc2Mo,https://materialsproject.org/materials/mp-1184589,96.58503041700442,10.565724962037043,61.29854000950275,62.752135823017994
-6.5609432110000006,-65.60943211,5.691749136245656,-0.756831039,0.00686155,0.0,12,10,171.61897511610988,588.2500379999999,mp-1205523,Sc2CoGe2,https://materialsproject.org/materials/mp-1205523,43.80160617588714,26.600787069704648,58.19427496983241,-1.8983481895609688
-7.052095027777778,-253.875421,8.795349518179167,-0.9474700301587302,0.657668,0.0,59,36,461.81501577325025,2446.087914,mp-1204407,TmCo3P2,https://materialsproject.org/materials/mp-1204407,56.871413088513286,33.44201168642405,62.32103510267047,-2.625928983262523
-8.225549368888887,-74.02994432,11.121272311730067,-0.5466144072222221,0.27732209999999996,0.0,189,9,137.5051228445378,920.925,mp-22191,HfFeGe,https://materialsproject.org/materials/mp-22191,59.57700595023852,22.722159556749286,57.43059730328163,11.426993587152966
-7.340318325,-58.7225466,6.604945488039512,-0.1980455224999993,2.446608475,0.0,62,8,127.6327237514044,507.6708,mp-20717,CrAs,https://materialsproject.org/materials/mp-20717,23.08657622117313,35.702052795535366,62.321106287544524,-23.25766745853091
-6.366695623055557,-229.20104243,8.182021391452862,-0.87795356140873,1e-07,0.0,189,36,469.12060534631536,2311.511344,mp-16375,Ho5Ni19P12,https://materialsproject.org/materials/mp-16375,57.10339504178146,33.34941636257661,62.392060380517854,-2.5338194623457406
-3.8936668666666665,-105.1290054,6.527434091954991,-0.02022380355324026,5e-07,0.0,8,27,475.68646691050964,1869.882,mp-684605,Cu17Se10,https://materialsproject.org/materials/mp-684605,16.273956032131743,24.09114685472729,67.46715625614529,-15.224000590779335
-6.030307283333332,-36.1818437,9.015307192485807,-0.1933082749999997,3.25e-06,0.0,194,6,70.09081382577995,380.53319,mp-1226021,CoNiGe,https://materialsproject.org/materials/mp-1226021,46.492818709767896,56.408520893851474,84.9757095209841,-2.6787100010271314
-5.98702839,-35.92217034,7.485836007735478,-0.4216381783333329,0.20899945,0.0,227,6,109.08822570642349,491.778,mp-571262,CaRh2,https://materialsproject.org/materials/mp-571262,82.71898503068086,14.377539798124552,62.655022372195425,25.23057948507565
-5.377983164,-26.88991582,8.769414161503247,-0.13758796747600002,0.0,0.0,221,5,57.279718259071295,302.4979,mp-1017554,CdNi3N,https://materialsproject.org/materials/mp-1017554,50.74044478349814,62.182053960877674,85.58096727901646,9.47406319081367
-4.8713269025,-19.48530761,7.42651223356247,-0.2374489567968752,5e-08,0.0,194,4,61.55752188913787,275.30679999999995,mp-662,NiSe,https://materialsproject.org/materials/mp-662,20.937865310498786,36.438625749171294,62.28117586581295,-23.32847288688185
-4.416796151785714,-123.67029225,9.202196420419575,-0.25803862392857113,6e-07,0.0,62,28,432.31559387742465,2395.76,mp-1212997,DyCu5Sn,https://materialsproject.org/materials/mp-1212997,70.45411740931019,21.843336240510297,60.40409271368146,19.598674171461454
-9.080290558846157,-236.08755453,14.08372500736867,-0.263433748846154,0.022828961538461538,0.0,166,26,367.3132009291445,3115.33664,mp-1217954,TaNi,https://materialsproject.org/materials/mp-1217954,60.94788272846355,31.33947361013238,66.17354094740246,17.1864606619015
-4.2308257675,-16.92330307,14.742528138282447,-0.5659979049999997,5e-08,0.0,123,4,58.68176639574852,520.986,mp-894,ZnPt,https://materialsproject.org/materials/mp-894,54.97541512275258,41.614305359764685,78.78151221632211,11.55396859466135
-7.405686030714285,-103.67960443,7.034707717788653,-0.17989713428571313,10.747276600000001,0.0,12,14,209.85599653738885,889.03396,mp-9305,Mn4As3,https://materialsproject.org/materials/mp-9305,23.056876502702174,35.77789270988079,63.48193502354041,-21.704800093998603
-3.908727602857143,-54.72218644,6.438606739759949,-0.027218496640625037,2.7000000000000004e-06,0.0,5,14,249.3188980780039,966.714,mp-1173070,Cu9Se5,https://materialsproject.org/materials/mp-1173070,16.59632689477456,24.655447452009806,67.67726618222177,-15.562696188244187
-11.0871910025,-44.34876401,11.976581661469936,-0.4158034949999987,0.0002126,0.0,225,4,65.1447436249979,469.85425999999995,mp-972323,TaNbTc2,https://materialsproject.org/materials/mp-972323,96.58625800770169,10.473146078063726,61.23950472660908,62.888437047308614
-7.120653371944443,-256.34352139,6.031339490128644,-0.6788065289814809,0.0027527,0.0,62,36,583.5594803051167,2119.58,mp-1198692,Ti5Ge4,https://materialsproject.org/materials/mp-1198692,36.02591690945547,29.373158990757485,68.29318506284717,-1.73154502828203
-4.24537363625,-33.96298909,9.760280835750843,0.4481669915949995,0.010445399999999999,0.0,194,8,108.97584333483285,640.53588,mp-983407,HPd3,https://materialsproject.org/materials/mp-983407,54.26686238972536,57.885207202958895,63.54286411308304,-10.266898100534664
-5.4104378592857145,-75.74613003,7.319905391215968,-0.7184153300000001,4.429999999999999e-05,0.0,71,14,257.0733789969216,1133.21805,mp-1104965,Y3Ga8Rh3,https://materialsproject.org/materials/mp-1104965,66.34165570350264,11.211711561204377,47.38931002553546,11.223100638897671
-7.814538390625,-125.03261425,8.333737463824418,-0.07416089531250059,26.887417300000003,0.0,221,16,188.07781134875245,943.905,mp-601833,Fe13Ge3,https://materialsproject.org/materials/mp-601833,79.19440464667069,49.612879444737075,91.97827342699293,-5.570184146950479
-7.972288436176472,-542.11561366,7.692088233530668,-0.05082162436274603,31.185483825,0.0,136,68,930.6775465577293,4311.162599999999,mp-1219983,PrNdFe14B,https://materialsproject.org/materials/mp-1219983,71.80149301920174,32.470245292791894,84.32217695910937,-6.72220153572913
-8.033486827647058,-546.27710428,7.660381764736303,-0.009271568627450306,51.8826374,0.0,35,68,932.414833304269,4301.406599999998,mp-1221071,Nd4Cr3Fe25B2,https://materialsproject.org/materials/mp-1221071,71.80671975859339,32.46629976255837,84.40080139232688,-6.715716664208328
-6.077127126896551,-176.23668668,9.296089850641652,-0.4392184073399015,14.1371585,0.0,225,29,442.8281686695616,2479.056707,mp-5979,Mn3(P3Pd10)2,https://materialsproject.org/materials/mp-5979,59.11219032704515,41.6122744970582,70.07166903993597,11.144669610441575
-7.781694677500001,-155.63389355,7.598325409989897,-0.059160778187499825,24.1629583,0.0,2,20,262.80649971929415,1202.5548672,mp-1219317,Sm2Mn2Al2Fe13C,https://materialsproject.org/materials/mp-1219317,74.83600389805865,34.97561138901296,88.51631266995561,-22.93674866491831
-8.231950396666667,-172.87095833,8.131298904484758,-0.0662856465476206,36.069497999999996,0.0,12,21,265.1509102704266,1298.3864,mp-1225407,Dy2Fe17C2,https://materialsproject.org/materials/mp-1225407,76.24114324281962,34.40967680175735,87.86902895772394,-24.325521585666795
-10.8577095575,-86.86167646,17.038554675518707,-0.20607917510416665,0.0008975,0.0,38,8,97.91122110867872,1004.6531,mp-1226226,CrRe5B2,https://materialsproject.org/materials/mp-1226226,60.153108308557265,32.21950638167977,71.87632846486338,12.113617842419671
-6.305771569722222,-227.00777651,8.884325920837492,-0.8364385141666675,2.1600000000000003e-05,0.0,189,36,546.5757186014705,2924.3256,mp-1198172,Dy5Zr3(Ni4As3)4,https://materialsproject.org/materials/mp-1198172,66.66648789579875,8.232486566865633,51.39872812175789,9.348342842074624
-6.39165538,-178.96635064,5.999614262329768,-0.24259287077380925,0.0002072,0.0,216,28,359.64517572067734,1299.4167999999995,mp-1217223,Ti4Ni2O,https://materialsproject.org/materials/mp-1217223,54.45289367763238,47.92207017381885,76.54010699883558,3.5171663002868314
-4.39290778,-21.9645389,6.674865916819256,-0.461171306,5.0999999999999995e-06,0.0,119,5,89.96218749351758,361.62085,mp-1215945,YGa3Cu,https://materialsproject.org/materials/mp-1215945,65.5524319860935,-29.136285127441568,48.52856645532769,-13.310551537142498
-4.302457838571429,-120.46881948,8.716352742071066,-0.1225352452380949,0.67889425,0.0,62,28,431.0933907244155,2262.8568,mp-1194241,CeCu5Ag,https://materialsproject.org/materials/mp-1194241,70.93407477482698,22.057839870196577,60.53903838496954,19.57375230761016
-8.231863088125,-131.70980941,7.5384653549254,-0.21735828729166684,6.068520325,0.0,62,16,157.14099975764663,713.3839999999999,mp-973682,Fe3B,https://materialsproject.org/materials/mp-973682,39.3729489874724,55.45512265492835,79.00955950562206,-13.681878669707151
-7.634086141,-76.34086141,8.136715910799454,-0.35393517899999977,0.0,0.0,127,10,170.67808382383126,836.3302799999999,mp-11393,Nb3Ga2,https://materialsproject.org/materials/mp-11393,64.35435568856056,33.76916275054015,71.36851441358858,3.5599470928328185
-9.2132841125,-147.4125458,8.079852827516326,-0.3898257631249997,0.0,0.0,140,16,231.80416898747467,1127.913,mp-1332,Si3Mo5,https://materialsproject.org/materials/mp-1332,62.86080617962147,27.686917509838672,64.58676014825629,11.398063458469187
-3.13384492,-12.53537968,11.72347416583934,-0.3844906125000001,1e-07,0.0,123,4,61.50170401465228,434.20456900000005,mp-1215448,Zn2PdAu,https://materialsproject.org/materials/mp-1215448,92.37600692876332,28.574482617160932,59.40488001810856,57.55108461259846
-3.9529399225,-47.43527907,2.590430455001608,0.1987165075000004,2e-07,0.0,8,12,206.349550168421,321.904,mp-1073318,MgSi2,https://materialsproject.org/materials/mp-1073318,40.5768857359939,25.066828576023394,61.14320550532423,3.499365633848309
-4.78405346375,-153.08971084,3.5607852760630774,-0.5100174443750003,2.5e-08,0.0,62,32,657.5127565898633,1409.9408,mp-542138,Ca3Si2Ni3,https://materialsproject.org/materials/mp-542138,13.102507698830955,25.54308082931889,57.75502766840639,-14.426631743588256
-6.883347088,-206.50041264,8.415219478771796,-0.2504627585833333,14.5114654,0.0,191,30,376.06463436033243,1905.806705,mp-569415,Nd5Co19B6,https://materialsproject.org/materials/mp-569415,73.97382527763496,26.55802456707972,60.371327125572186,15.534785277705884
-4.1845146725,-16.73805869,9.212120873199463,0.5289424975000001,0.0038481,0.0,139,4,54.61477112401139,302.98467,mp-973896,Ni3I,https://materialsproject.org/materials/mp-973896,54.681213409212354,62.57787219842188,86.22040440144815,7.764998650048574
-6.609395925238094,-138.79731443,4.434769857010212,-1.2129176227976202,3.0167363999999997,0.0,2,21,325.18392893520536,868.4624999999999,mp-1216478,V7(CuS6)2,https://materialsproject.org/materials/mp-1216478,14.6966455910617,36.806560642829226,23.485544570129324,-54.29987006016428
-5.937368026666667,-231.55735304,8.462791987448806,-0.6992868233333335,8.900000000000001e-06,0.0,174,39,598.4619133088657,3050.0088,mp-1209077,Sm6Ni20As13,https://materialsproject.org/materials/mp-1209077,66.8643092480219,8.431272859095822,51.72463540756137,8.944463959570994
-5.998635185882352,-101.97679816,7.398002107197943,-0.4243545341176476,5.9e-06,0.0,204,17,323.36871956022526,1440.6662,mp-1214761,Ba(As3Ru)4,https://materialsproject.org/materials/mp-1214761,21.208344051466206,33.35292380368211,17.275441794212856,-50.08053883671026
-7.17778598,-57.42228784,8.224433915063807,-0.7916584374999998,0.0,0.0,198,8,105.78997734554838,523.964,mp-1483,SiRh,https://materialsproject.org/materials/mp-1483,84.98365539888833,36.10239211430177,70.43283320391873,18.243918441010827
-10.69999981,-42.79999924,11.936954674523829,-0.21596114437499914,2.33e-05,0.0,225,4,65.81109146546774,473.08975999999996,mp-1186207,Nb2ReRu,https://materialsproject.org/materials/mp-1186207,96.58590844467066,10.257965355862758,61.448966613842,64.10808936460381
-4.066468424166667,-97.59524218,8.561278055705705,-0.13471604430555514,4e-07,0.0,127,24,365.596751136628,1884.9153,mp-1210043,PrIn2Cu9,https://materialsproject.org/materials/mp-1210043,68.66871381392987,31.04514518345692,68.01090837544355,5.299421722672132
-6.335949460384616,-164.73468597,7.394681269523947,-0.0022632053846146725,0.042795230769230766,0.0,166,26,355.3298690312297,1582.3483,mp-1182452,CrGa,https://materialsproject.org/materials/mp-1182452,52.935497148008366,52.196782543166954,80.11687804395035,1.4564806217315514
-6.9963772925,-167.91305502,9.366075981360687,-0.4180137466666665,3.50417035,0.0,191,24,276.39377711412214,1558.96673,mp-1190704,Er2Co7B3,https://materialsproject.org/materials/mp-1190704,73.52636515969027,25.93131269751505,60.0792999010076,15.289558214041856
-6.761624094166668,-81.13948913,4.382673182552776,-0.8186902791406254,0.0002315,1.3257,156,12,349.20144452216874,921.65,mp-1026980,Mo2Se3S,https://materialsproject.org/materials/mp-1026980,53.56941017311488,-79.66370614048091,49.364316539272394,-76.3371125068174
-6.0861135903333325,-182.58340771,9.216263774756015,-0.29945101899999904,5.8239029,0.0,186,30,512.8070611398299,2846.16322,mp-1208609,Tb3(Co2Sn)4,https://materialsproject.org/materials/mp-1208609,68.64101444143765,13.8868991200615,49.30229432193353,-10.087469570280795
-6.628232429583334,-159.07757831,5.094472618995007,-0.6661077266145838,0.0,0.0,190,24,343.8502814884825,1054.92,mp-2779,FeS,https://materialsproject.org/materials/mp-2779,15.98476813067154,36.634205338542586,20.788309542060613,-48.25371895916501
-10.54944454325,-421.97778173,17.345458001878843,-0.2352262381875008,0.0108026,0.0,6,40,475.0008612355537,4961.706585,mp-1226569,Co3Re25B12,https://materialsproject.org/materials/mp-1226569,60.155751740639296,31.9985750552437,71.92014437699224,11.684402983121966
-9.2403690325,-110.88442839,8.063216126005015,-0.1538083029166657,2.3458754,0.0,156,12,153.69490424627486,746.3090000000002,mp-1221787,Mn8Nb3Si,https://materialsproject.org/materials/mp-1221787,64.60299640449873,47.1306223622879,78.54480558703969,-2.9255589394743016