energy_per_atom,energy,density,formation_energy_per_atom,total_magnetization,band_gap,sgr,num_sites,cell_volume,weight,mp_id,formula,URL,tsne_cry_0,tsne_cry_1,tsne_xrd_0,tsne_xrd_1
-6.316384813448275,-183.17515959,8.366940525214329,-0.11752885913793028,9.18e-05,0.0,225,29,352.71129352884225,1777.20267,mp-1194507,Mn6Ni16Ge7,https://materialsproject.org/materials/mp-1194507,42.230455737884,55.10180569436164,70.56000786648207,-17.806202943727868
-8.742973692777777,-157.37352647,16.64191173129076,-0.5301476161111098,0.00098735,0.0,166,18,324.4366450692206,3251.502,mp-1190097,Ce2Ir7,https://materialsproject.org/materials/mp-1190097,76.80534664272436,12.128915817196415,62.1197740270525,22.88092201908968
-5.427639957999999,-54.27639958,8.720156816507378,-0.26861723943750065,0.7385744000000001,0.0,72,10,162.47282521759237,853.21,mp-12466,Fe(PdSe)2,https://materialsproject.org/materials/mp-12466,35.754089311455495,30.871174035678585,69.65040923179141,-8.930236587659376
-6.0188004275,-48.15040342,8.771863322876756,-0.4826881130357146,0.0,0.0,63,8,96.46139121451618,509.561124,mp-1209823,Ni2PPd,https://materialsproject.org/materials/mp-1209823,62.12603157951632,43.86006640011168,74.13812795918852,-7.9413412721706065
-4.3344308525,-121.36406387,8.622122923801987,-0.1469876057142849,0.0,0.04329999999999945,62,28,409.5521907405893,2126.544,mp-30699,SmCu6,https://materialsproject.org/materials/mp-30699,69.5394567288531,31.103116529865733,67.9229377136744,5.611807491202622
-4.537005236000001,-22.68502618,7.6898938426821735,-0.4073014540000003,1.2e-06,0.0,164,5,70.51575297810567,326.5558,mp-11397,Ga3Ni2,https://materialsproject.org/materials/mp-11397,45.564603973725994,59.28114331044269,68.98907675653854,-13.847777464898998
-7.484150636875,-119.74641019,7.55551200797174,-0.1135173212499998,13.0185661,0.0,162,16,216.92892379392865,987.03436,mp-1222161,Mn4FeGe3,https://materialsproject.org/materials/mp-1222161,48.44344096209893,48.81812588645037,73.51363183502139,-6.431412756236192
-6.9725959310344825,-202.205282,10.069282546679988,-0.3794007386206905,0.0004838,0.0,225,29,293.8023846581296,1781.5776399999997,mp-1194177,Ta3(Ni10B3)2,https://materialsproject.org/materials/mp-1194177,40.64757266185229,50.92747764172447,66.51232613148406,-9.48789982980528
-6.867421566999999,-274.69686268,7.397151327151955,0.10130986542187513,17.4283411,0.0,62,40,563.7186860245963,2511.18,mp-952967,Fe7Se3,https://materialsproject.org/materials/mp-952967,46.376673672525214,49.440265512556685,75.15821518100586,-9.970413024877418
-6.115221537777778,-55.03699384,6.991897115259823,-0.5465373766666671,3.3333333333333334e-08,0.0,189,9,125.59915984678707,528.8502,mp-30656,TiGaNi,https://materialsproject.org/materials/mp-30656,46.926576491463,49.362878705206384,73.72932587295921,-3.8518268833736062
-8.737498876666667,-104.84998652,16.413905270242356,-0.6060479016666669,1e-07,0.0,166,12,217.5386478393096,2150.3010000000004,mp-31100,CeIr3,https://materialsproject.org/materials/mp-31100,76.822257940099,12.12901276940532,62.112281256552585,22.9135059278172
-6.956367974827588,-201.73467127,10.709886677109347,-0.5930336998275867,9.000000000000001e-07,0.0,225,29,390.48886417638016,2518.5144,mp-580092,Hf6Ni16Ge7,https://materialsproject.org/materials/mp-580092,61.46812989593028,45.5375821775245,66.91398735758841,16.063592094733693
-7.030615596666667,-126.55108074,6.333171329658406,-0.7938287055555564,1.5e-07,0.0,64,18,246.92158451831483,941.7404,mp-1189144,Zr2Si4Ni3,https://materialsproject.org/materials/mp-1189144,64.02746277653831,27.587268422029172,63.53134362172139,9.722226532487
-7.575020686428571,-106.05028961,7.984491743742355,-0.3199811939285705,14.090549900000001,0.0,38,14,190.65119623868014,916.7221400000001,mp-1224041,Ho2(Fe3Si)3,https://materialsproject.org/materials/mp-1224041,67.40220821148554,12.074857820689163,63.85505845914675,-0.6749714578193938
-8.804372506,-88.04372506,6.671925011980952,-0.8367865154759997,1.205e-05,0.0,63,10,120.33707264648079,483.5056,mp-1079224,V3AsN,https://materialsproject.org/materials/mp-1079224,51.37719173746853,48.740379849822766,73.153785445117,-3.4472397730231537
-7.42074505,-133.57341090000003,8.581947498578941,-0.3777672549999996,3.860995683333333,0.0,46,18,267.5804702465062,1382.9012699999998,mp-18649,MnGeRh,https://materialsproject.org/materials/mp-18649,46.97599466200491,45.80881321157493,65.8691726618728,-8.207061290643736
-6.764103656666666,-81.16924388,8.253254538269267,-0.018009784583333282,6.74068785,0.0,66,12,174.4674922391746,867.1428900000002,mp-570460,LaCo5,https://materialsproject.org/materials/mp-570460,77.68045786668426,17.09753206586714,86.14886274714651,-13.375387821404262
-6.391125257105262,-242.86275977,7.661066005823815,-0.6934044171428574,0.06611875,0.0,11,38,493.9401553220781,2278.84322,mp-1214085,Ce2Ni12P5,https://materialsproject.org/materials/mp-1214085,23.266631682228056,39.825666988859865,65.06979214079881,-20.073159018944157
-8.295315926071428,-232.26884593,7.259344302726816,-0.15960948375000025,9.34943655,0.0,36,28,292.17256919497413,1277.2848,mp-1212719,Fe5SiC,https://materialsproject.org/materials/mp-1212719,44.59300516421323,53.967831640963276,75.96674780388125,-10.08443557437552
-6.99527869125,-335.77337718,6.961323381216958,-0.4198114354166667,1.4357466916666668,0.0,55,48,710.1320480083315,2977.0205400000004,mp-1204392,TiMnGe2,https://materialsproject.org/materials/mp-1204392,47.907166630491936,47.14342515668858,71.28749518947116,-5.688073404465718
-3.897771649583333,-93.54651959,7.046887301979097,-0.15727316583333342,0.0,0.0,194,24,358.8497806007247,1522.8633,mp-13220,PrMg2Cu9,https://materialsproject.org/materials/mp-13220,68.26141343710236,40.285878282259155,63.89896570757725,-7.040633997762165
-7.5877233906896535,-220.04397833,9.027674132703142,0.07920413172413791,19.057188699999998,0.0,225,29,411.652535962065,2237.9871000000007,mp-1193316,Tb6Fe23,https://materialsproject.org/materials/mp-1193316,72.00234015885343,28.090825854985088,62.760912244749136,12.59684461148428
-7.995359279999999,-143.91646704,11.054052621702516,-0.2533130577777772,7.678108900000001,0.0,12,18,231.19219123970944,1539.02473,mp-1205422,Hf2Co7,https://materialsproject.org/materials/mp-1205422,62.34752977267767,46.34690623468121,72.22388465105143,17.142856431662224
-8.102782011339285,-907.51158527,7.646623393852682,-0.0977148350892857,50.96329420000001,0.0,220,112,1394.4715368538455,6421.4079999999985,mp-568158,Nd2Fe23B3,https://materialsproject.org/materials/mp-568158,71.17463695450569,36.363579997905155,70.44271346453914,-6.357190961253427
-5.902209544482759,-171.16407679,8.020342242981815,-0.40890372239737344,0.00010149999999999999,0.0,225,29,341.2117126773728,1648.039972,mp-21683,In2(Ni7P2)3,https://materialsproject.org/materials/mp-21683,62.11672678993354,43.588382534650094,73.46273842524705,-0.09056832868188676
-6.280877799365079,-791.39060272,7.6417188096454325,-0.2904987919047623,1.1666666666666666e-06,0.0,64,126,1121.9569978873171,5163.1907999999985,mp-1213377,Ga(Ni3B2)4,https://materialsproject.org/materials/mp-1213377,37.39437111287987,54.72147967028091,77.45211863625654,-11.227905543442033
-7.01636766357143,-98.22914729,4.280442926070394,-1.1456119258928579,1.514211,0.0,12,14,218.08574198996524,562.169,mp-560908,V3S4,https://materialsproject.org/materials/mp-560908,41.367634295263784,46.21156723358902,68.64195465646992,-17.301640051390482
-7.5681796831578945,-143.79541398,7.575102280130691,-0.2830900856578945,11.3455235,0.0,166,19,195.6320150936652,892.4406399999998,mp-1222963,LaFe6(CoB)6,https://materialsproject.org/materials/mp-1222963,31.09963720018043,44.65228410656996,65.97089567447928,-20.398000773245773
-8.406632811666666,-100.87959374,15.710648121266685,-0.5271147610416674,1.873333333333333e-05,0.0,166,12,226.89250842894984,2146.6694100000004,mp-1102848,LaIr3,https://materialsproject.org/materials/mp-1102848,76.80354306533391,12.11004075389866,62.05239323293742,22.87457590047051
-7.428301043793104,-215.42073027,9.045330867183274,-0.2973366336206899,0.6186043999999999,0.0,225,29,368.7839508760103,2008.8494,mp-580140,Nb6Co16Ge7,https://materialsproject.org/materials/mp-580140,63.230681004461324,43.657086076228296,74.0001071219459,-7.431162725169705
-8.143246674444445,-293.15688028,8.193711090623415,-0.8251618640476184,8.26880375,0.0,62,36,441.66728962289255,2179.349044,mp-1198946,GdCo5P3,https://materialsproject.org/materials/mp-1198946,56.18787956894265,35.0210851402884,62.053309998267224,-4.046268593313328
-5.15878985,-15.47636955,7.190903547418992,-0.15181268468749978,0.0,0.0,139,3,34.51173372883676,149.4518,mp-849078,Ni2S,https://materialsproject.org/materials/mp-849078,44.17497531664955,58.7380915205911,92.60042976347609,-5.357500941205094
-7.189068323157895,-136.59229814,8.1863582927146,-0.3459864110526317,6.604435700000001,0.0,166,19,188.84400985213432,930.98969,mp-1188842,Tb(Co2B)6,https://materialsproject.org/materials/mp-1188842,31.081111738756857,44.62766824781845,65.99321141065606,-20.50093496284017
-7.186761175263157,-136.54846233,8.248702600300112,-0.3448382521052637,6.5984103,0.0,166,19,188.13632242061576,934.56434,mp-1106057,Dy(Co2B)6,https://materialsproject.org/materials/mp-1106057,31.079350815361103,44.622859660929635,65.9764844433124,-20.511797513957518
-8.187813790952381,-171.94408961,7.290370093742286,-0.7363102292857139,0.0520523,0.0,174,21,243.57990380714043,1069.404334,mp-540809,Zr2Fe12P7,https://materialsproject.org/materials/mp-540809,58.143210111979435,36.45183481476307,72.25297980176227,-2.7707778181727507
-8.345562951818183,-183.60238494,8.116938974928916,-0.08632877572090986,22.9590417,0.0,166,22,259.1763165212112,1266.88882,mp-1191093,Gd2Fe17H3,https://materialsproject.org/materials/mp-1191093,75.9968285084559,34.83519785674924,88.4474443298534,-24.34167914748159
-6.133554375,-61.33554375,7.982389201647235,-0.08066509100000019,2.61903135,0.0,51,10,133.35088467868985,641.0319999999998,mp-21141,Fe2CuGe2,https://materialsproject.org/materials/mp-21141,42.692016602969524,49.48391167606144,75.48559869668999,-15.153112039920744
-8.109355656842105,-154.07775748,7.932900756908044,0.018365184999999274,32.8034181,0.0,160,19,260.8659506177826,1246.2361,mp-1219244,Sm2CrFe16,https://materialsproject.org/materials/mp-1219244,74.23337026751348,37.32011045450078,86.89409958011898,-22.549648537854857
-8.130897789411764,-552.90104968,8.471682227226951,-0.08396083933823541,29.56493015,0.0,136,68,884.6808094155642,4513.4348,mp-567623,Er2Fe14C,https://materialsproject.org/materials/mp-567623,72.7316856132741,31.982776109305338,83.42735951793672,-6.749403872136417
-7.307511776944443,-263.07042397,7.1879050817314,-0.8356518998809513,1.3054927,0.03779999999999984,62,36,440.3148923697045,1905.9724440000002,mp-505011,YCo5P3,https://materialsproject.org/materials/mp-505011,57.94183486651803,36.304470603757636,71.86023859456459,-2.9947025254090605
-5.16819783,-51.6819783,8.79697599632291,-0.2791424174374996,0.0017420000000000003,0.0,72,10,162.2199096185055,859.3863899999999,mp-12464,Co(PdSe)2,https://materialsproject.org/materials/mp-12464,35.68249086767171,30.91422680009717,69.71120597406879,-8.969817682045212
-8.810990397500003,-246.70773113,7.139092311934206,-0.17569939089285722,4.664350225,0.0,63,28,292.8748502667346,1259.1457,mp-18468,Mn5SiC,https://materialsproject.org/materials/mp-18468,44.61924328550865,53.92258770452629,75.96922943122142,-10.086944203064133
-7.708533056666668,-185.00479336,7.181926245290577,-0.05987610583333355,9.5e-07,0.0,227,24,278.80380734908005,1205.8424,mp-505629,Cr3SiNi2,https://materialsproject.org/materials/mp-505629,46.59375671808985,53.282177218138855,75.66746108621645,-13.142179163668999
-6.659257346666666,-259.71103652,8.477362159119675,-0.2766695989743587,10.9576382,0.0,71,39,552.2878365686181,2819.53263,mp-1197758,Tm(FeGe)6,https://materialsproject.org/materials/mp-1197758,68.32964186865223,34.3328281908583,68.83817342460267,2.2484997016647057
-4.32649167,-17.30596668,7.115978793027128,0.047075337499999925,2e-07,0.0,194,4,64.62381697944653,276.9352,mp-12070,CuAs,https://materialsproject.org/materials/mp-12070,21.718900628171767,35.885907202028505,61.87180118883703,-23.147637225622727
-8.743065467000001,-87.43065467,6.5506390913578425,-0.5208791977499999,0.00044039999999999997,0.0,63,10,121.55318617101429,479.5136,mp-27769,V3AsC,https://materialsproject.org/materials/mp-27769,51.33811533834898,48.667672370415964,73.13753776414437,-3.4824726092712925
-5.728494737999999,-28.64247369,5.086491490931432,-0.852815447857143,0.0,0.0,139,5,71.62947790411245,219.412324,mp-4064,Ca(NiP)2,https://materialsproject.org/materials/mp-4064,33.942523384155606,45.81178370168573,60.09010878511889,-6.0318227170585095
-6.668509418888888,-60.01658477,6.083437607661028,-0.29275318222222224,0.08385540000000001,0.0,153,9,124.19736544804212,455.001,mp-1216245,VSiGe,https://materialsproject.org/materials/mp-1216245,48.008856946124,50.25456695465882,76.6525092989863,-6.56848263820288
-5.74518598,-17.23555794,3.14766603591306,-0.043467191111111234,7e-07,0.0,191,3,25.640608757922287,48.6035386,mp-944,AlB2,https://materialsproject.org/materials/mp-944,32.943523437084735,43.569967664622325,61.14855771940852,-20.48361515508709
-4.477920712857143,-125.38177996,8.455392979924017,-0.1164811628571424,0.419627675,0.0,14,28,409.5808548221777,2085.5679999999998,mp-581942,CeCu6,https://materialsproject.org/materials/mp-581942,69.47703212645719,31.139866091158662,67.96662231068282,5.598756988147008
-7.426744042413794,-215.37557723,11.456964893557014,-0.4964954713793102,0.0,0.0,2,29,385.6024061292434,2660.4814,mp-27165,Hf8Ni21,https://materialsproject.org/materials/mp-27165,60.7138540848594,46.40378484719079,68.48995232310449,-7.736608600048679
-7.553596273999999,-37.76798137,5.7863578127106425,-0.4688652966666666,0.8449363000000001,0.0,65,5,45.479664212421284,158.47962859999998,mp-7892,Mn2AlB2,https://materialsproject.org/materials/mp-7892,35.64323257906227,54.99819709760303,73.9982084587863,-2.7619566650937992
-7.991314683333332,-71.92183215,6.875925155044521,-0.5974236972222227,0.0032792333333333326,0.0,189,9,126.63175270243704,524.3541,mp-1079641,TiCrAs,https://materialsproject.org/materials/mp-1079641,46.35130514354226,49.60812275532242,73.48267846556845,-10.674463003118216
-6.4539900999999995,-51.631920799999996,7.776407403695773,-0.3869770875,0.0,0.018199999999999328,4,8,93.35425687699372,437.18378,mp-1226449,Co2SiGe,https://materialsproject.org/materials/mp-1226449,43.907946241920605,58.03819713708084,77.48778709555748,-7.7401929323475835
-6.511095238333334,-39.06657143,9.16162494193401,-0.3518891029166665,4.01e-05,0.0,65,6,94.39408488320387,520.7966700000002,mp-1222896,LaNi3Rh2,https://materialsproject.org/materials/mp-1222896,73.71256444433784,15.26993136640015,84.83399145584654,-11.839854694796212
-6.951111328461537,-90.36444727,7.989338181903431,-0.25549714307692284,10.948075900000001,0.0,191,13,179.18970659598298,862.1339999999999,mp-981356,Zr(FeGe)6,https://materialsproject.org/materials/mp-981356,44.263401020315364,47.805401289941614,74.19600688015251,-0.5871834437823588
-5.99048146,-47.92385168,6.047242835615437,-0.4730868266666661,2.85e-06,0.0,129,8,117.75711896790993,428.8402,mp-1080455,TiCuSiAs,https://materialsproject.org/materials/mp-1080455,45.40345931559219,49.17855998005148,71.64960197384345,-9.433600069073178
-3.9132286591666663,-93.91748782,6.974459258206445,-0.16082100229166646,1e-07,0.0,194,24,361.62295494885547,1518.85894,mp-510643,LaMg2Cu9,https://materialsproject.org/materials/mp-510643,68.24249126032831,40.288006717139176,63.90159745080404,-7.042264863252847
-6.5365935475,-52.29274838,9.408423080859158,-0.5517514849999996,0.0,0.0,62,8,123.9315679327213,702.182,mp-22239,GeRh,https://materialsproject.org/materials/mp-22239,34.75696702710321,32.14708742967968,70.70566079904803,-9.246269702510858
-8.373636665,-133.97818664,6.054851486221754,-0.3162028156249992,0.00077125,0.0,140,16,188.81354193847355,688.4739999999999,mp-7506,Cr5Si3,https://materialsproject.org/materials/mp-7506,50.43012530468806,47.61876643605156,75.1777178887466,-8.09567785582357
-6.232441456111111,-112.18394621,8.445557579301829,-0.19315119236111164,4.251005133333334,0.0,191,18,265.2545007998378,1349.0933400000001,mp-1210011,NdGaCo4,https://materialsproject.org/materials/mp-1210011,77.4294127934821,17.003573175879275,85.24323778141273,-12.840750331390769
-6.768918603809524,-142.14729068,8.467866979555373,-0.7571963069047618,2.9534795,0.0,174,21,249.0641144653188,1270.094674,mp-567602,Yb2Co12P7,https://materialsproject.org/materials/mp-567602,55.550382742080686,34.642053837986005,62.977802661798684,-4.418342395736647
-4.828326852342341,-535.94428061,8.131685019427351,-0.28270528322072064,0.0013727000000000001,0.0,187,111,1710.2803145556834,8375.2688,mp-683971,Sm15(Ga11Ni13)4,https://materialsproject.org/materials/mp-683971,67.34075712383878,10.076847321391528,64.72860793365521,5.382358043386092
-7.080608859722222,-254.90191895,7.925084158445292,-0.8033084318253975,1.43498,0.0,62,36,450.8633147571821,2151.789044,mp-1201674,SmCo5P3,https://materialsproject.org/materials/mp-1201674,56.40222985387336,35.1468002035547,62.04291149696736,-3.8725587561237935
-6.121189281666666,-36.72713569,7.706223218328582,-0.5437001787499997,6.96e-05,0.0,65,6,86.57233698954691,401.76457,mp-1071627,LaSiNi4,https://materialsproject.org/materials/mp-1071627,74.63594765258559,21.53299982588402,88.98753353237205,-13.604840264491735
-7.066840329285714,-197.87152922,7.125722509429755,-0.4840830528571435,5.59147745,0.0,140,28,340.997772360121,1463.2932099999996,mp-1193464,YCo9Si4,https://materialsproject.org/materials/mp-1193464,22.040881145129138,39.04368136154078,66.5668749270106,-22.50005360256888
-5.7142957416666675,-34.28577445,8.24452715145929,-0.4661967766666664,3.4e-06,0.0,187,6,84.72970758097749,420.6804886,mp-1217595,TbAlNi4,https://materialsproject.org/materials/mp-1217595,75.50430263824973,19.454336935120427,88.00992734121141,-12.097347112646654
-7.563893606875,-121.02229771,7.445570591188368,-0.10583299249999902,13.2789856,0.0,193,16,219.72755481863624,985.22045,mp-617291,Mn5Ge3,https://materialsproject.org/materials/mp-617291,48.4508363021827,48.82981060836904,73.59340906518241,-6.421634793031365
-3.89615143,-93.50763432,7.470036663283852,-0.17278791874999952,2e-07,0.022700000000000387,194,24,349.2024527556436,1570.90864,mp-13226,HoMg2Cu9,https://materialsproject.org/materials/mp-13226,68.38624420338331,40.29444847633407,63.819215722415926,-7.05139063557711
-7.191558328947369,-136.63960825,8.056872070940809,-0.343798289605264,6.592800099999999,0.0,166,19,190.11368363918584,922.42434,mp-1105798,Sm(Co2B)6,https://materialsproject.org/materials/mp-1105798,31.085234879438328,44.63408696753846,66.02146189032413,-20.520775141830274
-6.543021546875,-314.06503425,6.5464183046598485,-0.5335564631249999,0.990267575,0.0,55,48,749.0391399228557,2952.970944,mp-1201682,ScFeGe2,https://materialsproject.org/materials/mp-1201682,48.033403013486854,46.79922537815138,66.43946873525256,-5.5772352460521954
-5.73330781875,-45.86646255,6.9854706221451375,-0.41655592541666653,8e-07,0.0,129,8,123.12339624050287,517.9492,mp-1078472,TiCuGeAs,https://materialsproject.org/materials/mp-1078472,45.81467971803225,49.40093578431881,71.83539900744171,-9.354229250760204
-4.227943659285715,-118.38242246,8.261690183068959,-0.06955858482142828,4e-06,0.0,226,28,387.91721794515837,1930.0069399999998,mp-1194443,LaCu13,https://materialsproject.org/materials/mp-1194443,22.425795517933764,37.760160523238,65.09111345840105,-21.758856282140236
-7.994169991111112,-71.94752992,11.042573236646097,-0.2521237688888884,7.5037473,0.0,12,9,115.7162643580828,769.512365,mp-1079776,Hf2Co7,https://materialsproject.org/materials/mp-1079776,62.39426815586263,46.375133589364005,72.22230888582833,17.104619337109675