energy_per_atom,energy,density,formation_energy_per_atom,total_magnetization,band_gap,sgr,num_sites,cell_volume,weight,mp_id,formula,URL,tsne_cry_0,tsne_cry_1,tsne_xrd_0,tsne_xrd_1
-8.283834278181818,-182.24435412,6.155278488536612,-0.4747724959090918,0.84930215,0.0,72,22,288.24070453118685,1068.44932,mp-29645,Nb2Cr4Si5,https://materialsproject.org/materials/mp-29645,63.76386190834077,28.00701764512657,63.554950343125455,9.510194574475262
-7.213529985,-43.28117991,8.262506979435019,-0.0327273366666662,3.86839445,0.0,194,6,74.09062697436408,368.66,mp-20432,Fe2Ge,https://materialsproject.org/materials/mp-20432,46.782365860526475,56.49013536980196,84.50520764621277,-1.9961337891487003
-6.931774091785713,-194.08967457,7.5487356038256435,-0.4692812935714293,4.1012407,0.0,140,28,344.7673460643535,1567.2968099999996,mp-18285,PrCo9Si4,https://materialsproject.org/materials/mp-18285,22.111684166400675,39.137593035537435,66.3454761793479,-22.497821920574733
-6.787206765555557,-61.08486089,7.762553478187593,-0.25875760388888913,3.3552587999999997,0.0,189,9,121.00387838093691,565.659135,mp-1079845,MnNiAs,https://materialsproject.org/materials/mp-1079845,45.28878052026327,50.68751430488629,74.10603948277397,-12.086025378629005
-7.887910888947368,-149.87030689,7.846588739257822,0.0409124202631568,38.1939306,0.0,166,19,263.2676180046128,1244.0253899999998,mp-1190182,Nd2Fe15Co2,https://materialsproject.org/materials/mp-1190182,74.8259107096781,37.05876772811814,86.82251009546539,-22.984927715253722
-8.879095946206899,-257.49378244,7.69326457762043,-0.0436308389655198,29.0800933,0.0,160,29,436.629810985851,2022.90255,mp-1225167,Gd3Y3Fe23,https://materialsproject.org/materials/mp-1225167,71.28326333182581,28.9941974524902,62.682820101344205,11.629202562228288
-4.1768265475,-16.70730619,2.7356537666608634,1.2380777231249995,3.065e-05,0.0,221,4,44.08718555677064,72.6314,mp-1185851,MgC,https://materialsproject.org/materials/mp-1185851,42.65607942411293,58.29149649795936,92.61173049295296,-7.840550375461153
-6.081313818275862,-176.35810073,8.3263559589672,-0.30628337206896544,0.0025486999999999997,0.0,225,29,286.5580558885321,1436.8734,mp-1193255,Ga2(Ni7B2)3,https://materialsproject.org/materials/mp-1193255,39.62694274801113,53.49245050190446,79.35560510102398,-11.57308036747415
-7.625975453888889,-274.53511634,7.394708511100378,-0.8830578307142866,7.730327099999999,0.0,189,36,437.3342511350473,1947.535849,mp-1215734,Zr5Co19P12,https://materialsproject.org/materials/mp-1215734,58.062786271337785,36.21664314590262,72.29417381013856,-2.362622388639411
-6.838202738500001,-136.76405477,4.889942325965978,-0.7260384430000002,0.0011353,0.0,72,20,276.5145304506035,814.277818,mp-1189893,Sc2Co3Si5,https://materialsproject.org/materials/mp-1189893,34.376314723583704,45.747965824554974,60.12955429067192,-4.782767523515799
-9.282822217272725,-204.22208878,8.750717870484928,0.006248957102272357,12.8331712,0.0,12,22,237.19822013711155,1249.9885,mp-571055,Fe11Mo6C5,https://materialsproject.org/materials/mp-571055,63.20973601834253,42.725413937084824,78.48484612109515,2.984686873680633
-4.829291958076923,-125.56159091,9.497553459274318,-0.12093312038461608,0.0,0.04709999999999948,227,26,505.98293574934837,2894.0,mp-30067,Te3Pd10,https://materialsproject.org/materials/mp-30067,66.0517947182928,35.48538960626892,57.977169325156325,59.712992264066
-5.691547571,-56.91547571,8.370351630412602,-0.17859289900000022,0.5221587000000001,0.0,51,10,129.6207116783132,653.38478,mp-19955,Co2CuGe2,https://materialsproject.org/materials/mp-19955,42.568354747540866,49.47522091317407,75.42669534063306,-15.197783794750519
-8.250798836875,-132.01278139,7.441334025538423,-0.605752162708332,0.0,0.0,62,16,154.83230089596555,693.8462999999998,mp-20877,NbCoB2,https://materialsproject.org/materials/mp-20877,58.23215030164318,28.309812748045395,64.35546435380532,10.032365205037392
-8.452577675,-101.43093209999999,12.15618544235262,-0.15621763499999966,2.0390666333333334,0.0,156,12,146.60527389385516,1073.242395,mp-1218093,TaCo3,https://materialsproject.org/materials/mp-1218093,64.47679339601136,47.56034431250598,72.25737429665166,17.49117831170609
-6.415547824903847,-667.21697379,8.381980385672584,-0.4158757349038463,4.65e-06,0.0,64,104,1032.302204431571,5210.799999999998,mp-1198877,Dy2(Ni5B3)3,https://materialsproject.org/materials/mp-1198877,53.63718715061044,38.088041895273655,66.1523051980016,-5.731772668503586
-6.558050115,-39.34830069,8.447439092730116,-0.007237838749999763,6.533975099999999,0.0,187,6,87.60153668100052,445.64363,mp-1219008,SmMnCo3Cu,https://materialsproject.org/materials/mp-1219008,77.55296989669685,17.631747609077802,85.1670641995047,-13.173119510536567
-3.87757859,-23.26547154,6.753957293456045,0.018449393802083474,5e-08,0.0,31,6,101.3205667147462,412.10400000000004,mp-684653,Cu2Se,https://materialsproject.org/materials/mp-684653,17.20317649935255,23.721366043411514,67.50053381595676,-15.534723386632919
-1.6564714515384615,-21.53412887,7.775031299993193,-0.13341062692307687,2.11e-05,0.0,139,13,205.00366487545784,959.875,mp-1104393,LuZn12,https://materialsproject.org/materials/mp-1104393,70.89269863667383,17.613517441142488,66.91307575303888,3.822359679851188
-8.150897275,-81.50897275,7.7556978959094645,0.5574167603333336,0.0012077,0.0,127,10,115.33744991350832,538.694,mp-20278,Fe(BMo)2,https://materialsproject.org/materials/mp-20278,37.72319224146806,46.93572212501303,60.08259251223285,-23.32889163844216
-1.6899932623076923,-21.96991241,7.655911041274948,-0.16081127769230746,2.8199999999999998e-05,0.0,139,13,205.48932221479046,947.408,mp-1104551,DyZn12,https://materialsproject.org/materials/mp-1104551,70.96480855340242,17.64948692302719,66.95846854739621,3.910421867966088
-6.836643638333332,-205.09930915,8.423892024267229,-0.1749947924722221,20.9376937,0.0,191,30,394.6494083429845,2002.051095,mp-505807,Nd5Co21B4,https://materialsproject.org/materials/mp-505807,74.1720938715425,26.338269766155573,60.99416317185807,16.053615861494066
-8.179648823809524,-171.77262530000002,7.718267496333638,-0.7114921954761894,15.0978014,0.0,174,21,263.76803842992354,1226.0068740000004,mp-865350,Lu2Mn12P7,https://materialsproject.org/materials/mp-865350,55.394941715506036,33.76986254492752,61.711881281185654,-3.934832977745885
-5.946270752857143,-41.62389527,7.144805096723576,-0.3993268614285717,0.0047037,0.0,139,7,109.69827108375259,471.999,mp-1025165,Zr(VGa2)2,https://materialsproject.org/materials/mp-1025165,66.75007445121514,33.63910090351385,68.1420548488983,-0.682472036589244
-7.326886976500001,-146.53773953,12.503001375906743,-0.06656288350000067,5e-08,0.8456000000000001,116,20,317.88634452841995,2393.52,mp-510032,Ge3Os2,https://materialsproject.org/materials/mp-510032,35.08437795250025,33.737347056192725,57.95553665988027,-11.155625147598238
-6.5799299950000005,-39.47957997,7.701464323862434,-0.22619603333333296,3.0833931,0.0,187,6,86.85562152879828,402.8303186,mp-1226661,CeAlCo4,https://materialsproject.org/materials/mp-1226661,75.07885532765792,18.629811079017134,87.43549191218557,-11.699150153116305
-6.841953204166668,-82.10343845,10.584530579548565,-0.3947140091666661,1.15e-06,0.0,62,12,176.16934018838128,1122.9304,mp-1102364,AsRh2,https://materialsproject.org/materials/mp-1102364,61.49888095255994,37.29648205241438,72.53069744652588,1.2048537430585686
-8.389773891111114,-75.50796502,8.084540178925769,-0.2655774794444439,0.0015168666666666667,0.0,189,9,134.04761664988786,652.6274400000001,mp-21440,NbCrGe,https://materialsproject.org/materials/mp-21440,60.53096770463535,36.77365868660465,72.98645600681748,-1.6996641064948714
-7.1340103884615385,-92.74213505,8.067741976547817,-0.2005671442307689,9.5e-06,0.0,191,13,187.86568766150643,912.7469199999999,mp-9441,Ho(CrGe)6,https://materialsproject.org/materials/mp-9441,68.22662328404262,34.15184418103513,68.8412557368576,2.248769428256064
-7.540269671315789,-573.06049502,7.801100594362988,-0.19071749657894688,21.38265675,0.021100000000000563,62,76,1073.9831798002733,5045.5006600000015,mp-29905,Mn9(NbGe4)2,https://materialsproject.org/materials/mp-29905,47.42502992734642,48.721185121700685,73.76118351259686,-5.929706453783234
-6.6777924941025635,-260.43390727,6.7359303748852275,-0.9163370832783896,0.0,0.0,174,39,520.1470456023549,2109.9620059999997,mp-541124,Y6Ni20P13,https://materialsproject.org/materials/mp-541124,57.61947569381836,35.79505186103453,71.43601595946423,-0.853774888718664
-8.715599015,-34.86239606,6.869620824812528,-0.5098437587499998,0.846727,0.0,225,4,45.662047982130645,188.90309,mp-865026,Mn2VSi,https://materialsproject.org/materials/mp-865026,43.27373032350398,60.27576555978415,90.84470689717692,-7.646690792949332
-6.7557777175,-81.06933261,8.331647248678593,-0.023141842083333586,13.5738407,0.0,47,12,173.88951971488416,872.4794199999999,mp-1222865,LaNdCo10,https://materialsproject.org/materials/mp-1222865,78.1303837503363,17.66130158494568,86.19683153404054,-13.446650267446868
-6.418697958365384,-667.54458767,8.417340295128266,-0.4211321849038464,3.25e-07,0.0,64,104,1031.8012168970054,5230.242560000001,mp-5571,Ho2(Ni5B3)3,https://materialsproject.org/materials/mp-5571,53.61152137753519,38.0853459423491,66.16968744217583,-5.720541945416299
-8.848906898863635,-389.35190355,8.323561510838905,-0.0970986382386343,3.1946934,0.0,194,44,518.6323765316256,2599.6790100000003,mp-1212558,Ho2Mn17C3,https://materialsproject.org/materials/mp-1212558,74.9629055667272,34.04573451369943,89.04906633628103,-21.449777416600853
-6.287924454444445,-226.36528036,7.131055171522242,-0.3864945133333337,0.83191335,0.0,194,36,466.43356335971487,2003.062496,mp-1197416,Sc2Ni7,https://materialsproject.org/materials/mp-1197416,40.0607435340531,46.32680282868971,68.69852944188361,-16.838081437024275
-6.108586032000001,-30.54293016,5.755899818307783,-0.4650580269999999,4.6518607,0.0,139,5,87.01283696916262,301.6112,mp-1068300,Ca(FeAs)2,https://materialsproject.org/materials/mp-1068300,31.34359946482415,19.62942740372164,54.17883808784686,-13.257152484238315
-9.381473304,-93.81473304,8.260062087158481,-0.4377846706666659,0.08616225,0.0,127,10,106.74737197949716,530.9962,mp-1206931,Cr(BMo)2,https://materialsproject.org/materials/mp-1206931,59.40309024440678,28.66540566249754,65.6661994527859,13.957347687790925
-7.086876384615384,-92.12939300000001,8.028366924675618,-0.22478137769230627,5.7060413,0.0,35,13,189.50138881122453,916.2004900000001,mp-1225876,DyMn2(Cr2Ge3)2,https://materialsproject.org/materials/mp-1225876,68.15605605719294,34.10105828589749,68.84958289228754,2.278752834882638
-9.468905085625,-151.50248137,9.713072764169585,-0.3475988536607151,0.0,0.0,82,16,222.2290028619194,1299.895048,mp-17449,Tc3P,https://materialsproject.org/materials/mp-17449,61.61781716197094,37.308919764992936,73.89954015813692,1.4163065076236292
-7.788791847222222,-140.19825325,6.943464230676905,-0.4618149685185181,0.0007119,0.0,193,18,231.22996706523816,966.877,mp-1106398,V5Ge3B,https://materialsproject.org/materials/mp-1106398,48.46354830552623,48.88169891120041,73.67999702122914,-6.2937168786272535
-6.758312531428571,-141.92456316,6.62736496161874,-0.7014990978571424,2.9775383,0.0,174,21,251.60295481793304,1004.1706740000001,mp-10923,Ca2Co12P7,https://materialsproject.org/materials/mp-10923,43.896940005347375,52.46381537018983,75.03475616207022,-11.085471898303943
-6.2540475868421055,-237.6538083,7.569592587107898,-0.6774469337218048,0.0008696,0.0,11,38,500.60374480750886,2282.00982,mp-1209747,Pr2Ni12P5,https://materialsproject.org/materials/mp-1209747,23.23630326891471,39.80682889545738,65.09084112392512,-20.08573980475659
-7.406399961666668,-133.31519931,8.054987729347241,-0.7841294688888891,0.00014398333333333333,0.0,46,18,276.3394736821508,1340.475,mp-1208205,TiGeRh,https://materialsproject.org/materials/mp-1208205,46.97189160929178,45.66338651305157,65.79097043952262,-8.244256936248558
-6.457518631666668,-38.74511179,10.384494129155463,-0.4073209200000013,0.8265877,0.008999999999998566,191,6,84.03121586804824,525.50506,mp-1567,ThNi5,https://materialsproject.org/materials/mp-1567,75.48457038948109,20.320601833626302,89.84523226784094,-13.332487646688106
-7.249408894,-36.24704447,8.643314578854921,-0.6773284028571425,0.0,0.0,115,5,71.21134802628455,370.66402400000004,mp-28056,P2Rh3,https://materialsproject.org/materials/mp-28056,30.09664806299821,28.766515249473013,64.15508654646018,-2.3678656803233293
-7.9210961475,-126.73753836,6.7270820525776776,-0.11963615249999915,10.6581773,0.0,166,16,188.38783085459306,763.1861494,mp-1222031,Mn11Al4V,https://materialsproject.org/materials/mp-1222031,44.41794194020061,60.56912528544002,90.26520149128369,-6.945438027353196
-7.552919439166666,-90.63503327,6.920202599441224,-0.3882800974999985,14.2323027,0.0,6,12,146.94415475412623,612.38146,mp-1222104,Mn4Co4Si3Ge,https://materialsproject.org/materials/mp-1222104,44.28678491264071,52.87277537926078,74.82658472489089,-10.47128303539209
-7.787325375,-155.7465075,6.8440632137079325,-0.4806654730000005,0.794687525,0.0,83,20,293.73868493229014,1210.6708,mp-540701,V3As2,https://materialsproject.org/materials/mp-540701,23.079557079907406,35.794986359024314,64.92674142451419,-20.474804151919496
-7.22978399375,-57.83827195,9.4091544121941,-0.2728535612499998,0.00716025,0.0,62,8,124.23684837537573,703.9664,mp-15650,AsRu,https://materialsproject.org/materials/mp-15650,34.75663544406839,32.09315902214777,70.65328791033595,-9.303662814945564
-8.0167787685,-160.33557537,8.246682602282803,-0.03908811293749892,35.2902394,0.0,12,20,260.26625616517066,1292.5520900000001,mp-1225909,Dy2Fe15Co2C,https://materialsproject.org/materials/mp-1225909,75.32864826255987,34.49665347434029,87.78620182329911,-23.833754805859407
-4.9262607425,-19.70504297,7.601658519321232,-0.3625965050000009,3.2e-06,0.0,225,4,46.065819789971314,210.8813,mp-1206365,ZnSiNi2,https://materialsproject.org/materials/mp-1206365,43.42546488404705,60.632814199079036,90.70430699166515,-7.6135956988466384
-4.122127511666666,-24.73276507,6.235686564316749,-0.2344598196875,4.5e-07,0.0,122,6,84.76577815878021,318.314,mvc-13442,Cu2S,https://materialsproject.org/materials/mvc-13442,35.665429369976245,54.308817574087286,75.19559981030126,-4.015239207764024
-6.227111790833334,-74.72534149,9.011435000883774,-0.4906089236111117,0.0,0.0,191,12,149.07826866144453,809.0199,mp-12964,TbNi4B,https://materialsproject.org/materials/mp-12964,74.23855212258152,25.771822189558087,61.48573745361357,15.887749875083928
-6.980328683000001,-139.60657366,10.71360385802881,-0.011249178749999091,0.0,0.015200000000000102,63,20,330.78745370916903,2134.202,mp-29141,Re3Ge7,https://materialsproject.org/materials/mp-29141,35.54403406098191,33.548672109531886,56.930047117968066,-8.354028510092924
-5.753452246551723,-166.85011515,6.973139693455275,-0.4832142959605917,0.0,0.0,225,29,341.15632220032893,1432.6255720000001,mp-14842,Mg3(Ni10P3)2,https://materialsproject.org/materials/mp-14842,46.313065015668755,52.942903102471455,74.49021468201956,-10.375821213698826
-9.878140492142858,-276.58793378,14.61648350641191,-0.14080712533999978,3.57055215,0.0,227,28,337.33470191237893,2969.30514,mp-541595,Co3W3N,https://materialsproject.org/materials/mp-541595,60.731688351535,31.363804434542747,66.64749174995913,16.577862040789825
-5.929894788333333,-35.57936873,8.925301053065873,-0.16658313833333338,7.2189374000000015,0.0,191,6,88.36932541880711,474.98,mp-636253,GdCu5,https://materialsproject.org/materials/mp-636253,77.38297254080344,17.254263890700553,85.1042859553326,-13.079844052583585
-5.4036375475,-151.30185133,4.014574382001938,-0.5659242796428572,2.02e-05,0.0,63,28,421.52403238177254,1019.0905128,mp-1209089,Sc2(Al3Co)3,https://materialsproject.org/materials/mp-1209089,41.55766589266722,43.337247370629996,63.44855356005928,-7.617107001226434
-8.236007893333333,-148.24814208,6.77889253630558,-0.19008794994666625,0.29798605,0.0,15,18,165.01232518280062,673.63717,mp-1246290,Cr2Co3N4,https://materialsproject.org/materials/mp-1246290,27.915371657546626,53.01617559506688,70.4191991452698,-2.872692103760664
-7.861366045909091,-172.95005301,5.793524148263813,-0.2259241181818174,9.5818175,0.0,72,22,312.9845458352175,1091.98488,mp-17893,Mn4Nb2Si5,https://materialsproject.org/materials/mp-17893,49.46491736237919,45.41938788020391,64.24177425390161,-7.039412721678313
-5.116790196666667,-15.35037059,2.637300953915517,-0.12966081444444436,1.6e-06,0.0,191,3,28.917282412101606,45.927,mp-763,MgB2,https://materialsproject.org/materials/mp-763,33.200297594973804,43.675377044545776,61.17352988620817,-20.737001444637926
-8.083313090227273,-355.66577597,8.504321020720758,-0.4412401039935064,6e-07,0.0,2,44,562.9425177330048,2883.0661440000003,mp-1220216,Ni15Mo17P12,https://materialsproject.org/materials/mp-1220216,61.1852161219893,37.48397694680511,73.5034888328322,0.4918631944891616
-7.881652592777778,-283.73949334,7.272403429952718,-1.018941001269842,0.5,0.0,189,36,466.8084999366843,2044.408264,mp-18133,Zr2Co4P3,https://materialsproject.org/materials/mp-18133,58.001441167655926,35.97964884648842,71.98315125228828,-1.8493896827323704
-7.683997919999999,-46.10398752,7.84058892671239,-0.03691634499999808,4.5895394,0.0,194,6,77.3092673792898,365.03218,mp-20473,Mn2Ge,https://materialsproject.org/materials/mp-20473,47.24026338657053,56.434257664578396,84.3013151137593,-1.4969790998826868
-8.699202720499999,-173.98405441,5.724355200986084,-1.0922335810233337,2.5e-06,0.0,44,20,188.90685249478747,651.2162,mp-676800,Ti7Ni3N10,https://materialsproject.org/materials/mp-676800,30.410874925625272,54.47730752918025,70.29379914311443,-1.0780545361436975
-1.6644097176923078,-21.63732633,7.669535503631259,-0.1450173969230768,7.2e-05,0.0,139,13,206.51736040011292,953.84221,mp-1103916,TmZn12,https://materialsproject.org/materials/mp-1103916,70.9247344864226,17.612259536675502,66.87955728996695,3.906344982955955
-4.284800417307692,-111.40481085,7.285310330427595,-0.1830811882692312,1.524717,0.0,12,26,435.1938524718781,1909.33317,mp-1219382,Sm(Ga3Co)3,https://materialsproject.org/materials/mp-1219382,66.88179353949646,9.895885255708157,64.10051906325491,6.526339447915032
-7.977826713793102,-231.3569747,10.092995009791098,-0.6860164912068961,0.015872,0.0,225,29,363.67511300492913,2210.46962,mp-672689,Hf6Co16Si7,https://materialsproject.org/materials/mp-672689,60.49893088724134,45.90906208229529,61.61037125762879,-7.034561332449358
-6.93824005,-201.20896145,8.361502692041052,-0.19884770517241326,22.1306313,0.0,225,29,286.3535936737354,1441.9090949999998,mp-1194289,Ga2(Co7B2)3,https://materialsproject.org/materials/mp-1194289,39.62256234574426,53.62719846527286,79.3456399871186,-11.578185827411046
-7.9790889175,-31.91635567,7.132295002590803,-0.4605019887500008,1.9862546000000003,0.0,216,4,45.121674346814224,193.805195,mp-1066609,VFeCoSi,https://materialsproject.org/materials/mp-1066609,42.76302640610924,60.118827113104935,91.428198699949,-8.421248388129307
-5.525869776153847,-71.83630709,7.807261526147291,-0.27364435519230856,9.892111199999999,0.0,44,13,193.87435978464802,911.528,mp-1220507,NdGa7Fe5,https://materialsproject.org/materials/mp-1220507,67.7005977700568,33.62294050346874,68.90242748197433,2.434229967533109
-9.60396145607143,-268.91092077,9.286491906551305,-0.18696231641142846,0.8650498,0.0,227,28,335.7105932245232,1877.4468,mp-510619,Fe3Mo3N,https://materialsproject.org/materials/mp-510619,63.375681884806454,42.297881351856844,74.52432086540739,1.8838607363427509
-7.62327657875,-60.98621263,7.318293055203244,-0.43214329250000016,7.9999994999999995,0.0,166,8,90.25803362081452,397.783325,mp-1221599,MnV(Co2Si)2,https://materialsproject.org/materials/mp-1221599,42.70285108771276,60.13948692228429,91.46284042891594,-8.504808386943044
-7.799953919285714,-218.39870974,6.849799499883684,-0.5539227028571422,0.000637225,0.0,139,28,376.1758526471992,1551.7426,mp-1210174,Nb2Co2Si3,https://materialsproject.org/materials/mp-1210174,63.492182009924,27.98529704457961,63.62593129465285,9.608192718057618