energy_per_atom,energy,density,formation_energy_per_atom,total_magnetization,band_gap,sgr,mp_id,formula,URL,cell_volume
-6.9189347279166675,-166.05443347,8.736614636323706,-0.3157481966666656,0.00254005,0.0,191,mp-505207,Sm2Co7B3,https://materialsproject.org/materials/mp-505207,283.45983236824793
-7.432397494473684,-282.43110479,5.033862680146108,-2.6012646297368427,0.08470189999999998,0.0,67,mp-1229313,CaEu2(GeO3)4,https://materialsproject.org/materials/mp-1229313,545.3200627299248
-4.74665502016129,-588.5852225,2.1680833258514687,-1.5590111232161752,0.997168975,3.175,14,mp-662607,CeP4(ClO)13,https://materialsproject.org/materials/mp-662607,2858.0156112016293
-5.9673660704545455,-262.5641071,4.614426349353728,-2.0929428164034105,0.0,3.3052,14,mp-559160,NaSmSe2O7,https://materialsproject.org/materials/mp-559160,638.0509533804593
-7.74387351875,-247.8039526,5.970468529398308,-2.64322060852125,7.00000115,1.1011000000000002,55,mp-19358,SmMn2O5,https://materialsproject.org/materials/mp-19358,378.50987798558594
-5.2121337122727285,-114.66694167,4.15293887688434,-0.6710834607272731,13.99196055,0.0,9,mp-1221214,Na4Eu2SiAs4,https://materialsproject.org/materials/mp-1221214,578.7053548236911
-7.108850138888888,-255.91860499999999,8.458696272905394,-0.8480983679365091,1.223937975,0.0,62,mp-1195740,ErCo5P3,https://materialsproject.org/materials/mp-1195740,435.6907248412483
-7.7259503795,-618.07603036,3.654497987233732,-3.147680724784484,6.999999975,3.3463,15,mp-555485,Rb2GdGa(SiO3)4,https://materialsproject.org/materials/mp-555485,1276.3477614226472
-6.8932334573333325,-206.79700372,5.083499135342215,-2.4891133295833328,0.0,3.3593,2,mp-4794,Sm2As4O9,https://materialsproject.org/materials/mp-4794,486.3212873672799
-7.5861233321875,-242.75594663,6.016059159781139,-2.8181706329687497,2.999999075,2.4043,55,mp-1210145,NdCrGeO5,https://materialsproject.org/materials/mp-1210145,385.1828635641138
-4.951737835,-247.58689175,3.3975530396474047,-0.7745578240312512,16.0009874,0.3937,15,mp-1200056,Sm2Se3O20,https://materialsproject.org/materials/mp-1200056,838.2846934941784
-7.760509321111112,-279.37833556,8.178031146219519,-0.7498483668253976,1.5077676000000002,0.0,62,mp-1200519,ErFe5P3,https://materialsproject.org/materials/mp-1200519,438.1022863672632
-2.46043185625,-39.3669097,7.911658661172787,-0.3489455649999997,0.001217875,0.0,62,mp-1188983,TbZn3,https://materialsproject.org/materials/mp-1188983,298.1647048131488
-8.1915533740625,-262.12970797,5.9438944793266,-2.394115194771251,13.00000035,0.0,55,mp-542392,EuMn2O5,https://materialsproject.org/materials/mp-542392,381.9945560872759
-5.909229981111111,-106.36613966,9.676559673071703,-0.3915985188888887,0.51610465,0.0,166,mp-865205,Dy2Ni7,https://materialsproject.org/materials/mp-865205,252.5513206998021
-7.057507881923077,-183.49520493,6.350464356747684,-2.704522926153845,1.0000001,0.5320999999999998,8,mp-1208916,Sm2Cu(GeO4)2,https://materialsproject.org/materials/mp-1208916,333.41248536685885
-4.92661802125,-354.71649753,3.099225455721045,-3.3512402599666675,0.00161535,6.4703,62,mp-1196988,K5Li2PrF10,https://materialsproject.org/materials/mp-1196988,1157.8782369738694
-5.742528378437499,-551.28272433,3.0021636862580605,-2.0218369519762427,0.000323,5.1941,14,mp-695906,RbSmH8(SO6)2,https://materialsproject.org/materials/mp-695906,1106.2594229778774
-6.567827006875,-105.08523211,6.702848777377479,-1.7691450615625,13.962455100000001,0.0,115,mp-1219165,Sm4Fe3Co(AsO)4,https://materialsproject.org/materials/mp-1219165,295.2006565081664
-5.169838638888889,-93.0570955,8.570105804360244,-0.3581072488888889,0.00096025,0.01049999999999951,166,mp-17587,Ce2Zn2Ni5,https://materialsproject.org/materials/mp-17587,273.0136615696102
-2.47307932125,-39.56926914,6.927096613888337,-0.3225388387499999,2.235e-05,0.0,62,mp-1188870,PrZn3,https://materialsproject.org/materials/mp-1188870,323.2668918977258
-5.8577520940625,-374.89613402,2.866679965186851,-1.3698657850606146,2.00000285,0.4942000000000001,14,mp-1210169,RbSm(SO6)2,https://materialsproject.org/materials/mp-1210169,1139.8596103812765
-6.167575443,-123.35150886,6.27637838208578,-0.7684208020000001,8.5e-07,0.0,72,mp-1209921,Nd2Si5Ni3,https://materialsproject.org/materials/mp-1209921,320.124847664813
-5.878682981,-117.57365962,8.014311649131127,-0.6469682884999998,0.5003495,0.0,72,mp-1213960,Ce2Ni3Ge5,https://materialsproject.org/materials/mp-1213960,339.60047011743615
-7.373393678125002,-353.92289655,4.989330328400183,-2.184149157890625,7.00001295,1.9441,11,mp-1203163,GdV(SeO4)2,https://materialsproject.org/materials/mp-1203163,657.7904538452589
-5.039553739166666,-60.47464487,7.705894202276482,-0.08721637333333318,0.87012225,0.0,63,mp-1095471,SmGaCo,https://materialsproject.org/materials/mp-1095471,240.50020538972836
-6.138337822894738,-233.25683727,4.90096032559127,-2.0221814847039483,1.00000025,0.52,14,mp-17874,Sm2Cu(SeO3)4,https://materialsproject.org/materials/mp-17874,590.9674871577097
-5.6225370825,-89.96059332,6.674824447112561,-0.7956359440625,3.8e-06,0.0,121,mp-1219156,Sm4Cu5P7,https://materialsproject.org/materials/mp-1219156,282.60663204850107
-5.112540195909091,-112.47588431,4.312272051448423,-0.6444509407272728,13.965723800000001,0.0,9,mp-1221216,Na4Eu2GeAs4,https://materialsproject.org/materials/mp-1221216,591.6363599478548
-5.1022765350000014,-61.22731842,8.070297259416911,-0.593851789166667,4.2000000000000004e-06,0.0,62,mp-1103079,SmGaNi,https://materialsproject.org/materials/mp-1103079,229.44339260390632
-6.8877763695833325,-165.30663287,8.249838381030562,-0.2733677804166668,3.62985035,0.0,191,mp-3867,Pr2Co7B3,https://materialsproject.org/materials/mp-3867,292.57486316935655
-5.775152643333333,-69.30183172,8.382788078841795,-0.7360353791666658,5.0125e-05,0.0,62,mp-1101817,SmNiGe,https://materialsproject.org/materials/mp-1101817,223.20158095895184
-5.607345735,-358.87012704,3.3716914291882087,-1.7507611870492186,0.0003681,4.4333,19,mp-733508,SmH5(SeO4)2,https://materialsproject.org/materials/mp-733508,869.3804113149639
-5.878308664318182,-258.64558123,3.798974852913713,-1.3367496224715907,2.00007135,0.7182,19,mp-1208985,Sm(SeO4)2,https://materialsproject.org/materials/mp-1208985,762.7868357466723
-7.636916717692308,-198.55983466,6.0291580198943615,-2.4263498923076927,12.9998735,0.0,8,mp-1213273,Eu2Cu(GeO4)2,https://materialsproject.org/materials/mp-1213273,352.94781060238665
-7.173637406399998,-358.68187032,3.4765589842049085,-3.0057113899976,12.02749255,0.0,11,mp-605935,K5Eu2Si4O13F,https://materialsproject.org/materials/mp-605935,801.2408928331406
-4.432402718064517,-137.40448426,4.500918705678031,-1.0547162536481858,5.3700000000000004e-05,1.3215,5,mp-1220847,Na6Sm4Ge4Se17,https://materialsproject.org/materials/mp-1220847,875.2053307124947
-5.5518447823076915,-288.69592868,4.324089644835143,-2.068451846826924,14.00964115,0.2261,4,mp-694875,Ba2Ca2Zn5Fe3O14,https://materialsproject.org/materials/mp-694875,824.4010638154182
-4.170096111875,-133.44307558,3.1847913977353715,-2.534345952123707,0.0,4.8518,62,mp-28275,Rb2PrCl5,https://materialsproject.org/materials/mp-28275,1020.0772891921321
-5.184866909375,-82.95787055,6.964570728243787,-1.236206859296875,0.0,0.7755999999999998,14,mp-11793,SmCuSe2,https://materialsproject.org/materials/mp-11793,354.61286168471935
-7.320186968166666,-439.21121809,5.534620891227771,-2.716481273275333,9.99998845,0.0,2,mp-1227762,Ca2HoMn3O9,https://materialsproject.org/materials/mp-1227762,664.7352228574493
-6.888440735555554,-123.99193324,6.467964458507128,-0.4548727955555552,13.81305375,0.0,64,mp-1190462,Gd2Al3Ge4,https://materialsproject.org/materials/mp-1190462,352.2398595304048
-4.779263045294118,-81.24747177,8.06128381409342,-0.491605471176471,0.0323108,0.0,229,mp-630372,Tb4Ga6FeGe6,https://materialsproject.org/materials/mp-630372,318.4028463050998
-7.461446833749998,-537.22417203,3.2553416845374263,-2.8082732077261903,6.000000125,0.0,14,mp-1019737,KEu(PO3)4,https://materialsproject.org/materials/mp-1019737,1034.3743836001001
-5.947140243,-118.94280486,8.83213121193366,-0.5816800584999996,0.0009757999999999999,0.0,15,mp-865105,Dy2Co3Ge5,https://materialsproject.org/materials/mp-865105,325.25911266706095
-6.724386739500001,-134.48773479,5.241225885895141,-1.7751250244374999,2.999999875,0.0,62,mp-15932,SmCrS3,https://materialsproject.org/materials/mp-15932,378.3509948076008
-6.5558900390476165,-137.67369082,8.763262154708656,-0.3402192140476196,0.0017008,0.0,65,mp-1191040,Tb4Ni13C4,https://materialsproject.org/materials/mp-1191040,274.1443496993964
-4.225623164166667,-50.70747797,7.452352876295885,-0.6883157849999998,1.7875e-05,0.0,194,mp-1208849,SmZnGe,https://materialsproject.org/materials/mp-1208849,257.05406705078053
-8.745022769999999,-629.64163944,4.711697581153199,-3.422915832013888,0.02492955,0.0,36,mp-1227853,BaTi6O11,https://materialsproject.org/materials/mp-1227853,846.5661239237949
-4.033050750555557,-72.59491351,8.121074386347217,-0.1540772549999995,0.51681615,0.0,166,mp-640899,Ce2Zn2Cu5,https://materialsproject.org/materials/mp-640899,298.03141407143835
-4.0233848934999985,-160.93539574,2.63163606170429,-2.480167832356,0.0,5.0152,14,mp-1211924,K3HoCl6,https://materialsproject.org/materials/mp-1211924,1249.2191475154825
-4.30459563625,-137.74706036,2.7581956492974147,-2.5015647915375,0.999954125,0.1604000000000001,62,mp-1212138,K2CeCl5,https://materialsproject.org/materials/mp-1212138,952.6112454231833
-6.932741074791667,-332.77157159,3.839172350471295,-2.366363719625,0.0,2.7192,19,mp-558923,KTbCr2O8,https://materialsproject.org/materials/mp-558923,743.962574192571
-5.2670847134375,-168.54671083,3.191157008209432,-2.38840140285,7.000002325,2.5469,62,mp-1210500,Na2GdCl5,https://materialsproject.org/materials/mp-1210500,791.9711053517668
-6.227371388200001,-622.73713882,2.914806775043617,-1.7413828279992014,4.0000164,2.1027,14,mp-1212585,KBaV5(H2O7)2,https://materialsproject.org/materials/mp-1212585,1502.061195284696
-6.475555157857142,-181.31554442,5.141402738563107,-2.3370599313950886,0.0,3.8567,2,mp-559755,Sm2(SeO3)3,https://materialsproject.org/materials/mp-559755,440.2745710869939
-8.053428628157894,-306.03028787,5.218153055426875,-2.8230560486842116,13.9999989,3.1538,67,mp-1227314,CaGd2(GeO3)4,https://materialsproject.org/materials/mp-1227314,532.7894219356947
-4.1657478903125,-133.30393249,3.0696042943433404,-2.52882696185,6.235e-05,4.9163999999999985,62,mp-1212062,K2DyCl5,https://materialsproject.org/materials/mp-1212062,904.4052424605244
-5.652280976875,-90.43649563,5.923616288596772,-1.71616136453125,0.0,1.1156000000000006,14,mp-5081,SmCuS2,https://materialsproject.org/materials/mp-5081,311.7620116037652
-7.1884723818181815,-316.29278480000005,5.533800855307309,-2.897020871022728,1.875e-06,3.3654,14,mp-1208364,TbAlGe2O7,https://materialsproject.org/materials/mp-1208364,531.9469749741074
-5.2548820275,-63.05858433,7.1948871710747255,-0.4178004941666664,14.15325255,0.0,26,mp-1103795,Eu2Zn3Ge,https://materialsproject.org/materials/mp-1103795,264.39565674932567
-6.177998997,-123.55997994,6.48384510217111,-1.2039394636562506,2.983623675,0.0,62,mp-864797,NdCrSe3,https://materialsproject.org/materials/mp-864797,443.6932114493587
-4.882294878787879,-161.115731,4.597243353870638,-0.5000765472727275,0.7848128000000001,0.0,12,mp-582245,Ce4Al23Ni6,https://materialsproject.org/materials/mp-582245,553.796679398768
-8.29524741826087,-763.16276248,3.9424985505625347,-3.4129380375000014,0.0,2.8895,64,mp-558083,BaLi2Ti6O14,https://materialsproject.org/materials/mp-558083,1115.988110981609
-3.7532476603125,-120.10392513,3.9034248362498825,-1.867986203875,0.0,4.0156,62,mp-1211730,K2SmBr5,https://materialsproject.org/materials/mp-1211730,1068.7493759069769
-7.2025928735,-576.20742988,4.165468730021126,-2.664525845015625,12.000002625,1.1066000000000005,58,mp-1214792,BaFe3Si4SO11,https://materialsproject.org/materials/mp-1214792,997.0283708636363
-5.6244167125,-359.9626696,3.888673011813216,-1.5474013247265628,1.00000285,0.1168,14,mp-1179933,PrSe4O11,https://materialsproject.org/materials/mp-1179933,1080.7709597014166
-7.180311479318181,-315.93370509,5.074992657224574,-2.8746584444318186,3.5e-07,3.2783999999999995,14,mp-1209642,PrAlGe2O7,https://materialsproject.org/materials/mp-1209642,556.4564204887388
-7.876825829117648,-267.81207819,4.872636311421385,-2.391605171250001,13.999974599999998,2.4894,15,mp-767404,Gd2As4O11,https://materialsproject.org/materials/mp-767404,538.5685787563469
-7.276615646666666,-523.91632656,3.7179684147808,-2.9432735996620147,0.0,5.4909,14,mp-555727,RbTb(PO3)4,https://materialsproject.org/materials/mp-555727,1000.9428448617022
-5.236297426666667,-62.83556912,7.218356026249125,-0.2839600608333335,0.0003015,0.0,62,mp-623295,SmGaCo,https://materialsproject.org/materials/mp-623295,256.74393610119915
-8.90807169375,-285.0582942,6.182786572068673,-2.6365363532087507,14.000000475,1.1982999999999997,55,mp-703682,GdMn2O5,https://materialsproject.org/materials/mp-703682,372.91369249873645
-4.932976603999999,-98.65953208,5.3657521125018555,-0.5851935785000002,9.375e-06,0.0,62,mp-1208898,SmAl3Ni,https://materialsproject.org/materials/mp-1208898,358.9826862381134
-7.477906345,-89.73487614,7.620904504445731,-0.5806950299999999,6.953816675,0.0,14,mp-5887,EuNiGe,https://materialsproject.org/materials/mp-5887,246.91367926527252
-6.577393337499998,-78.92872005,6.835929311360087,-0.5960446325,7.059364375,0.0,194,mp-1101845,EuGaGe,https://materialsproject.org/materials/mp-1101845,285.9839250905531
-6.0834842925,-73.00181151,8.529138348701219,-0.6004544083333331,0.0,0.0,62,mp-20777,SmCoGe,https://materialsproject.org/materials/mp-20777,219.55843970603308
-4.46175956,-142.77630592,5.592550505328021,-0.872382266523438,0.0,0.4519000000000002,62,mp-654109,BaCu4S3,https://materialsproject.org/materials/mp-654109,579.2382937056652
-5.81100861,-87.16512915,7.467232171828384,-0.6528529466666659,1.4599999999999999e-05,0.0,25,mp-1220267,Nd4Co3Ge8,https://materialsproject.org/materials/mp-1220267,296.84800176248785
-5.920309100625,-284.17483683,4.066103310198612,-2.0299477564739585,0.0,3.4507,14,mp-14316,KPr(SeO4)2,https://materialsproject.org/materials/mp-14316,761.1024119295237
-5.303662961136364,-233.36117029,3.719032314741607,-0.7634587674563633,5e-08,0.2397,130,mp-569603,BaCa4(CuN2)2,https://materialsproject.org/materials/mp-569603,858.6288347322173
-6.16451582375,-147.94837977,4.3109061043945225,-2.474691645517292,0.0,4.399100000000002,62,mp-554063,SmSeClO3,https://materialsproject.org/materials/mp-554063,481.9114827467064
-6.984695230833334,-167.63268554,9.179432733900917,-0.3999929008333337,3.49642655,0.0,191,mp-569158,Dy2Co7B3,https://materialsproject.org/materials/mp-569158,278.5700565806119
-5.383081292678571,-301.45255239,3.751576324754124,-1.4297493045848222,3.998468125,0.6056,14,mp-1210496,NaNd(SeO5)2,https://materialsproject.org/materials/mp-1210496,858.949327155775
-8.490383258076923,-220.74996471,6.595403880430073,-2.6963122342307693,13.0,0.5537000000000001,8,mp-1212657,Gd2Cu(GeO4)2,https://materialsproject.org/materials/mp-1212657,327.9690826482404
-7.7315563003125,-247.40980161,5.7379538383456685,-2.62481008195875,7.000000575,1.1994999999999996,55,mp-19393,NdMn2O5,https://materialsproject.org/materials/mp-19393,386.76585168072614
-3.707953608205128,-144.61019072,7.593967249178507,-0.21880996301281969,0.00010956666666666667,0.0,191,mp-1208763,Sm(Ga2Cu)4,https://materialsproject.org/materials/mp-1208763,631.2839498187136
-5.868872935227272,-258.23040915,3.686574649926957,-0.7812683651836365,4.01544775,0.1955,130,mp-606338,BaCa4(CoN2)2,https://materialsproject.org/materials/mp-606338,849.5665320404796
-6.5159604658333325,-78.19152559,6.9081659540116975,-0.5622391391666662,13.96962645,0.0,194,mp-1095470,Eu2ZnGe3,https://materialsproject.org/materials/mp-1095470,282.32187284006545
-3.970281697,-119.10845091,6.915492985223688,-0.40929421633333335,1.64389475,0.0,125,mp-568885,Ce2Ga12Pd,https://materialsproject.org/materials/mp-568885,587.4878066005045
-7.795021390694443,-561.24154013,3.395957375037121,-2.9311379152261914,7.0000000999999985,3.4826,14,mp-559799,KGd(PO3)4,https://materialsproject.org/materials/mp-559799,1001.8831540179973
-7.601756216875,-243.25619894,6.55163812555012,-2.8510073779687506,3.000000325,2.6383999999999994,55,mp-1208423,TbCrGeO5,https://materialsproject.org/materials/mp-1208423,368.58140695687274
-6.8869389729999995,-206.60816919,4.9511266832068115,-2.476319316583333,0.0,3.367,2,mp-555063,Nd2As4O9,https://materialsproject.org/materials/mp-555063,491.1159192695677
-5.903029586875,-283.34542017,4.473749383822212,-2.026096092711028,0.0,0.0243,14,mp-1209322,RbSm(SeO4)2,https://materialsproject.org/materials/mp-1209322,774.6295520975474
-7.990558706875,-127.84893931,7.055823134151776,-0.8218927078125011,28.000125800000003,0.0,121,mp-1224964,Gd4Cu5P7,https://materialsproject.org/materials/mp-1224964,273.83256010259254
-6.732536454375,-323.16174981,3.4648018201214423,-2.8356284204027777,0.0,3.4184,62,mp-559574,K3Sm(BO3)2,https://materialsproject.org/materials/mp-559574,738.583490696975
-6.461330833125,-103.38129333,6.779991942379126,-1.7118168378125,9.4671955,0.0,25,mp-1220228,Nd4FeCo3(AsO)4,https://materialsproject.org/materials/mp-1220228,287.3609292531858
-6.729370709605262,-511.43217393,3.167333195329137,-2.8884210050652626,0.00013155,4.603999999999999,62,mp-759928,K3TbSi3(HO5)2,https://materialsproject.org/materials/mp-759928,1095.697097195202
-6.762763269166666,-162.30631846,4.296140139300895,-2.143892065517292,6.003079425,0.0,62,mp-639138,EuSeClO3,https://materialsproject.org/materials/mp-639138,486.0477320395396
-7.108368583421052,-270.11800617,5.0154861977798255,-2.0062059881250005,13.00000025,0.0,14,mp-17465,Gd2Cu(SeO3)4,https://materialsproject.org/materials/mp-17465,586.5976992457984
-6.1296199351923075,-318.74023663,4.764921419829381,-1.9407143849038475,13.999954775,0.843,33,mp-562177,BaCaCo4O7,https://materialsproject.org/materials/mp-562177,732.0203075551976
-7.393560773750001,-591.4848618999999,3.309921503244698,-2.8468040975357165,0.0,5.379,14,mp-13753,SmP5O14,https://materialsproject.org/materials/mp-13753,1062.008450301111
-6.621160534166666,-79.45392641,7.539772086210622,-0.4550456766666653,3.24606695,0.0,62,mp-1219329,SmMnGe,https://materialsproject.org/materials/mp-1219329,244.84929737749314
-7.0476445557692315,-183.23875845,6.048259066382252,-2.687160143846154,5e-08,0.3744000000000001,8,mp-558708,Nd2Cu(GeO4)2,https://materialsproject.org/materials/mp-558708,343.3529169695735
-6.111024327142857,-85.55434058,6.6378355982065935,-0.8152469835714291,13.9723141,0.0,12,mp-1104456,Eu2Zn2As3,https://materialsproject.org/materials/mp-1104456,329.97003752172384
-5.62967322875,-450.37385830000005,4.6920497579101275,-0.3950949145000003,5.325e-06,0.0,137,mp-569739,ErAl9(Fe2Si3)2,https://materialsproject.org/materials/mp-569739,1135.306638119152
-9.585513308333333,-115.02615970000001,8.58864011447977,-0.29704530333333184,7.21602275,0.0,62,mp-613677,GdMnGe,https://materialsproject.org/materials/mp-613677,220.2761238589983
-4.001471877,-160.05887508,3.0880933916535502,-2.4814550810594485,0.000352475,4.997,15,mp-1209455,Rb3TbCl6,https://materialsproject.org/materials/mp-1209455,1350.8608905920305
-7.2638089031250015,-581.10471225,3.6930436742232566,-3.158336441409483,0.0,4.0952,15,mp-558318,Rb2TbGa(SiO3)4,https://materialsproject.org/materials/mp-558318,1266.0392548526759
-5.9335925399999985,-201.74214636,6.836386974644602,-0.29096576352941217,3.8799999999999994e-05,0.0,167,mp-29219,Ba2(Ni3B2)3,https://materialsproject.org/materials/mp-29219,421.5531856280658
-3.9677203894117654,-67.45124662,5.001039581559291,-0.5543554341176472,0.001239,0.0,12,mp-1188412,Nd4Mg7Ge6,https://materialsproject.org/materials/mp-1188412,392.78294073854477
-5.85412569140625,-374.66404425,2.7967632425888844,-1.3631927283418648,2.000023075,0.4755999999999999,14,mp-1210470,RbNd(SO6)2,https://materialsproject.org/materials/mp-1210470,1153.8252318532675