energy_per_atom,energy,density,formation_energy_per_atom,total_magnetization,band_gap,sgr,mp_id,formula,URL,cell_volume
-1.71863273,-6.87453092,0.8705913586392424,1.8409057983333332,1.9892455000000002,0.1248999999999998,71,mp-1095823,Zn2AgIr,https://materialsproject.org/materials/mp-1095823,821.8914407550782
-7.059674005833332,-84.71608807,4.535576811440624,-0.9461467483854176,0.0008199,0.9663999999999996,156,mp-1080163,Mo3W(SeS)4,https://materialsproject.org/materials/mp-1080163,335.2727325518268
-4.00277818,-16.01111272,12.3017874491254,-0.557622055,9.6e-06,0.0,225,mp-981368,Zn2PdPt,https://materialsproject.org/materials/mp-981368,58.35636177423294
-8.12710899,-81.2710899,6.912438716624492,-3.528136276000001,0.0,3.5872999999999995,12,mp-13055,Ba2LaTaO6,https://materialsproject.org/materials/mp-13055,165.87610843967323
-5.901221585,-23.60488634,10.626534431793694,-0.6542692668749996,4.7799999999999996e-05,0.0,225,mp-865151,YbNdRh2,https://materialsproject.org/materials/mp-865151,81.74032217426341
-7.450484412000001,-111.75726618,5.8991191259730975,-1.0110925068333338,0.0,0.0,2,mp-1104554,Mo6PbS8,https://materialsproject.org/materials/mp-1104554,292.5687411558588
-4.813509355,-48.13509355,5.077677103340994,-2.812272040955379,3.0000031000000003,3.9316,225,mp-560710,Cs2TlMoF6,https://materialsproject.org/materials/mp-560710,222.4193200102622
-4.990655085,-19.96262034,9.80918592428496,-0.8281007518750005,5.9e-06,0.0,225,mp-1187618,YbNdPd2,https://materialsproject.org/materials/mp-1187618,89.74121642281423
-2.41519137,-9.66076548,7.855634235365117,-0.3796943637500001,2.07e-05,0.0,225,mp-980044,YbPrCd2,https://materialsproject.org/materials/mp-980044,113.88616254108908
-6.2953608125,-25.18144325,1.0336585491655343,4.6279597950000015,1.1336533000000002,0.0,71,mp-1096306,TaNbMo2,https://materialsproject.org/materials/mp-1096306,748.1870310266836
-7.450769485999999,-111.76154229,5.9155519078315075,-1.0113775808333334,0.29116970000000003,0.0,148,mp-555066,Mo6PbS8,https://materialsproject.org/materials/mp-555066,291.75601592296226
-7.8502448975,-31.40097959,9.984155165357112,-0.5026338687499994,9.53e-05,0.0,225,mp-973433,LuScRu2,https://materialsproject.org/materials/mp-973433,70.19641933690004
-6.9173308833333325,-62.25597795,4.366338452504318,-0.8254623673611113,0.0029909000000000003,0.4944000000000002,156,mp-1026015,Te2Mo2WS4,https://materialsproject.org/materials/mp-1026015,288.71972296699846
-6.950688137999999,-69.50688138,7.651183561272544,-2.510348737333333,2.0,0.0,225,mp-1205875,Ba2InReO6,https://materialsproject.org/materials/mp-1205875,145.7739466025975
-2.60883888,-10.43535552,6.184438202112057,-0.4924904787500002,3.7000000000000006e-06,0.0,225,mp-867333,Ba2CdPb,https://materialsproject.org/materials/mp-867333,159.56182281336342
-7.093861933333333,-42.563171600000004,11.523429152502985,-0.3488525833333327,8.1457659,0.0,216,mp-1071438,GdNi4Au,https://materialsproject.org/materials/mp-1071438,84.87414265815646
-9.93705548375,-79.49644387,9.997257812464252,-0.4057446501041664,7e-07,0.0,38,mp-1217964,TaB2Mo3C2,https://materialsproject.org/materials/mp-1217964,85.44343149692335
-5.16751441,-20.67005764,10.17672781981018,-0.7497628933333331,5e-07,0.0,216,mp-1215995,YInPdAu,https://materialsproject.org/materials/mp-1215995,82.74532474977447
-8.0281453925,-32.11258157,12.376502882288444,0.0528361524999994,0.2014787,0.0,139,mp-1185519,LuRu3,https://materialsproject.org/materials/mp-1185519,64.15637632714402
-4.7972902425,-19.18916097,10.987477875588384,-0.8236604412500004,2e-07,0.0,225,mp-4053,YbSnPd2,https://materialsproject.org/materials/mp-4053,76.2587559839551
-5.449622026,-54.49622026,4.562889036876207,-1.4841034212500006,8.23e-05,1.909,1,mvc-6194,Zn2TeWO6,https://materialsproject.org/materials/mvc-6194,195.88301127385597
-3.59895484,-14.39581936,12.010800361533198,-0.30740153999999986,2.8e-06,0.0,225,mp-864844,Zn2RhAu,https://materialsproject.org/materials/mp-864844,59.54454758945806
-10.2241533175,-40.89661327,10.936014760188279,-0.4194774450000017,4e-06,0.0,225,mp-974943,HfZrTc2,https://materialsproject.org/materials/mp-974943,70.71463375212615
-7.444729217999999,-111.67093827,6.165030162530043,-1.2919006684999998,0.0001968,0.0,147,mp-1220429,Nb6BiS8,https://materialsproject.org/materials/mp-1220429,275.52656984389733
-0.8046915825,-3.21876633,0.5334271582796616,0.9406962533333336,1.0,0.17580000000000018,71,mp-1093547,Ba2AgHg,https://materialsproject.org/materials/mp-1093547,1815.2067396100676
-4.277986125,-17.1119445,12.570331341208336,-0.1153990949999999,1e-07,0.0,225,mp-862256,Cu2PdAu,https://materialsproject.org/materials/mp-862256,56.86615971406211
-6.917501631111112,-62.25751468,4.36194351051301,-0.8256331151388889,0.0117211,0.4943,187,mp-1025838,Te2Mo2WS4,https://materialsproject.org/materials/mp-1025838,289.0106268796989
-6.23791755,-24.9516702,8.423012792728022,0.42089038437500026,0.0010780999999999998,0.0,139,mp-1185109,La3Ta,https://materialsproject.org/materials/mp-1185109,117.82540413754387
-6.018187257857143,-84.25462161,4.137388851656245,-1.8279430489285724,3.0,0.10599999999999987,166,mp-1246659,La3Mg2WS8,https://materialsproject.org/materials/mp-1246659,363.49680818625654
-9.087673995,-36.35069598,13.660787261030858,-0.61360627,0.0,0.0,221,mp-1020,TaRh3,https://materialsproject.org/materials/mp-1020,59.52122699450025
-6.548345777000001,-65.48345777,6.959713405401616,-2.6634866657500007,0.0,3.4066,216,mp-1227377,BaSrZnWO6,https://materialsproject.org/materials/mp-1227377,136.04392671922938
-2.4108192,-9.6432768,8.00415323762021,-0.3799686643750002,7.64e-05,0.0,225,mp-971702,YbNdCd2,https://materialsproject.org/materials/mp-971702,112.46472037906689
-3.0666589139999996,-30.66658914,2.9955363579079037,-1.7726936700594482,0.0,2.4291,225,mp-1114378,Rb3TlCl6,https://materialsproject.org/materials/mp-1114378,373.3491149326494
-2.893347846,-28.93347846,3.1808992757584083,-1.5087153560594484,0.0029625,0.0,225,mp-1114492,Rb3AuCl6,https://materialsproject.org/materials/mp-1114492,347.7208741025272
-4.26904678,-17.07618712,7.473209809147613,-0.9779695425000005,0.0003464,0.4681999999999995,225,mp-867112,AcInTe2,https://materialsproject.org/materials/mp-867112,132.65674615066035
-1.6574408025,-6.62976321,0.5716558051216561,0.8304298283333331,0.0023702,0.115,71,mp-1097642,Ba2AgAu,https://materialsproject.org/materials/mp-1097642,1683.292141083495
-4.189033359310345,-121.48196742,3.886220128104235,-2.0800697182344834,1.0,0.26859999999999995,2,mp-1217460,Te4Au(OF5)4,https://materialsproject.org/materials/mp-1217460,491.95157708153306
-6.565144518333334,-39.39086711,4.615556509845012,-0.38417814119791655,2.5e-06,0.7992000000000001,156,mp-1023927,Te2MoWSe2,https://materialsproject.org/materials/mp-1023927,249.28467420164586
-7.618023212000001,-76.18023212,7.1537491130111155,-3.0431715264999997,1.9999999,0.0,225,mp-7888,Sr2HoReO6,https://materialsproject.org/materials/mp-7888,144.46632712494215
-1.36951096,-5.47804384,0.5077955792793838,0.8916915558333334,1.9999997,0.6040000000000001,71,mp-1093949,Ba2TlAg,https://materialsproject.org/materials/mp-1093949,1919.2358801621558
-10.628457545,-42.51383018,11.527849128064993,-0.4323773699999993,1.4e-06,0.0,225,mp-865094,HfNbTc2,https://materialsproject.org/materials/mp-865094,67.32651750751637
-7.273360363571428,-101.82704509,7.209720411623149,-2.7989930733928565,4.0799999999999996e-05,0.0,123,mp-615682,Ba2LaTa(CuO4)2,https://materialsproject.org/materials/mp-615682,195.6781730636649
-3.756184261,-37.56184261,4.0536956130286725,-2.025387191024966,0.0,1.9455,225,mp-1113450,Rb2TmAuCl6,https://materialsproject.org/materials/mp-1113450,307.0443436680534
-6.110428315,-24.44171326,12.69176297261502,-0.5424027875000004,3.21e-05,0.0,225,mp-865743,Ga2IrRh,https://materialsproject.org/materials/mp-865743,56.857188505747615
-7.3698913300000015,-44.21934798,10.638815509990009,-0.7159353688888892,0.0001056,0.0,191,mp-1025024,LuB2Rh3,https://materialsproject.org/materials/mp-1025024,78.8696362944551
-10.27083853,-102.7083853,9.122513276633985,-0.3168834593750006,0.0007596,0.0,166,mp-1220459,Nb4WC5,https://materialsproject.org/materials/mp-1220459,112.04076459833571
-4.1914097775,-16.76563911,8.131010304012834,-0.6498420374999996,0.009846500000000001,0.0,225,mp-1185178,La2SnHg,https://materialsproject.org/materials/mp-1185178,121.94376713454136
-2.1271578425,-8.50863137,0.9722245928387612,2.0197477800000003,1.0785759,0.0,71,mp-1097530,Zn2IrPd,https://materialsproject.org/materials/mp-1097530,733.5000561351452
-6.927028682916667,-166.24868839,4.418512175919077,-2.001859275364584,1e-07,0.0,164,mp-28484,TlMo6O17,https://materialsproject.org/materials/mp-28484,395.3613238098763
-6.743227346,-67.43227346,7.34922576653921,-2.486600343500001,1.0,0.0,225,mp-551702,Ba2CdReO6,https://materialsproject.org/materials/mp-551702,151.21950825055066
-3.5342650075,-14.13706003,0.9596489962319444,1.8117813225,2.1605256,0.0,71,mp-1097347,Ga2RuPt,https://materialsproject.org/materials/mp-1097347,753.7451804400918
-4.36682828,-26.20096968,11.19425019966965,-0.3171190466666663,3.3e-06,0.0,216,mp-1077752,TbCu4Au,https://materialsproject.org/materials/mp-1077752,90.49778795307556
-2.621002995,-26.21002995,4.107430097136979,-1.0476149478620689,0.0244084,0.0,225,mp-1112982,Cs3AuBr6,https://materialsproject.org/materials/mp-1112982,434.64087724416186
-10.671111475,-42.6844459,12.036629399133014,-0.2877303275000003,2e-07,0.0,225,mp-1184589,HfTc2Mo,https://materialsproject.org/materials/mp-1184589,64.89918021763356
-5.7912575775,-23.16503031,12.462853429548533,-0.4452112474999996,1e-07,0.0,225,mp-1184318,Ga2RuPt,https://materialsproject.org/materials/mp-1184318,58.038940272621225
-7.5853228715,-151.70645743,7.027053745965847,-2.651168120192,15.0,0.0,6,mp-1220019,Pr3Mn4PbO12,https://materialsproject.org/materials/mp-1220019,246.15298630297315
-4.5023112,-18.0092448,12.524490263122342,-0.5149560824999999,6.49e-05,0.0,225,mp-977427,Zn2PtRh,https://materialsproject.org/materials/mp-977427,56.85274046572545
-2.748832867,-27.48832867,3.798451403716683,-1.266112065862069,0.0,1.6915,225,mp-1112647,Cs3TlBr6,https://materialsproject.org/materials/mp-1112647,473.2383281919814
-6.727688301111113,-60.54919471,4.694387581307296,-0.6302462572569448,0.0025399999999999997,0.8180000000000001,156,mp-1026027,Te2Mo2W(SeS)2,https://materialsproject.org/materials/mp-1026027,301.7198645013377
-4.02927091,-40.2927091,3.972313003205367,-2.6352861718174494,0.0,3.1614000000000004,139,mp-7615,Rb3TlF6,https://materialsproject.org/materials/mp-7615,240.27307137181032
-6.5453813016666675,-39.27228781,7.701978332831982,-0.3644149245312498,0.0,1.0459999999999994,156,mp-1217374,Te2MoWSe2,https://materialsproject.org/materials/mp-1217374,149.38856630007345
-8.197896945,-81.97896945,7.063293743519673,-3.49815106125,0.9879806000000001,0.0,12,mp-1078874,Ba2CeTaO6,https://materialsproject.org/materials/mp-1078874,162.61798081373985
-2.646099849,-26.46099849,4.915398017834861,-0.8551549667356326,2e-07,0.0,225,mp-1113744,Rb2AgAuBr6,https://materialsproject.org/materials/mp-1113744,322.68750867327094
-6.775946577777778,-60.9835192,4.715689891104794,-0.6785045339236118,0.0008571,0.4028000000000001,156,mp-1025772,Te2Mo2W(SeS)2,https://materialsproject.org/materials/mp-1025772,300.35689743308524
-2.692514363,-26.92514363,4.4906987143491985,-0.992236726735632,1e-07,0.0,225,mp-1113582,Rb2TlAgBr6,https://materialsproject.org/materials/mp-1113582,355.9475737661449
-2.0193854175,-8.07754167,0.7122078533978378,1.5221823225,2.0000001,0.0,71,mp-1096355,La2SnHg,https://materialsproject.org/materials/mp-1096355,1392.1863152037347
-5.088367802,-50.88367802,5.0359111365585445,-2.8089508769553797,2.0,0.0,225,mp-1111976,Cs2NbTlF6,https://materialsproject.org/materials/mp-1111976,223.263678334604
-3.2092460675,-12.83698427,9.828717036351572,-0.4103504545833334,1e-05,0.0,225,mp-1187820,YbAg2Sn,https://materialsproject.org/materials/mp-1187820,85.73865504035986
-5.022023247,-50.22023247,4.372573255569412,-2.65193907595538,0.0,0.0060999999999999934,225,mp-1112641,Cs2NbAuF6,https://materialsproject.org/materials/mp-1112641,254.31712809457954
-5.82435461,-23.29741844,11.844471168026047,-0.76632682375,2.6e-06,0.0,225,mp-865992,YbSnRh2,https://materialsproject.org/materials/mp-865992,69.75570741493343
-7.24362477,-28.97449908,12.442280215139267,-0.6019541250000007,5.28e-05,0.0,221,mp-865802,LuRh3,https://materialsproject.org/materials/mp-865802,64.55210145296104
-2.4137937375,-9.65517495,8.11318435664895,-0.3876014968749999,0.00010490000000000002,0.0,225,mp-1187510,YbPmCd2,https://materialsproject.org/materials/mp-1187510,111.1084753785639
-6.102134085,-24.40853634,0.9309030922157469,4.63388555,1.5809027,0.0,71,mp-1095950,TaNb2Mo,https://materialsproject.org/materials/mp-1095950,825.3624711076973
-1.2604923275,-5.04196931,3.145306043478762,0.09364431724137924,0.4090667,0.0,139,mp-974758,Rb3Tl,https://materialsproject.org/materials/mp-974758,243.26863392170705
-8.727762075,-34.9110483,11.410680718380993,-0.4350005174999989,0.0,0.0,225,mp-865255,LuNbRu2,https://materialsproject.org/materials/mp-865255,68.3986859394917
-1.3715448825,-5.48617953,8.961232853620691,-0.30328465125000004,6e-07,0.0,225,mp-865366,YbCd3,https://materialsproject.org/materials/mp-865366,94.55487335267331
-6.966955415555557,-62.70259874,4.375521870141036,-0.8750868995833332,0.0050396,0.5871,156,mp-1025923,Te2Mo2WS4,https://materialsproject.org/materials/mp-1025923,288.11375323935135
-7.642172088,-76.42172088,7.459297035092202,-3.0053836102499996,2.0,0.0,225,mp-13929,Ba2SmReO6,https://materialsproject.org/materials/mp-13929,157.43602874942755
-8.079641982,-80.79641982,7.002047593825481,-3.4949602757500005,0.0,3.4876000000000005,12,mp-1205686,Ba2PrTaO6,https://materialsproject.org/materials/mp-1205686,164.2281228151801
-6.966744196666666,-62.70069777,4.382554538948239,-0.8748756806944434,0.0050033000000000005,0.3136000000000001,156,mp-1025932,Te2Mo2WS4,https://materialsproject.org/materials/mp-1025932,287.6514181817211
-7.333236903333333,-109.99855355,5.097944464032602,-1.336635920708334,0.000599,0.0,1,mp-1217790,Ta(Mo2S5)2,https://materialsproject.org/materials/mp-1217790,288.38511962695895
-1.8460416025,-7.38416641,8.750379154524017,-0.3185003758333333,6.04e-05,0.0,225,mp-1187612,YbCd2In,https://materialsproject.org/materials/mp-1187612,97.29008766289375
-6.96730715,-62.70576435,4.4163880098238115,-0.8754386340277773,0.0035372,0.3108,156,mp-1025926,Te2Mo2WS4,https://materialsproject.org/materials/mp-1025926,285.44775177883264
-3.0177076475,-12.07083059,7.584576976025634,-0.29678749854166675,0.8822827,0.0,225,mp-1183118,AcLaCd2,https://materialsproject.org/materials/mp-1183118,129.3316725555128
-8.3911613015,-167.82322603,5.088652774422823,-3.5799520767500006,0.0721443,0.0,2,mp-756837,Ca4Zr3TaO12,https://materialsproject.org/materials/mp-756837,263.31722616532585
-5.6599505175,-22.63980207,0.8270922553517439,4.334765190833335,4.5844941,0.0,71,mp-1097329,TaTiNb2,https://materialsproject.org/materials/mp-1097329,832.4408538806344
-8.125510806,-81.25510806,6.845515160680972,-3.526538092,0.0,3.6260000000000003,148,mp-13056,Ba2LaTaO6,https://materialsproject.org/materials/mp-13056,167.4977568857416
-2.8517968325,-11.40718733,9.630573603636844,-0.3672859966666664,4.41e-05,0.0,225,mp-865789,YbInAg2,https://materialsproject.org/materials/mp-865789,86.83160483915337
-5.9371333375,-23.74853335,11.008147903512109,-0.7023676356249995,6.1e-06,0.0,225,mp-865993,YbSmRh2,https://materialsproject.org/materials/mp-865993,79.82955294569304
-5.724091068,-57.24091068,5.350337585125373,-1.66007935425,0.7797535,0.0,1,mvc-7378,Zn2SbWO6,https://materialsproject.org/materials/mvc-7378,165.24095584474398
-5.0029101475,-20.01164059,10.09362065910277,-0.8525424306250002,7.6e-06,0.0,225,mp-980068,YbSmPd2,https://materialsproject.org/materials/mp-980068,88.21883493378206
-6.543027604,-32.71513802,9.85351029303658,-0.8595182999999992,2.8999999999999998e-06,0.0,139,mp-570843,Tm(GeRh)2,https://materialsproject.org/materials/mp-570843,87.6359933981542
-1.5579354875,-6.23174195,0.5997712627654772,0.7748194425000001,0.29763490000000004,0.0,71,mp-1096200,Ba2HgPd,https://materialsproject.org/materials/mp-1096200,1610.4069003056534
-4.430895815,-17.72358326,10.84650793593254,-0.7716507908333341,3.79e-05,0.0,225,mp-865771,YbInPd2,https://materialsproject.org/materials/mp-865771,76.6540329072683
-4.2075938725,-16.83037549,7.8400454744056605,-0.4645962295833339,0.0002689,0.0,225,mp-1185194,La2TlIn,https://materialsproject.org/materials/mp-1185194,126.44851807482696
-2.4110028875,-9.64401155,0.6355638231617668,0.6642348375,0.013721299999999999,0.0,71,mp-1093847,Ba2PdAu,https://materialsproject.org/materials/mp-1093847,1510.2479035909594
-3.3563148999999997,-13.425259599999999,9.044031429905427,-0.3806813714583335,8e-06,0.0,225,mp-1187520,YbSmAg2,https://materialsproject.org/materials/mp-1187520,98.9887139406389
-5.538804635000001,-33.23282781,11.485500055849647,-0.36978592833333396,0.0289724,0.0,216,mp-1077552,TbNi4Au,https://materialsproject.org/materials/mp-1077552,85.39664351678105
-6.9584969075,-27.83398763,10.772962335981433,-0.7659379925000005,7.8e-06,0.0,225,mp-865536,YbZrRh2,https://materialsproject.org/materials/mp-865536,72.45712598668321
-7.853160141333332,-117.79740212,6.650954154891147,-3.3608635432500003,0.0,2.8733,156,mp-1228058,Ba3MgTaNbO9,https://materialsproject.org/materials/mp-1228058,213.2512489823571
-3.725915958,-37.25915958,3.600123096109901,-2.11741990119738,0.43364140000000007,0.0,225,mp-1112898,Cs2YHgCl6,https://materialsproject.org/materials/mp-1112898,354.2476335737927
-6.4563464275,-25.82538571,12.602418308178382,-0.4085505999999999,1.1e-06,0.0,225,mp-866041,Ga2IrRu,https://materialsproject.org/materials/mp-866041,57.018424783599
-2.25083599,-9.00334396,0.960729150356756,2.438268625,3.2562142000000005,0.0,71,mp-1097172,Zn2IrRh,https://materialsproject.org/materials/mp-1097172,736.2021113905782
-1.9894909375,-7.95796375,0.5209403694317246,0.8590786725000001,0.9999995999999999,0.0015000000000000568,71,mp-1096391,Ba2TlPd,https://materialsproject.org/materials/mp-1096391,1866.1919097640725
-0.846555275,-3.3862211,2.9869366877192336,-0.00823331025862084,4e-06,0.0,225,mp-974990,Rb3Hg,https://materialsproject.org/materials/mp-974990,254.0580738930167
-6.574904076999999,-65.74904077,6.8193298299809575,-2.1706459707499994,1.0,0.0,87,mp-546295,Sr2CuOsO6,https://materialsproject.org/materials/mp-546295,127.8430004736302
-2.780731345,-11.12292538,9.936546095542006,-0.2770166999999999,0.0014567,0.0,225,mp-1187821,YbAg3,https://materialsproject.org/materials/mp-1187821,82.99641941732465
-3.9593552425,-15.83742097,6.9245715232438645,-0.3736592633984377,6.5000000000000004e-06,0.4491000000000005,123,mp-1218887,SnTePbSe,https://materialsproject.org/materials/mp-1218887,127.68836593871961
-6.574963684117647,-111.77438263,5.795952304986775,-2.008401890294118,0.0,1.8273,1,mp-752611,LiNbTe2WO12,https://materialsproject.org/materials/mp-752611,209.3970082203767
-2.35292126,-9.41168504,9.615578620793316,-0.32769141958333314,2.0399999999999998e-05,0.0,225,mp-865739,YbCdAg2,https://materialsproject.org/materials/mp-865739,86.55134307325059
-4.085376149,-40.85376149,4.194275705713373,-2.6913914108174484,0.0,3.6642,225,mp-1114379,Rb3TlF6,https://materialsproject.org/materials/mp-1114379,227.557726934882
-4.334137251111112,-78.01447052,4.904763678343269,-0.9354052951666674,0.0,2.103,1,mp-557441,KAu(IO3)4,https://materialsproject.org/materials/mp-557441,316.7789275451393
-6.6135274985,-132.27054997,6.115735657610108,-2.333275700625,7.999999799999999,0.0,123,mp-1218565,Sr4Co3ReO12,https://materialsproject.org/materials/mp-1218565,245.85494744801596
-4.00117206,-16.00468824,6.980572408455943,-0.4154760808984377,0.0,0.22109999999999985,160,mp-1218892,SnTePbSe,https://materialsproject.org/materials/mp-1218892,126.66399986879821