energy_per_atom,energy,density,formation_energy_per_atom,total_magnetization,band_gap,sgr,mp_id,formula,URL,cell_volume
-3.784790883,-37.84790883,4.31946286172385,-2.3001388988174485,1.9999999,0.738,225,mp-1114688,Rb3AuF6,https://materialsproject.org/materials/mp-1114688,218.111395910848
-6.5719849382352935,-111.72374395,5.79748578085898,-2.0054231444117647,0.0,1.7817999999999996,1,mp-756613,LiNbTe2WO12,https://materialsproject.org/materials/mp-756613,209.34162123506005
-6.422340499000001,-64.22340499,6.823893211279695,-2.0665859717500004,2.0,0.0,87,mp-19119,Sr2NiOsO6,https://materialsproject.org/materials/mp-19119,126.57666645645125
-7.050042006666668,-63.45037806,7.049407113503393,-2.3576006559722225,2.2956043,0.0,99,mvc-7676,BaYCuWO5,https://materialsproject.org/materials/mvc-7676,130.40823395301288
-4.0533562960000005,-40.53356296,4.321670412464093,-1.6535546278640458,2.0,0.0,225,mp-1113447,Cs2TaAgCl6,https://materialsproject.org/materials/mp-1113447,294.841156575277
-3.971183898000001,-39.71183898,3.948666145008122,-2.0656947231973795,0.0,2.0553000000000003,225,mp-1112919,Cs2YAuCl6,https://materialsproject.org/materials/mp-1112919,321.4549400033998
-4.172938115,-25.03762869,6.618127340038977,-0.4748106059635416,2.2899999999999998e-05,0.1898,164,mp-1219016,Sn2PbSe3,https://materialsproject.org/materials/mp-1219016,170.99359042452863
-1.25645858,-5.02583432,3.227450198174369,0.09767806474137908,1.4376619,0.0,225,mp-974739,Rb3Tl,https://materialsproject.org/materials/mp-974739,237.07702907254247
-2.6623137359999998,-26.62313736,4.4807539783191945,-1.0627231902413794,6.38e-05,0.0,225,mp-1113296,Cs2HgSbBr6,https://materialsproject.org/materials/mp-1113296,395.640202486533
-4.121471089,-41.21471089,3.3711327957485286,-2.3066491601973795,0.0,4.2353000000000005,225,mp-1112103,Cs2YTlCl6,https://materialsproject.org/materials/mp-1112103,380.1790341003594
-8.165120250769231,-106.14656326,4.960926366517623,-3.262806962307692,0.0,3.2087,3,mp-756622,LiY3WO8,https://materialsproject.org/materials/mp-756622,195.9785648327353
-6.029279771363636,-132.64415497,3.6552431099278606,-1.1081141095440743,1.052301,0.0,202,mp-22515,Rb2CuPb(NO2)6,https://materialsproject.org/materials/mp-22515,326.05030008565006
-6.8995676370000005,-137.99135274,5.870131293092207,-2.545690359625,14.646944199999998,0.0,229,mp-1218429,Sr4Fe3ReO12,https://materialsproject.org/materials/mp-1218429,253.52067770222789
-1.463810855,-5.85524342,4.592910704433441,-0.12484822249999986,0.14546779999999998,0.0,221,mp-1187119,Sr3Hg,https://materialsproject.org/materials/mp-1187119,167.55753978520494
-6.056490752,-30.28245376,8.556785633121217,-0.9194714519999998,0.00010229999999999999,0.0,139,mp-571485,Tm(SiPd)2,https://materialsproject.org/materials/mp-571485,84.98811934368067
-3.2986526325,-13.19461053,6.406402086672184,-0.6546261754166669,0.0,0.29800000000000004,225,mp-1183207,Ba2AgBi,https://materialsproject.org/materials/mp-1183207,153.3174387547248
-7.441629354102565,-580.44708962,1.7967454146110633,-3.2696626454487188,0.0,3.1064,1,mp-1249531,Sr5Al11TlSi13O48,https://materialsproject.org/materials/mp-1249531,1915.262737482367
-3.3454319920000004,-33.45431992,2.8445288775265176,-1.8983371715594488,0.0,3.9744,225,mp-1114619,Rb3BiCl6,https://materialsproject.org/materials/mp-1114619,395.85272657643276
-3.8958695825,-15.58347833,10.932861251630595,-0.6959055537500003,0.0,0.0,225,mp-865744,YbCdPd2,https://materialsproject.org/materials/mp-865744,75.68299274421247
-7.433247996153847,-579.7933437,1.798698951984402,-3.261281287500001,0.0,2.958,1,mp-686718,Sr5Al11TlSi13O48,https://materialsproject.org/materials/mp-686718,1913.182602097117
-6.1580837025,-24.63233481,6.7450698786486845,-0.3329843562499999,0.1820233,0.0,221,mp-1187735,Y3Bi,https://materialsproject.org/materials/mp-1187735,117.1099827628799
-2.8980736119999997,-28.98073612,4.830964484149395,-1.0014899482413793,0.0,0.0,225,mp-1113393,Cs2SbAuBr6,https://materialsproject.org/materials/mp-1113393,365.7136309813661
-7.4878811741666675,-89.85457409,5.248713071021459,-2.702000451041666,0.0,3.2196,119,mp-1222712,LaV2BiO8,https://materialsproject.org/materials/mp-1222712,182.7876245400441
-5.591567665,-55.91567665,4.950518349958291,-3.18812595521138,1.1e-06,4.153899999999998,107,mp-42227,Cs2ZrTlOF5,https://materialsproject.org/materials/mp-42227,225.54454819036553
-4.881647326666667,-29.28988396,11.688151769254716,-0.4105069316666666,0.0,0.0,164,mp-1219015,Sn2Pd3Au,https://materialsproject.org/materials/mp-1219015,107.0707820100758
-5.17404117,-31.04424702,5.8847940869894195,-0.6649344057291664,6e-06,1.0586000000000002,10,mp-989651,HfTeSe4,https://materialsproject.org/materials/mp-989651,175.4928090738915
-5.690650504615384,-73.97845656,7.531944196176861,-2.110511077788462,0.6370262,0.0,123,mp-1214696,Ba2DyCu2HgO7,https://materialsproject.org/materials/mp-1214696,193.31176619079704
-4.587086107894737,-87.15463605,0.38443993130341103,1.0471650100657899,23.9998451,0.14290000000000005,2,mp-1213664,Hg(MoS2)6,https://materialsproject.org/materials/mp-1213664,5014.833980159163
-3.1013989575,-12.40559583,0.6913779894366979,0.6696405849999998,4e-07,1.0355,71,mp-1093973,Ba2PdPt,https://materialsproject.org/materials/mp-1093973,1383.8057716992414
-2.994569344,-29.94569344,4.149784196384103,-1.1886529262413794,0.0,1.2294000000000005,225,mp-1112108,Cs2TlSbBr6,https://materialsproject.org/materials/mp-1112108,428.7127353670962
-4.260447335,-17.04178934,7.876936327117443,-0.8717308991666668,1.49e-05,0.0,139,mp-865558,AcTe3,https://materialsproject.org/materials/mp-865558,128.55210002218698
-5.775274046,-57.75274046,5.6999687579020035,-1.7230572097499999,0.0,2.0857999999999994,1,mvc-6009,Zn2SnWO6,https://materialsproject.org/materials/mvc-6009,154.2166790594343
-6.33474691,-126.6949382,5.323458499668723,-2.16697348775,0.1674871,0.0,1,mp-753044,Li4NbTe2WO12,https://materialsproject.org/materials/mp-753044,234.4777322787102
-3.173606125,-12.6944245,8.07452208591526,-0.4057041575000002,0.7813781,0.0,225,mp-1185143,La2CdHg,https://materialsproject.org/materials/mp-1185143,121.50146859830306
-2.244979265,-8.97991706,4.95223463113842,-0.16353383749999972,0.0359212,0.0,221,mp-1187103,Sr3Au,https://materialsproject.org/materials/mp-1187103,154.18493393925206
-3.795417816,-37.95417816,3.12998113690061,-2.001019049306,0.0,2.2463,225,mp-1112425,K2LaAuCl6,https://materialsproject.org/materials/mp-1112425,332.52714258863483
-7.778652639545455,-171.13035807,6.721083818321443,-2.345275978522729,2.2954717999999996,0.0,166,mp-1216097,Y3Bi(Ru2O7)2,https://materialsproject.org/materials/mp-1216097,272.7513279553268
-8.02659273,-32.10637092,12.297077800096927,0.05438881499999937,0.8704968000000001,0.0,221,mp-973652,LuRu3,https://materialsproject.org/materials/mp-973652,64.57075326658675
-6.7551008377777775,-60.79590754,4.6962542294587335,-0.6576587939236115,0.005608,0.7172000000000001,156,mp-1025933,Te2Mo2W(SeS)2,https://materialsproject.org/materials/mp-1025933,301.59993810898214
-0.9729638375,-3.89185535,0.7652193903044471,1.7949381299999998,0.0,0.0726,71,mp-1097180,La2CdHg,https://materialsproject.org/materials/mp-1097180,1282.0719183263436
-6.75609296,-60.80483664,4.568010942860251,-0.6586509161458333,0.0078907,0.3115999999999999,156,mp-1026016,Te2Mo2W(SeS)2,https://materialsproject.org/materials/mp-1026016,310.0671173221686
-3.6714208,-14.6856832,7.864174844430544,-0.3877041525,0.8145673000000001,0.0,225,mp-867880,La2TlCd,https://materialsproject.org/materials/mp-867880,125.55229683223887
-8.104129463,-81.04129463,7.434304399940449,-2.90991277,7.46813,0.002299999999999969,225,mp-504674,Ba2EuReO6,https://materialsproject.org/materials/mp-504674,158.3235691959135
-3.83986191,-38.3986191,3.1897344838558004,-1.9446899735559997,0.9999998999999999,0.1610999999999998,225,mp-1111996,K2CeAuCl6,https://materialsproject.org/materials/mp-1111996,326.9280943012561
-6.637696852,-66.37696852,7.0141448328135265,-2.518694775250001,2.0000003,3.3775,216,mp-1227411,BaSrNiWO6,https://materialsproject.org/materials/mp-1227411,133.39833248908724
-4.2696448825,-17.07857953,11.292072774449716,-0.5911960491666663,3e-06,0.0,225,mp-866177,YbAgPd2,https://materialsproject.org/materials/mp-866177,72.60741038482038
-3.016598398,-30.16598398,3.6281413496014654,-1.3807480203620688,0.0,3.4221000000000004,225,mp-1112980,Cs3BiBr6,https://materialsproject.org/materials/mp-1112980,497.5568154841722
-1.65256026,-6.61024104,3.5935500516861008,0.035207074741379074,1.0027849,0.0,225,mp-974832,Rb3Pb,https://materialsproject.org/materials/mp-974832,214.22591412509456
-7.170039567999999,-71.70039568,7.090595853567223,-2.5143539475126664,4.0000005,0.0,216,mp-1227378,BaTiMnBiO6,https://materialsproject.org/materials/mp-1227378,127.65845591332392
-8.701469147500001,-104.41762977,6.228255367841282,-3.3762826550000007,0.0,3.3158,82,mp-1216116,Y2ZrWO8,https://materialsproject.org/materials/mp-1216116,154.868217451439
-10.8181075875,-43.27243035,11.857928569180288,-0.2620821375000002,9.699999999999999e-06,0.0,225,mp-977545,ZrTc2W,https://materialsproject.org/materials/mp-977545,65.96600390827223
-2.9443340200000003,-29.4433402,4.317988830344588,-1.0909268072356326,0.0,1.3275,225,mp-1113805,Rb2AgBiBr6,https://materialsproject.org/materials/mp-1113805,371.9525545368205
-6.28989959,-25.15959836,9.921620966733695,-0.7459613350000005,6.887106200000001,0.0,225,mp-1187693,YbEuPd2,https://materialsproject.org/materials/mp-1187693,90.01663764663867
-2.0190774075,-8.07630963,4.509135238872863,0.2575291697413791,0.5456861999999999,0.0,221,mp-1067281,Rb3Pt,https://materialsproject.org/materials/mp-1067281,166.26524024049888
-5.180256112105263,-98.42486613,6.494514672706948,-0.6139236556578955,0.3108018,0.0,123,mp-1189904,Ni9BiTeS8,https://materialsproject.org/materials/mp-1189904,286.7081839814422
-4.388132135,-17.55252854,8.132084545767865,-0.20863375125000072,3.8e-06,0.0,221,mp-693,Pr3Tl,https://materialsproject.org/materials/mp-693,128.05258042907772
-7.0556553079999995,-70.55655308,7.906961303565288,-2.7857583032499997,2.0,0.0,225,mp-12410,Ba2TbIrO6,https://materialsproject.org/materials/mp-12410,151.5835216777298
-2.1528702775,-8.61148111,5.1427085841077975,0.8254857972413792,3.81e-05,0.14160000000000014,225,mp-974949,Rb3Ir,https://materialsproject.org/materials/mp-974949,144.85590154621931
-8.758562805,-35.03425122,13.104403495332615,-0.7598024125000009,6e-07,0.0,221,mp-1027,HfRh3,https://materialsproject.org/materials/mp-1027,61.73691264008391
-6.389143860714285,-89.44801405,3.7924037498509904,-1.8687298051785717,3.0000005,0.06430000000000025,166,mp-1246687,Y3Mg2WS8,https://materialsproject.org/materials/mp-1246687,330.884779571863
-8.064058074,-80.64058074,6.901747563012417,-3.4793763677500014,0.0,3.3033,225,mp-1205670,Ba2PrTaO6,https://materialsproject.org/materials/mp-1205670,166.61477715574313
-3.50526914,-14.02107656,8.800732568107707,-0.30990818249999963,3.2e-06,0.0,221,mp-977,LuIn3,https://materialsproject.org/materials/mp-977,98.00534694366864
-3.661165278,-18.30582639,5.6847172218436155,-0.786220458137931,3e-07,0.9322,71,mp-1070498,Rb2Te2Pt,https://materialsproject.org/materials/mp-1070498,181.46186660778844
-4.73577249,-18.94308996,8.616113362048305,-0.3665684233333328,7.129130900000001,0.0,225,mp-1187684,YbEuAg2,https://materialsproject.org/materials/mp-1187684,104.21410524382351
-3.739301256,-37.39301256,3.1728248592904613,-1.9591934970560003,0.0,2.1308,225,mp-1112421,K2PrAuCl6,https://materialsproject.org/materials/mp-1112421,329.08478348801515
-2.496287085,-9.98514834,4.9271251810956604,-0.3078790825,4e-07,0.0,221,mp-1187137,Sr3Pb,https://materialsproject.org/materials/mp-1187137,158.41955551225226
-7.1965978260000005,-35.98298913,9.125816777696826,-1.0205048668571437,6.31e-05,0.0,139,mp-568095,Yb(PRu)2,https://materialsproject.org/materials/mp-568095,79.53998384391531
-6.619131529000001,-66.19131529,7.3833310215978045,-2.8457927197500004,0.0,1.7729,12,mp-552191,Ba2TbBiO6,https://materialsproject.org/materials/mp-552191,166.10406830191042
-7.628855517000001,-76.28855517,7.214919912960485,-3.0550688905000003,1.9999999,0.0,225,mp-13939,Sr2ErReO6,https://materialsproject.org/materials/mp-13939,143.7774412046169
-7.779819816,-77.79819816,6.219271846416267,-3.0160358940000003,1.9999999,0.0,225,mp-7889,Sr2YReO6,https://materialsproject.org/materials/mp-7889,145.8746749625514
-5.28345993,-21.13383972,9.949055888608484,-0.660134505416667,2.01e-05,0.0,225,mp-1183243,AcSnPd2,https://materialsproject.org/materials/mp-1183243,93.22433115025177
-4.865966818,-48.65966818,4.937459907647749,-3.1574512669553787,0.9999524,0.0,225,mp-1112607,Cs2YHgF6,https://materialsproject.org/materials/mp-1112607,225.0943006963295
-9.012873243333333,-108.15447892,8.816580557603567,-0.24815074500000145,12.361423,0.0,160,mp-1215420,Zr3TaFe8,https://materialsproject.org/materials/mp-1215420,169.76836663956635
-3.801952385,-15.20780954,9.033358218342585,-0.3533611487499995,0.00028569999999999995,0.0,225,mp-862890,AcAg2Sn,https://materialsproject.org/materials/mp-862890,103.20676359035303
-3.6419594775,-14.56783791,8.367301757018712,-0.3955727054166669,0.00045519999999999995,0.0,225,mp-1185100,La2AgHg,https://materialsproject.org/materials/mp-1185100,116.34847447692546
-3.856239996,-38.56239996,3.648889146427264,-2.165168676691632,0.0,3.4948,225,mp-1113737,Rb2LuAgCl6,https://materialsproject.org/materials/mp-1113737,303.3061920246015
-4.3551340225,-17.42053609,7.917719010084622,-0.3760794791666662,0.8882639000000001,0.0,225,mp-1184197,CeTmIn2,https://materialsproject.org/materials/mp-1184197,112.975653831024
-3.7801562275,-15.12062491,7.8487734551617,-0.36792177000000015,7.107140400000001,0.0,225,mp-1187660,YbEuCd2,https://materialsproject.org/materials/mp-1187660,116.3248682641752
-2.606223177,-26.06223177,4.705928256679126,-1.1441814195747129,3.8e-06,0.0,225,mp-1113300,Cs2InHgBr6,https://materialsproject.org/materials/mp-1113300,374.2596259854019
-1.42126034,-5.68504136,0.7065790811443969,1.8251264320833327,2.7398618,0.0,71,mp-1093723,La2AgHg,https://materialsproject.org/materials/mp-1093723,1377.7973632342446
-5.315736834,-53.15736834,4.724741279679842,-3.4008954109553797,0.0,4.9311,225,mp-1112482,Cs2YTlF6,https://materialsproject.org/materials/mp-1112482,236.5617378194945
-5.60819232,-22.43276928,10.824897704730349,-0.8972274162499998,1e-07,0.0,225,mp-3942,TmSnPd2,https://materialsproject.org/materials/mp-3942,76.77426542750509
-5.280455174,-52.80455174,3.818122139891504,-2.7806340116220456,0.0,0.30210000000000004,225,mp-1114070,Cs2TaAgF6,https://materialsproject.org/materials/mp-1114070,290.7883142094722
-6.822033131,-68.22033131,6.733599942137978,-2.577704941500001,1.0,0.0,87,mp-548691,Sr2ZnReO6,https://materialsproject.org/materials/mp-548691,128.93798708243858
-4.368672473,-43.68672473,2.768132427665022,-2.8215581583174485,0.0,4.5310000000000015,2,mp-1237338,Rb3BiF6,https://materialsproject.org/materials/mp-1237338,347.5532818213638
-4.055431598125,-64.88690557,4.961456208734818,-0.6986922523437498,9.4e-06,0.011199999999999656,5,mp-1215727,ZnCu4Sn2HgS8,https://materialsproject.org/materials/mp-1215727,339.4146319173783
-4.10839948,-16.43359792,8.081806806930164,-0.34619802791666704,0.0769323,0.0,225,mp-1185050,La2TlAg,https://materialsproject.org/materials/mp-1185050,121.23795347563353
-4.548777986,-45.48777986,4.596384103793056,-2.505105475817449,0.0,2.2971,225,mp-1114690,Rb3IrF6,https://materialsproject.org/materials/mp-1114690,203.25482129246427
-3.744149795,-37.44149795,3.2185412868829135,-1.965900624306,0.0,2.1214000000000004,225,mp-1112422,K2NdAuCl6,https://materialsproject.org/materials/mp-1112422,326.1307240304489
-3.2512602875,-13.00504115,10.558834445295997,0.5665096324999999,0.0,0.0,216,mp-631475,TlZn2Tc,https://materialsproject.org/materials/mp-631475,68.12756413178012
-2.821329613,-28.21329613,5.001404249755399,-1.0622947375747127,2.7000000000000004e-06,0.0,225,mp-1112924,Cs2InAuBr6,https://materialsproject.org/materials/mp-1112924,350.94585699815394
-4.681028942272726,-102.98263673,4.02632632273418,0.6381055904402505,0.029342700000000003,0.0,225,mp-21327,Rb3Ir(NO2)6,https://materialsproject.org/materials/mp-21327,298.86183203143696
-6.912847537999999,-69.12847538,6.820565556987451,-2.434376383,0.9777123,0.004599999999999938,87,mp-22353,Sr2ReNiO6,https://materialsproject.org/materials/mp-22353,125.6589793353186
-5.6110492475,-22.44419699,10.72863264490644,-0.8705971499999992,1.22e-05,0.0,225,mp-866205,TmSbPd2,https://materialsproject.org/materials/mp-866205,77.93520771517198
-8.097384023,-80.97384023,7.115091503335576,-3.514560905,0.0,3.4949000000000003,12,mp-1205600,Ba2NdTaO6,https://materialsproject.org/materials/mp-1205600,162.39706123285174
-4.44012861,-44.4012861,3.9789206060556097,-2.893014295317448,0.0,4.4685000000000015,225,mp-1114494,Rb3BiF6,https://materialsproject.org/materials/mp-1114494,241.7925877402318
-4.4258686475,-35.40694918,6.404756171546872,-0.4160014031249997,6e-07,0.0,166,mp-12020,ErAl4Ge2Au,https://materialsproject.org/materials/mp-12020,160.07939315394097
-2.93236891,-29.3236891,4.307744620476358,-1.2640012805747127,0.0,1.8255,225,mp-996944,Cs2TlInBr6,https://materialsproject.org/materials/mp-996944,410.31630881680223
-8.085060277,-80.85060277,7.023900908790294,-3.502237159,0.0,3.3124,225,mp-1205596,Ba2NdTaO6,https://materialsproject.org/materials/mp-1205596,164.5054458411393
-6.803299374,-68.03299374,6.985967746158324,-2.52212351125,2.9999999,0.0,216,mp-1227676,BaSrCoWO6,https://materialsproject.org/materials/mp-1227676,133.99337751138742
-7.141294182999999,-71.41294183,6.732880077148455,-2.5006492419999997,2.0,0.0,87,mp-31515,Sr2CoReO6,https://materialsproject.org/materials/mp-31515,127.35463657670347
-6.5895613125,-26.35824525,11.369294102622927,-0.7647112299999996,2.48e-05,0.0,225,mp-1187603,TmSbRh2,https://materialsproject.org/materials/mp-1187603,72.51692825662693
-2.3690185975,-9.47607439,0.8425859621465651,1.6198509695833332,2.7982229,0.0,71,mp-1097188,La2AgAu,https://materialsproject.org/materials/mp-1097188,1148.2578511255622
-5.5433979566666665,-33.26038774,11.658020566689956,-0.3780493816666664,0.026431700000000002,0.0,216,mp-1077279,DyNi4Au,https://materialsproject.org/materials/mp-1077279,84.64207059130848
-8.144029453846155,-105.87238290000002,4.904353351654629,-3.241716165384616,0.0,2.7881,21,mp-759216,LiY3WO8,https://materialsproject.org/materials/mp-759216,198.2392294843493
-1.9984133999999998,-7.993653599999999,4.039472824619563,-0.26145281400862075,7.3e-05,0.0,225,mp-23304,Rb3Bi,https://materialsproject.org/materials/mp-23304,191.30911434125883
-3.4207153675,-13.68286147,8.983058317107028,-0.2865089083333334,0.0007577,0.0,225,mp-1183121,AcInAg2,https://materialsproject.org/materials/mp-1183121,103.06521625943765
-1.9675943475,-7.87037739,0.7456296908180917,1.7946071045833332,1.0,0.0,71,mp-1095753,La2TlAg,https://materialsproject.org/materials/mp-1095753,1314.086241097259
-4.599755875,-18.3990235,9.06463724208158,-0.20752878812499986,1.7e-05,0.0,139,mp-976365,Nd3Au,https://materialsproject.org/materials/mp-976365,115.35255808894101
-2.8719440869999997,-28.71944087,3.2096820314587218,-1.4994258386456552,0.0037155,0.0,225,mp-1113412,CsRb2AuCl6,https://materialsproject.org/materials/mp-1113412,369.1447121340584
-6.870412148333332,-41.22247289,10.612349107221151,-0.7159613472222226,0.0005206000000000001,0.0,191,mp-1025051,YbB2Rh3,https://materialsproject.org/materials/mp-1025051,78.76480906360943
-6.314300426666668,-75.77160512,6.159639219411843,-2.1089896809375013,3.3110263999999994,0.0,123,mvc-13311,Ba2TlMo2O7,https://materialsproject.org/materials/mvc-13311,211.0607003378293
-3.784363803,-37.84363803,4.40536637256031,-2.06887192369738,0.0,1.9136,225,mp-1112928,Cs2ErAuCl6,https://materialsproject.org/materials/mp-1112928,317.6640907633976
-3.769132537058823,-64.07525313,4.4926577883096535,-2.0840491620164703,0.9999079,0.5340000000000003,2,mp-1190046,Sb2Au(XeF6)2,https://materialsproject.org/materials/mp-1190046,344.12826530783246