energy_per_atom,energy,density,formation_energy_per_atom,total_magnetization,band_gap,sgr,mp_id,formula,URL,cell_volume
-7.833699361428572,-219.34358212,4.550418759208286,-2.732650957474644,6.999999775,1.9163,14,mp-558122,GdSClO4,https://materialsproject.org/materials/mp-558122,421.5054284739736
-7.994348990500001,-159.88697981,5.517636219260205,-3.3831334120500016,0.0,3.6165,12,mp-558128,KNd2NbO6,https://materialsproject.org/materials/mp-558128,310.8735715209997
-6.294652405,-125.89304809999999,6.211503907526226,-1.2882936796562496,2.999967275,0.05259999999999998,62,mp-1105933,LaCrSe3,https://materialsproject.org/materials/mp-1105933,457.4402644852516
-8.653640710526316,-328.838347,4.111361640757293,-3.1405148169642865,13.99999985,2.9668,15,mp-771342,Gd2P4O13,https://materialsproject.org/materials/mp-771342,522.1390644022526
-10.162836057692306,-132.11686875,6.7339139038003255,-2.8478806758493587,27.999999300000002,0.6332,12,mp-554519,Gd4Ti(SeO)4,https://materialsproject.org/materials/mp-554519,260.57642956458176
-6.743711823541666,-323.69816753,4.448314032340492,-2.530485251145834,0.0,0.0,62,mp-22407,BaCu2Si2O7,https://materialsproject.org/materials/mp-22407,645.9306639119478
-7.570459461,-151.40918922,7.4405041063599375,-2.96375123425,5.000000475,1.5513,62,mp-19853,TbFeO3,https://materialsproject.org/materials/mp-19853,234.5741253667061
-4.901141815,-88.22055267,5.660889943395809,-0.5024221011111112,3.6200000000000006e-05,0.0,64,mp-669456,La2Al3Ge4,https://materialsproject.org/materials/mp-669456,380.9343903401903
-7.6758530039999995,-230.27559012,6.147895180356445,-2.8751749724419997,10.9999909,0.0,165,mp-1218302,SrLa2Mn3O9,https://materialsproject.org/materials/mp-1218302,364.22263874365507
-4.600761433500001,-92.01522867,5.175357048028864,-0.5076075215000003,0.0,0.02479999999999993,105,mp-27810,Ba(GeAs)2,https://materialsproject.org/materials/mp-27810,555.0151870038111
-10.567769423,-211.35538846,7.027652202407711,-3.6358131275833343,5.992068225,0.0,62,mp-510278,GdTiO3,https://materialsproject.org/materials/mp-510278,239.23077529272624
-7.3346605375,-146.69321075,7.63727305638341,-2.56751404125,4.00000095,0.0,14,mp-1208962,Sm2NiRuO6,https://materialsproject.org/materials/mp-1208962,241.98596175608623
-8.390081658461538,-109.07106156,6.678490619483389,-3.680524741538462,0.0003207,2.6001000000000003,71,mp-1173349,Sm4ZrO8,https://materialsproject.org/materials/mp-1173349,204.04859687301345
-6.813036689583334,-327.0257611,4.003885702431391,-2.8612302315852496,3.9975e-05,4.252599999999998,57,mp-1195542,Rb2LiNd(BO3)2,https://materialsproject.org/materials/mp-1195542,729.4918088086881
-7.541984761,-150.83969522,7.617090343912362,-2.61266447875,4.9983853,0.0,14,mp-1208928,Sm2CoRuO6,https://materialsproject.org/materials/mp-1208928,242.73169414862463
-9.966087641,-99.66087641,7.462410992307383,-0.7405984869999997,14.67525525,0.0,12,mp-1080595,Gd2CoSi2,https://materialsproject.org/materials/mp-1080595,191.19143619418816
-7.649229696785714,-214.17843151,5.337666170708947,-3.031989996922858,5.005388575,0.0005999999999994897,122,mp-1227511,CaCeMnO4,https://materialsproject.org/materials/mp-1227511,372.2349338889937
-6.3960236025,-204.67275528,4.400686848639488,-2.2541747193675,2.0000737,0.6648,14,mp-1201951,CeAsO5F,https://materialsproject.org/materials/mp-1201951,473.9842480027953
-8.750850852857143,-122.51191194,5.330127329606218,-2.4613099901785724,13.98817795,1.3968999999999996,122,mp-36358,Ca(GdS2)2,https://materialsproject.org/materials/mp-36358,300.84510159525723
-4.6153251780952385,-193.84365748,4.893253567160329,-2.508975152221905,1.0,0.0,15,mp-29457,Ba2Cu5F14,https://materialsproject.org/materials/mp-29457,582.5747642406249
-6.580605823636364,-72.38666406,6.432580717107411,-1.0631119086363634,6.3612675,0.0,164,mp-1095424,Pr4Mn2As5,https://materialsproject.org/materials/mp-1095424,270.5656466173551
-5.877039059583333,-141.04893743,4.923307434054454,-3.963303316267471,8.7575e-05,6.8648,62,mp-1209185,RbPrF4,https://materialsproject.org/materials/mp-1209185,407.93360154161616
-6.896338695500001,-137.92677391,4.188002965033204,-2.3643155169375007,1.008154375,0.0,62,mp-20953,CeScS3,https://materialsproject.org/materials/mp-20953,446.0882114323351