energy_per_atom,energy,density,formation_energy_per_atom,total_magnetization,band_gap,sgr,mp_id,formula,URL,cell_volume
-3.496306912727273,-76.91875208,3.411631637730044,-0.7909142824545458,5.00000005,1.3409,186,mp-14782,Na6MnTe4,https://materialsproject.org/materials/mp-14782,684.6098729210929
-3.199015872,-31.99015872,3.43623052920182,-1.3382409880500001,1.0000007,0.2599,225,mp-1111233,K2NaCeI6,https://materialsproject.org/materials/mp-1111233,484.5632303178908
-2.4656155319999997,-24.65615532,4.756538255432577,0.1902277070000004,4e-07,0.11609999999999987,140,mp-1096939,CuGeI3,https://materialsproject.org/materials/mp-1096939,360.9060219699237
-2.168099001,-21.68099001,4.309029206009374,-0.11037101113793106,0.0,0.0,139,mp-571505,Rb2In3,https://materialsproject.org/materials/mp-571505,397.2238342763844
-4.0211800360000005,-40.21180036,4.3200388978073665,-0.15519878899999995,0.0,0.9059999999999996,44,mp-1228691,Al4GaSb5,https://materialsproject.org/materials/mp-1228691,302.295778984539
-6.1958340566666665,-74.35000868,7.222932440733421,-1.078270804166667,0.000357575,0.0,194,mp-1211387,LaNiAs,https://materialsproject.org/materials/mp-1211387,250.60784292103855
-3.73356344,-44.80276128,5.409321238130574,-0.5408939349999997,0.000364025,0.0,194,mp-1102026,BaGaGe,https://materialsproject.org/materials/mp-1102026,343.43396788770195
-3.1684948389999996,-31.68494839,3.0912155102318057,-1.3399068606344826,1.0000009,0.2793999999999999,225,mp-1114535,K2RbCeI6,https://materialsproject.org/materials/mp-1114535,572.2079772973277
-3.693061733809524,-155.10859282,3.6483250986643685,-2.0190479932876197,0.99996615,0.06940000000000035,14,mp-606617,CuSb2(XeF8)2,https://materialsproject.org/materials/mp-606617,795.2640125877733
-4.581439949166667,-54.97727939,6.3644771213161535,-0.5477429319444447,7.5e-08,0.0,62,mp-20220,CaInRh,https://materialsproject.org/materials/mp-20220,269.049253951616
-4.7055020050000005,-56.46602406,6.442841818883531,-0.936241016666667,5.5e-07,0.0,62,mp-1213959,CaSbPd,https://materialsproject.org/materials/mp-1213959,276.55677063914743
-2.563676857,-25.63676857,4.071956866373548,-0.7345724692666667,0.0,0.3809999999999998,225,mp-1112090,K2AgSbI6,https://materialsproject.org/materials/mp-1112090,436.03950553988085
-3.101619775,-31.01619775,3.1080926621202223,-1.3787157889,0.0,3.174,225,mp-1111171,K3PrI6,https://materialsproject.org/materials/mp-1111171,544.7502887705455
-3.112760155,-31.12760155,4.0319409347849176,-1.0909603741000002,0.0,1.8073,225,mp-1112045,K2PrCuI6,https://materialsproject.org/materials/mp-1112045,429.99904104406176
-5.6846513011538455,-147.80093383,6.181575927259064,-1.962715338461538,0.0002168,1.2507,186,mvc-7701,Zn2Sn3O8,https://materialsproject.org/materials/mvc-7701,330.3808617733194
-3.262720868125,-52.20353389,3.8802246625183257,-1.113429235791854,0.0,2.49,9,mp-634062,RbCdH2I3O,https://materialsproject.org/materials/mp-634062,510.6353960744307
-6.406459167777778,-115.31626502,5.673803528917753,-0.21261406957629625,1e-07,0.8529,15,mp-1246226,Ti(SnN)4,https://materialsproject.org/materials/mp-1246226,338.7533825482531
-3.4983157131818183,-76.96294569,2.9740359922191537,-0.9173233757272724,5.000000099999999,1.4227000000000003,186,mp-18246,K6MnTe4,https://materialsproject.org/materials/mp-18246,893.2719168703904
-6.2065964299999985,-62.06596429999999,6.530175978457152,-0.902138568,0.00019385,0.0,148,mp-1215634,Zr2Te3,https://materialsproject.org/materials/mp-1215634,287.4704676806218
-3.1588171590000003,-31.58817159,3.658140203512063,-1.3561493401,0.0,2.9382,225,mp-1111250,K2LiPrI6,https://materialsproject.org/materials/mp-1111250,448.24305027192634
-5.928186420499999,-237.12745682,4.897921599746872,-2.048983010267242,0.0,2.3428,9,mp-1219122,RbV3Cd4O12,https://materialsproject.org/materials/mp-1219122,596.6435326598848
-3.0904527880000003,-30.90452788,3.828608064618337,-1.6389000780689655,6.900000000000001e-06,3.7457,63,mp-1205862,RbSrI3,https://materialsproject.org/materials/mp-1205862,480.3879185768323
-4.539227498333333,-54.47072998,6.336370102852943,-0.8092827683333338,0.0,0.0,62,mp-30437,CaSnPd,https://materialsproject.org/materials/mp-30437,278.00663823095533
-6.96558282857143,-195.03631919999998,4.790116325419697,-2.0109111316964285,7.9999996,1.0398999999999998,85,mvc-10638,CaMo4O9,https://materialsproject.org/materials/mvc-10638,393.68906157079124
-3.104485553,-31.04485553,3.4243303362622872,-1.3587748465499998,0.0,3.1022000000000003,225,mp-1111228,K2NaPrI6,https://materialsproject.org/materials/mp-1111228,486.6310686885694
-5.352307082692309,-139.15998415,5.838603626654256,-1.6031521719230777,0.626938,0.0,186,mvc-7691,Zn2Sb3O8,https://materialsproject.org/materials/mvc-7691,354.992799465781
-5.136053545714286,-143.80949928,5.0547548078477575,-0.6930447764285717,0.10141165,0.0,63,mp-1207714,Y2(Al3Pd)3,https://materialsproject.org/materials/mp-1207714,486.13319303351466
-3.964029043,-39.64029043,6.323541241314015,-0.6687792516666669,5e-08,0.0,15,mp-20843,Sr2InPd2,https://materialsproject.org/materials/mp-20843,264.1183888173369
-6.575386911428572,-184.11083352,5.094995281912833,-1.6728200695535702,7.99995245,0.7378,85,mvc-10545,ZnMo4O9,https://materialsproject.org/materials/mvc-10545,386.64267988768484
-4.014836215833333,-48.17803459,6.225951391229732,-0.7040711886111115,1.5e-07,0.0,62,mp-620571,CaInPd,https://materialsproject.org/materials/mp-620571,278.78497116947926
-3.215874447,-32.15874447,3.454127579847746,-1.3568452713689656,0.0002469,2.339,225,mp-1110633,KRb2ScI6,https://materialsproject.org/materials/mp-1110633,488.6326458201376
-6.814725504347826,-156.7386866,5.116508213117153,-1.779298956076087,21.9982978,0.0,65,mp-1223708,K2Mo8O13,https://materialsproject.org/materials/mp-1223708,341.97631007525723
-9.060997313125,-144.97595701,7.622983536355385,-0.4604311787499995,0.00010215,0.0,140,mp-1207805,VSi3Mo4,https://materialsproject.org/materials/mp-1207805,226.09258304454636
-7.535775120555557,-135.64395217,8.454481710121168,-0.5836370979629635,0.0,0.0,137,mp-5984,Y(BRh)4,https://materialsproject.org/materials/mp-5984,213.6037232648016
-2.685634007,-26.85634007,3.568442535667565,-1.0850482188689656,0.0,1.7559,225,mp-1114509,KRb2AlI6,https://materialsproject.org/materials/mp-1114509,464.6151179455421
-3.0768681360000003,-30.76868136,3.0794607282821547,-1.3633443351344827,0.0,3.1256000000000004,225,mp-1114512,K2RbPrI6,https://materialsproject.org/materials/mp-1114512,574.8190662000533
-2.511593995,-25.11593995,3.6558304937973904,-0.9827516598689656,0.0,0.8349,225,mp-1114382,KRb2GaI6,https://materialsproject.org/materials/mp-1114382,472.92296998063364
-3.219859672,-32.19859672,3.70651881178383,-1.377845158518965,0.9999998,0.2617000000000003,225,mp-1114513,Rb2NaCeI6,https://materialsproject.org/materials/mp-1114513,490.7752497017786
-4.3386531205,-86.77306241,7.542740762564456,-1.4398951096730002,4.999999900000001,0.0,2,mp-757244,MnCd9O10,https://materialsproject.org/materials/mp-757244,270.04358256719155
-2.603694007,-26.03694007,3.5836329844175046,-0.9131343623689656,8e-06,2.0398,225,mp-1114510,KRb2AsI6,https://materialsproject.org/materials/mp-1114510,484.8595547259148
-3.2713708830000003,-32.71370883,3.9519482062825753,-1.3723992570689656,0.9999995,0.2555999999999998,225,mp-1114564,Rb2LiCeI6,https://materialsproject.org/materials/mp-1114564,453.5530310328146
-3.127462276,-31.27462276,4.349538191651237,-1.1244228655689654,0.0,1.7961,225,mp-1112437,Rb2PrCuI6,https://materialsproject.org/materials/mp-1112437,434.0064122572344
-3.0993531880000003,-30.99353188,3.7000869874190263,-1.6290401075999998,2.55e-06,3.731,63,mp-1205548,KSrI3,https://materialsproject.org/materials/mp-1205548,455.45424605096434
-2.81000375,-28.1000375,6.201982176870028,-0.27170640866666673,1.92e-05,0.0,12,mp-567207,SrIn4,https://materialsproject.org/materials/mp-567207,292.8533139132597
-5.748602440357144,-160.96086833,5.1266129808259455,-0.8408516775000001,1.995e-05,0.0,63,mp-1207711,Y2(Al3Rh)3,https://materialsproject.org/materials/mp-1207711,472.48901312886125
-5.148868059,-51.48868059,9.933410259573515,-0.31347079181250026,0.0,0.0,114,mp-7819,Pd4S,https://materialsproject.org/materials/mp-7819,153.03977647197962
-3.101392264,-31.01392264,3.141859200150157,-1.3803468661500002,0.0,3.1746,225,mp-1111170,K3NdI6,https://materialsproject.org/materials/mp-1111170,540.657962483629
-2.469317488,-24.69317488,4.165875285287012,-0.7777618886,3.3e-06,0.0,225,mp-1112095,K2InAgI6,https://materialsproject.org/materials/mp-1112095,423.4420081675662
-2.579232899,-25.79232899,4.371114779472748,-0.7688888817356322,0.0,0.40949999999999975,225,mp-1113723,Rb2AgSbI6,https://materialsproject.org/materials/mp-1113723,441.4276188044982
-3.1119263310000003,-31.11926331,4.0949861397359415,-1.09198513835,0.0,1.8245,225,mp-1112044,K2NdCuI6,https://materialsproject.org/materials/mp-1112044,424.7309989586412
-7.5900987266666675,-91.08118472,8.188773749940474,-0.6845659649999997,0.0,0.0,62,mp-22722,NbSiPd,https://materialsproject.org/materials/mp-22722,184.46049014483523
-2.488769436,-24.88769436,4.705482513936078,-0.2947291076666669,0.0622837,0.0,115,mp-1218786,Sr2Mg3In5,https://materialsproject.org/materials/mp-1218786,290.1657627886252
-3.304895060833333,-39.65874073,6.214329156656255,-0.6065046941666665,0.000173225,0.0,62,mp-1103172,CaCdPd,https://materialsproject.org/materials/mp-1103172,276.73365312286836
-3.158319024,-31.58319024,3.701509994706184,-1.35750979335,0.0,2.9488000000000003,225,mp-1111251,K2LiNdI6,https://materialsproject.org/materials/mp-1111251,444.48691043538145
-6.7955785252941165,-115.52483493,7.173833459478584,-0.6277228014705877,1.1e-06,0.0,69,mp-569257,Ca3(B3Rh4)2,https://materialsproject.org/materials/mp-569257,233.4030455554316
-4.612470612222221,-83.02447102,6.559827576978775,0.3580677533866673,1e-07,0.0,12,mp-1245461,Cd4RuN4,https://materialsproject.org/materials/mp-1245461,307.17782555646323
-2.4835786850000003,-24.83578685,4.481881828066776,-0.8107834560689657,0.0,0.0,225,mp-1113727,Rb2InAgI6,https://materialsproject.org/materials/mp-1113727,427.94598344763597
-3.1041615140000003,-31.04161514,3.4655201066119767,-1.3603093958,0.0,3.1158,225,mp-1111630,K2NaNdI6,https://materialsproject.org/materials/mp-1111630,482.4448561807837
-2.604904875,-26.04904875,3.6776999939168817,-0.7834820109333333,0.0,0.4658000000000002,225,mp-1112018,K2InSbI6,https://materialsproject.org/materials/mp-1112018,485.92176517099165
-3.124876931,-31.24876931,3.7015972256000786,-1.3979265950189657,0.0,3.112,225,mp-1114453,Rb2NaPrI6,https://materialsproject.org/materials/mp-1114453,491.7829115817583
-5.346843318461539,-139.01792628,4.94254005061442,-1.7309234933598587,0.000168,3.0265,2,mp-1192556,RbInTe3O8,https://materialsproject.org/materials/mp-1192556,477.80200019034913
-7.472331389166666,-89.66797667,6.6632131167762365,-1.0591183108333342,0.0,0.0,62,mp-19728,YSiRh,https://materialsproject.org/materials/mp-19728,219.2019362422481
-5.6482132875,-67.77855945,5.0761024236387176,-1.3437726032291668,0.031147875,0.0037000000000002586,187,mp-1080325,CeSe2,https://materialsproject.org/materials/mp-1080325,389.98457637163193
-5.741477556666666,-68.89773068,4.99766389495583,-1.4370368723958329,0.03458655,0.2346000000000004,187,mp-1080345,CeSe2,https://materialsproject.org/materials/mp-1080345,396.10539942467574
-3.0761132630000003,-30.76113263,3.124369589545772,-1.3644480503844825,0.0,3.1287000000000003,225,mp-1114545,K2RbNdI6,https://materialsproject.org/materials/mp-1114545,568.3289085005655
-6.545442859166666,-78.54531431,6.625959246662004,-1.173895405714286,0.0010749000000000002,0.0,194,mp-1102069,LaNiP,https://materialsproject.org/materials/mp-1102069,229.13136938037349
-2.514718169,-25.14718169,3.786689558316045,-0.8308440932666666,0.0,0.0,225,mp-1112169,KInI3,https://materialsproject.org/materials/mp-1112169,468.89162247230774
-3.175981692,-31.75981692,3.9402755348701626,-1.3920742435689657,0.0,2.9512,225,mp-1114574,Rb2LiPrI6,https://materialsproject.org/materials/mp-1114574,455.23025922964507
-2.625151087,-26.25151087,3.968691976851152,-0.8224885934022992,0.0,0.06590000000000007,225,mp-1114392,Rb2InSbI6,https://materialsproject.org/materials/mp-1114392,489.0959576016492
-6.087834596666667,-73.05401516,7.50067498633845,-1.017908036666667,0.000219125,0.0,194,mp-1209365,PrNiAs,https://materialsproject.org/materials/mp-1209365,243.10109611177148
-8.493628595833334,-101.92354315,8.279822989611446,-0.8651638441666663,2.5e-08,0.0,62,mp-10470,NbSiRh,https://materialsproject.org/materials/mp-10470,179.61269988993448
-3.126220303,-31.26220303,4.405728965400328,-1.1250394808189654,0.0,1.8116,225,mp-1113600,Rb2NdCuI6,https://materialsproject.org/materials/mp-1113600,429.72781547635765
-4.166989495833334,-50.00387395,8.554103451771295,0.037580841944444415,0.33525645,0.0,70,mp-20296,In2Co,https://materialsproject.org/materials/mp-20296,224.07043204026198
-4.232186559444445,-76.17935807,4.8733997250276175,-0.7085096550416673,0.0,0.7909000000000002,70,mp-14339,K2Pd3Se4,https://materialsproject.org/materials/mp-14339,486.09058079780294
-2.234601359848485,-147.48368975,3.40780804573672,-0.9154297347975756,0.00022075,2.1849,15,mp-556221,Ni(XeF7)4,https://materialsproject.org/materials/mp-556221,1087.4226434429108
-2.5335799619999997,-25.33579962,4.0303852531980935,-0.8684662567356323,0.0,0.0,225,mp-1114487,RbInI3,https://materialsproject.org/materials/mp-1114487,478.7492062445474
-2.2687695091666664,-27.22523411,5.5549028896116655,-0.012875686277777612,7.5e-08,0.0,194,mp-12735,KAg2,https://materialsproject.org/materials/mp-12735,304.7131346890355
-7.477213936923077,-194.40756236,4.658444878406756,-1.6260576045512822,0.0053322,0.0,194,mp-1192454,Ti(NbS2)4,https://materialsproject.org/materials/mp-1192454,481.93987920393926
-8.516706023000001,-85.16706023,5.905262943621096,-1.0480777734759996,7.6e-06,0.0,63,mp-27898,Zr3AlN,https://materialsproject.org/materials/mp-27898,176.9626909146963
-7.379637063461539,-191.87056365,5.054517168388519,-1.4313944305769242,0.03417515,0.0,194,mp-3669,Mn(NbS2)4,https://materialsproject.org/materials/mp-3669,448.8210800267242
-8.68293463,-104.19521556,8.26184614031464,-0.39474286500000016,6.7e-06,0.0,194,mp-567750,ScRu2,https://materialsproject.org/materials/mp-567750,198.65410298467663
-1.6099345991666667,-19.31921519,5.658778716715326,-0.3326800975000001,5.75e-07,0.0,194,mp-1078,CaCd2,https://materialsproject.org/materials/mp-1078,310.9340822228363
-6.538815944333334,-196.16447833,6.38864960254603,-2.2551490048888883,0.0,1.1262999999999996,12,mp-766163,TiSn9O20,https://materialsproject.org/materials/mp-766163,373.3090781116472
-3.8599119930000003,-38.59911993,6.29732844373113,-0.31558336499999984,3e-07,0.0,63,mp-714,SrSn4,https://materialsproject.org/materials/mp-714,296.62953005672296
-3.726349722,-37.26349722,5.2266380416235085,-0.2054655436666664,0.0,0.4898999999999996,162,mp-567931,InSiTe3,https://materialsproject.org/materials/mp-567931,334.0392727649003
-6.6329605084615375,-344.91394644,3.612312016107772,-2.3980602362500005,0.0,3.9476,88,mp-19497,Na5Y(MoO4)4,https://materialsproject.org/materials/mp-19497,775.5914719817324
-5.263361717234043,-247.37800071,3.4748408371573136,-1.6022288117753192,1.0,0.0,148,mp-1181127,Li2Ga3Te6(HO2)12,https://materialsproject.org/materials/mp-1181127,661.7285379187845
-8.99140783,-251.75941924,5.106710899983049,-3.689256447410713,3e-07,2.2314000000000003,12,mp-675372,CaZr4O9,https://materialsproject.org/materials/mp-675372,357.0140585154996
-8.866847573333333,-106.40217088,7.963822914477196,-1.1257357640476198,9.75e-07,0.0,62,mp-22268,ZrPRu,https://materialsproject.org/materials/mp-22268,186.2145048456376
-4.5726131985,-274.35679191,3.614539093928024,-2.2578104580850007,5e-08,2.9204,2,mp-1217532,Te4Mo(OF4)5,https://materialsproject.org/materials/mp-1217532,979.7327633258443
-7.762595876764705,-263.92825981,3.648997482371232,-2.72460883117647,4.605e-05,3.5298,113,mp-1198660,Y2(MoO4)3,https://materialsproject.org/materials/mp-1198660,598.5266699613379
-7.881390525,-94.5766863,6.660669844533615,-0.8284837133333341,0.0,0.0,62,mp-21069,YSiRu,https://materialsproject.org/materials/mp-21069,217.4552369307285
-8.459685202222222,-304.54866728,4.213619937516417,-2.6958457298065484,0.6711416,0.0,87,mp-1210146,Nb9P2O25,https://materialsproject.org/materials/mp-1210146,511.56228169784123
-1.2049461991666666,-14.45935439,6.198113292515734,-0.06034497583333327,2.3075e-05,0.0,12,mp-1094812,MgCd2,https://materialsproject.org/materials/mp-1094812,266.9748614744475
-3.076896629166667,-36.92275955,4.866578117104852,-0.569133880277778,1e-07,1.5714,14,mp-29236,InTeBr,https://materialsproject.org/materials/mp-29236,439.92164643956403
-5.4944894983333326,-65.93387398,7.853347936687125,0.06913946999999965,2.6575824,0.0,21,mp-1226408,Cr3NiSn8,https://materialsproject.org/materials/mp-1226408,246.19666352722257
-8.646023597222221,-311.2568495,4.305450258328516,-2.771772403020833,2.830954,0.0,87,mp-1210227,Nb9V2O25,https://materialsproject.org/materials/mp-1210227,516.053679199855
-3.124240715,-31.24240715,3.747652018759167,-1.3991489672689652,0.0,3.1233,225,mp-1114449,Rb2NaNdI6,https://materialsproject.org/materials/mp-1114449,487.21681477277184
-9.036276944166667,-108.43532333,9.197104735343302,-0.5235581015476191,5e-08,0.0,62,mp-22451,MoPRu,https://materialsproject.org/materials/mp-22451,164.65004941489872
-1.2094508425,-14.51341011,6.263797706605913,-0.06484961916666669,3.995e-05,0.0,15,mp-1094694,MgCd2,https://materialsproject.org/materials/mp-1094694,264.175267973166
-6.8121259516,-340.60629758,3.641609347581881,-2.37816021712,0.0,3.6338,88,mp-561158,Na4Zr(MoO4)4,https://materialsproject.org/materials/mp-561158,750.499592707881
-6.608834757333332,-198.26504272,3.62605748674236,-2.189418355212644,5e-08,3.3707,15,mp-541075,Rb2Mo3O10,https://materialsproject.org/materials/mp-541075,566.707985486159
-3.0577305370000003,-30.57730537,4.23757444870803,-1.1836115844856323,0.0,2.5524,225,mp-1113720,Rb2NdAgI6,https://materialsproject.org/materials/mp-1113720,464.1483119950259
-2.4966639616666666,-29.95996754,6.63123465358479,-0.0761032594444444,1.85e-06,0.0,194,mp-1094121,MgAg2,https://materialsproject.org/materials/mp-1094121,240.43674322444744
-4.250733211333333,-63.76099817,5.394949978223701,-0.47407031896666707,3.4e-05,0.0,12,mp-1220888,NaSr2(SnAs)6,https://materialsproject.org/materials/mp-1220888,418.6072654911229
-5.193856905,-176.59113477,4.7860849144586295,-1.3502838923529414,0.0,3.1801,85,mp-27437,Zr(IO3)4,https://materialsproject.org/materials/mp-27437,548.7624577485997
-1.2008234166666667,-14.409881,6.1930819097609975,-0.05622219333333334,3.55e-06,0.0,63,mp-1038882,MgCd2,https://materialsproject.org/materials/mp-1038882,267.19175715474734
-6.420264543265307,-314.59296262,4.133090053578057,-1.5911951394387749,2.9982419,0.0,2,mp-676252,Li9(RuO3)10,https://materialsproject.org/materials/mp-676252,624.00476086465
-3.175107034,-31.75107034,3.9885116557482982,-1.3930581738189651,0.0,2.9632,225,mp-1114425,Rb2LiNdI6,https://materialsproject.org/materials/mp-1114425,451.1130032502386
-4.470455303157895,-84.93865076,6.698325665282386,0.27538076083999985,3.3939667,0.0,12,mp-1246249,Mn2Cd9N8,https://materialsproject.org/materials/mp-1246249,305.8209921363532
-8.82279687742857,-308.79789071,4.28427059615096,-2.9920586588214286,0.0,1.9967,82,mp-774246,Nb9VO25,https://materialsproject.org/materials/mp-774246,498.8604358549086
-1.229198955,-14.75038746,6.2750918185314255,-0.08459773166666669,1.015e-05,0.0,63,mp-1094763,MgCd2,https://materialsproject.org/materials/mp-1094763,263.699796835735
-6.672474442352941,-113.43206552,7.855673072311259,-0.560778971764706,7e-07,0.0,69,mp-568771,Sr3(B3Rh4)2,https://materialsproject.org/materials/mp-568771,243.29304456486082
-1.2156658741666666,-14.58799049,6.261787260936487,-0.07106465083333324,2.1725e-05,0.0,12,mp-1094901,MgCd2,https://materialsproject.org/materials/mp-1094901,264.2600856140941