energy_per_atom,energy,density,formation_energy_per_atom,total_magnetization,band_gap,sgr,mp_id,formula,URL,cell_volume
-7.698271164473684,-292.53430425,7.956223535981652,-0.06110907631578979,70.0937465,0.0,1,mp-1219432,Sm4Ga3Fe31,https://materialsproject.org/materials/mp-1219432,530.4985153999187
-7.96430413736842,-302.64355722,8.002321137345374,-0.0050900210526334064,77.616839,0.0,1,mp-1219400,Sm4Fe31Co3,https://materialsproject.org/materials/mp-1219400,520.7256776127119
-8.079566287894735,-307.02351894,7.933933412080816,0.01718421210526344,72.9002399,0.0,8,mp-1219321,Sm4CrFe33,https://materialsproject.org/materials/mp-1219321,522.4695529475814
-8.063346318421052,-306.4071601,7.888907145044455,0.004741500000000387,74.402764,0.0,8,mp-1219455,Sm4ZrFe33,https://materialsproject.org/materials/mp-1219455,533.7086652081811
-8.060165994210527,-306.28630778,7.922944026709255,-0.009193823333333741,73.47179890000001,0.0,8,mp-1219364,Sm4TiFe33,https://materialsproject.org/materials/mp-1219364,522.3288334771349
-8.128161197105264,-308.87012549,8.067690286560667,0.030529986578946032,58.627867,0.0,8,mp-1219348,Sm4Cr3Fe31,https://materialsproject.org/materials/mp-1219348,512.2229533758339
-8.043115152894737,-305.63837581,7.820210502769897,0.024174346776314786,80.29408559999999,0.0,8,mp-1217543,TbNd3Fe34,https://materialsproject.org/materials/mp-1217543,528.8061561384013
-5.8165023599999985,-221.02708968,8.826559620963108,-0.14489439657894745,0.00275865,0.0,194,mp-570596,Nd2Ni17,https://materialsproject.org/materials/mp-570596,483.97215487635555
-8.032169318684211,-305.22243411,7.830746189874352,0.036007993026315355,79.29249759999999,0.0,8,mp-1219904,Pr3DyFe34,https://materialsproject.org/materials/mp-1219904,526.7315204688493
-8.025294905789472,-304.96120642,8.049072759701362,0.04041423874999856,67.8418983,0.0,8,mp-1220953,Nd3ErFe34,https://materialsproject.org/materials/mp-1220953,515.4896633693174
-7.025709915050506,-695.54528159,5.76858156223283,-2.158196796313132,7.000002,0.0,148,mp-1219719,Sm4V20(CuO4)15,https://materialsproject.org/materials/mp-1219719,1017.1284627900594
-8.062767555789472,-306.38516712,8.073479916831065,-0.004004588486843001,79.69770159999999,0.0,8,mp-1217679,Tb3SmFe34,https://materialsproject.org/materials/mp-1217679,519.5156523634362
-8.058580266578947,-306.22605013,8.022063861380085,0.0014655024342094913,79.79218990000001,0.0,8,mp-1217666,Tb3NdFe34,https://materialsproject.org/materials/mp-1217666,521.5789951675912
-7.016000577105262,-266.60802193,8.881028031464211,-0.08230954473684224,21.3347497,0.0,164,mp-1219324,Sm2ZrCo16,https://materialsproject.org/materials/mp-1219324,499.1792036758684
-7.257942815,-275.80182697,8.346694593468339,-0.0039042439473686687,58.531045400000004,0.0,8,mp-1220144,Pr3ErMn6(FeCo13)2,https://materialsproject.org/materials/mp-1220144,510.0099059437315
-7.9379476136842095,-301.64200932,7.860052349039388,-0.1117343269736855,65.1458873,0.0,1,mp-1219345,Sm4Fe31Si3,https://materialsproject.org/materials/mp-1219345,510.59999513675604
-8.06355452736842,-306.41507204,7.691359883602169,0.03959329302631581,79.5922301,0.0,8,mp-1227066,CePr3Fe34,https://materialsproject.org/materials/mp-1227066,531.4445563574974
-7.921559731578947,-301.0192698,7.5088605907785535,0.027315208157894608,76.2705612,0.0,8,mp-1219956,Pr4AlFe33,https://materialsproject.org/materials/mp-1219956,538.1531530011545
-6.811187623947369,-258.82512971,8.744194154746674,-0.031722103289473884,51.1687797,0.0,8,mp-1215883,YbPr3Co34,https://materialsproject.org/materials/mp-1215883,493.6483770088859
-6.889661468421052,-261.8071358,8.695256093113553,-0.06187998578947354,21.77817065,0.0,164,mp-1227675,Ce2Co16Cu,https://materialsproject.org/materials/mp-1227675,491.4474522668074
-7.925732859999999,-317.0293144,7.932715112548211,-0.038189423437501084,72.70347609999999,0.0,8,mp-1219288,Sm4Fe27Co7C2,https://materialsproject.org/materials/mp-1219288,532.9089451314887
-1.894592264473684,-71.99450605,7.223859236774096,-0.25220179421052624,2.675e-05,0.0,194,mp-976812,Pr2Zn17,https://materialsproject.org/materials/mp-976812,640.7673790437697
-8.049580852631577,-305.8840724,8.050059975097277,0.01092607144736827,39.6881544,0.0,194,mp-1220296,NdErFe17,https://materialsproject.org/materials/mp-1220296,520.1743151443636
-7.185846405526315,-273.06216341,8.666237015001057,-0.09596423499999973,18.14304385,0.0,164,mp-1227655,Ce2VCo16,https://materialsproject.org/materials/mp-1227655,488.2627740026347
-7.301804744210527,-277.46858028,8.32689374722213,-0.10493495842105384,29.00389135,0.0,194,mp-1203342,Dy2Ga3Fe14,https://materialsproject.org/materials/mp-1203342,524.8698452120802
-8.178819192682926,-335.3315869,7.828609514638381,-0.0281834182012212,75.1670583,0.0,2,mp-1219344,Sm4Fe34C3,https://materialsproject.org/materials/mp-1219344,537.9579339734789
-7.7382169284210525,-294.05224328,7.503099215923146,-0.06658368250000092,57.96020649999999,0.0,2,mp-1220603,Nd4Fe29Si5,https://materialsproject.org/materials/mp-1220603,517.1882179846771
-6.784797013421053,-257.82228651,7.6946222491246035,-0.6285174334586475,13.36901275,0.0,11,mp-1213550,Eu2Ni12P5,https://materialsproject.org/materials/mp-1213550,502.0135198284034
-2.0043599868421054,-76.16567950000001,7.504762097868508,-0.2408493297368417,0.013095500000000001,0.0,194,mp-978252,Ce2Zn17,https://materialsproject.org/materials/mp-978252,616.0828320084892
-9.102526592439023,-373.20359029,8.049976350543599,-0.03803136015244075,74.2124743,0.0,2,mp-1225869,Gd4Fe34C3,https://materialsproject.org/materials/mp-1225869,528.8496351961211
-7.1889486147222215,-258.80215013,6.159280560103233,-0.045398658611110435,16.88402235,0.0,62,mp-623463,TbMn5Ge3,https://materialsproject.org/materials/mp-623463,702.6146951281042
-6.256628768947368,-237.75189322,7.643359276230322,-0.681984524511278,0.0047,0.0,11,mp-1210070,Nd2Ni12P5,https://materialsproject.org/materials/mp-1210070,498.66996060471627
-7.7259917618421055,-293.58768695,7.285249575581419,-0.05240210723684263,60.1240128,0.0,2,mp-1220120,Pr4Fe29Si5,https://materialsproject.org/materials/mp-1220120,529.6135979178853
-8.246088188095237,-346.3357039,7.743628689566768,-0.20449696800444409,73.4763377,0.0,1,mp-1219360,Sm4TiFe33N4,https://materialsproject.org/materials/mp-1219360,546.4384940826347
-8.241247867142857,-346.13241042,7.843950191537226,-0.036999930833333326,65.8585375,0.0,1,mp-1219272,Sm4CrFe33C4,https://materialsproject.org/materials/mp-1219272,538.6336583925521
-8.286624257619048,-348.03821882,7.888198435060972,-0.02633475035714349,56.25998860000001,0.0,1,mp-1219362,Sm4Cr3Fe31C4,https://materialsproject.org/materials/mp-1219362,533.9917758372144
-4.5095730505714275,-157.83505677,8.186704725311179,-0.5113883302857143,5.7799999999999995e-05,0.0,12,mp-1203178,Tb4Ga21Ni10,https://materialsproject.org/materials/mp-1203178,544.9771301505867
-8.193897555365853,-335.94979977,8.033588366174241,-0.05193343137195353,74.97401640000001,0.0,2,mp-1217662,Tb4Fe34C3,https://materialsproject.org/materials/mp-1217662,531.3136294880536
-6.2347849847058825,-423.96537896,6.810266073964572,-0.32114015252100897,0.2295118,0.0,62,mp-705271,Eu(Ni5P3)2,https://materialsproject.org/materials/mp-705271,901.9135552123914
-4.3344308525,-121.36406387,8.622122923801987,-0.1469876057142849,0.0,0.04329999999999945,62,mp-30699,SmCu6,https://materialsproject.org/materials/mp-30699,409.5521907405893
-6.2540475868421055,-237.6538083,7.569592587107898,-0.6774469337218048,0.0008696,0.0,11,mp-1209747,Pr2Ni12P5,https://materialsproject.org/materials/mp-1209747,500.60374480750875
-7.080608859722222,-254.90191895,7.925084158445292,-0.8033084318253975,1.43498,0.0,62,mp-1201674,SmCo5P3,https://materialsproject.org/materials/mp-1201674,450.86331475718214
-6.875251326,-206.25753978,8.276046992892272,-0.02751444999999914,33.6243571,0.0,65,mp-1220153,Pr4ZrCo25,https://materialsproject.org/materials/mp-1220153,427.0074116416275
-7.776025319473685,-295.48896214,7.955953199911827,-0.12119751276315888,56.963497600000004,0.0,2,mp-1226028,Dy4Fe29Si5,https://materialsproject.org/materials/mp-1226028,502.9927777930053
-8.187483166136364,-360.24925931,7.875614210303565,-0.05559730460227544,67.64417519999999,0.0,1,mp-1219351,Sm4Fe31(CoC2)3,https://materialsproject.org/materials/mp-1219351,544.297803287121
-6.711070232894738,-255.02066885,8.892888223382387,-0.01725849105263116,26.1652365,0.0,194,mp-1215870,YbPrCo17,https://materialsproject.org/materials/mp-1215870,491.3942652369402
-4.328267021785714,-121.19147661,8.402435322691021,-0.13385999428571335,0.0,0.019199999999999662,14,mp-1945,NdCu6,https://materialsproject.org/materials/mp-1945,415.42392018948203
-4.326123893928572,-121.13146903,8.384226899019113,-0.13171686642857086,1e-07,0.0,62,mp-1193079,NdCu6,https://materialsproject.org/materials/mp-1193079,416.3261160428815
-8.143246674444445,-293.15688028,8.193711090623415,-0.8251618640476184,8.26880375,0.0,62,mp-1198946,GdCo5P3,https://materialsproject.org/materials/mp-1198946,441.66728962289244
-8.788646624444445,-316.39127848,7.900099278985469,-0.7206526307142853,5.07947855,0.0,62,mp-652036,GdFe5P3,https://materialsproject.org/materials/mp-652036,445.0998244401289
-7.056947653333332,-254.05011552,7.788137215233343,-0.7742309515476182,1.487340125,0.0,62,mp-1200320,NdCo5P3,https://materialsproject.org/materials/mp-1200320,453.5735445325688
-6.8193945825,-654.66187992,4.747175390807423,-2.2016774005729176,24.9999999,1.7010999999999998,64,mp-650954,LaFe5(GeO5)3,https://materialsproject.org/materials/mp-650954,1225.740312364204
-6.391125257105262,-242.86275977,7.661066005823815,-0.6934044171428574,0.06611875,0.0,11,mp-1214085,Ce2Ni12P5,https://materialsproject.org/materials/mp-1214085,493.9401553220781
-4.6251355525,-129.50379547,8.094361430940559,-0.4795141892857145,1.805e-05,0.0,63,mp-1005789,Sm2(Ga3Co)3,https://materialsproject.org/materials/mp-1005789,453.3871634682266
-4.323145131071429,-121.04806367,8.28129415051102,-0.12608297749999967,0.0,0.0,14,mp-567201,PrCu6,https://materialsproject.org/materials/mp-567201,418.82648828320566
-4.317787488571429,-120.89804968,8.279028597406576,-0.12072533499999948,0.0,0.0,62,mp-30698,PrCu6,https://materialsproject.org/materials/mp-30698,418.94109999635396
-3.855651082,-115.66953246,6.895208093274738,-0.4105529869999998,5.02e-05,0.0,125,mp-864627,Nd2Ga12Ni,https://materialsproject.org/materials/mp-864627,570.2031792932016
-7.108489092999999,-213.25467279,8.61605524103333,-0.10733331366666618,29.338779,0.0,65,mp-1227615,Ce4ZrCo25,https://materialsproject.org/materials/mp-1227615,409.546485418325
-4.0509224075,-113.42582741,6.928039584728047,-0.3557463392857144,0.00026355,0.0,129,mp-1193425,Sm2Ga9NiGe2,https://materialsproject.org/materials/mp-1193425,542.7402491890974
-4.685505057142857,-262.3882832,3.6384511956617103,-1.4039679153214288,0.0,2.1050000000000004,70,mp-14515,NaNd(GaS2)4,https://materialsproject.org/materials/mp-14515,1282.7077757628103
-7.103374651388888,-255.72148745,8.241583526409674,-0.8359502698809528,1.36197585,0.0,62,mp-1196894,TbCo5P3,https://materialsproject.org/materials/mp-1196894,440.45201920712685
-7.039297996388888,-253.41472787,7.682269971083782,-0.7545161965476197,1.455209,0.0,62,mp-1204625,PrCo5P3,https://materialsproject.org/materials/mp-1204625,456.94120902289455
-4.6197724575,-129.35362881,7.906462957497202,-0.4671873135714288,5.3e-06,0.0,63,mp-1193443,Nd2(Ga3Co)3,https://materialsproject.org/materials/mp-1193443,459.02230585074625
-5.9645786125,-167.00820115,8.260547063979757,-0.4808059003571422,14.373572400000002,0.0,63,mp-866782,Gd2(Ga3Co)3,https://materialsproject.org/materials/mp-866782,449.8060475201792
-7.755028356388888,-279.18102083,7.896915791068428,-0.7376947915476203,1.5470538,0.0,62,mp-1203752,TbFe5P3,https://materialsproject.org/materials/mp-1203752,446.6884074474122
-8.247215429999999,-313.39418634,8.46088182817844,-0.019077051578947433,29.8113272,0.0,194,mp-1197659,Dy2Nb2Fe15,https://materialsproject.org/materials/mp-1197659,529.3104468105389
-7.777496929473684,-295.54488332,8.10815307275259,-0.12555145065789475,55.224813100000006,0.0,2,mp-1224868,Ho4Fe29Si5,https://materialsproject.org/materials/mp-1224868,495.5418982500223
-7.8202430977,-782.02430977,4.551710972384367,-3.2148800331166663,11.9987068,0.0,2,mp-695500,Ca8La2Ti5Cr5O30,https://materialsproject.org/materials/mp-695500,1151.1654967503605
-6.2893296013157896,-238.99452485,7.4857971066483175,-0.6976857821428575,3.5e-07,0.0,11,mp-28821,La2Ni12P5,https://materialsproject.org/materials/mp-28821,504.4309309691718
-5.635088532375,-450.80708259,4.619050484067798,-0.3975075433750007,3.25e-06,0.0,137,mp-6563,TbAl9(Fe2Si3)2,https://materialsproject.org/materials/mp-6563,1141.265255714527
-6.248761734722222,-224.95542245,7.702207763509099,-0.718464201944444,8.75e-07,0.0,62,mp-1213227,DySi3Ni5,https://materialsproject.org/materials/mp-1213227,465.87276771497596
-4.477920712857143,-125.38177996,8.455392979924017,-0.1164811628571424,0.419627675,0.0,14,mp-581942,CeCu6,https://materialsproject.org/materials/mp-581942,409.5808548221777
-4.478059591428571,-125.38566856,8.469810506733102,-0.11662004142857085,0.2600054,0.007699999999999819,62,mp-21708,CeCu6,https://materialsproject.org/materials/mp-21708,408.8836558765587
-6.668892117,-200.06676351,8.193716747882423,0.01886413300000148,34.837841,0.0,65,mp-1220652,Pr4AlCo25,https://materialsproject.org/materials/mp-1220652,418.27859020935125
-7.224792354722222,-260.09252477,7.779967214991668,-0.8121614687698409,0.96112385,0.0,62,mp-1203867,CeCo5P3,https://materialsproject.org/materials/mp-1203867,450.52727972286067
-8.061096059473684,-306.32165026,8.220830886935316,-0.005791355855264831,78.02761140000001,0.0,8,mp-1220333,NdEr3Fe34,https://materialsproject.org/materials/mp-1220333,514.0180012967353
-5.6175564836111125,-202.23203341,7.411809690216383,-0.4629736743253972,3.7086900999999997,0.0,62,mp-1195036,DyMnCu4P3,https://materialsproject.org/materials/mp-1195036,505.92029751361525
-4.621385342857144,-129.3987896,8.40325954195696,-0.4884617535714284,0.0001545,0.0,63,mp-1193699,Tb2(Ga3Co)3,https://materialsproject.org/materials/mp-1193699,443.49123609930973
-4.508655089142857,-157.80292812,8.357208165745662,-0.5161164151428571,9.350000000000001e-05,0.0,12,mp-581730,Ho4Ga21Ni10,https://materialsproject.org/materials/mp-581730,538.6311679439677
-7.105291868888888,-255.79050728,8.342293534289585,-0.8403142418253972,1.3208738000000002,0.0,62,mp-1204813,DyCo5P3,https://materialsproject.org/materials/mp-1204813,437.9809310437823
-7.756920223888887,-279.24912806,8.002528544580901,-0.7420334134920634,1.52553885,0.0,62,mp-1201079,DyFe5P3,https://materialsproject.org/materials/mp-1201079,443.7602567979345
-4.407933227142856,-123.42213036,8.333259631945458,-0.11847451267857068,0.48348859999999994,0.0,26,mp-1223412,LaCeCu12,https://materialsproject.org/materials/mp-1223412,415.1012896161229
-4.3704221160869565,-100.51970867,7.542826952110664,-0.5145056878260867,3.3e-06,0.0,123,mp-570441,Sm4Ga16Co3,https://materialsproject.org/materials/mp-570441,416.91814608853565
-3.820783550333333,-114.62350651,6.769017780441724,-0.3317193816666664,1.5452563999999998,0.0,125,mp-5981,Ce2Ga12Cu,https://materialsproject.org/materials/mp-5981,579.1652542523663
-3.994598622,-119.83795866,6.874137632262506,-0.3936035059999995,1.57772315,0.0,125,mp-567195,Ce2Ga12Ni,https://materialsproject.org/materials/mp-567195,567.9641940879047
-4.964974713,-198.59898852,2.571810164556924,-2.4712229753560004,7.00332865,2.7702,14,mp-1211966,K3GdCl6,https://materialsproject.org/materials/mp-1211966,1258.4429120693085
-4.557473001764706,-309.90816412,4.677830801047153,-0.8232854736764703,0.0,0.7574999999999994,57,mp-556714,BaCu6(GeS4)2,https://materialsproject.org/materials/mp-556714,1306.9007230368302
-4.616200031785715,-129.25360089,8.465454702269763,-0.4864222696428574,3.245e-05,0.0,63,mp-1193482,Dy2(Ga3Co)3,https://materialsproject.org/materials/mp-1193482,443.0376721568855
-7.118772815384616,-185.08809319999997,7.670222308210832,-0.7596777945054947,13.73260915,0.0,31,mp-1213320,Eu2Ni7P4,https://materialsproject.org/materials/mp-1213320,363.13305979602006
-6.899854018333333,-206.99562055,8.45770838737563,-0.058678864999999775,30.919406199999997,0.0,65,mp-1227640,Ce4AlCo25,https://materialsproject.org/materials/mp-1227640,404.6010893521441
-4.352004813571429,-121.85613478,8.115304203672169,-0.1345269346428571,1.5e-07,0.0,14,mp-30590,LaCu6,https://materialsproject.org/materials/mp-30590,425.7544102554914
-4.345689393928572,-121.67930303,8.071342317582339,-0.12821151499999978,1.9675e-05,0.0,62,mp-636256,LaCu6,https://materialsproject.org/materials/mp-636256,428.0733512877807
-6.537676913055557,-235.35636887,3.977277889254816,-0.7825088627777785,0.082977125,0.0,19,mp-1220582,Nd(ScSi)4,https://materialsproject.org/materials/mp-1220582,728.8119734518751
-5.996393684347826,-137.91705474,7.8470014379255,-0.5114234400000003,27.800324699999997,0.0,123,mp-866687,Gd4Ga16Co3,https://materialsproject.org/materials/mp-866687,406.5891806343911
-4.737077284107143,-265.27632791,3.4521955376547777,-1.3720238810357148,0.384699775,0.07299999999999995,70,mp-1204327,NaCe(GaS2)4,https://materialsproject.org/materials/mp-1204327,1343.9748859777885
-5.567870793409091,-244.98631491,4.389960954703116,-0.36831457159090897,6.813169900000001,0.042599999999999305,55,mp-504740,Eu(Al4Fe)2,https://materialsproject.org/materials/mp-504740,725.508908989869
-3.870727458695652,-89.02673155,6.817717472832736,-0.4189590034782609,0.0011836,0.0,139,mp-1210207,Nd4Ga18Ni,https://materialsproject.org/materials/mp-1210207,460.4972743705011
-3.97899255,-91.51682865,6.987718318888193,-0.4077637543478255,0.002065,0.0,44,mp-1220632,Nd4Ga17Ni2,https://materialsproject.org/materials/mp-1220632,446.67301826337
-5.052962686666667,-272.85998508,4.482294143922557,-0.4810630803703702,5.35e-06,0.0,12,mp-582996,Pr2Al19Co6,https://materialsproject.org/materials/mp-582996,850.6378826064023
-7.319612549166666,-439.17675295,5.424806720171916,-2.7126133272753328,9.999996175,0.0,62,mp-1227626,Ca2TbMn3O9,https://materialsproject.org/materials/mp-1227626,670.8389240032396
-4.306686969318182,-189.49422665,7.390162639656932,-0.3749579388636364,0.0002468,0.0,55,mp-1199241,Pr(Ga4Co)2,https://materialsproject.org/materials/mp-1199241,733.908883991125
-4.331761373214285,-121.28931845,6.861326876303076,-0.3674648689285718,0.02784815,0.0,129,mp-1193354,Ce2Ga9CoGe2,https://materialsproject.org/materials/mp-1193354,538.2166055339038
-6.3586916461538445,-165.32598280000002,7.522537892218952,-0.8496790387362628,3.3299999999999996e-05,0.0,31,mp-540986,Nd2Ni7P4,https://materialsproject.org/materials/mp-540986,363.44390754837485
-4.869405333333334,-175.29859199999999,4.2895720287219605,-1.02701164821875,7.000000225,0.20320000000000027,14,mp-628810,K2EuGeSe5,https://materialsproject.org/materials/mp-628810,1080.1945022683826
-4.913886377272728,-216.2110006,4.41064564480595,-0.4620764052272726,0.0,0.0,55,mp-569832,Nd(Al4Co)2,https://materialsproject.org/materials/mp-569832,719.7788839624632
-5.9771683375,-119.54336675,8.359708695895609,-0.5895271115,0.5811751000000001,0.0,15,mp-1190439,Sm2Co3Ge5,https://materialsproject.org/materials/mp-1190439,333.99433960432617
-5.046536868409091,-222.04762221,2.8197964900646646,-1.3286094250657472,0.0,2.6291,14,mp-554581,KSmP2S7,https://materialsproject.org/materials/mp-554581,1120.9113546211245
-7.780190931315789,-295.64725539,8.17630572273827,-0.12936656723684187,55.2394494,0.0,2,mp-1226270,Er4Fe29Si5,https://materialsproject.org/materials/mp-1226270,493.30310753466324
-5.617385291666667,-202.2258705,7.354855996895492,-0.4658449396031751,3.981241725,0.0,62,mp-1195405,HoMnCu4P3,https://materialsproject.org/materials/mp-1195405,512.0328025643124
-4.1866404759375,-133.97249523,2.9075268431907113,-2.5358563965375,0.00020775,4.812799999999998,62,mp-1211774,K2SmCl5,https://materialsproject.org/materials/mp-1211774,927.0870350221732