energy_per_atom,energy,density,formation_energy_per_atom,total_magnetization,band_gap,sgr,mp_id,formula,URL,cell_volume
-5.7327718,-57.327718000000004,8.253117747257695,-0.6106885739999995,1.02736065,0.0012999999999996348,12,mp-22629,Tb2CoGe2,https://materialsproject.org/materials/mp-22629,210.07999778265915
-4.3288647004347816,-99.56388811,8.17259487481115,-0.4988505178260864,5.17e-05,0.0,123,mp-862806,Er4Ga16Co3,https://materialsproject.org/materials/mp-862806,398.52547152763634
-7.444247503928572,-625.31679033,3.7766577694337458,-1.0719800949484348,0.0,4.0726,205,mp-6404,BaCa2(PN2)6,https://materialsproject.org/materials/mp-6404,1004.954096581975
-8.41052355,-151.3894239,6.762549509289867,-3.259520341342592,1.3139703999999999,0.0,74,mp-1099757,Sm2Ti2O5,https://materialsproject.org/materials/mp-1099757,233.98438268295058
-8.019146953749999,-320.76587815,5.725165462284403,-3.2846807035126666,3.99999985,0.0,13,mp-691117,SrLaTiMnO6,https://materialsproject.org/materials/mp-691117,493.4508543188559
-7.9599327755,-159.19865551,6.669392059110245,-2.9753847244419998,3.999999825,0.0,62,mp-20852,NdMnO3,https://materialsproject.org/materials/mp-20852,246.16883939250218
-7.958976017,-159.17952034,6.679079680038959,-2.974427965942,3.99999485,0.022199999999999772,14,mp-1189476,NdMnO3,https://materialsproject.org/materials/mp-1189476,245.81178564936096
-6.989797340416667,-167.75513617,9.288882505177883,-0.4096586962499996,3.4746517999999997,0.0,191,mp-976597,Ho2Co7B3,https://materialsproject.org/materials/mp-976597,277.02553666547766
-7.154879182,-143.09758364,7.093368092133227,-3.0561600462500014,0.0,3.3949,62,mp-4535,PrGaO3,https://materialsproject.org/materials/mp-4535,242.1773672067533
-6.278957024333334,-376.73742146,3.3816838798721167,-2.385830169963989,1.000000425,0.07640000000000002,14,mp-504990,RbCeH2S2O9,https://materialsproject.org/materials/mp-504990,855.8306492483298
-6.9153440702777775,-248.95238653,4.637636247643845,-3.1764721245833334,0.9998388,0.0,62,mp-1214104,Ca2PrBeO5,https://materialsproject.org/materials/mp-1214104,444.0952375606867
-6.624913085,-79.49895702,8.152171310542718,-0.4884263666666666,2.9041373,0.0,62,mp-21154,TbMnGe,https://materialsproject.org/materials/mp-21154,233.4347767568532
-7.8713081900000015,-157.4261638,6.615301905189254,-3.070036339750002,7.000000200000001,1.3169999999999993,14,mp-1220528,Nd2VFeO6,https://materialsproject.org/materials/mp-1220528,246.63057807531402
-6.066499508333332,-72.7979941,7.793870501895695,-0.7894867300000001,7.5e-08,0.0,62,mp-1208359,TbSiNi,https://materialsproject.org/materials/mp-1208359,209.39608853890098
-5.61634362375,-89.86149798,5.770823742620293,-1.70795031328125,0.0,1.6317,19,mp-554120,DyCuS2,https://materialsproject.org/materials/mp-554120,333.9894600573972
-5.615952775625,-89.85524441,5.777097084375915,-1.7075594651562502,0.0,1.6177,62,mp-555044,DyCuS2,https://materialsproject.org/materials/mp-555044,333.6267813633898
-6.1829567775,-74.19548133,8.066215127741883,-0.7378481391666677,0.0854175,0.001100000000000101,62,mp-20616,CeNiGe,https://materialsproject.org/materials/mp-20616,223.52606219703583
-10.047657279500001,-200.95314559,7.307401705515933,-3.1703856827499988,9.999999675,2.4161999999999995,62,mp-18331,GdCrO3,https://materialsproject.org/materials/mp-18331,233.8254937565731
-6.353328997,-63.53328997,8.261043182877545,-0.7644870479999994,0.0,0.0,12,mp-22044,Sm2Ge2Ru,https://materialsproject.org/materials/mp-22044,219.93132646871575
-5.994176575499999,-119.88353151,4.274794608671275,-1.636550313770833,0.0,2.354,33,mp-972448,SmBS3,https://materialsproject.org/materials/mp-972448,399.894104574514
-2.0827854756363635,-114.55320116,7.320691732915327,-0.1541183280909089,27.5451207,0.0,148,mp-1227723,Eu4Zn51,https://materialsproject.org/materials/mp-1227723,894.5456193284767
-10.440294295454548,-229.6864745,6.455954933805471,-3.6950761442045454,14.000000400000001,2.2763,74,mp-1224704,Gd2ScNbO7,https://materialsproject.org/materials/mp-1224704,290.3175917163704
-4.1306904065625,-132.18209301,3.208544617354748,-2.5206427055612064,0.0006322,4.9096,62,mp-1209512,Rb2HoCl5,https://materialsproject.org/materials/mp-1209512,1062.2559782180626
-3.4309374035,-68.61874807,5.782364757086223,-0.6777512434999998,0.0,0.29879999999999995,62,mp-7427,Ba(ZnAs)2,https://materialsproject.org/materials/mp-7427,480.1397030574618
-6.050384290714287,-84.70538007,4.943855886489324,-2.4633713744642867,1e-07,2.0955,122,mp-38240,Sr(PrS2)2,https://materialsproject.org/materials/mp-38240,334.3311353120271
-8.044597080499999,-160.89194161,6.675216171120162,-3.0455185543460006,6.99999925,0.6776000000000004,14,mp-1220516,Nd2MnCrO6,https://materialsproject.org/materials/mp-1220516,244.49037031242756
-6.59537313375,-105.52597014,6.6606040650715075,-2.163338929375,6.75e-07,0.0,141,mp-1208355,TbAsO2,https://materialsproject.org/materials/mp-1208355,265.10943582913035
-5.483649563636364,-120.64029040000001,3.4128245099384498,-0.6655256383246756,13.99563585,0.0,9,mp-1221229,Na4Eu2SiP4,https://materialsproject.org/materials/mp-1221229,533.1393850545523
-5.410694615,-64.92833538,9.09520778608065,-0.495325651666666,1.5e-07,0.0,62,mp-605252,DyGaCo,https://materialsproject.org/materials/mp-605252,212.62899755859004
-9.102576498,-91.02576498,6.491277021918035,-2.9699549615000023,0.15423710000000002,0.0,12,mp-605786,Eu2BrO2,https://materialsproject.org/materials/mp-605786,212.74805407408198
-9.689803936111113,-174.41647085,6.6019493234102775,-3.300071360231481,14.03728625,0.0,46,mp-1076037,Eu2Ti2O5,https://materialsproject.org/materials/mp-1076037,241.29009671826034
-7.010493178333332,-168.25183628,8.921875257920723,-0.1454303195833333,17.962269,0.005700000000000038,166,mp-542327,Ce5Co19,https://materialsproject.org/materials/mp-542327,338.79615027108923
-4.8003922690000005,-48.00392269,7.123016375388844,-0.7794409190000003,2.58e-05,0.0,127,mp-867301,Tb2MgGe2,https://materialsproject.org/materials/mp-867301,227.26495818158008
-6.560582852380952,-137.7722399,9.167289695632403,-0.3543221045238089,0.00011840000000000002,0.0,65,mp-863728,Ho4Ni13C4,https://materialsproject.org/materials/mp-863728,266.41295674201666
-9.924078174545457,-218.32971984,6.298449676549916,-3.582878096780304,0.99999975,0.0,74,mp-1225996,EuGdTi2O7,https://materialsproject.org/materials/mp-1225996,272.5767150547936
-9.091182527083333,-218.18838065,6.243427372876862,-3.2717266384375017,7.00000015,3.2557,113,mp-650715,Gd2Be2GeO7,https://materialsproject.org/materials/mp-650715,275.09397994617774
-5.213161306428573,-72.98425829,4.532515067700172,-2.6542297838717857,0.0,3.4939,15,mp-29880,Sm2SCl4,https://materialsproject.org/materials/mp-29880,347.7481420339813
-6.1099703860000005,-61.09970386,8.316572644603928,-1.244196516,2.255e-05,0.0,186,mp-1206762,Tb2NiAs2,https://materialsproject.org/materials/mp-1206762,210.20357764260703
-6.116077306999999,-61.16077307,8.310222096014028,-1.250303437,0.0,0.0,194,mp-1079205,Tb2NiAs2,https://materialsproject.org/materials/mp-1079205,210.36421210197133
-6.5908392005,-131.81678401,8.077507754048176,-2.4066458517500005,0.9999994000000001,0.0,62,mp-755865,TbNiO3,https://materialsproject.org/materials/mp-755865,218.4175260938275
-8.685730911,-173.71461822,6.2333659788317455,-3.94010456375,5e-08,4.3579,62,mp-31118,SmScO3,https://materialsproject.org/materials/mp-31118,259.2708872419881
-6.895556756666667,-82.74668108,6.467948718341045,-0.6054312391666675,0.0192767,0.0,115,mp-1219876,Pr4Fe3Si4Ru,https://materialsproject.org/materials/mp-1219876,242.50470271381616
-8.94672176625,-214.72132239,7.265360218443184,-0.6205944023611115,5.999568475,0.0,55,mp-505546,GdMnB4,https://materialsproject.org/materials/mp-505546,233.5217360388082
-6.6013038375,-343.26779955,4.014675592960448,-2.3894508816758244,0.9613395,0.3490999999999997,2,mp-654359,BaCu2(PO4)2,https://materialsproject.org/materials/mp-654359,751.7273697597493
-9.795468085909091,-215.50029789,6.63713343428998,-3.2003649842045463,16.0000009,0.9836,227,mp-773164,Gd2V2O7,https://materialsproject.org/materials/mp-773164,264.38932831315384
-6.431664011666666,-77.17996814,8.133738222461773,-0.7107386133333335,0.0,0.0,62,mp-22206,TbCoSi,https://materialsproject.org/materials/mp-22206,200.842307538346
-6.8783642038636374,-302.64802497,4.1911237147018845,-2.553206248977273,8.2125e-05,3.083,14,mp-560496,BaV2ZnO7,https://materialsproject.org/materials/mp-560496,660.2574270141773
-7.029687200625,-449.89998084,3.151387906135988,-3.1407651401718746,0.0,3.7626,31,mp-560105,K3Ho(SiO3)3,https://materialsproject.org/materials/mp-560105,1075.92703101394
-9.749687437272726,-214.49312362,5.839272615971493,-3.154584335568181,13.9999999,1.3069999999999995,2,mp-756923,Gd2V2O7,https://materialsproject.org/materials/mp-756923,300.5146986658981
-6.776163321323531,-460.77910585,3.26397794867874,-2.867388723764707,2.0000002,0.05209999999999998,62,mp-1203277,K3HoSi3O10,https://materialsproject.org/materials/mp-1203277,1071.371805101807
-7.240549395454545,-79.64604335,6.519694952980994,-3.0192274600710234,1e-07,1.4082000000000003,38,mp-553278,Nd4Se3O4,https://materialsproject.org/materials/mp-553278,223.58360328280733
-6.846267121363637,-301.23575334,4.266444364894168,-2.5211091664772725,0.00096175,2.9388,62,mp-1214368,BaV2ZnO7,https://materialsproject.org/materials/mp-1214368,648.6011121900121
-4.0208681825,-80.41736365,0.4072503726600664,0.9636798685580004,8.001970375,0.02839999999999998,14,mp-1182197,NdMnO3,https://materialsproject.org/materials/mp-1182197,4031.418048609506
-6.504489721923077,-169.11673277,5.880615529508482,-2.1174482493269235,12.99999975,0.19130000000000005,186,mp-17703,BaHoCo4O7,https://materialsproject.org/materials/mp-17703,367.0795878368701
-4.586697699285715,-128.42753558,8.62051421400947,-0.4751007414285721,9.75e-06,0.0,63,mp-1194327,Tm2(Ga3Co)3,https://materialsproject.org/materials/mp-1194327,440.02623027578284
-5.901809165,-118.03618329999999,2.8120489804955637,-1.4310176105000003,0.0,0.08460000000000001,141,mp-1213554,Dy(AsO)2,https://materialsproject.org/materials/mp-1213554,813.3476167416025
-8.161992836,-163.23985672,6.7784400041180755,-3.14838383475,2.9999999,2.3395,62,mp-19269,NdCrO3,https://materialsproject.org/materials/mp-19269,239.3258100027508
-7.240330414166666,-347.53585988,4.345312860033443,-2.9603361545208333,3.000000075,3.0239000000000003,5,mp-735519,KHoCoSi2O7,https://materialsproject.org/materials/mp-735519,659.014362858208
-6.17283299125,-148.14799179,4.737835847117385,-2.5014930142672918,0.0,4.3671,62,mp-558257,DySeClO3,https://materialsproject.org/materials/mp-558257,455.5056355204959
-3.938403273125,-63.01445237,7.94457531581055,-0.5208863393750001,0.000323325,0.0,194,mp-1188285,HoGa3,https://materialsproject.org/materials/mp-1188285,312.7701612752972
-8.336260900000001,-150.05269619999999,6.115718288357519,-3.532944424305557,2e-07,0.1966000000000001,46,mp-1094091,Sm2Sc2O5,https://materialsproject.org/materials/mp-1094091,255.5701550508055
-7.215274637916668,-346.33318262,4.460415997884401,-2.935280378270834,3.0000001,2.8758000000000004,5,mp-562568,KHoCoSi2O7,https://materialsproject.org/materials/mp-562568,642.0081865083323
-8.731022371818183,-192.08249218,5.926553800232322,-3.680042943750001,0.0,2.4712,74,mp-1220400,Nd2ScNbO7,https://materialsproject.org/materials/mp-1220400,301.67213216092927
-6.524215607884615,-339.25921161,3.8000049567135807,-2.7472034897527475,0.0,4.0371000000000015,14,mp-6089,BaZn2(PO4)2,https://materialsproject.org/materials/mp-6089,800.7069023453163
-6.777002646666666,-121.98604764,7.243015413723699,-2.4550000459722217,0.2404735,0.0,55,mp-1188871,Pr2Cu2O5,https://materialsproject.org/materials/mp-1188871,224.17311868082723
-7.341320787555556,-330.35943544,4.996208718461053,-2.338073005888889,30.000000300000004,0.0,6,mp-1228860,Ba4Cr13O28,https://materialsproject.org/materials/mp-1228860,556.1179146284657
-5.658314481696428,-633.73122195,2.49486536817898,-1.7568778008551784,0.0,5.1191,14,mp-605694,NdH12S2NO12,https://materialsproject.org/materials/mp-605694,1135.395515101459
-10.094792115,-201.89584230000003,7.141680280140442,-3.2628202222500007,5.000000825,0.0,62,mp-541177,GdVO3,https://materialsproject.org/materials/mp-541177,238.27053679727152
-9.404810628,-188.09621256,6.224964455205532,-3.5443278502500006,5.999915875,0.0,62,mp-22487,EuScO3,https://materialsproject.org/materials/mp-22487,261.3323108947226
-5.083675960555556,-91.50616729,6.0154088371207095,-0.4610158694444435,1.56016295,0.0,64,mp-18232,Ce2Al3Ge4,https://materialsproject.org/materials/mp-18232,359.82062853483285
-4.108117975,-82.1623595,5.356668736015551,-0.6517950849999998,0.0,1.2654999999999998,14,mp-1183302,Ba(GaAs)2,https://materialsproject.org/materials/mp-1183302,528.9950826590681
-6.96025586590909,-306.25125810000003,4.227379749470973,-2.3781465069318184,0.999999925,0.7192000000000001,62,mp-541824,BaV2CuO7,https://materialsproject.org/materials/mp-541824,651.6675544906597
-6.155120507,-123.10241014,5.189887258619129,-0.921335738584822,7.00159385,0.3782999999999999,14,mp-20742,EuPSe3,https://materialsproject.org/materials/mp-20742,537.2939709460369
-3.9490899592105264,-150.06541845,3.7772296062773023,-0.11074038763157926,0.03957955,0.0,194,mp-1198587,Dy2Al17,https://materialsproject.org/materials/mp-1198587,689.0454608928006
-6.533327455,-130.6665491,7.080779838397857,-2.3178907532500004,0.999995875,0.0,62,mp-22280,PrNiO3,https://materialsproject.org/materials/mp-22280,232.26154761662468
-7.379848388000001,-147.59696776,7.769879249969063,-2.8092407763460003,4.99999975,1.6879,14,mp-573037,Tb2MnNiO6,https://materialsproject.org/materials/mp-573037,225.4600589162011
-7.1713412105000005,-143.42682421,8.330217456417369,-2.6628002897500007,0.0,1.4024,62,mp-19802,TbCoO3,https://materialsproject.org/materials/mp-19802,211.9827034189758
-6.916019005384616,-179.81649414,5.621834912211279,-2.3779509081730774,17.0000005,1.5418000000000005,4,mp-1194202,BaHoFe4O7,https://materialsproject.org/materials/mp-1194202,376.67939578130853
-6.835567386666668,-328.10723456,4.139667662024833,-2.333915279882813,0.000198925,2.0681000000000003,62,mp-1200210,BaV2SeO8,https://materialsproject.org/materials/mp-1200210,715.8784650138065
-8.6461262435,-172.92252487,6.3471273436831295,-3.87353047725,0.0,4.2072,33,mp-755685,SmYO3,https://materialsproject.org/materials/mp-755685,300.61673193826886
-8.050344181818183,-177.107572,6.0333334561857175,-3.149479803295455,2.0,0.0,227,mp-772562,Nd2V2O7,https://materialsproject.org/materials/mp-772562,276.52807447214764
-7.432674850750001,-594.61398806,3.1603736074346296,-2.825019468410716,1.000005875,0.16129999999999978,14,mp-1201068,CeP5O14,https://materialsproject.org/materials/mp-1201068,1090.7325483502939
-6.779890332000001,-101.69835498,7.329750503824165,-2.5322587813333333,2.0000088,0.0,139,mp-18738,Nd4Ni3O8,https://materialsproject.org/materials/mp-18738,199.59846666964154
-7.44296923875,-119.08750782,5.668084900882914,-1.5261640715468747,13.999999300000002,0.8559000000000001,63,mp-861926,KGd2CuSe4,https://materialsproject.org/materials/mp-861926,429.47452874867037
-7.432617014749999,-594.60936118,3.146933200564175,-2.8249616324107145,0.997600275,3.6496,53,mp-647391,CeP5O14,https://materialsproject.org/materials/mp-647391,1095.3910168662599
-7.384345384874999,-590.74763079,3.5105448737173464,-2.843133969035716,3.35e-06,5.3851,14,mp-779125,DyP5O14,https://materialsproject.org/materials/mp-779125,1024.2855486572946
-4.338508134444443,-39.04657321,5.877406539138622,-0.12757591333333332,0.2163408,0.0,10,mp-571606,Sm4Mg3Co2,https://materialsproject.org/materials/mp-571606,223.82568530147378
-9.618686119444442,-173.13635015,5.841948061982541,-3.5766402765277765,14.000000699999998,0.2154999999999996,46,mp-1096978,Eu2Sc2O5,https://materialsproject.org/materials/mp-1096978,269.37060600110493
-5.6285618025,-45.02849442,8.756940609925266,-0.4145906653125007,3.3e-06,0.0,25,mp-1217630,Tb3SmNi4,https://materialsproject.org/materials/mp-1217630,163.44002849072083
-5.031591978235294,-342.14825452,3.2134471758309227,-0.980224213016608,8.99999985,0.20290000000000008,14,mp-1201336,RbCeSe2O13,https://materialsproject.org/materials/mp-1201336,1222.6150252491582
-5.547146486428572,-77.66005081,6.0267122592519415,-1.9458016413392856,1.2e-06,1.7496,122,mp-37859,Sr(PrSe2)2,https://materialsproject.org/materials/mp-37859,377.62758195426284
-7.272349312361111,-523.60915049,3.803946065864452,-2.9417518711897923,8.5e-07,5.772500000000001,14,mp-541167,RbHo(PO3)4,https://materialsproject.org/materials/mp-541167,988.8047216090033
-6.7637947325,-135.27589465,5.245470107820182,-1.102658332,8.999572525,0.0,141,mp-1237565,DyCr2O2,https://materialsproject.org/materials/mp-1237565,377.9687603974285
-6.073138026666666,-72.87765632,6.916275715631538,-0.99646912,0.0,0.0813000000000006,62,mp-1101892,CeAs2,https://materialsproject.org/materials/mp-1101892,278.46696193383457
-6.461239725,-594.4340547,2.8956767648258923,-2.089448668396336,6.999999799999999,3.1228,14,mp-601302,GdP2H9O11,https://materialsproject.org/materials/mp-601302,927.3044273307679
-10.43665241590909,-229.60635315,6.427507613115827,-3.750654402689394,13.9999994,2.6443,227,mp-5302,Gd2Ti2O7,https://materialsproject.org/materials/mp-5302,269.8349104968271
-6.620546315,-79.44655578,8.341932595938944,-0.491399859999999,2.841227375,0.0,62,mp-21155,DyMnGe,https://materialsproject.org/materials/mp-21155,230.97089928723383
-6.387760345568182,-562.12291041,3.0100218957068994,-2.0093612950848048,6.9825868,2.8793,52,mp-541218,GdP2H9O10,https://materialsproject.org/materials/mp-541218,856.7722960931915
-6.4211519165625,-410.95372266,3.404334270390835,-1.9247638731240624,6.00084915,0.0007000000000000339,14,mp-774926,EuH4S2NO8,https://materialsproject.org/materials/mp-774926,706.5429762569242
-4.303306473999999,-86.06612948,6.337937080459424,-0.8828710694374997,0.0,0.4863999999999997,62,mp-4473,Ba(CuSe)2,https://materialsproject.org/materials/mp-4473,442.6111453689113
-5.9688171470138895,-859.50966917,3.1811954937880635,-1.946685994777484,0.000161875,4.2231,62,mp-1229290,CsSc3H6(Se3O10)2,https://materialsproject.org/materials/mp-1229290,2229.0232965268924
-5.197406098909091,-285.85733544,2.454278565979448,-1.4136617391022728,13.9999962,0.0,6,mp-1229279,Ba4Se4S16O31,https://materialsproject.org/materials/mp-1229279,1268.0432854741546
-5.140339537678571,-287.85901411,2.4214063761390983,-1.3486903415959821,3.9700716000000003,0.05079999999999996,62,mp-1202467,BaSe(SO2)4,https://materialsproject.org/materials/mp-1202467,1296.2297925367518
-6.8825093466,-344.12546733,2.5202076668115057,-1.5139262852874993,21.99999955,1.0720999999999998,15,mp-1202688,Gd2S3O20,https://materialsproject.org/materials/mp-1202688,962.8791018633689
-4.7543999177777785,-85.57919852,6.562538766333258,-0.4270463444444448,0.00016365,0.0,64,mp-1189494,Dy2Al3Ge4,https://materialsproject.org/materials/mp-1189494,352.47734063209884
-8.339830475714285,-116.75762666,7.974312137943483,-2.468233366428572,14.0000006,0.0,64,mp-1178384,Eu2NiO4,https://materialsproject.org/materials/mp-1178384,177.674887175524
-8.200436739,-164.00873478,6.526485445093048,-3.2321274417500008,2.0000003,1.0340999999999996,62,mp-541129,NdVO3,https://materialsproject.org/materials/mp-541129,247.49167683637472
-8.67573700763158,-329.67800629,3.881461231819275,-3.162611114069549,13.999999599999999,3.297,20,mp-772787,Gd2P4O13,https://materialsproject.org/materials/mp-772787,553.0655576117
-7.322708857,-146.45417714,6.85489798458376,-2.720857892346001,5.00000045,1.5407999999999995,14,mp-1209751,Pr2MnNiO6,https://materialsproject.org/materials/mp-1209751,238.09560114480186
-7.118040625000001,-142.3608125,7.038162308279248,-2.5782563512500007,1.99860125,0.0,62,mp-20090,PrCoO3,https://materialsproject.org/materials/mp-20090,233.89424218006428
-7.298633160625,-116.77813057,4.883982085283779,-0.6686295847321428,6.987145875,0.0,12,mp-1188909,EuP3,https://materialsproject.org/materials/mp-1188909,333.0410068045431