energy_per_atom,energy,density,formation_energy_per_atom,total_magnetization,band_gap,sgr,mp_id,formula,URL,cell_volume
-4.898759388999999,-48.98759389,5.598935124362283,-0.16142029800000018,2.99470705,0.0,148,mp-541449,CrGeTe3,https://materialsproject.org/materials/mp-541449,300.99204067892026
-3.912023606,-39.12023606,9.133918480702956,1.3573578199999994,0.0,0.0,167,mp-685077,Fe2Te3,https://materialsproject.org/materials/mp-685077,179.79576928004406
-3.4166562380000003,-34.16656238,5.226649482279611,-0.3189397000000003,1.4e-06,0.6164000000000005,9,mp-38970,Ga2Te3,https://materialsproject.org/materials/mp-38970,331.84160308588554
-4.662396075,-46.62396075,7.716515354236572,-0.2686581870000005,0.0,0.0,194,mp-3250,Ni2SbTe2,https://materialsproject.org/materials/mp-3250,212.75980750777248
-3.282761117,-32.82761117,3.969043146499697,-0.18504457899999985,0.0975955,0.0,8,mp-32580,Ga2Te3,https://materialsproject.org/materials/mp-32580,436.9868703738497
-2.583790893,-25.83790893,3.29024110243532,-0.8744708779000001,0.0,2.0463,225,mp-1111178,K3AsI6,https://materialsproject.org/materials/mp-1111178,481.29055403359837
-2.493144212,-24.93144212,3.393074503673707,-0.9455415064,0.0,0.8318000000000001,225,mp-1111270,K3GaI6,https://materialsproject.org/materials/mp-1111270,464.16000684237275
-3.763741238,-37.63741238,5.7422069205567965,-0.019155462000000508,4.235e-05,0.4691999999999998,12,mp-484,Te3As2,https://materialsproject.org/materials/mp-484,308.0609390177685
-5.608442355999999,-56.08442356,5.192122477602394,-1.1899784559999993,1.25e-06,0.0,15,mp-32654,Sc2Te3,https://materialsproject.org/materials/mp-32654,302.36437672945027
-3.275761235,-32.75761235,3.1178525615222163,-1.3844869793999999,0.0,3.1873,225,mp-1113611,K3YI6,https://materialsproject.org/materials/mp-1113611,515.3493709083086
-3.1952048210000004,-31.95204821,3.1726908327755687,-1.3174152748999999,0.0,2.3346,225,mp-1111693,K3ScI6,https://materialsproject.org/materials/mp-1111693,483.43908976751277
-5.078542263,-50.78542263,5.007806383718786,-0.18068898000000005,2.9999999,0.5246000000000004,148,mp-3779,CrSiTe3,https://materialsproject.org/materials/mp-3779,306.9739158433193
-3.806016372,-38.06016372,4.338747689878842,-0.7639335620689653,4.0000004,0.0,12,mp-676553,RbCrI3,https://materialsproject.org/materials/mp-676553,396.63687054418705
-2.470373001,-24.70373001,3.361018047557095,-0.9321504806344828,1e-07,0.9854,225,mp-1111285,K2RbGaI6,https://materialsproject.org/materials/mp-1111285,491.49627478431034
-3.113865648,-31.13865648,3.3498375179061406,-1.15417123135,0.0,2.4016,225,mp-1113485,Na3YI6,https://materialsproject.org/materials/mp-1113485,455.7047366006923
-3.2820194839999997,-32.82019484,4.0225369089549,-1.0918494335999998,0.0,1.7749,225,mp-1112213,K2YCuI6,https://materialsproject.org/materials/mp-1112213,409.53750176565774
-2.560310822,-25.60310822,3.2887946293787187,-0.8603709921344826,0.0,2.1734,225,mp-1111606,K2RbAsI6,https://materialsproject.org/materials/mp-1111606,504.9145706079515
-2.644763197,-26.44763197,3.2771930759086607,-1.034797223634483,0.0,1.9161,225,mp-1111610,K2RbAlI6,https://materialsproject.org/materials/mp-1111610,482.41099866764716
-2.6675552700000003,-26.6755527,3.2931034457250568,-1.0482091113999998,0.0,1.7713,225,mp-1111183,K3AlI6,https://materialsproject.org/materials/mp-1111183,456.6985654559003
-3.4573355730000004,-34.57335573,4.242273278836092,-0.4381633644827591,0.0,0.7657999999999996,72,mp-8934,Cs2SnAs2,https://materialsproject.org/materials/mp-8934,418.3287580087063
-3.1963309669999997,-31.96330967,3.462180476279225,-1.2957347005500002,0.0,2.1954,225,mp-1111618,K2NaScI6,https://materialsproject.org/materials/mp-1111618,435.29039993685456
-3.0369129,-30.369128999999997,3.4131284661815107,-1.09070319285,9.000000000000001e-07,2.1552,225,mp-1113505,Na3ScI6,https://materialsproject.org/materials/mp-1113505,425.8721141909268
-3.784469706,-37.84469706,5.8218128310916075,-0.22290639250000052,0.00030419999999999997,0.8268000000000004,160,mp-1222357,LiGe3SbTe5,https://materialsproject.org/materials/mp-1222357,280.84063461677323
-3.27751155,-32.775115500000005,3.405361987921671,-1.3634305740499997,0.0,3.1299,225,mp-1111220,K2NaYI6,https://materialsproject.org/materials/mp-1111220,463.9843040569221
-3.98794137,-39.87941370000001,4.572880805412276,-0.2678082230000001,0.0,1.2468999999999992,162,mp-31220,AlSiTe3,https://materialsproject.org/materials/mp-31220,318.0031769312361
-3.202287188,-32.02287188,3.4796654695092903,-0.8715170413999995,2.9976333,1.4013000000000002,225,mp-1111267,K3MoI6,https://materialsproject.org/materials/mp-1111267,465.12052696887207
-3.3303113269999995,-33.30311327,3.625343560397124,-1.3592732385999995,0.0,2.9702,225,mp-1111243,K2LiYI6,https://materialsproject.org/materials/mp-1111243,428.4793642906994
-3.8074976960000004,-38.07497696,4.339510598034652,-0.4228073460000005,1.555e-05,1.3322000000000005,9,mp-1228524,Al2Te3,https://materialsproject.org/materials/mp-1228524,334.25987771505953
-3.2053252270000003,-32.05325227,4.4757223733075335,-0.5756592856000001,3.0000001,0.06190000000000007,225,mp-1112050,K2CuMoI6,https://materialsproject.org/materials/mp-1112050,370.6798721556361
-2.581767515,-25.81767515,3.546854622679408,-0.9005880556034483,0.0,2.1626,225,mp-1114618,Rb3AsI6,https://materialsproject.org/materials/mp-1114618,511.59611858302713
-2.490517903,-24.90517903,3.6400283466369645,-0.9710557531034482,0.0,0.976,225,mp-1114499,Rb3GaI6,https://materialsproject.org/materials/mp-1114499,496.1292627174754
-3.2506272000000003,-32.506271999999996,3.0845222092914772,-1.368733129634483,0.0,3.1274,225,mp-1114560,K2RbYI6,https://materialsproject.org/materials/mp-1114560,545.8808875191668
-3.1971539439999996,-31.97153944,3.787651185667064,-0.84357707705,3.0,1.0859,225,mp-1111633,K2NaMoI6,https://materialsproject.org/materials/mp-1111633,420.2380089114841
-3.212258976,-32.12258976,3.764000420860381,-1.3304230800189651,0.0,2.2079,225,mp-1114457,Rb2NaScI6,https://materialsproject.org/materials/mp-1114457,441.299274303489
-3.274379011,-32.74379011,3.3444800488001514,-1.4112453111034484,0.0,3.2901,225,mp-1114639,Rb3YI6,https://materialsproject.org/materials/mp-1114639,549.4960126523956
-3.244490068,-32.44490068,4.017345181403398,-0.8339560886000001,3.0000001,0.9740000000000002,225,mp-1111254,K2LiMoI6,https://materialsproject.org/materials/mp-1111254,389.5770251526718
-3.2943930089999998,-32.94393009,4.341413578709029,-1.1229833290689657,0.0,1.7520999999999998,225,mp-1112410,Rb2YCuI6,https://materialsproject.org/materials/mp-1112410,414.9285512254193
-3.1921957460000003,-31.92195746,3.423276822321295,-1.3425467556034485,0.0,2.3922,225,mp-1114633,Rb3ScI6,https://materialsproject.org/materials/mp-1114633,515.5288207629958
-3.179164978,-31.79164978,3.465964215136032,-0.8577750166344827,3.0000001,1.4308,225,mp-1114406,K2RbMoI6,https://materialsproject.org/materials/mp-1114406,489.17475675734454
-3.2114236330000003,-32.11423633,4.827808593384155,-0.600518062068965,3.0000002,0.000199999999999978,225,mp-1112459,Rb2CuMoI6,https://materialsproject.org/materials/mp-1112459,375.54449231000183
-6.157476149,-61.57476149,6.5552621136711275,-0.4990953400000002,1.96882265,0.0,194,mp-30223,La2Fe2I,https://materialsproject.org/materials/mp-30223,261.62534126098467
-2.664582726,-26.64582726,3.566338886136981,-1.0733771231034483,0.0,1.9042,225,mp-1114616,Rb3AlI6,https://materialsproject.org/materials/mp-1114616,486.47948778800304
-3.131182059,-31.31182059,3.9744509841822713,-1.0815585877666667,0.0,2.0819,225,mp-1112086,K2ScAgI6,https://materialsproject.org/materials/mp-1112086,414.6479296376877
-3.2961945439999996,-32.96194544,3.6995623852217623,-1.4008739385189657,0.0,3.1384,225,mp-1114603,Rb2NaYI6,https://materialsproject.org/materials/mp-1114603,468.7125290777737
-2.4532238580000003,-24.53223858,4.248269572573616,-0.7337872272666669,1.4e-06,0.0,225,mp-1112466,K2GaAgI6,https://materialsproject.org/materials/mp-1112466,397.6029674466933
-3.345311322,-33.45311322,3.9327961755780407,-1.3930336040689653,0.0,2.9884,225,mp-1114584,Rb2LiYI6,https://materialsproject.org/materials/mp-1114584,434.139364945337
-3.210929917,-32.10929917,4.089573597123321,-0.8761134205189656,3.0000001,1.0856,225,mp-1114447,Rb2NaMoI6,https://materialsproject.org/materials/mp-1114447,426.86888529759534
-4.960950343,-49.60950343,4.634769482408925,-1.1816039267500005,0.0,0.8092999999999999,5,mp-546285,NbI3O,https://materialsproject.org/materials/mp-546285,350.8402231498269
-3.253698757,-32.53698757,4.339266505788,-0.8619251480689656,2.9999999,0.9751999999999996,225,mp-1114569,Rb2LiMoI6,https://materialsproject.org/materials/mp-1114569,396.1642163531827
-4.149417617,-41.49417617,5.744237789908327,-0.7268712516666668,2.195e-05,0.0,15,mp-20792,Ca2InPd2,https://materialsproject.org/materials/mp-20792,235.78100100531083
-2.301549971,-23.01549971,4.199692628105088,-0.5364998995666668,7.000000000000001e-06,0.0,225,mp-1111188,Na2GaAgI6,https://materialsproject.org/materials/mp-1111188,389.46347867166764
-2.463531124,-24.63531124,4.571039755379681,-0.7628548637356322,2e-07,0.0,225,mp-1113726,Rb2GaAgI6,https://materialsproject.org/materials/mp-1113726,403.21708347212353
-2.9885813060000004,-29.88581306,6.186513646748264,-0.2726904988125,4.5e-07,0.3993,42,mp-36600,Ag3SBr,https://materialsproject.org/materials/mp-36600,233.82700140765576
-6.351114533,-63.51114533,7.512514536794089,-0.4204097869999998,6.35e-06,0.0,12,mp-570451,Nb2Te3,https://materialsproject.org/materials/mp-570451,251.3682155282943
-3.2106267080000004,-32.10626708,3.8930527324600317,-1.1475185272666668,0.0,2.5089,225,mp-1112076,K2YAgI6,https://materialsproject.org/materials/mp-1112076,442.0639991703213
-2.374852205,-23.74852205,6.621452982401926,-0.2273079988333329,0.0014353,0.0,123,mp-1222139,Mg4CdAg5,https://materialsproject.org/materials/mp-1222139,187.82844931049107
-6.869783021000002,-68.69783021,8.738525333542485,-0.6040469096666683,0.0,0.0,63,mp-30840,Ti2Pd3,https://materialsproject.org/materials/mp-30840,157.71854221687127
-3.22727597,-32.2727597,4.195494336223452,-1.1829281597356325,0.0,2.4885,225,mp-1113701,Rb2YAgI6,https://materialsproject.org/materials/mp-1113701,446.9020905914357
-3.144939623,-31.44939623,4.2988736010384985,-1.114076522235632,0.0,2.0715,225,mp-1113626,Rb2ScAgI6,https://materialsproject.org/materials/mp-1113626,419.17831723009783
-3.133261366,-31.33261366,4.343892662335699,-0.6306572942666666,2.9999999,0.2502000000000002,225,mp-1112093,K2AgMoI6,https://materialsproject.org/materials/mp-1112093,398.8724112830171
-3.144160031,-31.44160031,4.672949805818441,-0.6603163297356318,2.9999998,0.24949999999999986,225,mp-1113718,Rb2AgMoI6,https://materialsproject.org/materials/mp-1113718,403.73976802872323
-3.8429981539999996,-38.42998154,5.938265459623376,-0.20248530357812486,1.89e-05,0.2110999999999992,8,mp-1219473,Sb4(TeSe)3,https://materialsproject.org/materials/mp-1219473,309.4761894436015
-2.5969077510000003,-25.96907751,3.21524554449789,-0.9396372884000002,0.0,2.3534,225,mp-1111167,K3SbI6,https://materialsproject.org/materials/mp-1111167,516.70671240314
-3.162861528,-31.62861528,3.477726888679576,-1.1209195804333336,0.0,1.843,225,mp-1112016,K2ScInI6,https://materialsproject.org/materials/mp-1112016,477.19051535065614
-2.647217136,-26.47217136,4.208123301291616,-0.6910508786000001,0.0,0.0,225,mp-1112035,K2CuSbI6,https://materialsproject.org/materials/mp-1112035,404.44045796666046
-4.709921414,-47.09921414,5.496406388815925,-0.3529907054374995,5.00000005,0.5335000000000001,12,mp-570268,MnSbSe2I,https://materialsproject.org/materials/mp-570268,278.8644433409822
-2.653743946,-26.53743946,3.7500494784457583,-0.9167096506,0.0,1.7108,225,mp-1111247,K2LiSbI6,https://materialsproject.org/materials/mp-1111247,428.7784766674017
-2.515995646,-25.15995646,3.3263747084691935,-0.9962739717333332,0.0,1.2778,225,mp-1111459,K3InI6,https://materialsproject.org/materials/mp-1111459,495.9788470764066
-4.970820681666667,-89.47477227,6.738970020113987,-0.02103940272444444,1e-07,0.0,12,mp-1246410,V(CdN)4,https://materialsproject.org/materials/mp-1246410,274.30792881864113
-4.921453088888889,-88.5861556,6.786312274852553,-0.10301380846518526,3.055e-05,0.09719999999999997,2,mp-1246062,Ti(CdN)4,https://materialsproject.org/materials/mp-1246062,270.8897232512581
-5.1241278,-51.241278,10.443346389291523,-0.5902278400000001,0.0,0.0,12,mp-31467,Ga3Pd7,https://materialsproject.org/materials/mp-31467,151.70762166233584
-2.59886899,-25.988689899999997,3.5177329926819647,-0.91879180705,0.0,1.8858,225,mp-1111226,K2NaSbI6,https://materialsproject.org/materials/mp-1111226,464.67145577257605
-5.801012973333332,-104.41823352,6.3163276804655935,-0.16607414550222188,0.0,0.4249999999999998,2,mp-1246160,Ti(InN)4,https://materialsproject.org/materials/mp-1246160,296.1083858220284
-2.530260256,-25.30260256,3.8391886543705183,-0.8185051489333333,0.0,0.15599999999999992,225,mp-1112021,K2InGaI6,https://materialsproject.org/materials/mp-1112021,442.97510643373204
-2.651671878,-26.51671878,3.6933445978184616,-0.8681733179333335,0.0,0.8125,225,mp-1112023,K2AlInI6,https://materialsproject.org/materials/mp-1112023,441.2507672504236
-2.604173122,-26.04173122,3.8380296236974334,-0.7307007054333333,7e-07,0.0,225,mp-1112020,K2InAsI6,https://materialsproject.org/materials/mp-1112020,445.35807396807394
-2.435745828,-24.35745828,3.4695855967279816,-0.7100552043499999,0.0,1.8721,225,mp-1111643,Na3SbI6,https://materialsproject.org/materials/mp-1111643,455.7006531110262
-2.51412909,-25.141290899999998,3.6313712134649885,-0.9716006953833334,0.0,0.6835,225,mp-1111231,K2NaInI6,https://materialsproject.org/materials/mp-1111231,446.9558613822828
-3.5704618910000003,-35.70461891,5.496743462617181,-0.3299159315000004,0.00031099999999999997,0.055500000000000334,160,mp-1222750,Li2GeSb2Te5,https://materialsproject.org/materials/mp-1222750,292.44070499049803
-2.5732803890000002,-25.73280389,3.199293250382764,-0.9253901116344828,0.0,2.3768,225,mp-1114549,K2RbSbI6,https://materialsproject.org/materials/mp-1114549,543.3504164313957
-3.9669779595,-79.33955919,4.359511937231353,-0.9529500235312504,4.9999998,0.6069000000000002,8,mp-1221772,MnCd4S5,https://materialsproject.org/materials/mp-1221772,506.52647456436733
-4.7225954854999985,-94.45190971,7.318853026341378,-1.4956542369710002,4.992593299999999,0.0,12,mp-1176452,MnCd4O5,https://materialsproject.org/materials/mp-1176452,265.26460435663864
-4.7240394345,-94.48078869,7.32687811635198,-1.4970981859710002,5.00000005,0.0,2,mp-753688,MnCd4O5,https://materialsproject.org/materials/mp-753688,264.9740614688243
-2.59705716,-25.970571600000003,3.451335001558346,-0.9679272531034482,0.0,2.3797,225,mp-1114515,Rb3SbI6,https://materialsproject.org/materials/mp-1114515,548.2904583466288
-2.658600336,-26.58600336,4.531481214217309,-0.7211944490689653,0.0,0.13239999999999966,225,mp-1112429,Rb2CuSbI6,https://materialsproject.org/materials/mp-1112429,409.5641044173849
-3.5474318663636364,-78.04350106,4.35789524234589,-0.9048686990340904,0.0,1.3530000000000002,9,mp-5151,Cd4GeS6,https://materialsproject.org/materials/mp-5151,544.6409387455242
-2.6208223680000002,-26.20822368,4.137999831611203,-0.7661103219022987,2.8999999999999998e-06,0.0,225,mp-1114522,Rb2InAsI6,https://materialsproject.org/materials/mp-1114522,450.2886145230591
-2.5152866620000003,-25.15286662,3.5732068441496665,-1.023705543436782,0.0,1.4107,225,mp-1114626,Rb3InI6,https://materialsproject.org/materials/mp-1114626,526.3637594828612
-2.546616582,-25.46616582,4.129917182621576,-0.853621845402299,0.0,0.2298,225,mp-1114524,Rb2InGaI6,https://materialsproject.org/materials/mp-1114524,449.07964271627844
-5.765278124090909,-126.83611873,6.162805383754266,-1.819971240227272,3.35e-06,0.0,63,mvc-404,Ca(Sn2O3)2,https://materialsproject.org/materials/mvc-404,329.2160463065584
-6.1826839610714295,-173.11515091,6.192032228325036,-2.177139582767857,0.0,0.7593999999999994,85,mvc-10491,CaSn4O9,https://materialsproject.org/materials/mvc-10491,353.4058144086484
-7.14042565,-199.93191819999998,5.199842579886066,-2.4516280773809527,0.0,1.0839,135,mp-18288,Ti(SnO2)2,https://materialsproject.org/materials/mp-18288,446.1679025548442
-3.842371841111112,-34.58134657,6.081725557974778,-0.03645500222222214,1.4e-06,0.3987999999999996,164,mp-14791,Ge2Te5As2,https://materialsproject.org/materials/mp-14791,254.77761006461935
-3.259231885,-32.59231885,3.656487058718037,-1.2225655984022985,0.0,2.4184,225,mp-1114529,Rb2YInI6,https://materialsproject.org/materials/mp-1114529,515.9366282030251
-3.182859667,-31.82859667,3.7637573847474974,-1.1596780899022985,0.0,1.8814,225,mp-1114526,Rb2ScInI6,https://materialsproject.org/materials/mp-1114526,481.8416361367212
-5.790134835357143,-162.12377539,6.688340932855476,-1.8366953120535712,0.0,0.3883000000000001,85,mvc-10474,ZnSn4O9,https://materialsproject.org/materials/mvc-10474,339.75935798627313
-6.795719778666665,-203.87159336,6.1730863587035225,-2.3824618422777784,6.7e-06,2.0473,2,mp-766391,Ti(Sn2O5)2,https://materialsproject.org/materials/mp-766391,367.2884509540963
-2.617420836,-26.17420836,3.807123624441764,-0.9561040235189658,0.0,1.8884000000000003,225,mp-1114596,Rb2NaSbI6,https://materialsproject.org/materials/mp-1114596,469.80004255090836
-5.342647892727271,-117.53825364,6.367231611009752,-1.4636562788636365,0.0019822,0.01690000000000058,63,mvc-366,Zn(Sn2O3)2,https://materialsproject.org/materials/mvc-366,331.85861305675616
-2.668200363,-26.68200363,3.9789097662158084,-0.9034621734022988,0.0,0.8989000000000003,225,mp-1114521,Rb2AlInI6,https://materialsproject.org/materials/mp-1114521,448.2855787992804
-2.668554798,-26.68554798,4.053659046924834,-0.9502808730689656,0.0,1.7214999999999998,225,mp-1114577,Rb2LiSbI6,https://materialsproject.org/materials/mp-1114577,434.653534604137
-5.9739474700000015,-59.739474699999995,9.327756796875033,-0.3668043713333333,0.0,0.0,225,mp-13560,YB2Pd7,https://materialsproject.org/materials/mp-13560,152.29146656844327
-5.4181538967857135,-151.70830911,5.15460990991038,-1.4310147234821429,0.0008368000000000001,0.0,85,mvc-10219,ZnSb4O9,https://materialsproject.org/materials/mvc-10219,448.71360090108186
-2.531020119,-25.31020119,3.92709492407251,-1.0072520948522992,0.0,0.6818,225,mp-1114591,Rb2NaInI6,https://materialsproject.org/materials/mp-1114591,452.5124584716602
-5.00323252,-50.0323252,10.296334328049227,-0.16281907771875054,1.65e-06,0.0,114,mp-7818,Pd4Se,https://materialsproject.org/materials/mp-7818,162.7714086289513
-5.912537614285714,-165.55105319999998,5.5554241410996745,-1.5000827464285729,0.01910575,0.5327000000000002,135,mp-22265,Fe(SbO2)2,https://materialsproject.org/materials/mp-22265,434.44228030190885
-4.9554065425,-59.46487851,9.532298983480237,-0.2558020224999999,1e-07,0.0,62,mp-569511,NiTePd,https://materialsproject.org/materials/mp-569511,203.96423950759254
-3.194492875,-31.94492875,3.121516218495174,-1.3565247114,0.9999998999999999,0.2764000000000002,225,mp-1111494,K3CeI6,https://materialsproject.org/materials/mp-1111494,541.9865511063031
-3.2101834140000003,-32.10183414,4.051736190062676,-1.0733194556,1.0000002000000001,0.20779999999999976,225,mp-1112048,K2CeCuI6,https://materialsproject.org/materials/mp-1112048,427.5737828197542
-3.2545244139999996,-32.54524414,3.6659796103887774,-1.3367924176000003,0.9999994000000001,0.2547999999999999,225,mp-1111674,K2LiCeI6,https://materialsproject.org/materials/mp-1111674,446.9259329131516
-4.990113970555557,-89.82205147,6.842341547309415,-0.09940862272444503,0.00089415,0.2721,2,mp-1245550,Zr(CdN)4,https://materialsproject.org/materials/mp-1245550,289.7157680071508
-2.34928717,-23.492871700000002,5.945468240774829,0.05869014099999994,0.0,0.14979999999999993,224,mp-10762,Cd3As2,https://materialsproject.org/materials/mp-10762,272.07581061754746
-4.762073607777777,-85.71732494,6.572833522708534,0.19660144005333374,5.495e-05,0.0,12,mp-1246764,Mn(CdN)4,https://materialsproject.org/materials/mp-1246764,283.2607489830955