energy_per_atom,energy,density,formation_energy_per_atom,total_magnetization,band_gap,sgr,mp_id,formula,URL,cell_volume
-5.151316524166666,-61.81579829,7.549096962932554,-0.3267080441666668,0.0,0.0,205,mp-20465,As2Pd,https://materialsproject.org/materials/mp-20465,225.4760007480539
-3.2029261525,-38.43511383,4.4554816748901915,-0.4643611089116385,0.0,0.4160999999999999,12,mp-20104,RbAg3S2,https://materialsproject.org/materials/mp-20104,352.7210373011181
-2.78218524,-27.821852399999997,0.25005267316330765,0.8602592916437498,2.8782601000000003,0.0,65,mp-1206865,Na(SmSe2)3,https://materialsproject.org/materials/mp-1206865,6294.3071763752905
-7.763301127999999,-77.63301128,8.407689337899322,-0.2455908047240001,1.4e-06,0.0,40,mp-1220590,Nb3SnH,https://materialsproject.org/materials/mp-1220590,157.38457969449908
-2.55948511,-23.03536599,4.596385397669549,-0.7455337400766283,0.0,0.0,225,mp-628606,Rb2PdI6,https://materialsproject.org/materials/mp-628606,375.2815774217393
-6.567018038333334,-118.20632469,6.655887771954268,-0.3319393749466665,1.15e-06,0.0,15,mp-1246404,Ba3(RuN2)2,https://materialsproject.org/materials/mp-1246404,334.3826165937215
-7.625161757454546,-838.76779332,2.598861511259107,-2.843461056538924,0.0,5.2851,15,mp-553925,Rb5B19O31,https://materialsproject.org/materials/mp-553925,1442.4002403942702
-5.249222574210528,-99.73522891,3.91675188853502,-0.5324036078442103,2.0574876,0.0,12,mp-1247367,Sr10MnN8,https://materialsproject.org/materials/mp-1247367,442.2696412797893
-7.577427323499999,-151.54854647,6.782601234888857,-0.6158293764999996,0.0,0.3774000000000015,116,mp-20191,Si3Ru2,https://materialsproject.org/materials/mp-20191,280.46618263392736
-5.7645118025,-46.11609442,5.840916440413781,-1.6466054843749998,0.0,0.5354999999999999,64,mp-545820,SnO,https://materialsproject.org/materials/mp-545820,153.1884388602069
-3.240310496,-32.40310496,4.3651746635290625,-0.929722482691379,3.0000002,1.0847,225,mp-1112148,Cs2NaMoI6,https://materialsproject.org/materials/mp-1112148,436.0090982246211
-7.393714998595041,-894.63951483,3.0914971703097724,-3.0745067979929166,0.0,3.5923,1,mp-1256430,Na20Zr11Si10(PO9)8,https://materialsproject.org/materials/mp-1256430,1688.665428704931
-5.4424128425,-43.53930274,7.503944079704376,-0.31809741749999976,5e-08,0.0,11,mp-31510,NbCuTe2,https://materialsproject.org/materials/mp-31510,182.18815082796957
-6.58820143106383,-619.29093452,3.340658130786191,-2.4794183829179337,2.85e-06,2.6633000000000004,2,mp-765227,Li6Sn5(P2O7)4,https://materialsproject.org/materials/mp-765227,1323.1683042821167
-6.466992018529411,-219.87772863,4.358701612285962,-2.165184498928572,0.0,2.6985,2,mp-560715,Sn5(PO5)2,https://materialsproject.org/materials/mp-560715,621.3572907005657
-6.5204627275,-78.24555273,6.010169218295758,-0.8230833965625001,0.2825192,0.0,187,mp-643063,NbSe2,https://materialsproject.org/materials/mp-643063,277.2015103894061
-7.385546249917357,-893.65109624,3.072940971363159,-3.06633804931523,0.0,2.9772000000000003,1,mp-677692,Na20Zr11Si10(PO9)8,https://materialsproject.org/materials/mp-677692,1698.8625694705136
-6.52230956,-78.26771472,6.017903017676827,-0.8249302290625001,0.08327430000000001,0.0,187,mp-571270,NbSe2,https://materialsproject.org/materials/mp-571270,276.8452698745318
-4.7919523625,-134.17466615,4.804503936619359,-0.13198570591836756,0.0,0.2951000000000006,217,mp-18310,Si3Ag3(SnP3)2,https://materialsproject.org/materials/mp-18310,574.5081376269025
-6.778507026904761,-284.69729513,4.038398315662976,-2.805701750294761,3.00000855,1.0282,176,mp-18859,Sr5Cr3O12F,https://materialsproject.org/materials/mp-18859,662.0773093047085
-5.61612784125,-44.92902273,6.496551137011947,-0.8414589724999999,4.75e-07,0.0,62,mp-21345,LaGe,https://materialsproject.org/materials/mp-21345,216.28676770900807
-6.743874220952383,-283.24271728,4.093532336065824,-2.7710689443423813,3.00001455,1.0206,176,mp-1197942,Sr5Cr3O12F,https://materialsproject.org/materials/mp-1197942,653.1600757561027
-5.3922709504999995,-323.53625703,3.46984905672378,-3.6511315863508047,0.0,6.8327,140,mp-13997,RbAlF4,https://materialsproject.org/materials/mp-13997,901.8169738714157
-5.018452826818182,-220.81192438,3.6683431024986857,-0.7022064748048483,9.05e-06,0.5340000000000003,130,mp-1245411,Ca5(AgN2)2,https://materialsproject.org/materials/mp-1245411,854.9132941538517
-5.774260042272728,-127.03372093,5.475681836887849,-2.4179443702272736,0.9999998,1.1957,167,mp-1191185,Sr3ZnCoO6,https://materialsproject.org/materials/mp-1191185,293.06674674388415
-7.0163465653012045,-582.35676492,2.0498611465014647,-3.087070498710221,9.67e-05,2.1539,1,mp-705861,Rb10NaAl11Si13O48,https://materialsproject.org/materials/mp-705861,1869.2839467335396
-5.671987707142858,-238.22348369999997,4.830171396280167,-2.047341248952381,3.3e-06,1.4099,2,mp-779703,Na4Sn5O12,https://materialsproject.org/materials/mp-779703,603.3434448115903
-7.2995296366666675,-350.37742256,4.323094300974644,-2.5953175294999995,0.00112845,3.3003,15,mp-1211586,KLiY2(MoO4)4,https://materialsproject.org/materials/mp-1211586,663.433984947009
-6.673521643333332,-280.28790902,4.037901790300461,-2.708654421821904,2.9998961,1.0688,173,mp-1179227,Sr5Cr3ClO12,https://materialsproject.org/materials/mp-1179227,675.6922365067
-3.27732592,-32.7732592,4.599285912141748,-0.9097807942413793,2.9999999,0.9856000000000004,225,mp-1113011,Cs2LiMoI6,https://materialsproject.org/materials/mp-1113011,408.0212225447402
-7.8454805457,-784.54805457,3.9985566207610823,-3.22070504275,15.00000005,1.8256,1,mp-1266607,Y5Be6Fe3(SiO5)6,https://materialsproject.org/materials/mp-1266607,1091.8931675511055
-5.908452214545455,-129.98594872,5.696556842994442,-1.7806814534090911,0.00077565,1.7638999999999996,14,mp-978114,Sn5O6,https://materialsproject.org/materials/mp-978114,402.00378883240177
-6.674897130952381,-280.3456795,4.021128038373576,-2.7100299094409532,2.9999995999999998,1.0435,176,mp-555204,Sr5Cr3ClO12,https://materialsproject.org/materials/mp-555204,678.5108221985575
-3.47240443,-27.77923544,5.7135545222409725,-0.2775339720833334,0.0,0.1400999999999999,82,mp-1224861,Ga2CuAgTe4,https://materialsproject.org/materials/mp-1224861,238.68410090244896
-6.166306938043479,-283.65011915,4.255910799209304,-2.252635896293045,6.5e-07,3.3467,15,mp-1195773,Ba3As4(HO7)2,https://materialsproject.org/materials/mp-1195773,731.7097648553136
-5.536171017916666,-132.86810443,6.0751289742885115,-1.6372698453645829,0.0,0.0,2,mvc-2048,Zn2Sn9O13,https://materialsproject.org/materials/mvc-2048,384.6355985338519
-4.289276390384615,-111.52118615,2.9599871628168253,-1.6119616717011145,5.0007338,0.5295000000000001,40,mp-1219757,Rb3(MoCl4)2,https://materialsproject.org/materials/mp-1219757,821.193298830605
-3.439982767,-34.39982767,3.4806016477802415,-0.3131376034759999,5.65e-06,0.0,194,mp-13288,Ba3LiN,https://materialsproject.org/materials/mp-13288,413.0866330796138
-5.4602504625,-131.04601110000002,3.2336883266075134,-1.9990800053708329,0.0,1.0966,139,mp-1222826,Li2Zr6MnCl15,https://materialsproject.org/materials/mp-1222826,589.4911995255453
-6.609002009583333,-158.61604823,5.3550202627416095,-0.6612633229166663,5.525e-06,0.0,227,mp-1190862,Sc2Pd,https://materialsproject.org/materials/mp-1190862,487.0445190502389
-7.307561562222222,-131.53610812,4.092307571364127,-0.9644140988355552,0.32622695,0.0,15,mp-1246945,Sr3(NbN2)2,https://materialsproject.org/materials/mp-1246945,409.58471876123417
-3.299481459166667,-39.59377751,3.353462038717816,-0.3683401641666671,0.0,0.3466999999999998,62,mp-1106,Sr2Si,https://materialsproject.org/materials/mp-1106,402.7240227315787
-4.48016802452381,-188.16705703,3.6990494379680903,-2.5113563836038093,5e-08,3.2914000000000003,63,mp-557665,K3Sn5Cl3F10,https://materialsproject.org/materials/mp-557665,904.2727921049711
-5.04996318,-60.59955816,7.252646962508214,-0.7438455383333332,2.025e-06,0.0,62,mp-1095522,YZnPd,https://materialsproject.org/materials/mp-1095522,238.7875211638932
-6.772528143333332,-121.90550658,7.950192384126692,-0.2156901574999992,4.89e-05,0.0,1,mp-1228992,AlGe3Mo2,https://materialsproject.org/materials/mp-1228992,273.68877195148724
-5.27861644375,-42.22893155,4.891237776774297,-0.1583486118749997,15.0007303,0.1924999999999999,160,mp-1221743,Mn3CdTe4,https://materialsproject.org/materials/mp-1221743,267.3929065078697
-3.834038905,-38.34038905,4.449902962591626,-0.9116754982413788,4.99999945,1.0158,194,mp-540609,CsMnI3,https://materialsproject.org/materials/mp-540609,424.32877674224363
-3.863481017,-38.63481017,3.1713567350761767,-1.6378347026119315,0.0,3.3110000000000004,11,mp-24007,Rb2HBrO,https://materialsproject.org/materials/mp-24007,280.4921286181664
-2.380571568333333,-28.56685882,2.84269638231627,-0.008501601666666579,0.117713275,0.0,15,mp-1102672,Sr2Al,https://materialsproject.org/materials/mp-1102672,472.50457229703136
-3.441644076,-34.41644076,6.675638233483647,-0.07604909483333344,5.8099999999999996e-05,0.0,139,mp-1226770,CdIn4TeAs4,https://materialsproject.org/materials/mp-1226770,248.4897519079198
-6.769953129615384,-176.01878137,4.183953307483956,-1.236925850201026,0.00040515,1.5967000000000002,15,mp-1247347,Sr5(TiN3)2,https://materialsproject.org/materials/mp-1247347,490.4472662606081
-5.2056398775,-41.64511902,6.320994140059952,-0.08537204562500023,14.4678952,0.0,123,mp-1221798,Mn3CdTe4,https://materialsproject.org/materials/mp-1221798,206.91085240277818
-1.557277495,-18.68732994,2.542485626182959,0.10020306499999994,0.031226900000000002,0.0,38,mp-1094313,Sr2Mg,https://materialsproject.org/materials/mp-1094313,521.3044421167644
-5.4936213688888875,-296.65555392,3.893383554736421,-3.5457987039855565,15.00001845,3.1251,1,mp-685290,Sr5Fe3F19,https://materialsproject.org/materials/mp-685290,824.5192146824178
-6.522248879166668,-78.26698655,6.138364901951616,-0.8248695482291666,0.167196425,0.0,194,mp-1102559,NbSe2,https://materialsproject.org/materials/mp-1102559,271.4123405204874
-5.5786597783823515,-379.34886493,2.913707900379176,-3.0137492122208087,0.0,4.8422,14,mp-27312,Nb2SeF14,https://materialsproject.org/materials/mp-27312,1209.9109420700831
-4.211469908181818,-92.65233798,4.147776085279518,-0.9012550607063636,0.0,0.6238,28,mp-1014204,Sn5(S2Cl)2,https://materialsproject.org/materials/mp-1014204,634.7188655165468
-9.338851797777778,-336.19866472,5.49090070003681,-3.7040209230555567,0.9999998,1.7639999999999998,1,mp-867758,Zr11VO24,https://materialsproject.org/materials/mp-867758,434.993220023544
-6.6688940893333335,-100.03341134,5.341649442708487,-3.0751337260000002,0.0,2.693,225,mp-755556,Ba6ZrO8,https://materialsproject.org/materials/mp-755556,324.28992710455975
-5.9468666855,-356.81200113,2.8966423763525646,-1.0090194575035003,9.042095699999999,0.0,2,mp-1224580,Na4MnMo8O47,https://materialsproject.org/materials/mp-1224580,955.2797692920932
-5.549558171666668,-66.59469806,6.554645430632099,-1.3106087025000004,0.0,0.16959999999999995,62,mp-10383,LaTeAs,https://materialsproject.org/materials/mp-10383,345.9854450086637
-7.44427683484375,-476.43371743,3.1594591644747125,-0.28233230885586197,0.0,4.1718,225,mp-570545,Cs2ZnFe(CN)6,https://materialsproject.org/materials/mp-570545,1141.9091525931815
-3.2182945708333333,-38.61953485,3.9935653062264977,-1.5911970516666667,0.0,3.713,88,mp-850305,SrCaI4,https://materialsproject.org/materials/mp-850305,528.3333265276127
-1.6650319133333331,-19.98038296,2.628312925306806,-0.00755135333333327,0.002008825,0.0,12,mp-1094317,Sr2Mg,https://materialsproject.org/materials/mp-1094317,504.2812970196399
-6.374990880384615,-165.74976289,6.026010357025181,-1.8864520834615397,0.0,0.10200000000000033,186,mp-19216,Zn2Mo3O8,https://materialsproject.org/materials/mp-19216,301.2625984294619
-6.4623141675,-180.94479669,4.769699161905517,-2.8369435546428567,0.0,2.9627,62,mp-752410,Ba2GeO4,https://materialsproject.org/materials/mp-752410,572.7537401761128
-6.487417229090909,-71.36158952,9.294903519025043,-0.6367765145454546,1.6e-06,0.0,187,mp-16045,Sr(As2Rh3)2,https://materialsproject.org/materials/mp-16045,179.49718308654136
-1.6530059566666668,-19.83607148,2.5740429135161293,0.0044746033333333095,0.005652525,0.0,63,mp-1094285,Sr2Mg,https://materialsproject.org/materials/mp-1094285,514.913346621987
-5.427639957999999,-54.27639958,8.720156816507378,-0.26861723943750065,0.7385744000000001,0.0,72,mp-12466,Fe(PdSe)2,https://materialsproject.org/materials/mp-12466,162.47282521759237
-1.59407542,-19.12890504,2.5018786996567712,0.06340514000000012,0.00012295,9.9999999999989e-05,8,mp-1094296,Sr2Mg,https://materialsproject.org/materials/mp-1094296,529.7655122644559
-6.976674260714287,-293.02031895,4.0676440826729365,-3.3191473551456467,0.0,4.9784000000000015,147,mp-1218891,Sr10P6BrClO24,https://materialsproject.org/materials/mp-1218891,637.4060713983039
-6.528350259642857,-182.79380727,6.105732820033227,-1.773551693214286,0.0,1.3205000000000005,59,mp-766173,Sr(RhO2)2,https://materialsproject.org/materials/mp-766173,388.83073452880893
-7.023255949761905,-294.97674989,4.048973474413994,-3.3617600166439803,0.00028680000000000003,5.074,143,mp-1218918,Sr10P6BrO24F,https://materialsproject.org/materials/mp-1218918,633.5970216699303
-6.420986196666666,-192.62958590000002,4.423657999221015,-1.7206138860298337,9.9999045,0.8119000000000001,1,mvc-1805,YMo3Se2ClO8,https://materialsproject.org/materials/mvc-1805,524.0967650848431
-5.16819783,-51.6819783,8.79697599632291,-0.2791424174374996,0.0017420000000000003,0.0,72,mp-12464,Co(PdSe)2,https://materialsproject.org/materials/mp-12464,162.2199096185055
-8.511135189722221,-306.40086683,4.92402831981303,-3.2590437622222215,0.0,2.9952,14,mp-4591,SrNb2O6,https://materialsproject.org/materials/mp-4591,498.333074345681
-7.626985307380951,-320.33338291,3.8067374850634312,-2.5957296688690485,2.54e-05,3.3517,14,mp-1203448,Y2Mo4O15,https://materialsproject.org/materials/mp-1203448,699.300207371998
-5.0712749325806445,-314.41904582,2.7753061895599043,-1.4488649094779733,0.9171064,2.6757,14,mp-542284,Rb2CoH12(SeO7)2,https://materialsproject.org/materials/mp-542284,746.5626087247198
-7.938274185,-79.38274185,6.7251204685492665,-0.9647012064760006,5.945e-05,0.0,63,mp-1014226,Zr3ZnN,https://materialsproject.org/materials/mp-1014226,174.36592047258515
-8.197362038181819,-180.34196484,8.63336723289675,-0.4397416296753249,3e-06,0.0,2,mp-1209818,Ni7(Mo3P2)3,https://materialsproject.org/materials/mp-1209818,280.8460007321178
-9.230987729166666,-110.77185275,8.475324239440582,-0.16954177249999938,2.705e-05,0.0,194,mp-1102030,YTc2,https://materialsproject.org/materials/mp-1102030,223.2822123537357
-3.2204523325000003,-38.64542799,4.386788312434937,-1.5933548133333335,1.1e-06,2.819500000000001,15,mp-1101345,SrCaI4,https://materialsproject.org/materials/mp-1101345,480.9745747163184
-2.475626332,-24.75626332,3.582539884942622,-0.9682784236896551,0.0,1.1875,225,mp-1111039,CsRb2GaI6,https://materialsproject.org/materials/mp-1111039,526.0783447952524
-8.650889659166667,-103.81067591,8.939234165770443,-0.31774886250000023,1.75e-06,0.0,194,mp-568186,YRu2,https://materialsproject.org/materials/mp-568186,216.25700250948975
-3.542721512,-35.42721512,5.297976359614532,-0.8673801950000002,3.1e-06,0.4421999999999997,72,mp-1079149,Ba2ZnSb2,https://materialsproject.org/materials/mp-1079149,365.8235857627822
-7.856070907575757,-259.25033995,4.547857905921943,-3.071489406818181,0.0026243000000000004,1.1596000000000002,38,mp-1218571,Sr3Li4Nb6O20,https://materialsproject.org/materials/mp-1218571,426.4849805657539
-4.8942284775000005,-137.03839737,3.6123443097942234,-1.5279575507861909,1.915e-05,0.9722,12,mp-1210229,Nb3In2Cl9,https://materialsproject.org/materials/mp-1210229,760.7156204326571
-9.541635527,-95.41635527,8.88621809261694,-0.3528190536666657,3.485e-05,0.0,127,mp-1079053,B2Mo3,https://materialsproject.org/materials/mp-1079053,115.64886575147221
-9.308711504166666,-335.11361415,5.683235003847951,-3.6738806294444446,0.9999998,1.7672999999999996,25,mp-766222,Zr11VO24,https://materialsproject.org/materials/mp-766222,420.272006123512
-7.857083909090909,-259.283769,4.546483169852821,-3.072502408333333,8e-06,1.1984,1,mp-766433,Sr3Li4Nb6O20,https://materialsproject.org/materials/mp-766433,426.6139383258113
-1.701939540833333,-20.42327449,2.5779432927037687,-0.04445898083333333,0.014422299999999999,0.0,12,mp-1097933,Sr2Mg,https://materialsproject.org/materials/mp-1097933,514.1342925185526
-4.462782734,-44.62782734,5.2894101131778495,-0.8920628564760001,4.95e-06,0.7075,194,mp-12814,Ba3SbN,https://materialsproject.org/materials/mp-12814,343.9160210527715
-3.590964001875,-57.45542403,5.381034018265757,-0.10923741268973243,0.0,0.1682999999999999,31,mp-30908,Ag3PSe4,https://materialsproject.org/materials/mp-30908,413.770238008137
-6.686473901315789,-254.08600825,3.9574849917473762,-2.144272076812613,1e-07,3.1544,2,mp-1209549,Rb2Mo4O13,https://materialsproject.org/materials/mp-1209549,640.0392521375134
-4.042398742222222,-109.14476604,4.213034713098148,-1.0874876134063696,6.666666666666667e-08,1.1800000000000006,10,mp-542654,RbIn3S5,https://materialsproject.org/materials/mp-542654,697.9253113589799
-6.4998561251923075,-337.99251851,5.092438176908174,-1.6958967932211544,5e-08,0.7570999999999999,2,mp-650741,Cu4Mo5O17,https://materialsproject.org/materials/mp-650741,655.9893929737423
-5.4972190461666655,-329.83314277,3.1321196047295063,-1.7741369357895835,1.3118975,0.0,12,mp-1221560,Na19Zr11S30,https://materialsproject.org/materials/mp-1221560,1273.5718806937687
-7.689382994375,-123.03012791,8.017607322717314,-0.2321702693750005,0.36641935,0.0,193,mp-1105552,Nb5Ga3,https://materialsproject.org/materials/mp-1105552,279.0624685654936
-6.9086396852380965,-145.08143339,4.766021663695949,-1.647779632999999,19.0006895,0.0,3,mp-1224511,K(Mo2O3)4,https://materialsproject.org/materials/mp-1224511,347.9280696431873
-6.268625436153847,-325.96852268,3.5025919283125075,-2.2204890805128197,0.0,3.4452000000000003,15,mp-555710,K5In(MoO4)4,https://materialsproject.org/materials/mp-555710,900.825209774616
-6.267778674423076,-325.92449107,3.500224372928945,-2.219642318782051,0.0,3.4686,9,mp-1203773,K5In(MoO4)4,https://materialsproject.org/materials/mp-1203773,901.4345288775701
-3.1100637392857142,-43.54089235,3.4859816264950743,-1.4103367788870935,0.9171524999999999,0.13149999999999998,64,mp-571638,Rb2Cu(BrCl)2,https://materialsproject.org/materials/mp-571638,443.18963081449004
-4.395469205416666,-105.49126093,4.35193235252312,-0.6646598657031243,0.00071955,0.7029000000000005,11,mp-1191223,SnSb4S7,https://materialsproject.org/materials/mp-1191223,633.5520417287441
-6.72041942125,-53.76335537,7.315701346829322,-0.8754508762500004,6.25e-07,0.0,62,mp-568865,ZrTe,https://materialsproject.org/materials/mp-568865,198.67721639372024
-2.246236622528736,-195.42258616,2.2178828698829234,-0.027033374137931068,0.5890866,0.0,8,mp-1216435,Y11Mg76,https://materialsproject.org/materials/mp-1216435,2115.198485237439
-3.4689008823684206,-131.81823353,2.911869632482179,-1.5050131144799994,4.3e-05,2.4961,6,mp-675541,K2Sn5Cl12,https://materialsproject.org/materials/mp-675541,1251.370954925369
-3.100717560416667,-74.41722145,3.1937681373518867,-1.1642695799661114,1.5e-07,1.9502,186,mp-568916,K6InTe4Cl,https://materialsproject.org/materials/mp-568916,930.9476740000664
-2.563930995454545,-28.20324095,3.852054511629036,-0.4373897981818182,0.0,1.4223,12,mp-30946,Ga2PdI8,https://materialsproject.org/materials/mp-30946,543.6342345547728
-3.862715495,-46.35258594,6.706450624918418,-0.6580309461111113,7.925e-05,0.0,62,mp-1095684,SrInPd,https://materialsproject.org/materials/mp-1095684,305.89699112117677
-6.146839843043479,-141.37731639,4.060427132884517,-1.893601423994566,1e-07,2.1455,143,mp-1216118,Y6Zn(GeS7)2,https://materialsproject.org/materials/mp-1216118,487.8993352834557
-6.4709188554545465,-71.18010741,8.453609480311004,-0.32656928272727337,1.1e-06,0.0,121,mp-639910,Y(Sn3Ru2)2,https://materialsproject.org/materials/mp-639910,236.78523347843878