energy_per_atom,energy,density,formation_energy_per_atom,total_magnetization,band_gap,sgr,mp_id,formula,URL,cell_volume
-7.526983644166666,-90.32380373,8.324016654519966,0.15129889833333485,2.144165025,0.0,194,mp-1095689,SmMn2,https://materialsproject.org/materials/mp-1095689,207.65560906335017
-7.52707737,-120.43323792,7.2332574428638585,-1.2366524592968746,6.996207675,0.7496,14,mp-510528,GdCuSe2,https://materialsproject.org/materials/mp-510528,347.7673554633779
-7.543051797625001,-603.44414381,3.4782984782367636,-2.717581013785716,5.999993825,0.08740000000000014,14,mp-566534,EuP5O14,https://materialsproject.org/materials/mp-566534,1013.6618944062532
-4.2092017172727285,-92.60243778,6.6288768521078,-0.4448252836363635,1.15e-06,0.0,63,mp-639526,La2(ZnGe2)3,https://materialsproject.org/materials/mp-639526,455.8503272011627
-5.64110636984375,-361.03080767,3.5687369327737315,-1.781475167830469,1.25e-07,4.4543,19,mp-24574,NdH5(SeO4)2,https://materialsproject.org/materials/mp-24574,809.9912727109322
-5.62555148578125,-360.03529509,3.5022242949777938,-1.7659202837679675,0.0,4.4259,19,mp-1195973,NdH5(SeO4)2,https://materialsproject.org/materials/mp-1195973,825.3742555247255
-4.482734491142857,-156.89570719,8.349078178111084,-0.5016110760000003,0.0001685,0.0,12,mp-1203076,Tm4Ga21Ni10,https://materialsproject.org/materials/mp-1203076,542.3409819739344
-5.348924225,-64.1870907,7.948977061592492,-0.3803380374999996,0.088410375,0.0,62,mp-1103578,NdGaCo,https://materialsproject.org/materials/mp-1103578,228.033420266153
-5.084459745833334,-61.01351695,7.817166588578704,-0.5597861783333334,0.000460325,0.0,62,mp-1103550,NdGaNi,https://materialsproject.org/materials/mp-1103550,231.67469320428302
-6.850080149090909,-301.40352656,5.964569962112825,-2.6258518492045457,2.9199999999999998e-05,2.9567999999999994,14,mp-1213126,DyGaGe2O7,https://materialsproject.org/materials/mp-1213126,545.1067705442578
-5.751012350833334,-69.01214821,7.882425030074461,-0.6956462650000006,0.00018455,0.0,62,mp-1210049,NdNiGe,https://materialsproject.org/materials/mp-1210049,232.2146843986124
-8.19185573097561,-335.86608497,8.30873767702331,-0.06445613576219572,74.88968179999999,0.0,2,mp-1217051,Tm4Fe34C3,https://materialsproject.org/materials/mp-1217051,521.7200942251454
-6.5442896705,-130.88579341,7.064532327684827,-0.7731398479999996,0.30650559999999993,0.0,15,mp-10318,Tb2Co3Si5,https://materialsproject.org/materials/mp-10318,298.5537913943776
-4.337725840869566,-99.76769434,8.098228239202863,-0.5058593817391308,1.93e-05,0.0,123,mp-978039,Ho4Ga16Co3,https://materialsproject.org/materials/mp-978039,400.27518046353094
-7.4817945236363625,-164.59947952,6.517280710573151,-2.378100614318181,13.86105755,0.0,15,mp-561024,CaEu2(CuO3)2,https://materialsproject.org/materials/mp-561024,288.98015365140265
-5.202906749375,-83.24650799,6.685862743781287,-1.242060083046875,0.0,0.7506000000000004,14,mp-3739,NdCuSe2,https://materialsproject.org/materials/mp-3739,363.3173066887508
-7.998845318125,-127.98152509,6.197211697370952,-1.7209608451562497,6.99139785,0.9901,14,mp-510471,GdCuS2,https://materialsproject.org/materials/mp-510471,305.38298164754093
-6.790218051785715,-190.12610545,4.9068272091959,-2.849766965642857,0.0,3.5496,62,mp-555904,NaSmGeO4,https://materialsproject.org/materials/mp-555904,419.61626660229587
-6.5410596355,-130.82119271,6.9933478124430275,-0.7699098129999996,0.14677325,0.0,72,mp-1106079,Tb2Co3Si5,https://materialsproject.org/materials/mp-1106079,301.592737473421
-5.361957663636363,-117.9630686,3.6331273706151963,-0.6167947346883118,13.97947115,0.0,9,mp-1221300,Na4Eu2GeP4,https://materialsproject.org/materials/mp-1221300,541.5389919318729
-6.6019350660416665,-316.89288317,5.069470877420018,-2.200685867473959,9.7325e-05,1.9681,11,mp-1197743,TbV(SeO4)2,https://materialsproject.org/materials/mp-1197743,649.586885308403
-6.6877070855,-133.75414171,4.388873836960717,-2.3992787314375006,3.775e-05,1.8644000000000005,62,mp-1188840,SmScS3,https://materialsproject.org/materials/mp-1188840,441.17490540326696
-5.9166296641176475,-201.16540858,4.017928002867981,-1.7568842715165445,4.0,0.7234,15,mp-1200225,Nd2(SeO4)3,https://materialsproject.org/materials/mp-1200225,592.9419198946317
-7.328083975833334,-87.93700771,7.778045202766642,-0.6684234491666672,7.028955775,0.0,194,mp-13159,GdZnGe,https://materialsproject.org/materials/mp-13159,252.17416725659604
-6.534064015,-104.54502424,6.7906418663171495,-1.7353820696874998,14.253673999999998,0.0,111,mp-1219200,Sm4Fe3Co(AsO)4,https://materialsproject.org/materials/mp-1219200,291.38414284096484
-6.79485532,-258.20450216,5.678236018020122,-2.4106657419441926,19.998959399999997,0.06990000000000053,65,mp-1094081,Rb2Ce2Fe4O11,https://materialsproject.org/materials/mp-1094081,497.4631315565137
-4.819859635535714,-269.91213959,2.433780730111243,-1.4775359582704084,0.0,0.0,14,mp-16209,K3La(PS4)2,https://materialsproject.org/materials/mp-16209,1568.3557047112695
-4.2426020675,-50.91122481,7.068723670339903,-0.6890458666666669,3.18e-05,0.0,194,mp-1209836,NdZnGe,https://materialsproject.org/materials/mp-1209836,265.2559347354426
-6.7387316915,-134.77463383,5.03587680303259,-1.7797206834375003,2.999999775,0.0,62,mp-15931,NdCrS3,https://materialsproject.org/materials/mp-15931,385.7096574291087
-6.841968349499999,-410.51810097,3.6151379468348885,-2.4055691404639883,7.000000225,2.6781,14,mp-24617,RbGdH2S2O9,https://materialsproject.org/materials/mp-24617,832.0444360200744
-6.03716686125,-96.59466978,5.30232107793041,-0.4347709050000006,6.997089725,0.0,62,mp-1190090,EuAl2Ge,https://materialsproject.org/materials/mp-1190090,348.95774899383775
-7.300511031428571,-204.41430888,4.915016742095292,-2.5637339235,5.999999825,0.0,62,mp-1019727,NaEuGeO4,https://materialsproject.org/materials/mp-1019727,421.0847371363561
-5.544607298181819,-243.96272112,4.923291838945592,-1.849999903267046,2.1018401,0.0,139,mp-1228570,Ba4Ca8Cu11CO20,https://materialsproject.org/materials/mp-1228570,641.152242479049
-6.117724373888889,-220.23807746,4.572446828700091,-2.42919984225,0.999999975,0.5194999999999999,62,mp-1194762,Na2NdGeO5,https://materialsproject.org/materials/mp-1194762,498.05280175391886
-5.066099575625,-81.05759321,5.687867697172012,-1.5027845005899785,1.5e-06,0.8488000000000002,63,mp-16116,RbSm2CuSe4,https://materialsproject.org/materials/mp-16116,447.00940689363097
-7.019568414285715,-196.54791559999998,5.667849408375781,-2.8453714247114283,5.0000429,0.024800000000000374,67,mp-1227616,Ca2Nd2MnNiO8,https://materialsproject.org/materials/mp-1227616,357.5859257427658
-3.764992909375,-120.47977309999999,3.7886206420527184,-1.8736381448125,7.74e-05,3.9624,62,mp-1211863,K2NdBr5,https://materialsproject.org/materials/mp-1211863,1090.4090265465777
-5.66153786875,-90.5846059,5.638046584893449,-1.7132316401562508,0.0,1.0786999999999995,14,mp-10495,NdCuS2,https://materialsproject.org/materials/mp-10495,320.3453166836529
-4.778373533888889,-86.01072361,6.46071409497151,-0.4461264516666661,7.565e-05,0.0,64,mp-1105661,Tb2Al3Ge4,https://materialsproject.org/materials/mp-1105661,354.35755165466
-6.458886900714285,-90.42441661,5.983189232549825,-0.8365584416326521,13.985259099999999,0.0,12,mp-1104145,Eu2Zn2P3,https://materialsproject.org/materials/mp-1104145,292.89133085313915
-7.015246874318181,-308.67086247,5.5922139123780195,-2.545912918068181,5.0000002,2.5863000000000005,11,mp-622558,DyFeGe2O7,https://materialsproject.org/materials/mp-622558,564.9189526801811
-6.1707406065,-123.41481213,6.958410957313148,-0.7991121420000006,0.0,0.0,72,mp-15204,Tb2Si5Ni3,https://materialsproject.org/materials/mp-15204,302.76363239077125
-5.7495825133333325,-68.99499016,7.070759298071603,-1.46501909203125,2.5e-08,0.5125000000000002,62,mp-1208883,SmAsSe,https://materialsproject.org/materials/mp-1208883,285.79960544257125
-2.718283921875,-43.49254275,7.232993551715295,-0.2800829956249995,2.075e-06,0.0,62,mp-1188098,CeZn3,https://materialsproject.org/materials/mp-1188098,308.86834245733286
-6.7844491308823525,-230.67127045,5.410722167483127,-2.3816978602611565,17.20633685,0.0,38,mp-1094097,Rb2Ce2Fe4O9,https://materialsproject.org/materials/mp-1094097,502.4176946863079
-6.615564365,-158.77354476,5.963207491084383,-1.5596889626302082,6.999999925,0.9007999999999998,62,mp-1190889,SrGdCuSe3,https://materialsproject.org/materials/mp-1190889,607.3813783670181
-4.8369784794444435,-87.06561263,5.839022054193469,-0.4700165605555561,1.4800000000000002e-05,0.0,64,mp-1189097,Pr2Al3Ge4,https://materialsproject.org/materials/mp-1189097,371.5907272575844
-2.718630903125,-43.49809445,7.120205160522044,-0.2804299768749998,0.547487125,0.0,63,mp-640118,CeZn3,https://materialsproject.org/materials/mp-640118,313.76100533022884
-8.435948931875,-269.95036582,5.483658197431438,-3.258698589114584,3.000000375,1.3119999999999998,55,mp-1199036,NdTiCrO5,https://materialsproject.org/materials/mp-1199036,392.5731113205203
-6.186087685,-123.72175370000001,6.353507588334982,-1.2083109751562495,2.98371035,0.0,62,mp-861512,PrCrSe3,https://materialsproject.org/materials/mp-861512,449.30941575825005
-7.719862513333332,-185.27670032,4.503857341967478,-2.4688617613506247,7.000000575,2.9928,62,mp-556551,GdSeClO3,https://materialsproject.org/materials/mp-556551,471.42692307511436
-4.110294565882353,-69.87500762,8.045845481473131,-0.5474677494117648,3.39e-05,0.0,229,mp-1189966,Dy4Ga12Ni,https://materialsproject.org/materials/mp-1189966,318.9405297218725
-6.5653391725,-315.13628028,3.75921302126346,-2.684769003218749,5.7999999999999995e-06,5.6898,14,mp-1211618,KSm(SO4)2,https://materialsproject.org/materials/mp-1211618,674.2201574486752
-6.075933429166668,-72.91120115,6.4191055787413775,-1.7997302996875,5.4025e-05,0.14679999999999982,62,mp-1102762,SmAsS,https://materialsproject.org/materials/mp-1102762,266.28885963583303
-6.075675138333334,-72.90810166,6.445562738723155,-1.799472008854167,0.0008323,0.08270000000000087,62,mp-557569,SmAsS,https://materialsproject.org/materials/mp-557569,265.1958213323775
-5.7982948275,-115.96589655,2.5229660845164568,-1.3053222315000002,7.5e-08,0.0,141,mp-1209675,Sm(AsO)2,https://materialsproject.org/materials/mp-1209675,874.5807461328666
-6.810686037317073,-558.47625506,3.2616402351829343,-2.403311353315549,2.00011265,0.14429999999999998,113,mp-1201050,Sm2Nb2S7O30,https://materialsproject.org/materials/mp-1201050,1212.6731578834049
-7.052888600526315,-268.00976682,8.822122374420006,-0.04784553499999932,47.3829524,0.0,8,mp-1224958,La4TaCo33,https://materialsproject.org/materials/mp-1224958,504.69846118944076
-4.2768520465625,-136.85926549,3.1898840399298702,-2.4972716649362074,0.999992025,0.17099999999999982,62,mp-1210098,Rb2CeCl5,https://materialsproject.org/materials/mp-1210098,1016.8003200491149
-4.974683636458333,-238.78481455,2.5740879243123787,-1.4565354178102676,5.75e-07,2.2563000000000004,14,mp-542081,K2LaP2S7,https://materialsproject.org/materials/mp-542081,1299.2392796834176
-2.4608090825,-39.37294532,8.03677581186257,-0.3548279887499999,5e-08,0.0,62,mp-30626,DyZn3,https://materialsproject.org/materials/mp-30626,296.47719540606545
-6.245993163461539,-324.79164449999996,3.264597094000416,-2.3388195309519237,1.999987475,0.8407,14,mp-1211703,KSmS2O9,https://materialsproject.org/materials/mp-1211703,808.9230101928553
-7.511396045416666,-360.54701018,3.587079651097555,-2.833899724569444,7.000000325,2.69,62,mp-1211764,K3Gd(BO3)2,https://materialsproject.org/materials/mp-1211764,726.164493733481
-5.24922491375,-209.96899655,3.4039749175837475,-0.455229780202,1.90968075,0.012700000000000156,33,mvc-14842,BaCa3(CuN2)2,https://materialsproject.org/materials/mvc-14842,859.895892016529
-4.602505548928572,-128.87015537,8.660027213332388,-0.4781610303571426,0.0002313,0.0,63,mp-866685,Er2(Ga3Co)3,https://materialsproject.org/materials/mp-866685,436.7336583406913
-7.8518068093750015,-628.14454475,3.395555964129726,-2.8366971610357155,6.99999995,3.1654,14,mp-558487,GdP5O14,https://materialsproject.org/materials/mp-558487,1048.702804441712
-6.501965725588236,-221.06683467,4.04026498813686,-1.403325020919118,13.99819955,0.0,2,mp-1228706,Ba2(CrS2)5,https://materialsproject.org/materials/mp-1228706,703.0396801828637
-4.279029121176471,-72.74349506,7.9894433213753615,-0.4892348117647057,0.4488722,0.0,229,mp-1205385,Dy4CrGa12,https://materialsproject.org/materials/mp-1205385,319.8001398887129
-6.5575100955,-131.15020191,5.0938063431052685,-0.964792061499999,6.086168225,0.0,141,mp-1209711,SmV2O2,https://materialsproject.org/materials/mp-1209711,370.64197098010305
-7.639624214166666,-91.67549057,6.106224728509831,-1.5053270338541676,6.497414975,0.0,62,mp-1102917,EuAsS,https://materialsproject.org/materials/mp-1102917,281.67818896266596
-7.9490178608823525,-540.53321454,4.474835428391203,-2.8184153335784314,6.00000025,0.0,14,mp-1019730,EuZn(BO2)5,https://materialsproject.org/materials/mp-1019730,640.3749010921175
-7.75604011875,-248.1932838,6.302505048213264,-2.666497760708749,6.999999275,1.0936999999999997,55,mp-18525,TbMn2O5,https://materialsproject.org/materials/mp-18525,367.59569236698775
-7.184498292083332,-172.42795901,6.002595338409778,-2.8061896891666662,0.0,3.8530000000000006,14,mp-754876,SmAsO4,https://materialsproject.org/materials/mp-754876,320.1011415753545
-7.460289590972222,-537.14085055,3.4249404322371584,-2.794445564753968,6.07576675,0.0,14,mp-642234,NaEu(PO3)4,https://materialsproject.org/materials/mp-642234,951.9133942049709
-4.59090265882353,-156.0906904,3.0684493834492343,-2.829046490242353,0.0,3.8082,15,mp-768615,Sr3La2Cl12,https://materialsproject.org/materials/mp-768615,1045.6475504129683
-7.764158286428571,-217.39643202,5.0656499718678925,-3.3885194938809513,1.05e-05,2.3327,57,mp-1211326,KSmTiO4,https://materialsproject.org/materials/mp-1211326,395.09910228678143
-5.5013904825,-66.01668579,5.206995713872566,-2.231463008020833,0.0,2.6192,14,mp-1208844,SmSBr,https://materialsproject.org/materials/mp-1208844,334.63253650361725
-5.380815504821428,-301.32566827,3.692496523882773,-1.4261559536919646,3.999998125,0.5757,14,mp-1210478,NaPr(SeO5)2,https://materialsproject.org/materials/mp-1210478,866.694569874318
-4.4607003160000005,-89.21400632,4.6009293663497335,-1.1028638556562498,0.000880975,0.0,12,mp-1237966,SmMgSe3,https://materialsproject.org/materials/mp-1237966,594.1291289668134
-7.75157454125,-682.13855963,3.0896952901775694,-3.3049739610000017,0.0,4.7958,72,mp-560226,NaNd(Si3O7)2,https://materialsproject.org/materials/mp-560226,1203.3084249468222
-6.824585807142857,-95.5442013,5.8184069007960595,-1.2300134684821429,13.99998325,0.0,11,mp-505740,Eu2GeSe4,https://materialsproject.org/materials/mp-505740,395.21832529485374
-6.839476676428572,-95.75267347,5.813266581128167,-1.2449043377678577,7.00002565,0.16590000000000016,4,mp-629088,Eu2GeSe4,https://materialsproject.org/materials/mp-629088,395.56779293103966
-6.592563492631579,-250.51741272,9.281953885457064,-0.03222963421052626,49.8637233,0.0,156,mp-1216133,Yb4ZrCo33,https://materialsproject.org/materials/mp-1216133,488.07056314302747
-7.72069599875,-247.06227196,5.6133919400765135,-2.61162654508375,6.9999715,1.1095000000000002,55,mp-22802,PrMn2O5,https://materialsproject.org/materials/mp-22802,391.4028012393537
-5.18390281325,-207.35611253,2.8430409508867385,-1.4196002366660707,0.0,2.6642,14,mp-560649,KLa(PS3)2,https://materialsproject.org/materials/mp-560649,1010.0728194818299
-6.723570283333332,-322.7313736,3.3444935116982566,-2.822600043944444,0.0,3.3672000000000004,62,mp-1211700,K3Nd(BO3)2,https://materialsproject.org/materials/mp-1211700,753.0015240522496
-6.23168557725,-498.53484618,3.081910788342316,-2.473018517509125,0.9735229,0.12700000000000022,9,mp-710070,K5Ce2H2S6O25,https://materialsproject.org/materials/mp-710070,1153.1590803841416
-4.9839117066666665,-89.71041072,6.709791882010339,-0.4375474149999998,1.5e-07,0.0,12,mp-1005753,Sm2AlGe6,https://materialsproject.org/materials/mp-1005753,377.9224619190695
-6.6471129721153845,-345.64987455,4.685266363967662,-2.1295044790384616,0.0,0.15920000000000026,122,mp-557454,BaV2(CuO4)2,https://materialsproject.org/materials/mp-557454,700.7497411674186
-7.3959078758749985,-591.67263007,3.2220941882675165,-2.846713876410715,0.0,5.3904,14,mp-4736,NdP5O14,https://materialsproject.org/materials/mp-4736,1078.3446081570196
-7.069132735384616,-183.79745112,6.770026635051909,-2.729822305384616,1.0000001,0.5381,8,mp-1208539,Tb2Cu(GeO4)2,https://materialsproject.org/materials/mp-1208539,321.1533150290598
-8.13191846857143,-227.69371712,5.10891325389462,-2.8533160335,7.00000005,3.2576,62,mp-18547,NaGdGeO4,https://materialsproject.org/materials/mp-18547,411.97586761201256
-5.54740967125,-88.75855474,7.025102943527457,-0.7427296371874998,1.9e-06,0.0,107,mp-1217645,Tb4Cu5P7,https://materialsproject.org/materials/mp-1217645,276.6140317657454
-6.586694278333334,-197.60082835,4.901344422231482,-2.810475347289666,0.0,3.7154,82,mp-1192544,Na5Nd4Ge4O16F,https://materialsproject.org/materials/mp-1192544,426.02001058091406
-5.534195595,-66.41034714,6.747861064263638,-1.6257085232291668,0.0,0.1452,14,mp-1232221,PmSe2,https://materialsproject.org/materials/mp-1232221,298.17477343196657
-7.791297126785714,-218.15631955,4.9658062157174525,-2.9880658635696693,7.000000025,0.8320999999999996,62,mp-18169,RbEuPO4,https://materialsproject.org/materials/mp-18169,444.61535834675897
-6.556766649999998,-137.69209965,8.937818774676037,-0.34529026119047657,0.0224292,0.0,65,mp-1190673,Dy4Ni13C4,https://materialsproject.org/materials/mp-1190673,271.44678688713043
-8.284239390714285,-231.95870294,4.987333726056015,-3.1122745763809525,5.999858975,0.0,57,mp-1211712,KEuTiO4,https://materialsproject.org/materials/mp-1211712,403.43957019613026
-6.064525748333334,-291.09723592,5.021825108376905,-1.9850610026041675,7.75e-07,0.02159999999999984,62,mp-542101,BaCu2Ge2O7,https://materialsproject.org/materials/mp-542101,690.0236974958973
-5.683148609166667,-68.19778331,6.709468066697492,-0.9962222550000004,0.0,0.0,14,mp-13961,NdAs2,https://materialsproject.org/materials/mp-13961,291.1348266847489
-8.5597650435,-171.19530087,4.561739417043005,-2.3979248009375014,7.000000175,1.1102,62,mp-510490,GdScS3,https://materialsproject.org/materials/mp-510490,434.4889689194915
-7.41985005375,-118.71760086,5.900027036405072,-1.514770118089979,14.0000005,0.8332000000000002,63,mp-574448,RbGd2CuSe4,https://materialsproject.org/materials/mp-574448,438.6920273032799
-8.834041620588236,-300.3574151,5.100864518811517,-3.6805552875245113,0.0,3.1247000000000003,15,mp-654139,Nd2Ti4O11,https://materialsproject.org/materials/mp-654139,427.07385808482564
-7.903866431875,-126.46186291,4.798099695389365,-1.9996017024062491,13.99999975,1.033,63,mp-15553,KGd2CuS4,https://materialsproject.org/materials/mp-15553,377.50992694218166
-7.506740486666667,-90.08088584,7.570770956541885,0.18779087750000065,2.465442375,0.0,194,mp-569334,NdMn2,https://materialsproject.org/materials/mp-569334,222.94850109055676
-7.31499806642857,-102.40997293,4.8518698859956055,-1.7347576566071428,14.00000085,0.27720000000000056,4,mp-1103850,Eu2GeS4,https://materialsproject.org/materials/mp-1103850,345.55197158305623
-7.037321283461537,-182.97035337,5.895960290491713,-2.6739775049999994,0.9999998999999999,0.5230000000000001,8,mp-1209738,Pr2Cu(GeO4)2,https://materialsproject.org/materials/mp-1209738,348.4657321982362
-7.3138513635714295,-102.39391909,4.827670714730902,-1.7336109537500002,13.999999800000003,0.2491000000000003,11,mp-1104543,Eu2GeS4,https://materialsproject.org/materials/mp-1104543,347.2840846113285
-7.5029394925,-90.03527391,7.744418698515962,0.1915918716666667,2.559341525,0.0,63,mp-1102507,NdMn2,https://materialsproject.org/materials/mp-1102507,217.9494811126856
-7.238659620833332,-173.72783090000001,5.536409675162751,-2.124361048098958,6.96619965,0.0,14,mp-769334,EuSeO4,https://materialsproject.org/materials/mp-769334,353.8241273844083