energy_per_atom,energy,density,formation_energy_per_atom,total_magnetization,band_gap,sgr,mp_id,formula,URL,cell_volume
-3.525068674,-17.62534337,7.776939352281572,-0.1549958799999999,2e-07,0.0,139,mp-569204,Tl(CuTe)2,https://materialsproject.org/materials/mp-569204,125.26743431114774
-7.123248873,-71.23248873,6.148393604569291,-3.0120274787500003,0.8133640999999999,0.0,148,mvc-15176,CaLa2BiO6,https://materialsproject.org/materials/mvc-15176,168.22164364686017
-4.998033583636363,-54.97836942,2.6923506190974504,0.5818308853977272,0.0,0.15300000000000002,2,mp-1102535,PtC4S2(IO)2,https://materialsproject.org/materials/mp-1102535,365.7795589193266
-7.292399688000001,-72.92399688,7.5131585812981845,-2.554563034000002,3.0000002999999995,0.0,225,mp-31756,Ba2FeReO6,https://materialsproject.org/materials/mp-31756,135.4179129979043
-5.41138306,-48.70244754,7.137830952864932,-1.6428415002777783,0.0,0.5166,162,mp-754065,Hg(SbO3)2,https://materialsproject.org/materials/mp-754065,125.64990245305229
-6.642170773999999,-66.42170774,7.2362633538114425,-2.450611088250001,0.9616439,0.0,87,mp-505618,Ba2CuWO6,https://materialsproject.org/materials/mp-505618,141.82368995740083
-7.741936422999999,-77.41936423,6.742953819349713,-3.1596769102500004,2.0,0.0,148,mvc-15479,CaLa2WO6,https://materialsproject.org/materials/mvc-15479,147.19754707781672
-8.345314235,-83.45314235,6.839388954634179,-3.59226225925,0.0,3.4657000000000004,87,mp-12385,Ba2YTaO6,https://materialsproject.org/materials/mp-12385,155.5083531878358
-2.6192832575,-10.47713303,7.4935347057246835,-0.2276548112499999,3.81e-05,0.0,164,mp-998919,TlCdTe2,https://materialsproject.org/materials/mp-998919,126.75178044906606
-2.57584223,-10.30336892,0.8800269354293448,1.6297891049999995,0.010890200000000001,0.0798000000000001,71,mp-1096374,TlCuPd2,https://materialsproject.org/materials/mp-1096374,907.1724509136554
-3.5157685875,-14.06307435,9.470209918616769,-0.2780466252083338,0.00013659999999999999,0.0,225,mp-867817,LaTlAg2,https://materialsproject.org/materials/mp-867817,98.02138781557473
-2.8754729225,-11.50189169,9.23353125479574,0.0068262374999994435,0.00018999999999999998,0.0,139,mp-973498,In3Au,https://materialsproject.org/materials/mp-973498,97.36794808774404
-3.6525762225,-14.61030489,9.878582364541352,-0.162921335833333,0.8861981,0.0,225,mp-867298,CeTlAg2,https://materialsproject.org/materials/mp-867298,94.17274838857102
-3.8409676155555563,-34.56870854,4.465234541569172,-1.1160237369348662,2.0,0.0,225,mp-541753,Cs2WBr6,https://materialsproject.org/materials/mp-541753,345.50596043315244
-2.62678299,-10.50713196,8.1007571762713,0.02884805499999965,2.8999999999999997e-05,0.0,139,mp-1187742,TlIn3,https://materialsproject.org/materials/mp-1187742,112.50377507028114
-3.589851775,-14.3594071,10.317545646931798,-0.011750797499999964,8e-07,0.0,139,mp-1184857,In3Pt,https://materialsproject.org/materials/mp-1184857,86.8349841350057
-2.396492135,-9.58596854,11.514122023395993,-0.19623414374999992,4e-07,0.0,139,mp-1183641,Cd3Pt,https://materialsproject.org/materials/mp-1183641,76.76947997941845
-2.982581245,-11.93032498,11.975467802871373,-0.04267065749999999,1.5e-06,0.0,139,mp-1183214,Ag3Au,https://materialsproject.org/materials/mp-1183214,72.18329700787744
-6.5817818475,-52.65425478,7.777864900075787,0.032878231875000274,13.1939712,0.0,25,mp-1221739,Mn4BiSb3,https://materialsproject.org/materials/mp-1221739,169.51810095445035
-3.4545866725,-13.81834669,9.98407788298717,-0.2572387002083336,5.9e-06,0.0,225,mp-974782,NdTlAg2,https://materialsproject.org/materials/mp-974782,93.86391477651216
-1.2060867875,-4.82434715,5.593522286517868,0.009130255000000087,0.00020380000000000002,0.0,139,mp-973601,HgI3,https://materialsproject.org/materials/mp-973601,172.57051227215894
-1.1839187575,-4.73567503,0.6828292305625006,1.0124312920833332,1.7747771,0.0,71,mp-1093975,TlCdIn2,https://materialsproject.org/materials/mp-1093975,1328.837145769873
-6.486057545,-25.94423018,12.56161213264001,-0.8991985375000011,3e-07,0.0,123,mp-1226474,CePd2Pt,https://materialsproject.org/materials/mp-1226474,72.44625975331249
-5.3459058175,-21.38362327,11.846538290249484,-0.4098986468749999,1.4e-06,0.0,225,mp-862913,PmHgRh2,https://materialsproject.org/materials/mp-862913,77.29033281804026
-5.692472631666668,-68.30967158,6.28124925380754,-2.1795172658333333,3.9200000000000004e-05,0.0,123,mp-1208803,Sr2LaCu2HgO6,https://materialsproject.org/materials/mp-1208803,195.05440578340483
-5.34701252,-21.38805008,10.7719555504631,-0.6412996693749999,1.84e-05,0.0,225,mp-1186317,NdPd2Pb,https://materialsproject.org/materials/mp-1186317,86.98627525704897
-5.915529085,-23.66211634,11.690550423273132,-0.4637072343749997,3.8e-06,0.0,225,mp-862967,PmTlRh2,https://materialsproject.org/materials/mp-862967,78.8604280000489
-2.8102722625,-11.24108905,11.742892965682051,0.09173522624999997,2e-07,0.0,139,mp-1183645,Cd3Ir,https://materialsproject.org/materials/mp-1183645,74.86846702063387
-4.094590705,-16.37836282,12.927560979483065,-0.1350616300000005,1e-07,0.0,139,mp-1184658,HgPd3,https://materialsproject.org/materials/mp-1184658,66.77448447653875
-2.971878515,-11.88751406,1.0078752949506191,1.4379472287499997,1.0,0.00790000000000024,71,mp-1095757,SnPd2Au,https://materialsproject.org/materials/mp-1095757,870.7648659592878
-3.4529895125,-13.81195805,10.128365440672336,-0.260299835208333,1.4e-06,0.0,225,mp-862966,PmTlAg2,https://materialsproject.org/materials/mp-862966,92.65101359344271
-3.810263267,-38.10263267,3.5532302448873216,-2.034624870774965,0.0,2.2795,225,mp-1113498,Rb2LaAuCl6,https://materialsproject.org/materials/mp-1113498,336.2575266715752
-4.846229735555556,-43.61606762,7.260232323090339,-1.169276705,0.0,1.6029,1,mp-1216423,VAg3HgO4,https://materialsproject.org/materials/mp-1216423,146.18078504929989
-1.51906479,-6.07625916,0.7486153602033041,0.9351363520833332,0.2880291,0.0,71,mp-1097125,In2SnHg,https://materialsproject.org/materials/mp-1097125,1217.6208329653998
-5.4536995475,-21.81479819,10.445127109027924,-0.6941469749999998,6e-07,0.0,225,mp-976884,PrBiPd2,https://materialsproject.org/materials/mp-976884,89.4610363449215
-1.46040616,-5.84162464,0.8828460786848851,1.2183366358333332,0.9758415000000001,0.0,71,mp-1096169,Cd2AgPt,https://materialsproject.org/materials/mp-1096169,992.6868166082418
-3.85462328,-38.5462328,3.6237515439994175,-1.978211714024965,1.0000001,0.15470000000000006,225,mp-1113397,Rb2CeAuCl6,https://materialsproject.org/materials/mp-1113397,330.2683784009255
-3.268164565,-13.07265826,7.962275964778937,0.03548194708333341,2e-07,0.0,99,mp-1223808,In2SnPb,https://materialsproject.org/materials/mp-1223808,115.85956397348407
-2.886854355,-11.54741742,11.795632503869186,-0.2081115591666669,0.0004636,0.0,225,mp-1183537,Cd2AgPt,https://materialsproject.org/materials/mp-1183537,74.29781006803118
-1.834611365,-7.33844546,0.9251372304525532,1.692666316666667,0.8494168,0.0,71,mp-1096329,Ag2PdAu,https://materialsproject.org/materials/mp-1096329,931.7795546543185
-3.363526621666667,-20.18115973,7.316179300454443,-0.24878005135416714,6.2e-06,0.3709000000000002,1,mp-34982,Ag3AuS2,https://materialsproject.org/materials/mp-34982,132.70849141133397
-6.2674227275,-25.06969091,11.525805017285654,-0.4819701868749995,0.0002939,0.0,225,mp-862958,PmRh2Pb,https://materialsproject.org/materials/mp-862958,80.39343445944007
-5.364428075,-21.4577123,10.922720015085197,-0.6633735193750008,2e-07,0.0,225,mp-862950,PmPd2Pb,https://materialsproject.org/materials/mp-862950,85.9008541705517
-5.9357515361538455,-77.16476997,6.836245341924883,-2.220195518942308,9.9e-06,0.0,123,mp-1208792,Sr2PrTlCu2O7,https://materialsproject.org/materials/mp-1208792,184.51306628147339
-1.8833711925,-7.53348477,0.8663035017511506,1.0373355858333335,3.4e-06,0.7863000000000002,71,mp-1093943,InAg2Au,https://materialsproject.org/materials/mp-1093943,1011.1573619088929
-3.97534655875,-31.80277247,6.34429996433095,-0.547513599947917,3.6000000000000003e-06,0.0,119,mp-1229127,Ag2SnBiS4,https://materialsproject.org/materials/mp-1229127,175.80539386906094
-3.863530665,-15.45412266,8.780173234695338,0.050384407500000165,2.1000000000000002e-06,0.0,229,mp-29665,Sb3Au,https://materialsproject.org/materials/mp-29665,106.33416368611657
-3.8202565525,-15.28102621,9.830587499879329,-0.29393618520833353,1.8000000000000001e-06,0.0,225,mp-862876,PmAg2Pb,https://materialsproject.org/materials/mp-862876,95.9332862302108
-3.753682682,-37.53682682,3.599988532578806,-1.9923352935249659,0.0,2.1519,225,mp-1113464,Rb2PrAuCl6,https://materialsproject.org/materials/mp-1113464,332.8135912247731
-1.596258335,-6.38503334,8.784130644262456,0.06435366500000006,0.00010729999999999999,0.0,139,mp-1183658,Cd3Bi,https://materialsproject.org/materials/mp-1183658,103.2553717155343
-4.496792605,-17.98717042,12.577834571597268,-0.40135163833333376,0.0,0.0,225,mp-863724,InPd2Au,https://materialsproject.org/materials/mp-863724,69.26149117391711
-2.9314323325,-11.72572933,10.530471821336283,-0.26208565645833337,2.72e-05,0.0,225,mp-978516,SmAg2Hg,https://materialsproject.org/materials/mp-978516,89.36018315251951
-2.9919161675,-11.96766467,7.8197652397247985,-0.0026544324999999702,0.00014680000000000002,0.0,225,mp-1184921,In3Pb,https://materialsproject.org/materials/mp-1184921,117.14456578806428
-2.5345662325,-10.13826493,11.615625026759794,-0.07314044958333321,1.9e-06,0.0,225,mp-983602,CdAg2Au,https://materialsproject.org/materials/mp-983602,75.06890451138196
-3.44120587,-13.76482348,10.324646595455263,-0.2560445139583334,3.8e-06,0.0,225,mp-867876,SmTlAg2,https://materialsproject.org/materials/mp-867876,91.75169383468051
-5.949876516923077,-77.34839472,6.882076678258402,-2.2357501829807704,3.6000000000000003e-06,0.0,25,mp-1218759,Sr2NdTlCu2O7,https://materialsproject.org/materials/mp-1218759,184.0888248515755
-3.18431484,-12.73725936,12.164451052999569,-0.2906376637500001,1e-07,0.0,225,mp-1183640,CdHgPd2,https://materialsproject.org/materials/mp-1183640,71.78125059061561
-2.172442435,-8.68976974,11.376762449459811,0.024985357500000305,3.7000000000000006e-06,0.0,221,mp-985443,Ag3Hg,https://materialsproject.org/materials/mp-985443,76.51083528587822
-3.758026222,-37.58026222,3.655167888561785,-1.9985374217749656,0.0,2.1398,225,mp-1113660,Rb2NdAuCl6,https://materialsproject.org/materials/mp-1113660,329.3041433227265
-4.6894118825,-18.75764753,12.707955297727963,-0.21406812750000093,0.0005136,0.0,139,mp-571030,TlPd3,https://materialsproject.org/materials/mp-571030,68.4240794299846
-2.0454449325,-8.18177973,0.9580658075155214,1.5907150387499995,0.9999880999999999,0.19130000000000005,71,mp-1097670,CdPd2Au,https://materialsproject.org/materials/mp-1097670,905.1180554571088
-2.2541418625,-9.01656745,0.8682178974849218,1.1553499937499998,0.0124835,0.0,71,mp-1096732,TlCdPd2,https://materialsproject.org/materials/mp-1096732,1012.9697102775351
-3.93335566,-15.73342264,12.591782366527429,-0.2971956887500005,2.3e-06,0.0,225,mp-1183633,CdPd2Au,https://materialsproject.org/materials/mp-1183633,68.86734820032792
-5.972847235,-23.89138894,14.062149620098447,0.12671594999999947,1.4499999999999998e-05,0.0,139,mp-1184784,IrPd3,https://materialsproject.org/materials/mp-1184784,60.39812898507145
-3.51866653,-14.07466612,12.409638282940554,-0.146504549166667,1.93e-05,0.0,225,mp-861501,AgHgPd2,https://materialsproject.org/materials/mp-861501,69.75513651930628
-6.3083088125,-25.23323525,11.372094741986606,-0.4736630206249997,0.0004041,0.0,225,mp-973757,PmBiRh2,https://materialsproject.org/materials/mp-973757,81.74003954823463
-5.469909425,-21.879637699999996,10.784765191711326,-0.7196616181249995,3.5000000000000004e-06,0.0,225,mp-862880,PmBiPd2,https://materialsproject.org/materials/mp-862880,87.27379652102208
-1.2648098475,-5.05923939,1.423583666316596,0.8750065174999997,0.1141788,0.0,65,mp-1212244,In3Hg,https://materialsproject.org/materials/mp-1212244,635.7665249556738
-4.5441605575,-18.17664223,12.411058413121284,-0.050270716249999126,0.0015821,0.0,225,mp-866188,TlCdRh2,https://materialsproject.org/materials/mp-866188,69.92203841724289
-2.3985663325,-9.59426533,0.861936685351999,1.4894103283333329,0.0,0.3235000000000001,71,mp-1093545,TlAgPd2,https://materialsproject.org/materials/mp-1093545,1011.599749888912
-7.0478291275,-28.19131651,14.359470576637776,-0.02341846250000046,5.400000000000001e-06,0.0,139,mp-974376,PtRh3,https://materialsproject.org/materials/mp-974376,58.2598358453827
-4.972957145,-19.89182858,10.212002054166996,-0.3774883812499992,1e-07,0.0,187,mp-1227298,BiSbPd2,https://materialsproject.org/materials/mp-1227298,88.3897663544335
-2.940613158,-29.40613158,3.4497407014657284,-1.5418924110249657,2.5300000000000002e-05,0.0,225,mp-1113385,Rb2HgSbCl6,https://materialsproject.org/materials/mp-1113385,339.8361330990577
-3.54938493125,-28.39507945,6.060463372475696,-0.4768197030468753,1e-07,0.3760000000000003,97,mp-1216567,TlIn3Se4,https://materialsproject.org/materials/mp-1216567,236.9175961318047
-3.2873625210000004,-32.87362521,3.1905316993383765,-1.6823159020249654,0.0,1.5869,225,mp-1114609,Rb2TlSbCl6,https://materialsproject.org/materials/mp-1114609,369.4197625948656
-4.080507735,-16.32203094,12.904424870806404,-0.1209786600000009,1.59e-05,0.0,221,mp-863720,HgPd3,https://materialsproject.org/materials/mp-863720,66.89420323542525
-3.178607369,-31.78607369,3.7517246357314997,-1.4828935040249658,0.0,0.25049999999999994,225,mp-1113456,Rb2SbAuCl6,https://materialsproject.org/materials/mp-1113456,310.87827726964565
-4.352479469166666,-104.45950726,3.723657799595056,-2.4903425412,8e-07,2.1371,5,mp-1227565,BiSb3F20,https://materialsproject.org/materials/mp-1227565,425.53148082607123
-6.388559405,-25.55423762,13.100104931356688,0.04701201750000017,1.18e-05,0.0,139,mp-974368,Rh3Pb,https://materialsproject.org/materials/mp-974368,65.39638377854104
-2.6319857975,-10.52794319,0.6075090396339824,1.67997825125,0.0,0.13149999999999995,71,mp-1096510,Y2SnHg,https://materialsproject.org/materials/mp-1096510,1358.783707297766
-4.6695361625,-18.67814465,12.708908619981447,-0.194192407500001,0.0,0.0,221,mp-569785,TlPd3,https://materialsproject.org/materials/mp-569785,68.41894679432366
-3.4108783270000003,-34.10878327,3.423685684328352,-2.19276579164738,1.0000091999999998,0.0,225,mp-567172,Cs2NaYbCl6,https://materialsproject.org/materials/mp-567172,327.17110000700336
-1.3477028075,-5.39081123,0.5332884348221245,0.6020830399999999,0.0040683,0.0,71,mp-1097227,Sr2HgSb,https://materialsproject.org/materials/mp-1097227,1549.382223503866
-2.176024775,-8.704099099999999,0.5243028093414731,-0.469588322672414,4.13e-05,3.1851000000000003,71,mp-1093748,Rb2AuI,https://materialsproject.org/materials/mp-1093748,1567.1206155516836
-2.672507285,-10.69002914,0.8649714484297629,1.5491000658333327,4.33e-05,0.0,71,mp-1097539,AgPd2Pb,https://materialsproject.org/materials/mp-1097539,1013.457932313832
-1.1338409075,-4.53536363,0.7403803615771221,0.9860520879166664,1.2989870000000001,0.0,71,mp-1097224,Cd2InBi,https://materialsproject.org/materials/mp-1097224,1230.4561811983185
-5.46734198,-21.86936792,10.965652171324468,-0.7246224943749997,1.83e-05,0.0,225,mp-862752,SmBiPd2,https://materialsproject.org/materials/mp-862752,86.6458170730083
-3.6282567375,-14.51302695,6.563641154229008,-0.935988095,0.0,0.6326000000000005,225,mp-867168,Sr2SbAu,https://materialsproject.org/materials/mp-867168,124.96886301452653
-7.7363149875,-30.94525995,14.51894027347486,-0.010154825000000756,1.06e-05,0.0,139,mp-1184794,IrRh3,https://materialsproject.org/materials/mp-1184794,57.2920349230666
-1.3987604775,-5.59504191,0.4826304845569345,-0.028967847672414008,0.0,0.2830999999999997,71,mp-1096184,Rb2HgTe,https://materialsproject.org/materials/mp-1096184,1717.2921545233444
-5.17071474,-20.68285896,9.690652433903958,-0.2583521558333333,6.938989,0.0,225,mp-1184463,EuAg2Pb,https://materialsproject.org/materials/mp-1184463,98.51189740039304
-3.63751315125,-29.10010521,7.179531398375032,-0.1823961578385416,0.0,0.08549999999999969,119,mp-1229120,Ag2BiSbSe4,https://materialsproject.org/materials/mp-1229120,199.44347782530224
-4.1569932000000005,-16.627972800000002,12.882286500339324,-0.04234842416666673,3.1e-06,0.0,160,mp-1229031,AgPd2Au,https://materialsproject.org/materials/mp-1229031,66.72877240580225
-2.128271915,-8.51308766,0.6099343420694956,1.8693073566666665,3.0,0.009399999999999851,71,mp-1096331,Y2InHg,https://materialsproject.org/materials/mp-1096331,1342.7848059320627
-3.762465152,-37.62465152,3.757189839615509,-2.0078509982749657,0.0,2.1101,225,mp-1113640,Rb2SmAuCl6,https://materialsproject.org/materials/mp-1113640,323.0662170146063
-2.57765002,-10.31060008,6.177267624879208,-0.6573513662499999,0.0,0.3197000000000001,225,mp-867169,Sr2SnHg,https://materialsproject.org/materials/mp-867169,132.9395173902082
-1.9528446625,-7.81137865,0.6836908076794732,2.62552251875,6.550738099999999,0.0,71,mp-1093908,Zr2CdHg,https://materialsproject.org/materials/mp-1093908,1203.3398688236607
-2.307209952,-11.53604976,5.000133740404719,-1.165017743893379,2.34e-05,0.0,123,mp-1228835,CsHgBr2Cl,https://materialsproject.org/materials/mp-1228835,175.59944925808398
-2.5396448275,-10.15857931,0.5703667301693656,1.973749124166666,1.4e-06,0.08040000000000003,71,mp-1097136,Y2TlIn,https://materialsproject.org/materials/mp-1097136,1446.980418444903
-4.9382573775,-19.75302951,7.578556957710923,-0.4248634258333341,1.58e-05,0.0,225,mp-1187770,Y2TlIn,https://materialsproject.org/materials/mp-1187770,108.90061188334748
-4.004191657,-40.04191657,4.322158611950131,-2.5054514157829653,5.3e-06,0.0,225,mp-1111947,Rb2HgSbF6,https://materialsproject.org/materials/mp-1111947,233.3106275066576
-2.9013792130000002,-29.01379213,3.6696497213658943,-1.6402072543582988,1.5e-06,0.0,225,mp-1113321,Rb2InHgCl6,https://materialsproject.org/materials/mp-1113321,316.3296680351254
-4.636676988333334,-55.64012386,3.9214727489924033,-0.5043644122175,0.0,1.6311000000000002,25,mp-977014,H5PbCI3N2,https://materialsproject.org/materials/mp-977014,268.03281213807935
-4.251882518333333,-51.02259022,3.826588021730227,-0.5122979027374998,0.0,1.7521999999999998,6,mp-977013,H6PbCI3N,https://materialsproject.org/materials/mp-977013,269.03821742435457
-3.81896005,-34.37064045,3.895245730289268,-0.5778413296511111,0.0,2.1129,8,mp-1040455,H4PbI3N,https://materialsproject.org/materials/mp-1040455,258.31662651518565
-3.247310408,-16.23655204,4.2089636591282575,-0.6317601609999997,0.0,0.0,221,mp-1013585,Sr3BiSb,https://materialsproject.org/materials/mp-1013585,234.1898667197733
-4.379828166999999,-43.79828167,4.400001010855502,-2.674762053782966,0.0,2.552,225,mp-1114484,Rb2TlSbF6,https://materialsproject.org/materials/mp-1114484,230.61459717267888
-3.09967818,-15.498390900000002,4.1023110219681715,-0.4841279329999999,0.0,0.0,221,mp-1013706,Sr3BiSb,https://materialsproject.org/materials/mp-1013706,240.27837798770972
-4.16731949,-41.6731949,4.853730839643238,-2.371586130782965,0.0,0.7441,225,mp-1113457,Rb2SbAuF6,https://materialsproject.org/materials/mp-1113457,206.51921633479392
-4.47841083,-17.91364332,11.71361221029,-0.20761022791666586,1.6e-06,0.0,225,mp-1183166,AgBiPd2,https://materialsproject.org/materials/mp-1183166,75.08944154479296
-3.252246434,-32.52246434,3.3559855305510933,-1.7847486033582989,1.77e-05,2.4472,225,mp-989550,Rb2TlInCl6,https://materialsproject.org/materials/mp-989550,347.77205988538367
-3.125343205,-31.25343205,3.9144636633039065,-1.5671781283582988,0.0,0.0,225,mp-1113497,Rb2InAuCl6,https://materialsproject.org/materials/mp-1113497,295.0090558653788
-2.211772218,-11.05886109,5.153219176981351,-0.9945472492413794,0.0193287,0.0,221,mp-27718,CsHgBr3,https://materialsproject.org/materials/mp-27718,184.7065531678853
-2.7584486619999997,-13.79224331,4.741480022029611,-1.1285719492413793,0.0001193,0.0,8,mp-1080226,CsTlBr3,https://materialsproject.org/materials/mp-1080226,202.0745147480704