energy_per_atom,energy,density,formation_energy_per_atom,total_magnetization,band_gap,sgr,mp_id,formula,URL,cell_volume
-3.81033735,-15.2413494,8.690619815805345,-0.16059305812500035,0.0087039,0.0,139,mp-976417,Nd3Hg,https://materialsproject.org/materials/mp-976417,121.00931405882537
-6.130244484285713,-85.82342278,6.688907300749574,-2.1373283022321443,8.400000000000001e-06,0.0,8,mp-1228257,Ba2YCu3PbO7,https://materialsproject.org/materials/mp-1228257,216.82229815781295
-9.26103951375,-74.08831611,10.139951226135144,-0.2718137799999987,9.03e-05,0.0,200,mp-1220391,Nb6PdPt,https://materialsproject.org/materials/mp-1220391,140.66213507717725
-0.8507376575,-3.40295063,2.9915886484718963,-0.012415692758620755,0.0001193,0.0,221,mp-974951,Rb3Hg,https://materialsproject.org/materials/mp-974951,253.6630101568139
-8.601463068,-86.01463068,7.675673068572757,-3.027968646,5.0000002,0.0,225,mp-1207285,Ba2GdReO6,https://materialsproject.org/materials/mp-1207285,154.4884996871536
-2.923237673,-29.23237673,3.0267127729913743,-1.505756555556,3.07e-05,0.0,225,mp-1112196,K2HgSbCl6,https://materialsproject.org/materials/mp-1112196,336.45406304725896
-2.714355126,-13.57177563,4.4262281473694465,-1.0602499300689654,0.00011540000000000001,0.0,8,mp-998391,RbTlBr3,https://materialsproject.org/materials/mp-998391,198.67032887042595
-7.344254282173914,-168.91784849,6.059078089517039,-2.954759166304349,0.0001183,0.0,150,mp-1211938,La3TaGa5O14,https://materialsproject.org/materials/mp-1211938,320.7221414727536
-8.3287691325,-33.31507653,11.315815587826455,-0.7522385699999994,7.1244345000000004,0.0,225,mp-865764,YbGdRh2,https://materialsproject.org/materials/mp-865764,78.67012615871313
-2.903375885,-11.61350354,8.877155041655662,-0.2284504212499998,0.0038204999999999997,0.0,225,mp-867338,AcCdAg2,https://materialsproject.org/materials/mp-867338,103.84452297259466
-4.4725411925,-17.89016477,8.681623262518103,-0.4271076037499988,2.7101868,0.0,225,mp-1183747,Ce2SnHg,https://materialsproject.org/materials/mp-1183747,114.67282806746925
-4.016597613,-40.16597613,3.3571069318170776,-2.488622394647379,0.0,5.2045,225,mp-568670,Cs2NaTbCl6,https://materialsproject.org/materials/mp-568670,326.6780315113173
-2.4032031060000003,-12.01601553,4.837332054189722,-1.3360436585453794,2.8e-06,0.0,123,mp-1228820,CsHgBrCl2,https://materialsproject.org/materials/mp-1228820,166.2503423696642
-7.0127671161538485,-91.16597251,6.3367479130531175,-2.588472139326924,6.2167913,0.0,123,mvc-2970,Ba2YTlCr2O7,https://materialsproject.org/materials/mvc-2970,205.42844643789823
-6.51326535923077,-84.67244967,6.450458503969128,-2.3807969962500013,7.924607400000001,0.0,123,mvc-2985,Ba2YTlFe2O7,https://materialsproject.org/materials/mvc-2985,203.78873468612258
-6.923208290769232,-90.00170778,6.372724716067778,-2.521267891013077,8.232179200000001,0.0,123,mvc-13315,Ba2YMn2TlO7,https://materialsproject.org/materials/mvc-13315,205.80187702010454
-2.1307797475,-8.52311899,4.351014852774881,1.4357923359913791,1.8766397000000001,0.0,139,mp-974846,Rb3Os,https://materialsproject.org/materials/mp-974846,170.45499093043622
-7.477790998000001,-74.77790998,7.475980763157043,-3.096291603583334,0.0,3.9467,225,mp-1079630,Ba2TaInO6,https://materialsproject.org/materials/mp-1079630,148.02208364220817
-3.267589968,-32.67589968,2.8028543448763603,-1.643782978556,0.0,1.541,225,mp-1111196,K2TlSbCl6,https://materialsproject.org/materials/mp-1111196,365.5733073548691
-6.31794551,-82.13329163,6.821566771763644,-2.260990459326924,5.4348049000000005,0.0,123,mvc-2983,Ba2YTlCo2O7,https://materialsproject.org/materials/mvc-2983,194.20566531344875
-5.827153646923077,-75.75299741,6.824211275937125,-2.103788047019232,0.6143094,0.0,123,mp-1214583,Ba2YCu2HgO7,https://materialsproject.org/materials/mp-1214583,195.4522540833399
-7.489801437692307,-97.36741869,6.233631671683941,-3.0234413080448728,0.0009679,0.0,123,mvc-16175,Ba2YTi2TlO7,https://materialsproject.org/materials/mvc-16175,206.6267761051433
-3.168049704,-31.68049704,3.3046426581050867,-1.453575468556,0.0,0.2250000000000001,225,mp-1112067,K2SbAuCl6,https://materialsproject.org/materials/mp-1112067,306.33658953498434
-7.7123232425,-30.84929297,11.624325224734605,-0.16881942500000058,5.7700000000000007e-05,0.0,225,mp-865857,YbNbRu2,https://materialsproject.org/materials/mp-865857,66.86630776884694
-6.641948599999999,-26.567794399999997,11.355987614467125,-0.8465857112499995,0.0011009000000000001,0.0,225,mp-865252,TmSnRh2,https://materialsproject.org/materials/mp-865252,72.15591179868052
-7.0774546491666674,-84.92945579,4.471878313607673,-0.9639273917187516,0.0011648,1.4053,156,mp-1027051,Mo3W(SeS)4,https://materialsproject.org/materials/mp-1027051,340.0484370612527
-5.68203008,-22.72812032,9.233662539444538,-0.3646316908333329,7.2595094,0.0,225,mp-1187833,YbGdAg2,https://materialsproject.org/materials/mp-1187833,98.19485498819188
-5.838791802307693,-75.90429343,6.789574599813813,-2.0313348839423075,4.000001,0.2690999999999999,123,mvc-2992,Ba2YTlNi2O7,https://materialsproject.org/materials/mvc-2992,195.0034594963559
-2.399444205,-9.59777682,0.5465277073263489,1.6963879370833332,1.000056,0.0,71,mp-1096314,La2AgPb,https://materialsproject.org/materials/mp-1096314,1801.370625448913
-2.925118501,-29.25118501,3.541935881207295,-1.5647144942318625,0.0020792,0.0,225,mp-1112523,Cs2RbAuCl6,https://materialsproject.org/materials/mp-1112523,356.75666213919703
-3.102106005,-31.02106005,3.3612546391012423,-1.8323692442318618,4.74e-05,2.3938,225,mp-1112004,Cs2RbTlCl6,https://materialsproject.org/materials/mp-1112004,379.5978379687457
-6.096305358461539,-79.25196966,6.9552250493325225,-2.2142275493269237,1.2e-06,0.0,123,mp-654374,Ba2YTlCu2O7,https://materialsproject.org/materials/mp-654374,192.67620953428312
-3.5269468125,-14.10778725,8.665434707685993,-0.34350849250000026,3.6000000000000003e-06,0.0,221,mp-21177,TmIn3,https://materialsproject.org/materials/mp-21177,98.37950364158583
-7.16991819,-28.67967276,11.48741020837349,-0.4150147012500005,9.93e-05,0.0,225,mp-865249,TmSnRu2,https://materialsproject.org/materials/mp-865249,70.79975269688875
-6.504508170833333,-78.05409805,6.31374487972563,-2.101881580555555,1.0000004999999998,0.0,82,mp-1215591,YbAg(MoO4)2,https://materialsproject.org/materials/mp-1215591,158.008330917433
-3.6045539566666656,-32.44098561,5.271330555480201,-0.2371231804861106,1e-07,0.2902,215,mp-1179060,SrTlCu3Se4,https://materialsproject.org/materials/mp-1179060,251.53219996448613
-5.950628095,-23.80251238,12.03782644549776,-0.9355544275000004,3.6000000000000003e-06,0.0,221,mp-1158,LuPd3,https://materialsproject.org/materials/mp-1158,68.17536636184197
-6.524636855,-130.4927371,6.1010406345345976,-2.445049382250001,1.9963428,0.0,83,mp-1218348,Sr4Cu2MoWO12,https://materialsproject.org/materials/mp-1218348,258.3861012001349
-5.291953825,-21.1678153,10.746393356741214,-0.35789618791666644,3.5000000000000004e-06,0.0,225,mp-861880,AcCdRh2,https://materialsproject.org/materials/mp-861880,84.24802502682873
-3.1684229640000003,-15.84211482,4.1266667976578315,-1.2474132160689657,0.0,1.9699,8,mp-998176,RbPbBr3,https://materialsproject.org/materials/mp-998176,214.2255445748962
-4.7375659225,-18.95026369,8.61586690902584,-0.3771371425000005,7.165603900000001,0.0,225,mp-1187828,YbGdCd2,https://materialsproject.org/materials/mp-1187828,106.98692973156685
-3.5694510925,-14.27780437,9.790897302415834,-0.3476051541666667,0.0005038999999999999,0.0,225,mp-569440,TmInAg2,https://materialsproject.org/materials/mp-569440,84.71341403363314
-4.2706985875,-17.08279435,9.003663993642727,-0.4169786729166667,9.000000000000001e-07,0.0,123,mp-1225506,ErAgSn2,https://materialsproject.org/materials/mp-1225506,94.52869809931074
-5.163422225,-20.6536889,9.143025238263727,-0.12094250999999902,3.2443953,0.0,221,mp-21412,Ce3Tl,https://materialsproject.org/materials/mp-21412,113.46252319401383
-6.775749874444443,-60.98174887,4.717114162189816,-0.6783078305902777,0.0003897,0.3567999999999998,156,mp-1025778,Te2Mo2W(SeS)2,https://materialsproject.org/materials/mp-1025778,300.26620858615644
-7.790547947,-77.90547947,7.2710127371059965,-3.0466629810000008,2.0000006,2.702,216,mp-1218145,SrLaTaNiO6,https://materialsproject.org/materials/mp-1218145,128.38567214447275
-2.13262473,-8.53049892,4.4877564837712,1.4339473534913791,1.7260023000000002,0.0,225,mp-974843,Rb3Os,https://materialsproject.org/materials/mp-974843,165.26123909573244
-9.5911778375,-38.36471135,9.211270735435047,0.09082918999999913,0.014214700000000002,0.0,35,mp-1224216,HfZrNb2,https://materialsproject.org/materials/mp-1224216,82.11895953017871
-5.612638296923077,-72.96429786,6.322069056028187,-1.9535659200961548,0.0013341,0.0,123,mp-1267165,Ba2AlTlSn2O7,https://materialsproject.org/materials/mp-1267165,224.68634887958697
-10.7224534075,-42.88981363,11.433273989240622,-0.4424702024999991,3.37e-05,0.0,225,mp-1183039,ZrTaTc2,https://materialsproject.org/materials/mp-1183039,67.9960687465192
-7.421092984666668,-111.31639477,6.069513756067809,-0.9685828791666676,1.9399999999999997e-05,0.0,148,mp-1104502,Bi(Mo3S4)2,https://materialsproject.org/materials/mp-1104502,284.84230365123517
-6.383879927000001,-127.67759854,4.020677710463736,-1.564302595708334,0.0,1.9923,79,mp-23565,Cr4AgBiO14,https://materialsproject.org/materials/mp-23565,309.26440066964904
-4.391226815,-26.34736089,11.247743385463552,-0.3497513991666666,6.4e-06,0.0,216,mp-1024994,HoCu4Au,https://materialsproject.org/materials/mp-1024994,90.95392141543284
-3.877875465,-15.51150186,8.575459529709386,-0.3800523679166661,6e-06,0.0,123,mp-1216827,TmIn2Sn,https://materialsproject.org/materials/mp-1216827,100.16535910974181
-7.2139649466666675,-64.92568452,4.072379040190174,-1.0449665903819456,0.0023051,1.3675000000000002,156,mp-1025934,Mo2W(SeS2)2,https://materialsproject.org/materials/mp-1025934,269.8940299340783
-5.619802145,-67.43762574,6.548061852068738,-1.9681490017708343,0.0012408,0.0,123,mvc-2577,Ba2TlSn2O7,https://materialsproject.org/materials/mvc-2577,210.0894503500152
-5.543339425,-55.43339425,6.683657996564188,-1.6091949759166666,1.0,0.12639999999999985,1,mvc-7100,Zn2AgWO6,https://materialsproject.org/materials/mvc-7100,128.8257150298422
-7.787468534999999,-77.87468535,7.310790581898072,-3.1646779787500003,3.9999995999999998,0.014499999999999956,225,mp-504699,Ba2UFeO6,https://materialsproject.org/materials/mp-504699,150.93696740764432
-6.2898098025,-25.15923921,11.278777231671876,-0.8088316908333333,1.4e-06,0.0,225,mp-865211,TmInRh2,https://materialsproject.org/materials/mp-865211,72.07685780599593
-4.00277624,-16.01110496,6.763499923267911,-1.1758160732183909,0.0,0.9098000000000006,225,mp-867341,CsAcTe2,https://materialsproject.org/materials/mp-867341,151.01746554072264
-7.457197204166667,-89.48636645,5.539633364523614,-2.6888366831250003,0.0,3.0002,119,mp-1218963,SmV2BiO8,https://materialsproject.org/materials/mp-1218963,176.62188524245119
-6.615887771000001,-66.15887771,7.448968752867312,-2.8447510407500003,0.0,1.7331,225,mp-545659,Ba2DyBiO6,https://materialsproject.org/materials/mp-545659,165.43728495465513
-5.8512369725,-23.40494789,9.51394506419273,-0.4648160904166661,1.0800000000000002e-05,0.0,225,mp-862293,La2AgIr,https://materialsproject.org/materials/mp-862293,100.86447788593892
-7.2196363777777774,-194.9301822,3.5324497136910833,-3.3138548333333326,0.0,3.5419,217,mp-19259,Sr4Al6WO16,https://materialsproject.org/materials/mp-19259,447.6113717959334
-2.920613855,-29.20613855,3.5461400572894357,-1.4698435555249654,1.98e-05,0.0,225,mp-1113319,Rb2HgAsCl6,https://materialsproject.org/materials/mp-1113319,308.6650641898404
-3.045587,-12.182348,9.871064748101633,-0.28302205708333306,1.63e-05,0.0,225,mp-865873,TmCdAg2,https://materialsproject.org/materials/mp-865873,83.62050503516318
-7.46316111,-74.63161109999999,7.247764827253845,-3.00312441375,0.9999998999999999,0.1772999999999998,139,mp-9238,Ba2UCuO6,https://materialsproject.org/materials/mp-9238,154.01387842133508
-6.632818718333334,-39.79691231,7.735119723983495,0.19658643,2.2744966,0.0,160,mp-1224254,HfZr(CoSb)2,https://materialsproject.org/materials/mp-1224254,135.4816568003339
-6.142446452142857,-85.99425033,4.262693476732126,-1.2826667230357154,8.960066099999999,0.0,166,mp-1247030,LuMg2Mo3S8,https://materialsproject.org/materials/mp-1247030,299.14329166291407
-2.659248443,-26.59248443,5.270202273125797,-0.8925320439080459,3e-07,0.0,225,mp-1113575,Cs2AgAuBr6,https://materialsproject.org/materials/mp-1113575,330.8566912689359
-2.716924547,-27.16924547,4.8387761257562865,-1.0408753939080462,1e-07,0.0,225,mp-1113444,Cs2TlAgBr6,https://materialsproject.org/materials/mp-1113444,362.9011576774793
-3.749541348,-37.49541348,3.3216856163480637,-1.9761668238060004,0.0,2.1048,225,mp-1112063,K2SmAuCl6,https://materialsproject.org/materials/mp-1112063,319.06221734040344
-7.236332182222222,-65.12698964,4.095234859369161,-1.0673338259375014,0.0043872,1.41,156,mp-1025948,Mo2W(SeS2)2,https://materialsproject.org/materials/mp-1025948,268.38773069667343
-2.504811518,-12.52405759,4.63800331829488,-1.5126848311973793,4.6700000000000003e-05,0.0,160,mp-1228834,CsHgCl3,https://materialsproject.org/materials/mp-1228834,157.4805879108934
-7.237290291111113,-65.13561262,4.020441240037034,-1.06829193482639,0.0002072,1.4005999999999998,156,mp-1026023,Mo2W(SeS2)2,https://materialsproject.org/materials/mp-1026023,273.38063783413867
-7.4599037325,-29.83961493,13.281058795831658,0.12095340749999915,0.0261267,0.0,123,mp-1224702,Fe2PtRh,https://materialsproject.org/materials/mp-1224702,51.222482642061095
-3.2645016289999997,-32.64501629,3.2540425752886697,-1.6074054575249654,0.0,1.5623,225,mp-1114470,Rb2TlAsCl6,https://materialsproject.org/materials/mp-1114470,338.3079494748714
-7.029723214444443,-63.26750893,4.472463591759158,-0.8551513302777778,0.0022733000000000002,1.5301000000000002,156,mp-1025879,Mo2W(Se2S)2,https://materialsproject.org/materials/mp-1025879,280.5730491467293
-3.1558963280000003,-31.55896328,3.823670554602984,-1.4081329105249658,0.0,0.12569999999999992,225,mp-1113340,Rb2AsAuCl6,https://materialsproject.org/materials/mp-1113340,284.6878893540521
-7.175277602,-71.75277602,6.7895261046079005,-2.8533713447500006,0.0,2.0615,148,mp-1147642,Ba2NbBiO6,https://materialsproject.org/materials/mp-1147642,164.48485888927905
-7.213384315555555,-64.92045884,4.086238075868674,-1.0443859592708336,0.0001159,1.4469,187,mp-1025896,Mo2W(SeS2)2,https://materialsproject.org/materials/mp-1025896,268.9786473937511
-3.7686419125,-15.07456765,6.2172983261737285,-0.9172525525000004,0.0,0.234,225,mp-861950,Ca2SbAu,https://materialsproject.org/materials/mp-861950,106.53503233254459
-3.0295191580000003,-30.29519158,4.160375023992821,-1.2080219520747129,0.0,0.8533999999999999,225,mp-1112892,Cs2InBiBr6,https://materialsproject.org/materials/mp-1112892,426.6854612343098
-6.756203931111112,-60.80583538,4.710265086987831,-0.6587618872569444,0.007403399999999999,0.3168000000000002,156,mp-1025731,Te2Mo2W(SeS)2,https://materialsproject.org/materials/mp-1025731,300.7028179500121
-1.42973877,-5.71895508,0.4755504805850587,-0.013045214000000138,8.070000000000001e-05,0.12860000000000005,71,mp-1097108,K2HgTe,https://materialsproject.org/materials/mp-1097108,1419.030875129487
-7.6791951975,-30.71678079,11.194975151089082,-0.29082785499999986,8.7738049,0.0,225,mp-1185926,Mn2PdPt,https://materialsproject.org/materials/mp-1185926,61.019581598379716
-3.7538294760000004,-18.76914738,5.876131990119952,-0.4908152639999998,3e-06,0.0,65,mp-1068167,Sr2Ge2Pb,https://materialsproject.org/materials/mp-1068167,149.12865532329738
-3.056566864,-15.28283432,4.214402684197766,-1.6517884331973791,0.0041825000000000005,0.0,8,mp-1080231,CsTlCl3,https://materialsproject.org/materials/mp-1080231,174.80399174964407
-4.70177411,-18.80709644,10.726094319930922,-0.76447497875,1.6100000000000002e-05,0.0,225,mp-865982,TmCdPd2,https://materialsproject.org/materials/mp-865982,76.5063041326009
-6.5498100611111125,-58.94829055,4.989094166436481,-0.446794489375,0.0024555,0.6034999999999999,156,mp-1025885,Te2Mo2WSe4,https://materialsproject.org/materials/mp-1025885,315.11370382357666
-6.625382144,-66.25382144,6.6309398258056405,-2.4819305182500004,0.9588382,0.0,87,mp-510294,Sr2CuWO6,https://materialsproject.org/materials/mp-510294,129.87491439252554
-6.579438435,-65.79438435,6.672034180147773,-2.4844903882500007,0.0111617,3.2779,87,mp-20794,Sr2NiWO6,https://materialsproject.org/materials/mp-20794,127.86727217487015
-7.666780441,-76.66780441,6.8541407531003,-2.8611643140960004,6.0,2.0439,82,mp-39626,SrLaMnWO6,https://materialsproject.org/materials/mp-39626,135.98501337816666
-3.994407758,-39.94407758,3.827913474310064,-2.4769071463139998,5.3e-06,0.0,225,mp-1112195,K2HgSbF6,https://materialsproject.org/materials/mp-1112195,223.20483826004627
-2.891742502,-28.91742502,3.2166138500411354,-1.6118101728893333,1.8000000000000001e-06,0.0,225,mp-1112200,K2InHgCl6,https://materialsproject.org/materials/mp-1112200,313.0069057314505
-6.879042302,-68.79042302,6.595184050751678,-2.62192046925,3.0000006,1.6419000000000006,87,mp-18771,Sr2CoWO6,https://materialsproject.org/materials/mp-18771,129.4176163794562
-5.9896049575,-119.79209915,5.145970942517113,-1.91192616325,8.0000909,0.0,1,mp-754090,Li4Fe2TeWO12,https://materialsproject.org/materials/mp-754090,207.45135206272522
-7.295041900434782,-167.78596371,4.929140796321965,-3.12025624054348,0.0,3.8553,150,mp-16136,Sr3TaGa3(SiO7)2,https://materialsproject.org/materials/mp-16136,314.35793789082237
-6.57635389,-59.18718501,5.002734687881934,-0.4733383182638886,0.0040104,0.6566000000000001,156,mp-1025754,Te2Mo2WSe4,https://materialsproject.org/materials/mp-1025754,314.25451070162825
-6.576339465555557,-59.18705519,5.009983288396582,-0.4733238938194443,0.0006982000000000001,0.6247000000000003,156,mp-1025779,Te2Mo2WSe4,https://materialsproject.org/materials/mp-1025779,313.7998374468734
-6.9104838766666665,-41.46290326,4.379197031811292,-0.6138227390625003,0.0023714,1.2658,156,mp-1023928,MoWSe4,https://materialsproject.org/materials/mp-1023928,225.85196688346215
-6.8265392025,-27.30615681,9.622687784389516,0.1127601725000007,0.0003116,0.0,139,mp-1183827,Ce3Hf,https://materialsproject.org/materials/mp-1183827,103.33847464620888
-6.57666783,-59.19001047,5.0037372788300285,-0.4736522582638882,0.0008164,0.5657999999999999,156,mp-1025668,Te2Mo2WSe4,https://materialsproject.org/materials/mp-1025668,314.1915440208714
-3.402606968,-17.01303484,10.4637818361743,-0.2344943453333329,4.2999999999999995e-06,0.0,87,mp-568953,LuAg4,https://materialsproject.org/materials/mp-568953,96.23833706360709
-5.6428960525,-22.57158421,11.233475978878793,-0.6211989362499999,1e-07,0.0,225,mp-865206,TmCdRh2,https://materialsproject.org/materials/mp-865206,72.0117180830237
-2.08211979,-8.32847916,0.5406722842790929,1.8480359341666663,3.489899,0.0,71,mp-1096289,Sc2InHg,https://materialsproject.org/materials/mp-1096289,1244.8379748840675
-4.34603385,-17.384135399999998,7.517694104903369,-0.4158781258333337,0.0236491,0.0,225,mp-1186950,Sc2InHg,https://materialsproject.org/materials/mp-1186950,89.52870149357854
-4.350957116,-43.50957116,3.809128248199078,-2.6271306323140005,0.0,2.3838,225,mp-1111125,K2TlSbF6,https://materialsproject.org/materials/mp-1111125,225.9592417383679
-3.60767459125,-28.86139673,6.00371798568619,-0.5002580738802083,0.0,0.3011000000000004,23,mp-1216619,TlIn2GaSe4,https://materialsproject.org/materials/mp-1216619,226.68426613103867
-3.473476365,-13.89390546,8.627140710065866,-0.2017085487499997,2.8059011000000003,0.0,225,mp-985438,Ce2CdHg,https://materialsproject.org/materials/mp-985438,114.18459364722698
-4.80250186,-19.21000744,6.9632423564625885,0.023908994375000603,0.0023366999999999997,0.0,139,mp-1185170,La3Lu,https://materialsproject.org/materials/mp-1185170,141.09998637537797
-7.681277391,-76.81277391,7.762751188116279,-3.0533773550000007,2.0000001,0.0,225,mp-13931,Ba2TbReO6,https://materialsproject.org/materials/mp-13931,153.1139117730738