energy_per_atom,energy,density,formation_energy_per_atom,total_magnetization,band_gap,sgr,mp_id,formula,URL,cell_volume
-3.236371887,-32.36371887,2.9366996190624315,-1.7501136858893331,0.0,2.384,225,mp-1111577,K2TlInCl6,https://materialsproject.org/materials/mp-1111577,344.9863459982278
-4.145215127,-41.45215127,4.1995847782304585,-2.330721397314,0.0,0.6892,225,mp-1111960,K2SbAuF6,https://materialsproject.org/materials/mp-1111960,202.01805751616774
-3.1171945610000003,-31.17194561,3.4557509191286924,-1.5402691138893336,0.0,0.0,225,mp-1111983,K2InAuCl6,https://materialsproject.org/materials/mp-1111983,289.60579709616144
-2.29031408,-9.16125632,3.6118956367597312,1.5830495728663792,3.8802157,0.0,139,mp-974856,Rb3Re,https://materialsproject.org/materials/mp-974856,203.48645770102223
-3.805253457,-38.05253457,4.873146213509832,-2.3448299559898618,1.9999999,0.7552,225,mp-1111977,Cs2RbAuF6,https://materialsproject.org/materials/mp-1111977,225.65877814189187
-2.742226745,-10.96890698,5.816777653510108,-0.6628073737500002,0.0001493,0.13680000000000006,225,mp-866229,Ca2SnHg,https://materialsproject.org/materials/mp-866229,114.03431973404851
-4.090468403,-40.90468403,4.751917288394326,-2.720712147989862,0.0,3.7469,225,mp-989567,Cs2RbTlF6,https://materialsproject.org/materials/mp-989567,234.0074382897842
-5.654137305,-67.84964766,6.573677957115039,-1.982826032604168,0.0356663,0.0,123,mvc-2528,Ba2TlSb2O7,https://materialsproject.org/materials/mvc-2528,210.81166624584804
-2.7954187000000004,-11.181674800000001,8.344892740759676,-0.3493154825000002,1e-07,0.0,221,mp-20469,YbIn3,https://materialsproject.org/materials/mp-20469,102.9754385899431
-5.546127293333334,-33.27676376,11.734777383810865,-0.3853424041666672,0.0018859999999999999,0.0,216,mp-1077340,HoNi4Au,https://materialsproject.org/materials/mp-1077340,84.43233378822141
-2.44960584,-9.79842336,0.5746637753979711,1.9963645641666676,3.9999897000000004,0.0,71,mp-1095935,Sc2TlIn,https://materialsproject.org/materials/mp-1095935,1182.1665872498972
-7.636694369,-76.36694369,7.317454222206953,-3.071831035,1.9999999,0.0,225,mp-13940,Sr2TmReO6,https://materialsproject.org/materials/mp-13940,142.1429425592213
-2.91631189,-11.66524756,0.6338380574270485,1.7563266291666673,3.9999247,0.0,71,mp-1097073,Sc2InAu,https://materialsproject.org/materials/mp-1097073,1052.370609476151
-8.850764493157895,-168.16452537,5.691973392886684,-3.6860322134210537,0.0,3.4356,148,mp-19005,Y6WO12,https://materialsproject.org/materials/mp-19005,265.26386220563177
-3.8326849375,-15.33073975,8.298447200094358,-0.44342738875,7.699999999999999e-06,0.0,221,mp-2751,YbSn3,https://materialsproject.org/materials/mp-2751,105.8881767406809
-6.549804277777778,-58.9482385,4.989117886469195,-0.44678870604166654,0.0006818,0.7290999999999999,187,mp-1025774,Te2Mo2WSe4,https://materialsproject.org/materials/mp-1025774,315.11220566147006
-7.207364025,-43.24418415,3.939734326883698,-0.9190631792187508,0.0002833,0.4755000000000002,156,mp-1023930,MoW(SeS)2,https://materialsproject.org/materials/mp-1023930,211.51383248279606
-7.028307286666667,-84.33968744,4.251403645138248,-0.9768075553645836,0.0001639,0.3197000000000001,156,mp-1027916,Te2Mo3WS6,https://materialsproject.org/materials/mp-1027916,359.0462444716567
-1.41731173,-5.66924692,0.4255567104631319,1.1779223212500003,3.1110639,0.0,71,mp-1097503,Ca2TlSn,https://materialsproject.org/materials/mp-1097503,1573.494646045967
-3.1366375275,-12.54655011,5.751591177040268,-0.5414034762499997,2.2899999999999998e-05,0.0,225,mp-1183512,Ca2TlSn,https://materialsproject.org/materials/mp-1183512,116.42190567641308
-3.5425016780000003,-17.71250839,3.9321548176572,-1.8708186951973795,0.0,2.3955,221,mp-23037,CsPbCl3,https://materialsproject.org/materials/mp-23037,188.5408094877265
-3.53925167,-17.69625835,3.936451362704084,-1.86756868719738,2.3e-06,2.4163,155,mp-675022,CsPbCl3,https://materialsproject.org/materials/mp-675022,188.33502158219946
-1.9489621975,-7.79584879,0.5028199402733302,0.8729399687500001,1.0320671000000001,0.0,71,mp-1097367,Ca2SnAu,https://materialsproject.org/materials/mp-1097367,1307.2183131215745
-6.70411093,-26.81644372,9.974848357307154,-0.7303229537499991,0.0007263,0.0,225,mp-861916,La2IrPd,https://materialsproject.org/materials/mp-861916,95.96279307808851
-7.027285594166668,-84.32742713,4.416180224802794,-0.9757858628645836,0.0024316,0.3383000000000003,156,mp-1027706,Te2Mo3WS6,https://materialsproject.org/materials/mp-1027706,345.6495058663879
-6.989013124166667,-83.86815749,4.505607410271238,-0.9375133928645832,0.0057616,0.3142999999999998,156,mp-1027780,Te2Mo3WS6,https://materialsproject.org/materials/mp-1027780,338.78906294414753
-3.887915174,-19.43957587,5.684812999820082,-0.8741366415754307,7e-07,0.9935999999999998,71,mp-8622,Rb2PtSe2,https://materialsproject.org/materials/mp-8622,153.04323298400826
-7.0280929558333325,-84.33711547,4.431268752784118,-0.97659322453125,0.0041031999999999996,0.31510000000000016,156,mp-1030458,Te2Mo3WS6,https://materialsproject.org/materials/mp-1030458,344.47256478428386
-3.385191344,-33.85191344,3.1942512661447187,-1.9623250067318616,0.0,3.9760000000000004,225,mp-1112129,Cs2RbBiCl6,https://materialsproject.org/materials/mp-1112129,401.8339670051114
-7.732430653333334,-92.78916784,5.56559988653281,-2.499546619583333,6.000007800000001,0.0,119,mp-1225151,EuV2BiO8,https://materialsproject.org/materials/mp-1225151,176.27641458529058
-3.425226385,-13.70090554,5.270752516996457,1.0777201649999997,2.2860808999999995,0.0,225,mp-1187144,Sr3W,https://materialsproject.org/materials/mp-1187144,140.7318569361883
-8.487167815,-84.87167815,7.286585399090628,-3.3517911282499995,5.9999998,0.0,87,mp-21348,Ba2EuTaO6,https://materialsproject.org/materials/mp-21348,160.33472045180653
-3.41494612,-17.074730600000002,3.818322290203552,-0.6084510119999997,1.04e-05,0.0,221,mp-1013733,Ca3BiSb,https://materialsproject.org/materials/mp-1013733,196.12294099999997
-3.2560551,-16.280275500000002,3.7214152404776737,-0.4495599919999996,4.2999999999999995e-06,0.0,221,mp-1013704,Ca3BiSb,https://materialsproject.org/materials/mp-1013704,201.23005600000005
-2.321153925,-9.2846157,0.5029508669405844,-0.5872285876724137,2e-07,3.2011000000000003,71,mp-1097459,Rb2AuBr,https://materialsproject.org/materials/mp-1097459,1478.4736936643594
-4.96501006,-19.86004024,8.85913133961819,-0.8330025462500004,4.6e-06,0.0,225,mp-1184235,ErMgPd2,https://materialsproject.org/materials/mp-1184235,75.80073081534215
-6.9904913775,-83.88589653,4.313359893508956,-0.9389916461979162,0.0021455,0.2828999999999997,156,mp-1027612,Te2Mo3WS6,https://materialsproject.org/materials/mp-1027612,353.88897523183925
-5.021371985,-20.08548794,1.0781865496109675,3.2612346525000007,9.131959599999998,0.0,71,mp-1097084,Fe2IrRh,https://materialsproject.org/materials/mp-1097084,626.540962186687
-7.9751225,-31.90049,12.090457603767964,0.09393640749999843,0.22124899999999997,0.0,139,mp-1187652,TmRu3,https://materialsproject.org/materials/mp-1187652,64.8456757311338
-6.910903386666668,-41.46542032,7.200598730968244,-0.6142422490625007,0.0001751,1.3687000000000005,187,mp-1221402,MoWSe4,https://materialsproject.org/materials/mp-1221402,137.35666990456014
-8.219616495,-32.87846598,11.50128239986398,-0.2890501600000004,9.021939199999998,0.0,225,mp-865032,Mn2PtRh,https://materialsproject.org/materials/mp-865032,58.88706247884527
-4.27366778,-42.7366778,4.556479993855587,-2.7704592489898623,1.0,0.0,225,mp-989525,Cs2RbPbF6,https://materialsproject.org/materials/mp-989525,245.0710270739429
-6.264806860499999,-125.29613721,5.350764654584238,-2.011971242345999,6.000000099999999,1.1155,1,mp-753980,Li4Mn2TeWO12,https://materialsproject.org/materials/mp-753980,198.9484924212838
-3.6922615225,-14.76904609,0.6167714366615638,1.6761788141666667,3.0,0.0,71,mp-1097391,Sc2InPt,https://materialsproject.org/materials/mp-1097391,1076.4221947067713
-3.964344793,-39.64344793,4.449858086696207,-2.4135549992829657,2e-07,0.0,225,mp-1112408,Rb2HgAsF6,https://materialsproject.org/materials/mp-1112408,209.13667987493008