energy_per_atom,energy,density,formation_energy_per_atom,total_magnetization,band_gap,sgr,mp_id,formula,URL,cell_volume
-1.203800048333333,-14.44560058,6.172567313907229,-0.059198825000000024,5.35e-06,0.0,8,mp-1038797,MgCd2,https://materialsproject.org/materials/mp-1038797,268.0797719198741
-3.3834602258333333,-40.60152271,6.897449160096487,-0.3051696947222222,2.5e-06,0.0,63,mp-20479,SrIn4Ni,https://materialsproject.org/materials/mp-20479,291.5855341338822
-1.2232590141666666,-14.67910817,6.22394108499146,-0.07865779083333324,1.7100000000000002e-05,0.0,63,mp-1094804,MgCd2,https://materialsproject.org/materials/mp-1094804,265.86698284509714
-7.480842651538461,-194.50190894,4.816210438140871,-1.4958727417307698,2.29951155,0.0,194,mp-5306,Nb4CrS8,https://materialsproject.org/materials/mp-5306,469.000151569295
-5.668047803589745,-442.10772868,3.0295405318384696,-2.1362826861841016,0.0,4.4456,14,mp-555952,Sb4RuC6(O3F11)2,https://materialsproject.org/materials/mp-555952,1287.124411347482
-1.2014282066666666,-14.41713848,6.192289934082043,-0.056826983333333324,1.06e-05,0.0,12,mp-1039204,MgCd2,https://materialsproject.org/materials/mp-1039204,267.22593019501784
-5.7379594475,-68.85551337,8.219911956661386,0.1472068025000001,0.524421425,0.0,70,mp-609,CrSn2,https://materialsproject.org/materials/mp-609,233.86466200046252
-3.932931789,-39.32931789,6.090138540051983,-0.2609821973593746,0.0,0.2982000000000005,160,mp-1219030,Sn4GeTe4Se,https://materialsproject.org/materials/mp-1219030,309.97114266262423
-5.676631319166668,-68.11957583,7.220210445419929,-0.3320076463888893,0.0,0.0,70,mp-7126,TiSnSb,https://materialsproject.org/materials/mp-7126,265.25257057026573
-8.680335260285714,-303.81173411,4.391344188160163,-2.92815028725,0.0002174,2.2135,5,mp-1220584,Nb9AsO25,https://materialsproject.org/materials/mp-1220584,495.7645986891923
-7.290583037999999,-109.35874557,5.4844522843574515,-0.9674136347708326,5.2000000000000004e-05,0.0,148,mp-1222346,LiMo6(SeS3)2,https://materialsproject.org/materials/mp-1222346,282.4533508994016
-6.06436837,-121.28736740000001,7.534101702517503,-0.5738936033333332,2.65e-06,0.0,127,mp-1210641,Mg3B2Rh5,https://materialsproject.org/materials/mp-1210641,268.47935429120395
-7.885182736153847,-102.50737557,8.450327323956985,-0.7376872714285707,0.0,0.0,87,mp-10388,Nb5(PPd)4,https://materialsproject.org/materials/mp-10388,199.27798218125233
-9.270653962,-278.11961886,5.650888707127045,-3.642213735166668,1.0000001,1.7153999999999998,1,mp-759463,Zr9VO20,https://materialsproject.org/materials/mp-759463,350.25854142305286
-6.6697725381395365,-286.80021914,3.530165662506113,-1.93868208922093,5.0,0.4042999999999999,2,mp-698648,K3(MoO3)10,https://materialsproject.org/materials/mp-698648,732.2383741280581
-6.813756742692307,-177.15767531,6.0286969570834135,-1.401145948942308,15.3349076,0.0,74,mp-30154,Fe2Mo4O7,https://materialsproject.org/materials/mp-30154,334.6286843623397
-3.769038805,-37.69038805,4.858152997036388,-0.5161176954827589,4.4e-06,0.9630999999999998,63,mp-8857,Cs2As2Pd,https://materialsproject.org/materials/mp-8857,356.8946600330458
-5.5673100134375,-178.15392043,5.985660179772648,-0.5168448175749996,0.752483225,0.0,130,mp-643923,Zr2CoH5,https://materialsproject.org/materials/mp-643923,273.447876511281
-5.633764133421053,-214.08303707,4.85682828958392,-1.7761436636315782,5e-08,2.6652,15,mp-541918,Na2Te4MoO12,https://materialsproject.org/materials/mp-541918,577.3371083097057
-3.3830767008333336,-40.59692041,7.262065305781527,-0.25174593055555583,4.885e-05,0.0,63,mp-672194,CaIn4Ni,https://materialsproject.org/materials/mp-672194,255.2036680189595
-3.107627338,-31.07627338,3.625554649274201,-1.5736659706,5e-07,3.655,63,mp-1205722,KCaI3,https://materialsproject.org/materials/mp-1205722,421.267856327669
-5.250434025,-63.0052083,6.533092383843473,-0.4666567099999994,0.0,0.02890000000000015,141,mp-2398,ScSn2,https://materialsproject.org/materials/mp-2398,287.0899098204693
-4.772739392608696,-109.77300603,6.164472625537916,-0.8968005290708695,0.0,0.07610000000000006,1,mp-1229182,Ag9Ge2NO11,https://materialsproject.org/materials/mp-1229182,351.82570231084503
-8.858648025,-194.89025655,6.321397745770417,-2.722729735227273,0.00046765,0.0,123,mp-617266,SrNb4O6,https://materialsproject.org/materials/mp-617266,291.70791710471246
-4.9020164883333335,-58.82419786,5.871313557505678,-0.7259988966666668,4.75e-07,0.0,198,mp-1102609,BaSiPd,https://materialsproject.org/materials/mp-1102609,307.52128917643034
-2.043661773,-20.43661773,0.3343138711044224,1.1031239990000001,5.9126273000000005,0.16339999999999932,65,mp-1215084,Ag3SbTe6,https://materialsproject.org/materials/mp-1215084,6014.868565623759
-2.574290387,-25.74290387,5.388186326580652,0.13846796514285697,5e-08,0.0,224,mp-21185,Cd3P2,https://materialsproject.org/materials/mp-21185,246.04006021087437
-3.136426307,-31.36426307,3.90247807393608,-1.1266242182666666,0.9999998999999999,0.21370000000000025,225,mp-1112097,K2CeAgI6,https://materialsproject.org/materials/mp-1112097,462.78669066035746
-3.812782799090909,-41.94061079,5.9913343610374765,-0.08756263227272723,0.000535,0.11219999999999963,160,mp-1212511,Ge3(SbTe3)2,https://materialsproject.org/materials/mp-1212511,340.0824759325854
-6.083747342000001,-60.83747342,7.452385558184817,-0.8751652346666667,7.55e-06,0.0,127,mp-1079112,Y2InPd2,https://materialsproject.org/materials/mp-1079112,225.2573122616403
-4.8414017860000005,-48.41401786,7.526680047967687,-0.7823958459999999,0.0,0.0,129,mp-8468,Sr(SbPd)2,https://materialsproject.org/materials/mp-8468,240.02615262571285
-3.287930869166667,-39.45517043,4.794440514375089,-0.2448877985000001,7.5e-08,0.0,194,mp-1103373,KSn2,https://materialsproject.org/materials/mp-1103373,383.0848926357201
-3.9503599937878784,-260.72375959,2.4685997777247137,1.5518739121078786,23.984947299999998,0.0,137,mp-1180013,Pd5(N9Cl5)2,https://materialsproject.org/materials/mp-1180013,1531.993841355917
-7.20597831625,-115.29565306,9.32180031523709,-0.12034699250000006,1.194648025,0.0,51,mp-1205387,NbCo2Sn,https://materialsproject.org/materials/mp-1205387,234.769672848726
-3.154740626,-31.54740626,4.191325686196652,-1.163698907735632,1.0000002000000001,0.21369999999999975,225,mp-1113746,Rb2CeAgI6,https://materialsproject.org/materials/mp-1113746,467.63525194355014
-5.422825805,-65.07390966,8.094079875246349,-0.07478256750000037,1.2104881,0.0,10,mp-1224765,Fe3NiSb8,https://materialsproject.org/materials/mp-1224765,246.24898554998168
-6.6177550759183665,-324.26999872,3.8518454716516315,-2.1113154623622448,0.0,3.0432,2,mp-648992,Na6Mo10O33,https://materialsproject.org/materials/mp-648992,700.678510014562
-8.1327308655,-162.65461731,8.97789633067117,-0.5062399091666663,2.068852,0.0,10,mp-1217491,Ti2FeB2RuRh4,https://materialsproject.org/materials/mp-1217491,253.72360335053546
-4.801056055909091,-211.24646646,2.8068972177362537,-1.0334251236612693,0.0,1.7674,2,mp-1213630,In2H5(SeO4)3,https://materialsproject.org/materials/mp-1213630,785.1004890532287
-7.582503152941178,-257.80510719999995,4.7613020860061015,-3.018122723970588,4.9999998,1.2555,12,mp-772076,Sr4Li4Nb5FeO20,https://materialsproject.org/materials/mp-772076,424.998795789254
-6.452195948333332,-77.42635138,6.845944880863584,-1.1282851873809523,0.000102075,0.0,194,mp-1102807,PrNiP,https://materialsproject.org/materials/mp-1102807,223.71110701572698
-6.831154302093021,-293.73963499,3.9623087201733496,-2.1000638531744182,0.004555699999999999,0.0,12,mp-541614,K3(MoO3)10,https://materialsproject.org/materials/mp-541614,652.37793106719
-6.1201016355882345,-208.08345561,3.1323240036270725,-2.456483091897626,0.0,2.3515,15,mp-558393,Rb2Nb3Cl7O5,https://materialsproject.org/materials/mp-558393,824.694395901673
-3.2238831541666664,-38.68659785,5.595377021935041,-0.01617320416666601,0.00011725,0.0,12,mp-1094206,MgSn2,https://materialsproject.org/materials/mp-1094206,310.68832612369783
-6.825351226166665,-409.52107357,3.55870541293958,-2.455866935816668,2.5e-07,3.5436999999999994,2,mp-542563,NaMg3Al(MoO4)5,https://materialsproject.org/materials/mp-542563,860.9707619885702
-5.825739075,-81.56034705,8.526912147349611,-0.3255790762500003,3.3869394999999995,0.0,71,mp-1209874,Nd3Co6Sn5,https://materialsproject.org/materials/mp-1209874,268.7182124684894
-6.6469495015384625,-345.64137408,3.926479169058256,-2.180116264951923,0.0,3.0647,2,mp-541578,Li4Mo5O17,https://materialsproject.org/materials/mp-541578,659.2743315568313
-3.01623137,-30.1623137,4.3407608304348395,-1.1539651996666662,5e-06,2.9146,63,mp-1206105,CaInI3,https://materialsproject.org/materials/mp-1206105,409.7900668751057
-6.481263307000001,-64.81263307,5.6211123127757965,0.6113196259999996,0.0007004,0.0,227,mp-1207459,Zr4Zn,https://materialsproject.org/materials/mp-1207459,254.23375725234322
-8.852002691666666,-159.33604845,6.8637591718308375,-0.6830944762962964,3.75e-06,0.0,193,mp-1106165,Nb5Si3B,https://materialsproject.org/materials/mp-1106165,270.7660997997142
-6.972477097105262,-264.95412969,4.5588494265117845,-2.0929798808815794,5.00000035,0.024999999999999908,63,mp-505783,KMo5O13,https://materialsproject.org/materials/mp-505783,529.459908077971
-2.9431744833333333,-26.48857035,9.02264633492101,-0.04716921777777748,2e-07,0.0,189,mp-578,GaAg2,https://materialsproject.org/materials/mp-578,157.60890777698617
-6.582337894999998,-157.97610948,5.069343299928453,-2.3618072426041667,4.00000005,0.0,5,mvc-303,Sr2GaMo2O7,https://materialsproject.org/materials/mvc-303,359.5606768551716
-6.595832890555554,-237.44998406,4.217355604742949,-3.876463578539981,0.0,5.3348,166,mp-17085,Rb2Zr3OF12,https://materialsproject.org/materials/mp-17085,542.2483163840789
-3.221863523333333,-38.66236228,5.600817089311499,-0.014153573333333112,0.000234425,0.0,63,mp-1094235,MgSn2,https://materialsproject.org/materials/mp-1094235,310.38655489992107
-5.20719914625,-166.63037268,3.506808744148075,-1.7533585278878014,0.0,0.4472999999999998,51,mp-30107,RbNb4Cl11,https://materialsproject.org/materials/mp-30107,802.2127249264888
-3.2218098808333333,-38.66171857,5.615282163912898,-0.014099930833332644,3.570000000000001e-05,0.0,38,mp-1094234,MgSn2,https://materialsproject.org/materials/mp-1094234,309.58699317873936
-8.007399155595238,-672.62152907,3.1875750881337885,-2.8829536312499986,0.0,2.5661,15,mp-654301,Nb5P7O30,https://materialsproject.org/materials/mp-654301,1209.9694209985587
-7.794700755499999,-155.89401511,7.882441515060557,-0.8857653603333333,1.0199999999999999e-05,0.0,127,mp-542020,Sc3B2Rh5,https://materialsproject.org/materials/mp-542020,282.7170527715189
-7.2903594086363634,-160.38790699,7.881271908169995,-0.35828014560606203,2.5e-07,0.0,55,mp-541066,Mg2B4Ru5,https://materialsproject.org/materials/mp-541066,251.65495326107197
-3.4731631577777784,-31.25846842,5.877557964546138,-0.5263745533333329,5.923333333333333e-05,0.0,156,mp-1206764,CaAgSn,https://materialsproject.org/materials/mp-1206764,226.0086755565874
-3.5248806100000003,-35.248806099999996,4.366868798781903,-0.7302077473333337,0.0,1.0878,15,mp-541013,TiI4,https://materialsproject.org/materials/mp-541013,422.45570997095723
-4.1898239475,-67.03718316,4.6949154785407,-1.4413693651346982,4.0000002,1.4146999999999998,2,mp-1205381,Cs4FeO3,https://materialsproject.org/materials/mp-1205381,449.5137169121879
-5.765605571,-57.65605571,6.307676942334943,-0.7213055516666664,0.3600893,0.0,148,mp-1217180,Ti2Te3,https://materialsproject.org/materials/mp-1217180,251.95468830501318
-1.953553844444444,-17.581984600000002,4.880978005730212,0.4837446205555559,1.75e-05,0.0,225,mp-1096932,Cu2GeI6,https://materialsproject.org/materials/mp-1096932,326.99220164003975
-3.2133947858333336,-38.56073743,5.594211755774574,-0.005684835833333087,6.195e-05,0.0,63,mp-1094243,MgSn2,https://materialsproject.org/materials/mp-1094243,310.75304204949566
-3.2439690366666665,-38.92762844,5.6429849212217045,-0.036259086666666114,2.7899999999999997e-05,0.0,12,mp-1094252,MgSn2,https://materialsproject.org/materials/mp-1094252,308.0671568761931
-3.26899449,-29.42095041,6.3384051083072865,-0.22840592913194435,5.666666666666667e-07,0.5655999999999999,1,mp-32868,Ag2S,https://materialsproject.org/materials/mp-32868,194.75746272229614
-7.8479938012,-392.39969006,4.3845571107601815,-2.90792232245,0.0,2.9655,1,mp-674361,LiNbO3,https://materialsproject.org/materials/mp-674361,559.9273798463046
-2.8150040666666665,-25.335036600000002,5.529340401188928,-0.5061952016666665,3.3333333333333334e-08,0.0,189,mp-568695,CaCdSn,https://materialsproject.org/materials/mp-568695,244.33467345153562
-5.198320822258065,-161.14794549,5.350037273556271,-0.4690250500000009,4.2000000000000004e-06,0.0,216,mp-634984,Mg5(Si8Pd5)2,https://materialsproject.org/materials/mp-634984,507.4984755621932
-4.477550798999999,-44.77550799,7.765254451263506,-0.2344044529999998,0.0,0.0,68,mp-2128,Sn4Pd,https://materialsproject.org/materials/mp-2128,248.59582604748994
-2.4667575976923075,-64.13569754,4.4436481942117165,-0.2046692079487176,4.84e-05,0.0,217,mp-1211140,Li8Ag5,https://materialsproject.org/materials/mp-1211140,444.59109047942616
-4.802395157,-48.02395157,9.247079423816901,-0.3185210290000008,0.0,0.0,72,mp-12463,Ni(TePd)2,https://materialsproject.org/materials/mp-12463,189.17570278874138
-3.238675559166667,-38.86410671,5.611521136682588,-0.03096560916666628,4.665e-05,0.0,12,mp-1094239,MgSn2,https://materialsproject.org/materials/mp-1094239,309.7944886301748
-7.9272684275,-158.54536855,8.315667798643936,-0.6879163518333329,2.7620066000000003,0.0,127,mp-542021,Sc2CrB2Rh5,https://materialsproject.org/materials/mp-542021,270.79985665070546
-3.230526345,-38.76631614,5.575541927039671,-0.022816394999999545,1.4475e-05,0.0,8,mp-1094212,MgSn2,https://materialsproject.org/materials/mp-1094212,311.79360566642015
-3.0256876325,-36.30825159,4.707989989145041,-0.639863810833333,1.8000000000000001e-06,2.3788,62,mp-1208879,SnIBr,https://materialsproject.org/materials/mp-1208879,459.25002297995854
-4.5165144744444445,-40.64863027,4.714487065988043,-0.3976747166666665,13.999773199999998,0.0,12,mp-1221924,Mn2CrI6,https://materialsproject.org/materials/mp-1221924,325.2048484254424
-3.681410512,-36.81410512,4.415889178412574,-1.1218730270000001,0.23744725,0.0,188,mp-28835,LiScI3,https://materialsproject.org/materials/mp-28835,325.355234139372
-7.651009523529412,-130.0671619,8.275528284047908,-0.6434583976470587,1.2e-06,0.0,191,mp-1216181,Y2(B2Rh3)3,https://materialsproject.org/materials/mp-1216181,234.53284551696566
-4.5045435907142855,-126.12722054,4.5659487237855965,-1.2548548539952793,0.0,2.8981000000000003,2,mp-1192770,Rb3In(IO3)6,https://materialsproject.org/materials/mp-1192770,516.6558015217976
-6.0914134820588215,-414.21611678,4.182842586101117,-2.226665089375,6.00000005,1.3086999999999995,2,mp-1199885,Li12Mo5O17,https://materialsproject.org/materials/mp-1199885,662.9558000564709
-5.319511967777777,-287.25364626,4.244948003423684,-0.2539569581481479,0.0002395,0.0,43,mp-568153,Al22Mo5,https://materialsproject.org/materials/mp-568153,839.702317461149
-7.529241482777778,-135.52634669,5.384140355464457,-0.5061978248611121,0.0173573,0.0,193,mp-972176,Zr5Al3C,https://materialsproject.org/materials/mp-972176,338.68396348949807
-8.655870211666667,-155.80566381,6.744541671376448,-0.6279322457936508,0.00018745,0.0,193,mp-1190041,Nb5Si3P,https://materialsproject.org/materials/mp-1190041,285.48054139884346
-3.040179834,-30.40179834,3.887335611645483,-1.1454419227666666,0.0,2.5488,225,mp-1112088,K2PrAgI6,https://materialsproject.org/materials/mp-1112088,464.92756466104805
-2.9037810520000003,-29.03781052,6.5674745067398685,-0.20988135281249995,5e-07,0.4249000000000001,1,mp-673825,Ag3SI,https://materialsproject.org/materials/mp-673825,244.03081644377144
-2.901328135,-29.01328135,6.481741852745043,-0.20742843581249987,0.0,0.31300000000000017,42,mp-1173025,Ag3SI,https://materialsproject.org/materials/mp-1173025,247.25856139652493
-6.467133229444443,-116.40839813,8.282591167195772,-0.5430816561111114,3.247321633333333,0.0,6,mp-1221623,MnSi2Pd3,https://materialsproject.org/materials/mp-1221623,258.84819849389226
-3.3675636941666665,-40.41076433,5.108966225096637,-0.32226207036458315,6.7025e-05,1.3869999999999998,62,mp-22996,SbSeI,https://materialsproject.org/materials/mp-22996,425.94387899600434
-5.045404947,-50.45404947,9.389033068588397,-0.2951832469999999,0.0,0.0,72,mp-12465,Co(TePd)2,https://materialsproject.org/materials/mp-12465,186.40035814946697
-3.647563705000001,-72.95127409999999,5.785958047815921,-0.1796068446250004,0.25451485,0.0,216,mp-1229225,Ag5BS4,https://materialsproject.org/materials/mp-1229225,389.4012372349369
-6.847263944482759,-198.57065439,5.1948586176806035,-2.0313448900262068,0.0005831,0.0,197,mp-1193929,Sr4Ru6ClO18,https://materialsproject.org/materials/mp-1193929,409.2619961635701
-2.9478612009090908,-64.85294642,4.0844270539039655,-1.0443113943427271,0.0,1.7229,72,mp-1013730,Cd5(S2Cl)2,https://materialsproject.org/materials/mp-1013730,618.9544687104408
-6.504765873653847,-338.24782543,2.4497311816165883,-1.1080096312796144,8.0000002,0.1541,2,mp-1180972,Mo5N4O17,https://materialsproject.org/materials/mp-1180972,1095.0139816328501
-4.897136925476191,-205.67975087,4.141107277428027,-1.3353244806428577,0.0,3.0293,15,mp-542671,K2Mo(I2O7)2,https://materialsproject.org/materials/mp-542671,726.3886808076554
-5.534385123333332,-49.80946611,10.188401557305868,-0.5413750883333337,0.0,0.0,189,mp-423,GePd2,https://materialsproject.org/materials/mp-423,139.5853949629427
-7.702278913400002,-385.11394567,4.305076956950737,-2.8533388145700007,0.0,2.8442000000000003,146,mp-1221192,Na4LiNb5O15,https://materialsproject.org/materials/mp-1221192,619.7869317930769
-9.448262462999999,-283.44787389,6.010889762930544,-3.7814783488333332,0.0,3.3126,85,mp-775910,ZrO2,https://materialsproject.org/materials/mp-775910,340.40928729052837
-9.322747051666664,-279.68241155,5.80552133147603,-3.7253008645,1.6899999999999997e-05,0.0,1,mp-675470,YZr9O20,https://materialsproject.org/materials/mp-675470,351.7881004988563
-3.058744999,-30.58744999,4.187294161981703,-1.182767458235632,0.0,2.5438,225,mp-1113721,Rb2PrAgI6,https://materialsproject.org/materials/mp-1113721,468.39943244991207
-8.986297414375,-143.78075863,7.006024474533652,-0.6310914962500007,2.285e-05,0.0,140,mp-567996,Nb5Si3,https://materialsproject.org/materials/mp-567996,260.1431285921377
-2.912885821,-29.12885821,6.480033997512647,-0.21898612181249996,7.5e-07,0.2642000000000002,4,mp-675879,Ag3SI,https://materialsproject.org/materials/mp-675879,247.32372800336645
-3.282065325555555,-29.53858793,3.835461882275111,-1.6372877266666663,3e-07,3.7364,162,mp-754517,SrCa2I6,https://materialsproject.org/materials/mp-754517,402.29250245418484
-5.372898003333334,-48.35608203,9.899234498190818,-0.3715227883333346,6.666666666666666e-07,0.0,189,mp-1080831,AsPd2,https://materialsproject.org/materials/mp-1080831,144.81100667941354
-3.762791621818181,-41.39070784,6.045086403084452,-0.037571454999999664,1.6100000000000002e-05,0.026400000000000645,12,mp-1224415,Ge3(SbTe3)2,https://materialsproject.org/materials/mp-1224415,337.05851128975735
-5.733686504047619,-240.81483317,5.404942465564645,-2.1267125847704085,0.99999965,0.16979999999999995,176,mp-1226956,Cd5P3O13,https://materialsproject.org/materials/mp-1226956,530.2527715780194
-6.956836297592592,-375.66916007,4.154256370464895,-2.495994789018519,1.0,0.2511999999999999,2,mp-762344,Na8Nb5O14,https://materialsproject.org/materials/mp-762344,697.4646231694062
-5.8935931560989,-1072.63395441,1.985727382015033,-1.1038091179328569,0.0,3.5784,2,mp-1198193,Nb5H50C12(NO7)3,https://materialsproject.org/materials/mp-1198193,1734.4642603077668
-3.3226296525,-39.87155583,4.240256592081152,-0.6772010191666663,1.625e-06,0.24659999999999996,62,mp-11265,BaCaSn,https://materialsproject.org/materials/mp-11265,463.8497762120236
-6.0855017349999985,-60.85501735,4.47992845823691,0.2440568810000002,0.16774895,0.0,227,mp-1207883,Y4Ni,https://materialsproject.org/materials/mp-1207883,307.14295004551576