energy_per_atom,energy,density,formation_energy_per_atom,total_magnetization,band_gap,sgr,mp_id,formula,URL,cell_volume
-3.39172542,-13.56690168,7.158556448616582,-0.02340186679687539,0.00024730000000000005,0.0,25,mp-37710,TlSbSe2,https://materialsproject.org/materials/mp-37710,112.28604722905698
-1.927581045,-7.71032418,4.654772732269472,-0.2814772709051723,0.0,0.1863999999999999,225,mp-635413,Cs3Bi,https://materialsproject.org/materials/mp-635413,216.78914210473073
-4.018575984,-40.18575984,4.7489311373333765,-2.54406422595538,1.7e-06,0.0,225,mp-1112957,Cs2HgSbF6,https://materialsproject.org/materials/mp-1112957,245.518338782199
-6.4259240704166665,-154.22217769,4.6972162688909265,-2.6361086490104166,0.0,4.6123,6,mp-1228136,Ba3Pb(SO4)4,https://materialsproject.org/materials/mp-1228136,354.7286133485345
-5.07649059,-20.30596236,0.7888676568971956,1.5081431900000009,0.08666710000000001,0.0,71,mp-1096696,Y2PtRh,https://materialsproject.org/materials/mp-1096696,1001.545013249049
-3.764917471,-37.64917471,5.372436230829097,-2.161097656782965,1.8868082,0.0,225,mp-1113884,Rb2HgPdF6,https://materialsproject.org/materials/mp-1113884,182.9584990554833
-4.2550801525,-17.02032061,0.6592043800463799,1.7407143850000004,0.0570766,0.0,71,mp-1096146,Y2RhPb,https://materialsproject.org/materials/mp-1096146,1229.0658002461753
-3.13788285,-31.378828499999997,4.345669836151108,-1.6039462565307132,0.0,0.0,225,mp-1112620,Cs2InAuCl6,https://materialsproject.org/materials/mp-1112620,301.9894342881562
-3.285456789,-32.85456789,3.7151480481270873,-1.842187441530713,0.0,2.5104,225,mp-1112490,Cs2TlInCl6,https://materialsproject.org/materials/mp-1112490,356.55702804760534
-5.6662039875,-22.66481595,0.9931406109619688,2.6602481950000003,0.7572236,0.0,71,mp-1096183,Zr2IrRh,https://materialsproject.org/materials/mp-1096183,798.5016933646347
-4.17345419,-41.734541899999996,5.401763993732308,-2.40194931395538,0.0,0.8003000000000002,225,mp-1113525,Cs2SbAuF6,https://materialsproject.org/materials/mp-1113525,214.73223127496476
-4.3987885780000004,-43.98788578,4.92634399006303,-2.7179509479553787,0.0,2.486800000000001,225,mp-1112563,Cs2TlSbF6,https://materialsproject.org/materials/mp-1112563,237.95508574596784
-4.130659165,-41.30659165,5.072053145272141,-2.3205134787829658,1.0,0.0,225,mp-1114481,Rb2TlPdF6,https://materialsproject.org/materials/mp-1114481,195.03577022380435
-4.4380063625,-17.75202545,0.6945280804359196,2.3070268370833333,0.00010979999999999999,0.0,71,mp-1097683,Y2AgOs,https://materialsproject.org/materials/mp-1097683,1137.8473970073117
-5.03721482,-20.14885928,1.0352396816753864,2.3577855875000004,2e-07,0.1431,71,mp-1097419,TaGaRh2,https://materialsproject.org/materials/mp-1097419,732.2033691423725
-3.957904992000001,-39.57904992,5.559907564482239,-2.0570920597829656,0.6418193,0.0,225,mp-1113467,Rb2PdAuF6,https://materialsproject.org/materials/mp-1113467,175.7072413703909
-6.259540412000001,-31.29770206,8.934268505299913,-0.7278090044999999,0.0,0.0,107,mp-20910,LaGe3Ir,https://materialsproject.org/materials/mp-20910,102.04601031547168
-3.7309382375,-14.92375295,0.6673637393692017,1.8951812299999995,8e-07,0.18590000000000015,71,mp-1096014,Y2HgRu,https://materialsproject.org/materials/mp-1096014,1193.0247771293746
-5.693246100769231,-74.01219931,7.0751898991121935,-2.088403009903847,0.0008136000000000002,0.0,123,mp-1214663,Ba2LaCu2HgO7,https://materialsproject.org/materials/mp-1214663,200.2538189675739
-5.817335203125,-93.07736325,5.6483840974384885,-1.5202818403125002,0.0,1.6396000000000002,3,mp-756661,Te3WO12,https://materialsproject.org/materials/mp-756661,223.02650805843683
-5.40215318,-21.60861272,0.9133997429962396,2.9703160187499984,2.0000005,0.0,71,mp-1097315,Zr2OsPd,https://materialsproject.org/materials/mp-1097315,870.9887856725562
-6.381329892,-31.90664946,9.201009740485206,-0.6480521450000005,0.6371892,0.0,107,mp-13122,CeGe3Ir,https://materialsproject.org/materials/mp-13122,99.30612119196994
-4.769197052,-23.84598526,8.946886196836957,-0.7541117754999995,9.000000000000001e-07,0.0,119,mp-1222794,LaGa3Pt,https://materialsproject.org/materials/mp-1222794,100.81002758932321
-4.410576637,-44.10576637,4.4996575665635135,-2.899805047076069,0.0,4.5375000000000005,225,mp-1112606,Cs3BiF6,https://materialsproject.org/materials/mp-1112606,266.3290952391282
-5.971066685384615,-77.62386691,7.058400300560836,-2.2075113852884627,0.0003584,0.0,25,mp-1228434,Ba2LaTlCu2O7,https://materialsproject.org/materials/mp-1228434,201.6225574292486
-4.55904122,-18.23616488,0.7249238831929642,1.8095610424999995,0.0002904,0.0,71,mp-1093857,Y2RuAu,https://materialsproject.org/materials/mp-1093857,1089.996682562866
-3.979693915,-15.91877566,7.97254814141483,-0.20882765312500015,0.007966299999999999,0.0,139,mp-1185066,La3Hg,https://materialsproject.org/materials/mp-1185066,128.5738731538517
-6.9465775325,-27.78631013,9.10678601146898,-0.5779752700000005,1.0300000000000001e-05,0.0,225,mp-1187757,Y2RuAu,https://materialsproject.org/materials/mp-1187757,86.76657459566937
-4.4700622625,-17.88024905,10.072596949972056,-0.3524226449999999,6e-07,0.0,164,mp-1218970,Sn2PdAu,https://materialsproject.org/materials/mp-1218970,89.1557981892093
-4.031458465,-16.12583386,0.8859605269144204,1.8038366250000009,1.0,0.0,71,mp-1093556,HfGaPd2,https://materialsproject.org/materials/mp-1093556,864.1429078962485
-5.384571404,-26.92285702,8.267881289642563,-0.4532395709999996,2.6e-06,0.0,107,mp-1069708,BaGe3Ir,https://materialsproject.org/materials/mp-1069708,109.95384587021103
-4.416528794,-44.16528794,5.483062887441768,-2.1916421734496323,0.0,1.2574,225,mp-1113749,Rb2AgIrF6,https://materialsproject.org/materials/mp-1113749,177.16994830472194
-4.5173337375,-18.06933495,0.4947984114827808,2.9377837500000004,1.9999866999999998,0.0,71,mp-1093986,Zr2TlTc,https://materialsproject.org/materials/mp-1093986,1627.0895030793142
-3.032058785,-12.12823514,7.3966804899431535,-0.30679964874999976,0.000842,0.0,123,mp-1226705,CdTe2Pb,https://materialsproject.org/materials/mp-1226705,129.04384709049063
-4.8835503325,-19.53420133,0.8387557193337718,2.79823527,2.0000038,0.0,71,mp-1097650,Zr2TcAu,https://materialsproject.org/materials/mp-1097650,945.1685536272366
-4.301583141,-43.01583141,4.763145792739491,-2.573254715949632,0.0,2.5525,225,mp-1113798,Rb2AgBiF6,https://materialsproject.org/materials/mp-1113798,209.79207690554654
-4.51062829,-18.04251316,7.8805370824281065,-0.22394734812499986,0.5258464,0.0,139,mp-1185103,La3Tl,https://materialsproject.org/materials/mp-1185103,130.87436876445753
-5.84257030375,-93.48112486,6.367604796194649,-1.5455169409374996,0.0,1.5961000000000003,2,mp-773515,Te3WO12,https://materialsproject.org/materials/mp-773515,197.83567318394915
-6.404291206428572,-89.66007689,7.325840740063566,-2.1993408942857147,0.0002829,0.0,38,mp-1218764,Sr2TbCu2IrO8,https://materialsproject.org/materials/mp-1218764,177.13471291418927
-4.715846952,-23.57923476,9.259320389860378,-0.7293436909999997,5e-07,0.0,119,mp-1219973,PrGa3Pt,https://materialsproject.org/materials/mp-1219973,97.76749310760447
-4.1697134,-16.6788536,6.941948786557377,-0.4972463505468752,0.0208386,0.0,166,mp-1218938,SnPbSe2,https://materialsproject.org/materials/mp-1218938,115.733870765363
-8.1271174325,-32.50846973,9.641541444187453,-0.8407341549999998,1.6e-06,0.0,225,mp-865603,Y2IrRh,https://materialsproject.org/materials/mp-865603,81.45229753947834
-4.045989598,-40.45989598,5.308079685634488,-2.2252901867829658,1.3e-06,0.0,225,mp-1111016,Rb2HgRhF6,https://materialsproject.org/materials/mp-1111016,184.07728641528757
-5.961227541176472,-101.3408682,6.175440753308988,-1.7467712150000003,0.0,1.8058,1,mp-754339,LiSbTe2WO12,https://materialsproject.org/materials/mp-754339,204.28786953086154
-5.1487165075,-20.59486603,0.7896233593020907,1.9156875724999995,1.5e-06,0.3537999999999997,71,mp-1097270,Y2RuPt,https://materialsproject.org/materials/mp-1097270,996.7265268932174
-2.512800474,-12.56400237,5.795353862080589,-0.4962670573333334,1.73e-05,0.0,8,mp-998154,TlAgBr3,https://materialsproject.org/materials/mp-998154,158.15374905786805
-7.8061893925,-31.22475757,9.51337963192951,-0.7417853125000011,3.7000000000000006e-06,0.0,225,mp-1187762,Y2RuPt,https://materialsproject.org/materials/mp-1187762,82.72964802428474
-5.811359985,-23.24543994,1.0095952549925231,3.3635792849999997,3.7249247000000003,0.0,71,mp-1096002,TaTc2Sb,https://materialsproject.org/materials/mp-1096002,820.2533641085386
-5.066156885,-20.26462754,0.7751477244089897,2.2662434087500003,2e-07,0.3079000000000001,71,mp-1096238,Y2OsPd,https://materialsproject.org/materials/mp-1096238,1016.402617237214
-6.895459252,-68.95459252,6.873647851776887,-2.5032279113333344,2.0,0.0,225,mp-1205698,Sr2InReO6,https://materialsproject.org/materials/mp-1205698,138.24717475734607
-3.786998979,-37.86998979,4.153105913152672,-2.056613308447379,0.0,2.0556,225,mp-1112920,Cs2SmAuCl6,https://materialsproject.org/materials/mp-1112920,330.2023311370451
-4.46124897,-44.612489700000005,4.952093615888403,-2.4342236867829654,0.0,1.786,225,mp-1114482,Rb2TlRhF6,https://materialsproject.org/materials/mp-1114482,198.58183298332506
-4.234485976,-42.34485976,5.497716627397296,-2.116793446782965,0.0,0.000199999999999978,225,mp-1111047,Rb2RhAuF6,https://materialsproject.org/materials/mp-1111047,176.633341037293
-5.5333765825,-22.13350633,9.680726660847501,0.5259973674999996,0.021637299999999998,0.0,225,mp-1187254,TaSb3,https://materialsproject.org/materials/mp-1187254,93.69469372013329
-4.720961262,-23.60480631,10.58350482424509,-0.39122117799999995,1e-07,0.0,156,mp-1219001,Sn2Pd2Au,https://materialsproject.org/materials/mp-1219001,101.54906180868244
-4.32778122375,-69.24449958,3.66356550756895,-2.5229555058925,2.4299999999999998e-05,1.4791,12,mp-1214989,Ba3PtF12,https://materialsproject.org/materials/mp-1214989,378.49090237036904
-5.617458995,-22.46983598,1.011332921293265,3.8446103781249987,3.0000001,0.0,71,mp-1095836,Nb2RePd,https://materialsproject.org/materials/mp-1095836,785.5651517329097
-3.14831321,-15.74156605,7.442572052280935,-0.6175151979999999,2e-07,0.14069999999999985,164,mp-1206487,Yb(CdAs)2,https://materialsproject.org/materials/mp-1206487,122.20047862785235
-2.9792976469999997,-29.79297647,4.094022118341053,-1.437679529864046,0.0,0.7554,139,mp-567776,Cs2AgAuCl6,https://materialsproject.org/materials/mp-567776,317.7330076881188
-4.56685519,-18.26742076,0.8607778649116293,2.0939070012500007,1.5354543999999999,0.0,71,mp-1096376,HfScPd2,https://materialsproject.org/materials/mp-1096376,841.6454686045873
-3.27837805,-13.1135122,1.2530407003992106,2.150242320833333,1.7633366000000001,0.0,71,mp-1096402,In2IrRh,https://materialsproject.org/materials/mp-1096402,695.413944291054
-5.829312162000001,-116.58624324,5.6147273314742145,-1.96082838725,3.3799999999999995e-05,0.0,1,mp-753933,Li4SbTe2WO12,https://materialsproject.org/materials/mp-753933,230.84737028488132
-5.5513053175,-22.20522127,0.9509972352739872,2.8262821025,0.2170652,0.0,71,mp-1097159,Zr2TcPt,https://materialsproject.org/materials/mp-1097159,830.327809041191
-5.866539255,-23.46615702,0.96553168655781,3.0481289362499995,0.0006277,0.0,71,mp-1097342,Zr2OsRh,https://materialsproject.org/materials/mp-1097342,817.9171947688908
-4.110904561,-41.10904561,5.706571119261213,-2.476948473288713,0.0,0.6839,225,mp-1112611,Cs2InAuF6,https://materialsproject.org/materials/mp-1112611,201.24262874829446
-4.352919377,-43.52919377,5.192498938751921,-2.8096305352887128,0.0,4.0078999999999985,225,mp-989537,Cs2TlInF6,https://materialsproject.org/materials/mp-989537,223.5380610078458
-8.8668013375,-35.46720535,12.794993265121029,-0.2675781312500014,0.0057404,0.0,225,mp-867475,TaSnRu2,https://materialsproject.org/materials/mp-867475,65.12351766535714
-4.711371445999999,-23.55685723,9.45587314050115,-0.7285853614999993,3e-07,0.0,119,mp-1220160,NdGa3Pt,https://materialsproject.org/materials/mp-1220160,96.3208100628694
-3.765978628,-37.65978628,3.9322854403425858,-2.0224549950249653,0.0,2.0272,225,mp-1113655,Rb2DyAuCl6,https://materialsproject.org/materials/mp-1113655,313.80734454729503
-2.926181157,-29.26181157,4.580621163076421,-1.3845630398640458,1.2e-06,0.0,225,mp-568448,Cs2AgAuCl6,https://materialsproject.org/materials/mp-568448,283.9802539637535
-3.023580129,-30.23580129,4.200778157662666,-1.5726292578640462,2e-07,0.0,225,mp-1113442,Cs2TlAgCl6,https://materialsproject.org/materials/mp-1113442,312.5901162339626
-3.855331478,-19.27665739,6.346122707745204,-0.43161117682291705,2.2800000000000002e-05,0.9527000000000004,160,mp-1223842,InBiSe3,https://materialsproject.org/materials/mp-1223842,146.70822090289096
-2.4605768125,-9.84230725,6.4339714633399385,-0.41122090554687496,0.0,0.0,115,mp-1226729,CdHgSe2,https://materialsproject.org/materials/mp-1226729,121.53966017901868
-6.16417943,-24.65671772,1.0820726542767922,4.01306766625,1.2867349,0.0,71,mp-1097547,Nb2OsRu,https://materialsproject.org/materials/mp-1097547,732.1729842546141
-3.3562270780000003,-33.56227078,3.5255407166661348,-1.7598281540307128,0.0,1.3635,225,mp-1112889,Cs2InBiCl6,https://materialsproject.org/materials/mp-1112889,377.8982907557233
-6.796334706666666,-81.55601648,4.9520695624400215,-1.2197853160416667,6e-07,0.0,12,mp-1220692,Nb3IrS8,https://materialsproject.org/materials/mp-1220692,243.93221967635398
-5.829729805714287,-81.61621728,3.5678158465809084,0.16228487472178546,9.3e-06,2.2545,82,mp-542943,CdHgC4(SeN)4,https://materialsproject.org/materials/mp-542943,341.11252274864995
-5.9096788175,-23.63871527,0.9155796508753876,3.736853204375001,2.1760645,0.0,71,mp-1096536,ReSiTc2,https://materialsproject.org/materials/mp-1096536,744.1260991523799
-7.976197274,-79.76197274,6.058954380895729,-3.4253326200000003,0.0,3.5136000000000003,225,mp-1205692,Sr2LaTaO6,https://materialsproject.org/materials/mp-1205692,161.99620335707746
-6.464415853999999,-32.32207927,8.920480402988318,-0.4621116395000001,7.6e-06,0.0,107,mp-1069898,LaGe3Os,https://materialsproject.org/materials/mp-1069898,101.83386140013677
-5.456582099999999,-21.826328399999998,0.9270793084546324,3.2226786681249986,1.0,0.0,71,mp-1095783,Zr2RePd,https://materialsproject.org/materials/mp-1095783,850.931066235316
-5.870872127999999,-58.70872128,7.444235178918919,-2.3006747422500005,0.0,0.0017000000000000348,225,mp-1228332,Ba2TlSbO6,https://materialsproject.org/materials/mp-1228332,155.4294180485684
-2.708685863,-27.08685863,5.097637952008872,-0.07388510474671257,0.0,0.0,225,mp-996945,Cs2TlInH6,https://materialsproject.org/materials/mp-996945,192.5358283279851
-2.994888749,-29.94888749,4.0302021116147575,-1.5153169121973795,0.0,1.3651,139,mp-1079232,Cs2HgPdCl6,https://materialsproject.org/materials/mp-1079232,323.6606951893216
-7.20705705,-100.89879870000001,6.831061878334736,-2.778588085535714,0.0006296,0.0,123,mp-1208772,Sr2NdTa(CuO4)2,https://materialsproject.org/materials/mp-1208772,183.65601557581542
-8.333060085,-33.33224034,9.742032026702189,-0.5669065074999997,2.24e-05,0.0,225,mp-1187703,Y2IrRu,https://materialsproject.org/materials/mp-1187703,80.29924156470459
-4.2899696390000015,-42.89969639,4.267846549616763,-2.2773621077829658,2.0,0.0013000000000000234,225,mp-1114136,Rb2HgRuF6,https://materialsproject.org/materials/mp-1114136,228.22961741378813
-6.778325939,-67.78325939,6.9814376385271215,-2.8939785762500003,0.0,2.1283000000000003,148,mp-1228392,Ba2CePbO6,https://materialsproject.org/materials/mp-1228392,170.7687296423058
-7.6152316825,-152.30463365,6.027043656089688,-3.4254566531250012,0.8117963,0.0,38,mp-1232342,Sr3LaTaAl3O12,https://materialsproject.org/materials/mp-1232342,235.7443520060099
-8.61703562,-34.46814248,12.735226848745727,-0.3321971908333339,1.3e-06,0.0,225,mp-867958,TaInRu2,https://materialsproject.org/materials/mp-867958,64.92166663422918
-4.4243643125,-17.69745725,10.137018301440056,0.538691476953125,3.06e-05,0.0,216,mp-631308,SnIrSe2,https://materialsproject.org/materials/mp-631308,76.80155289610963
-4.35309017,-17.41236068,0.6311628398882803,2.3955891025,2.410499,0.0,71,mp-1096226,Y2TcPb,https://materialsproject.org/materials/mp-1096226,1270.7652192716819
-4.629059099,-46.29059099,4.840939830724672,-2.4101256957829653,1.0,0.0,225,mp-1114483,Rb2TlRuF6,https://materialsproject.org/materials/mp-1114483,202.5118969085527
-2.06453017,-8.25812068,5.231956168179331,-0.7553087481034482,0.0,1.8023,225,mp-1185537,Cs2HgTe,https://materialsproject.org/materials/mp-1185537,188.52636735648122
-4.396338639,-43.96338639,5.370451998177667,-2.086737989782965,1.0,0.0,225,mp-1113465,Rb2RuAuF6,https://materialsproject.org/materials/mp-1113465,180.2515201502632
-8.93489001,-35.73956004,12.596805033206325,-0.5803490025000002,0.0,0.0,225,mp-867781,TaGaRu2,https://materialsproject.org/materials/mp-867781,59.69054391130541
-5.6149288625,-22.45971545,1.0846771028301936,3.1376315337500005,0.2034124,0.0,71,mp-1093738,TaGeRu2,https://materialsproject.org/materials/mp-1093738,697.6766951029712
-9.0609149775,-36.24365991,12.527401052116149,-0.3083545812499988,0.8948908000000001,0.0,225,mp-1187233,TaGeRu2,https://materialsproject.org/materials/mp-1187233,60.40789571661418
-2.18636017,-8.74544068,0.5584593239432547,-0.5404949256034481,6.52e-05,3.1674,71,mp-1093896,Cs2AuI,https://materialsproject.org/materials/mp-1093896,1753.3772742631165
-9.767198605,-39.06879442,10.912761691853499,-0.6878616875000017,2.8e-06,0.0,225,mp-1188001,Zr2TcIr,https://materialsproject.org/materials/mp-1188001,71.9230115624646
-5.667249234615384,-73.67424005,7.2097161117766655,-2.074828909903846,0.6391956,0.0,123,mp-1214587,Ba2NdCu2HgO7,https://materialsproject.org/materials/mp-1214587,197.74638716944187
-0.74092834,-2.96371336,3.1880807166680576,0.006536812844827654,0.5081274,0.0,221,mp-1185553,Cs3Hg,https://materialsproject.org/materials/mp-1185553,312.1538282757329
-7.938189441,-79.38189441,6.1192796035303525,-3.4016157947500005,0.0,3.3705000000000007,225,mp-1207116,Sr2PrTaO6,https://materialsproject.org/materials/mp-1207116,160.9425239379098
-6.938239469,-69.38239469,7.59796531225692,-2.8183564092500006,1e-07,1.4204,225,mp-21879,Ba2CePtO6,https://materialsproject.org/materials/mp-21879,154.26395060119776
-3.7766534519999997,-18.88326726,8.094217933180317,-0.5292539380000001,2.8999999999999998e-06,0.0,107,mp-1227995,BaIn3Pt,https://materialsproject.org/materials/mp-1227995,138.859710300385
-9.9920703275,-39.96828131,11.071513711254468,-0.5976318362500006,5e-07,0.0,225,mp-977549,Zr2OsRu,https://materialsproject.org/materials/mp-977549,71.05415480109491
-5.943202266923077,-77.26162947,7.166137092852316,-2.1920697329807703,1.3500000000000001e-05,0.0,25,mp-1228402,Ba2NdTlCu2O7,https://materialsproject.org/materials/mp-1228402,199.82791534785045
-6.609871472999999,-66.09871473,6.7550111009414895,-2.8066199794999998,0.0,2.2033,12,mp-1078409,Ba2LaBiO6,https://materialsproject.org/materials/mp-1078409,176.63294851205833
-4.8766106075,-19.50644243,0.9524864256358514,2.3102383725000006,1.0000155000000002,0.11209999999999988,71,mp-1097186,HfCuRh2,https://materialsproject.org/materials/mp-1097186,780.7643315760954
-7.026113931,-70.26113931,7.202658146936872,-2.726304242000001,2.0,0.0,148,mp-550081,Ba2LaIrO6,https://materialsproject.org/materials/mp-550081,161.79044237208862
-1.446376045,-5.78550418,0.5079344574990544,-0.1371546231034484,0.0,0.6264999999999998,71,mp-1097672,Cs2HgTe,https://materialsproject.org/materials/mp-1097672,1941.907417369928
-3.30144054,-13.20576216,7.832653645191782,-0.048503347916666766,1.7e-06,0.0,123,mp-1229085,AgBiTe2,https://materialsproject.org/materials/mp-1229085,121.27550586389876
-7.024491080999999,-70.24491081,7.190577230724312,-2.7246813919999995,1.9999999,0.0,225,mp-1080123,Ba2LaIrO6,https://materialsproject.org/materials/mp-1080123,162.0622671109898
-6.186644605,-24.74657842,1.0050620125045302,3.680030575,2.0047653999999997,0.0,71,mp-1096649,TaVRu2,https://materialsproject.org/materials/mp-1096649,717.0927972902035