energy_per_atom,energy,density,formation_energy_per_atom,total_magnetization,band_gap,sgr,mp_id,formula,URL,cell_volume
-10.6946205725,-42.77848229,12.038056232413721,-0.2442590412500003,1.01e-05,0.0,225,mp-1186210,Nb2TcOs,https://materialsproject.org/materials/mp-1186210,65.38983490456063
-3.7128011510000003,-37.12801151,6.048730567436907,-2.0711635396220456,2e-07,0.0,225,mp-1113576,Cs2AgAuF6,https://materialsproject.org/materials/mp-1113576,187.95100001301057
-6.699597614,-33.49798807,9.105112057893477,-0.6564578589999996,6.9062774000000005,0.0,107,mp-19763,EuGe3Pt,https://materialsproject.org/materials/mp-19763,103.03568087747038
-3.955387806,-39.55387806,5.623730176268432,-2.4044174406220464,0.0,0.8037,225,mp-1113441,Cs2TlAgF6,https://materialsproject.org/materials/mp-1113441,204.34492664373113
-9.773603165,-39.09441266,10.795311023776883,-0.5521434043750002,9.6e-06,0.0,225,mp-1188019,Zr2ReRh,https://materialsproject.org/materials/mp-1188019,72.53562386921959
-7.4747555925,-29.89902237,8.527673862742093,-0.1387461400000003,3.17e-05,0.0,139,mp-1187844,Zr3Pb,https://materialsproject.org/materials/mp-1187844,93.63710926277359
-6.673452116999999,-66.73452117,7.704242100047518,-1.4809201147499995,1e-07,0.4272,225,mp-1080738,Sn2MoOsO6,https://materialsproject.org/materials/mp-1080738,133.54297444088758
-4.6926928179999985,-23.46346409,9.676186715481288,-0.7196560264999995,1e-06,0.0,119,mp-1219019,SmGa3Pt,https://materialsproject.org/materials/mp-1219019,95.17763202295875
-8.50892313,-85.0892313,6.869277104024496,-2.983536768,4.999999900000001,0.0,225,mp-13936,Sr2GdReO6,https://materialsproject.org/materials/mp-13936,148.59240250074149
-4.400065438,-44.00065438,4.8910575814171064,-2.7036470197887126,0.0,2.2862,225,mp-989538,Cs2InBiF6,https://materialsproject.org/materials/mp-989538,238.87570103727407
-6.583499031000001,-65.83499031,7.277309432390088,-2.57868014875,0.028873700000000002,0.0,225,mp-9319,Ba2PrPtO6,https://materialsproject.org/materials/mp-9319,161.24183288235548
-6.3009855425,-25.20394217,1.3847234368296268,4.183053123125,0.23258760000000003,0.0,71,mp-1093542,Nb2ReRu,https://materialsproject.org/materials/mp-1093542,567.3219612017635
-6.139102678333334,-36.83461607,10.420692938292026,-0.4563616195833345,0.9999418999999999,0.0,65,mp-1222871,LaNi4Pt,https://materialsproject.org/materials/mp-1222871,90.63248363981162
-3.298531613,-32.98531613,4.0086260059300285,-1.6944511653640462,0.0,1.8679,225,mp-1078258,Cs2AgBiCl6,https://materialsproject.org/materials/mp-1078258,329.47832864523474
-6.108477333333332,-54.976296,7.356800827201334,-2.3074815234722226,3.04e-05,0.0,99,mp-1218170,SrLaTlCuO5,https://materialsproject.org/materials/mp-1218170,129.66228297973132
-5.76776647,-23.07106588,0.9405438582875228,3.4375369975000005,1.0000843000000001,0.04400000000000004,71,mp-1093842,Zr2MoIr,https://materialsproject.org/materials/mp-1093842,830.8575597336041
-10.69999981,-42.79999924,11.936954674523829,-0.21596114437499914,2.33e-05,0.0,225,mp-1186207,Nb2ReRu,https://materialsproject.org/materials/mp-1186207,65.81109146546774
-9.02455551,-36.09822204,12.053838518526574,-0.3249235725000013,2.5e-06,0.0,225,mp-865023,HfTc2Sb,https://materialsproject.org/materials/mp-865023,68.36349245374895
-3.92032418625,-31.36259349,5.4569777726003,-0.6241558639062497,0.0,0.012599999999999945,121,mp-1025467,Cu2SnHgS4,https://materialsproject.org/materials/mp-1025467,174.86457159589628
-4.6183523075,-18.47340923,9.65556754830652,-0.09168727249999976,1.5976315,0.0,139,mp-1183746,Ce3Hg,https://materialsproject.org/materials/mp-1183746,106.78727949040781
-4.919300122,-49.19300122,5.701061633904531,-0.8621871597500004,0.0,0.4194,2,mp-643903,Ba2BiSbO6,https://materialsproject.org/materials/mp-643903,204.292968658745
-4.532018315,-18.12807326,7.866826654051553,-0.2453373731250004,3.4e-06,0.0,221,mp-371,La3Tl,https://materialsproject.org/materials/mp-371,131.10245865866509
-7.943866995,-31.77546798,12.11180953228022,-0.7794917212499994,0.00021129999999999999,0.0,225,mp-866221,HfSnRh2,https://materialsproject.org/materials/mp-866221,68.96322145946003
-10.158083805,-40.63233522,10.96091404775423,-0.4905308787500005,2.72e-05,0.0,225,mp-1188002,Zr2TcOs,https://materialsproject.org/materials/mp-1188002,71.30602346336772
-7.218765027142857,-101.06271038,6.929246407433037,-2.793777953035714,0.0,0.0,123,mp-20087,Sr2SmTa(CuO4)2,https://materialsproject.org/materials/mp-20087,182.51981676057105
-5.17719185,-20.7087674,0.871163061404845,3.1390611475,2.9771534,0.0,71,mp-1097569,Zr2NbPt,https://materialsproject.org/materials/mp-1097569,896.7107657716978
-3.753563573,-37.53563573,5.998993304297915,-2.17397224195538,1.9501465,0.0,225,mp-1112589,Cs2HgPdF6,https://materialsproject.org/materials/mp-1112589,190.1113998807878
-4.730018723,-47.30018723,4.245104749337377,-2.0629271081973792,6.9999497,1.5263,225,mp-1112633,Cs2GdAuCl6,https://materialsproject.org/materials/mp-1112633,325.74140088851794
-7.223681793999998,-36.11840897,10.067151039939766,-0.7632958034999987,1.39e-05,0.0,119,mp-1222835,LaGe2IrRu,https://materialsproject.org/materials/mp-1222835,95.25193147057084
-5.736492745,-22.94597098,0.9539633357174274,3.2167103912500004,0.9952329,0.0,71,mp-1096170,TaSiRu2,https://materialsproject.org/materials/mp-1096170,715.7187536827909
-6.3488874310000005,-63.48887431,6.695261256135143,-2.5796042457499997,1.0,0.0,12,mp-1228494,Ba2PrPbO6,https://materialsproject.org/materials/mp-1228494,178.2642613453799
-8.76574538,-35.06298152,12.359053874748255,-0.6418295062499997,0.0,0.0,225,mp-866219,HfSnRu2,https://materialsproject.org/materials/mp-866219,67.09037541520462
-6.379795437,-63.79795437,6.462998665478769,-2.5547996027500006,0.0,3.5457000000000005,225,mp-18903,Sr2CdWO6,https://materialsproject.org/materials/mp-18903,145.8046073011666
-4.130851285,-41.30851285,5.5883424453486645,-2.3449340819553792,1.0,0.0,225,mp-1112564,Cs2TlPdF6,https://materialsproject.org/materials/mp-1112564,205.20860146114984
-6.437455570999999,-64.37455571,6.5997375805297285,-2.61245973675,0.0,3.3394,87,mp-18757,Sr2CdWO6,https://materialsproject.org/materials/mp-18757,142.7837047927683
-6.2145669075,-24.85826763,1.0223386941518404,4.3617611737500015,0.0084901,0.004799999999999915,71,mp-1095844,Nb2MoOs,https://materialsproject.org/materials/mp-1095844,766.6204983439142
-6.319566245,-25.27826498,1.1544454375926338,3.8055923925,1.1214396,0.0,71,mp-1096449,TaNbRu2,https://materialsproject.org/materials/mp-1096449,684.6638444811622
-6.9732101360000005,-69.73210136,7.274608202167776,-2.687691454750001,1.9999999,0.0,225,mp-6135,Ba2PrIrO6,https://materialsproject.org/materials/mp-6135,160.6472697120244
-10.809101225,-43.2364049,11.819428230178636,-0.2327731437499985,3.3799999999999995e-05,0.0,225,mp-1186205,Nb2MoOs,https://materialsproject.org/materials/mp-1186205,66.3099588172807
-6.45891736,-25.83566944,11.706158994427755,-0.6933248483333339,1.3e-06,0.0,225,mp-864734,HfInPd2,https://materialsproject.org/materials/mp-864734,71.79797527250362
-8.907884715,-35.63153886,11.818759673257999,-0.2377399712500008,0.0001349,0.0,225,mp-865039,HfTc2Sn,https://materialsproject.org/materials/mp-865039,69.29473795639315
-5.00924314,-20.03697256,7.855351488060367,-0.3889315081250002,0.007008199999999999,0.0,221,mp-867883,La3Pb,https://materialsproject.org/materials/mp-867883,131.88939515645575
-7.4460990475,-29.78439619,10.44781448461393,-0.8829893949999992,3.87e-05,0.0,225,mp-865050,HfMgRh2,https://materialsproject.org/materials/mp-865050,64.94240646954903
-7.621529415,-30.48611766,12.097397071072345,-0.7715389183333334,8.400000000000001e-06,0.0,225,mp-865066,HfInRh2,https://materialsproject.org/materials/mp-865066,68.51114998015787
-6.5543030889999985,-65.54303089,6.833584754094923,-2.7653426032499997,0.0,1.7508,12,mp-1214573,Ba2PrBiO6,https://materialsproject.org/materials/mp-1214573,175.08851782794
-7.145377860000001,-35.726889299999996,9.209097821054797,-0.5408385070000008,6.7342663,0.0,107,mp-1068715,EuGe3Ir,https://materialsproject.org/materials/mp-1068715,101.35527638646919
-10.6179380475,-42.47175219,11.423896897488408,-0.22891093874999946,3.2e-06,0.0,225,mp-1186218,Nb3Os,https://materialsproject.org/materials/mp-1186218,68.16486193215098
-5.5693318575,-22.27732743,0.9378886593341264,3.33143802,3.4665769,0.0,71,mp-1096284,TaGaTc2,https://materialsproject.org/materials/mp-1096284,790.834207119799
-4.677713874,-23.38856937,8.18620504663558,-0.6757908950000001,0.0,0.0,107,mp-30433,BaSn3Pt,https://materialsproject.org/materials/mp-30433,139.66779534926758
-4.404576509,-44.04576509,6.048198354422268,-2.2039183716220463,0.0,1.1597000000000002,225,mp-1113622,Cs2AgIrF6,https://materialsproject.org/materials/mp-1113622,186.66353979377703
-9.7390065175,-38.95602607,12.777079388315025,-0.07804199749999974,9.22e-05,0.0,221,mp-1186016,Mo3Pt,https://materialsproject.org/materials/mp-1186016,62.75933021951019
-3.5896987975,-14.35879519,7.728221275963039,-0.16321946471354165,0.0009448000000000001,0.0,123,mp-1229087,AgBiSe2,https://materialsproject.org/materials/mp-1229087,102.01206294625696
-11.048327545,-44.19331018,11.867748024040422,-0.29117444437499884,4.11e-05,0.0,225,mp-1186208,Nb2ReTc,https://materialsproject.org/materials/mp-1186208,65.76531280158666
-2.934881062,-14.67440531,7.685876638226911,0.04625459433333354,0.0005125,0.0,12,mp-1223990,In4Bi,https://materialsproject.org/materials/mp-1223990,144.37639985719156
-6.710623977222222,-120.79123159,6.623206227918095,-2.5312842754166667,2.0000002,0.4394,12,mp-6829,Ba3Y2Cu2PtO10,https://materialsproject.org/materials/mp-6829,268.7574343179308
-6.5695111189999995,-65.69511119,6.955888764047604,-2.782409221500001,0.0,1.7308000000000003,12,mp-546321,Ba2NdBiO6,https://materialsproject.org/materials/mp-546321,172.80596127512854
-7.595118870999999,-75.95118871,6.973206481870375,-3.015326895,1.9999999,0.0,225,mp-13937,Sr2TbReO6,https://materialsproject.org/materials/mp-13937,146.77671958689402
-3.68823033,-14.75292132,0.9565309884051753,1.61808118625,0.0917819,0.0,71,mp-1095894,HfCdPd2,https://materialsproject.org/materials/mp-1095894,874.4950311994662
-6.414191275,-25.6567651,11.270860378596199,-0.6485987633333341,3e-07,0.0,123,mp-1224492,HfInPd2,https://materialsproject.org/materials/mp-1224492,74.57092766529352
-7.4928537864285705,-104.89995301,6.951866328240527,-2.669703701428572,6.0202372,0.0,38,mp-1218839,Sr2EuTa(CuO4)2,https://materialsproject.org/materials/mp-1218839,182.309070593774
-6.991761567999999,-69.91761568,7.403526183122572,-2.7081014750000003,2.0,0.0,225,mp-1079169,Ba2NdIrO6,https://materialsproject.org/materials/mp-1079169,158.59777290012136
-7.493371775714285,-104.90720486,6.916565782975947,-2.670221690714285,6.0360494000000005,0.0,123,mp-1208877,Sr2EuTa(CuO4)2,https://materialsproject.org/materials/mp-1208877,183.2395337456578
-4.199859032,-41.99859032,6.101503859240579,-2.106394985955379,0.0,0.4849,225,mp-1112594,Cs2RhAuF6,https://materialsproject.org/materials/mp-1112594,184.97475833862654
-0.419926525,-1.6797061000000002,0.42976100690470814,0.33237470314655165,2e-07,0.8072999999999999,71,mp-1096400,Cs2CdHg,https://materialsproject.org/materials/mp-1096400,2236.4517665273897
-4.466421644,-44.66421644,5.495981703886493,-2.4636248439553787,0.0,1.7532,225,mp-1112487,Cs2TlRhF6,https://materialsproject.org/materials/mp-1112487,207.5953004779991
-4.9604595775,-19.84183831,10.566468775031725,-0.6786199525000001,2.52e-05,0.0,225,mp-979713,YHgPd2,https://materialsproject.org/materials/mp-979713,78.94295699691588
-5.887336288999999,-58.87336289,7.247140276065205,-2.301558115083333,0.0,0.008700000000000152,225,mp-1228393,Ba2InBiO6,https://materialsproject.org/materials/mp-1228393,159.11922492926456
-6.41816334,-25.67265336,0.8461183784678307,3.99474071,1e-07,0.06550000000000011,71,mp-1093944,TaVTc2,https://materialsproject.org/materials/mp-1093944,839.7489504695934
-7.399260420833333,-88.79112505,3.834354166185242,-1.2940934552083343,0.0017248,1.5080999999999998,156,mp-1027569,Mo3WS8,https://materialsproject.org/materials/mp-1027569,315.35201646492436
-7.07191503,-28.28766012,12.201590062224051,-0.6812055287499996,1e-07,0.0,225,mp-865174,HfCdRh2,https://materialsproject.org/materials/mp-865174,67.59853948790484
-7.55290769625,-241.69304628,5.793760248036809,-2.4581103140681257,27.999999,0.9016000000000002,6,mp-1223206,La3Mn8BiO20,https://materialsproject.org/materials/mp-1223206,397.00653739505293
-4.1856109375,-16.74244375,7.980177474822665,-0.4465666810416664,0.004949899999999999,0.0,225,mp-1185068,LaLuIn2,https://materialsproject.org/materials/mp-1185068,113.09485733282193
-6.073159255,-24.29263702,0.9248445208583034,3.9011852406250007,2.0013648999999996,0.2030000000000003,71,mp-1097673,Zr2ReTc,https://materialsproject.org/materials/mp-1097673,837.8693155818816
-3.94824091,-19.74120455,7.777671282687112,-0.5029593849999998,1.52e-05,0.0,107,mp-1068048,BaSn3Au,https://materialsproject.org/materials/mp-1068048,147.4059842324086
-7.415215456999999,-74.15215457,6.679951848381572,-3.0818241225833334,0.0,4.023299999999999,225,mp-1080506,Sr2TaInO6,https://materialsproject.org/materials/mp-1080506,140.94853422291146
-3.8693609875,-15.47744395,9.49373549538207,-0.2464408708333337,1.28e-05,0.0,225,mp-980661,YTlAg2,https://materialsproject.org/materials/mp-980661,89.03311015391365
-5.94266505,-71.3119806,4.86675045876967,-1.7558726473850577,5e-07,3.0344,121,mp-561942,Cs3TaO8,https://materialsproject.org/materials/mp-561942,241.45394960342546
-6.054011675,-24.2160467,6.5922936963859184,-0.2781055800000001,0.8052050000000001,0.0,139,mp-1187881,Y3Pb,https://materialsproject.org/materials/mp-1187881,119.37553600616806
-7.4521199000000005,-74.521199,6.803014719193554,-3.118728565583333,0.0,3.7897,12,mp-1078748,Sr2TaInO6,https://materialsproject.org/materials/mp-1078748,138.39885118176286
-7.4473099939999985,-74.47309994,6.808796469397883,-3.1139186595833337,0.0,3.9309,87,mp-1086666,Sr2TaInO6,https://materialsproject.org/materials/mp-1086666,138.2813285638236
-5.9747779075,-23.89911163,0.9755233873887518,3.1210704433333323,1e-07,0.0697000000000001,71,mp-1097076,HfTiRu2,https://materialsproject.org/materials/mp-1097076,729.3889682414436
-9.86637973,-39.46551892,11.152262134638274,-0.7705313791666679,3e-07,0.0,123,mp-1224169,HfTiRu2,https://materialsproject.org/materials/mp-1224169,63.80194335756247
-10.76113426,-43.04453704,11.748820772794476,-0.14815336500000065,5.6999999999999996e-05,0.0,225,mp-982725,Nb2RuW,https://materialsproject.org/materials/mp-982725,66.53038080268823
-3.6261313633333336,-32.63518227,5.297739581748797,-0.2319738871527777,0.0,0.5878000000000001,215,mp-1182240,BaTlCu3Se4,https://materialsproject.org/materials/mp-1182240,265.85862964526825
-7.399121754166668,-88.78946105,3.82621042561248,-1.2939547885416676,0.0036986999999999996,1.4882,156,mp-1027645,Mo3WS8,https://materialsproject.org/materials/mp-1027645,316.02321452397433
-5.97579521076923,-77.68533774,7.402117028400136,-1.9583336793269237,5.3269007,0.0,123,mp-1214738,Ba2EuCu2HgO7,https://materialsproject.org/materials/mp-1214738,194.33872641688663
-6.108026546153847,-79.40434509999999,6.587975427153574,-2.262954937019232,3.4e-06,0.0,123,mp-9117,Sr2YTlCu2O7,https://materialsproject.org/materials/mp-9117,178.35913078813863
-10.122289945,-40.48915978,13.47655891214154,-0.20891132000000034,1e-06,0.0,221,mp-867816,TaRu3,https://materialsproject.org/materials/mp-867816,59.65640535577034
-4.908277958,-49.08277958,3.9179110558160986,-2.8109584217829657,0.9987225000000001,0.0,225,mp-1114080,Rb2NbHgF6,https://materialsproject.org/materials/mp-1114080,245.15435950395627
-6.557088667777778,-59.01379801,6.718856814668883,-2.388023004305555,8.599999999999999e-06,0.0,99,mvc-7260,BaYCuBiO5,https://materialsproject.org/materials/mvc-7260,143.03733124224377
-6.203497405,-74.44196886,6.633105377742294,-1.905100786666668,0.0,2.7138,82,mp-1226964,Cd2MoWO8,https://materialsproject.org/materials/mp-1226964,158.36509257331136
-7.3178551042499995,-292.71420417,4.748078703910977,-2.370692527645835,17.9999991,2.1929,155,mp-1220241,NdFe6Bi(BO3)8,https://materialsproject.org/materials/mp-1220241,405.2536407283439
-5.6249656875,-22.49986275,11.081767701866667,-0.90207814625,9.000000000000001e-07,0.0,225,mp-5181,LuSnPd2,https://materialsproject.org/materials/mp-5181,75.89865403711742
-7.24431752,-28.97727008,12.748884556197636,-0.8721541050000008,1.15e-05,0.0,221,mp-1007656,HfPd3,https://materialsproject.org/materials/mp-1007656,64.83181360036677
-7.640210585,-76.40210585,7.042930033927388,-2.9823978647500007,2.0100318,0.0,225,mp-20958,Ba2LaReO6,https://materialsproject.org/materials/mp-20958,164.0427212327687
-3.746772915,-14.98709166,6.8306113868507365,-0.9342341225000004,0.0,0.629,225,mp-862631,Ba2SbAu,https://materialsproject.org/materials/mp-862631,144.2523289055392
-5.941202656923077,-77.23563454,6.444466003515671,-2.170751938557693,3.4948585,0.0,123,mp-1244816,Sr2YTlNi2O7,https://materialsproject.org/materials/mp-1244816,179.8302150585473
-6.34548096,-25.38192384,1.141918645253844,4.537638690625,0.45579,0.0,71,mp-1096658,Nb2ReMo,https://materialsproject.org/materials/mp-1096658,680.4910786409758
-6.5907874415384615,-85.68023674,5.892913896936027,-2.4953252785576927,9.652699499999999,0.17110000000000006,123,mvc-2513,Sr2YTlFe2O7,https://materialsproject.org/materials/mvc-2513,195.05629450046692
-5.070964365,-50.70964365,4.46916003108864,-2.767318956782965,2.0000001,0.0,225,mp-1114683,Rb2NbTlF6,https://materialsproject.org/materials/mp-1114683,216.32519119862366
-5.6197149325,-22.47885973,11.001602900134095,-0.8673401974999999,3.3e-06,0.0,225,mp-865447,LuSbPd2,https://materialsproject.org/materials/mp-865447,76.91205587736367
-5.032312472,-50.32312472,3.5665039373584753,-2.637999817782966,0.0,0.126,225,mp-1113479,Rb2NbAuF6,https://materialsproject.org/materials/mp-1113479,267.6223393026027
-6.768055715,-27.07222286,10.796859901057902,-0.5523727349999996,5.01e-05,0.0,225,mp-1187876,YRh2Pb,https://materialsproject.org/materials/mp-1187876,77.19397416439202
-6.612395145,-26.44958058,11.649514500773543,-0.7756224249999999,0.0002214,0.0,225,mp-866137,LuSbRh2,https://materialsproject.org/materials/mp-866137,71.63251035295153
-1.552364615,-6.20945846,0.5587678585973125,0.5176913825,5.13e-05,0.0,71,mp-1096502,Ba2HgSb,https://materialsproject.org/materials/mp-1096502,1774.168706705436
-6.109108367692307,-79.41840878,6.534198174461827,-2.2640367585576935,3.9200000000000004e-05,0.0,25,mp-1218486,Sr2YTlCu2O7,https://materialsproject.org/materials/mp-1218486,179.82704831836628
-4.12666596,-16.50666384,8.25724004296438,-0.4233492229166673,0.00012030000000000001,0.0,225,mp-975932,PrLuIn2,https://materialsproject.org/materials/mp-975932,109.70272468130588
-7.468486916153847,-97.09032991,5.724103408476622,-3.0391329865064107,0.0007861000000000001,0.0,123,mvc-2119,Sr2YTi2TlO7,https://materialsproject.org/materials/mvc-2119,196.17996173190448
-7.234834218333333,-86.81801062,4.178814579501915,-1.125487106796875,0.0069310000000000005,1.3588,156,mp-1027472,Mo3W(SeS3)2,https://materialsproject.org/materials/mp-1027472,326.6269054875097
-2.633404218,-26.33404218,4.1611053425304165,-1.0095851890689655,1.6e-06,0.0,225,mp-1113552,Rb2HgSbBr6,https://materialsproject.org/materials/mp-1113552,388.17144302348953
-6.410504231428571,-89.74705924,4.582390712811076,-0.9483132666071432,6.0000002,0.2866999999999997,166,mp-1246595,Mg2Mo3WS8,https://materialsproject.org/materials/mp-1246595,281.4884634947058
-7.502824967826087,-172.56497426,5.005620427746888,-2.9449911531521757,15.0000491,2.5105000000000004,150,mp-1190340,Ba3TaFe3(SiO7)2,https://materialsproject.org/materials/mp-1190340,345.21213125134625
-4.38876464,-43.8876464,5.928614379136268,-2.10339247395538,1.110935,0.0,225,mp-1113405,Cs2RuAuF6,https://materialsproject.org/materials/mp-1113405,189.85486497795918
-7.3183709575,-29.27348383,12.03403626083128,-0.5220576375000006,2.6e-06,0.0,225,mp-866138,LuSbRu2,https://materialsproject.org/materials/mp-866138,68.83709765475288