energy_per_atom,energy,density,formation_energy_per_atom,total_magnetization,band_gap,sgr,mp_id,formula,URL,cell_volume
-10.078858075833333,-120.94629691,9.184702200374254,-0.3240328491666678,3.25e-07,0.0,194,mp-1095545,ZrTc2,https://materialsproject.org/materials/mp-1095545,207.71350222134606
-4.550642437272726,-50.05706681,5.7275487644880965,-0.5401654081818182,0.0,0.4779999999999998,156,mp-567713,Nb3TeI7,https://materialsproject.org/materials/mp-567713,375.3468840801618
-2.4882649,-24.882649,4.877458789527536,-0.811817122908046,2.8999999999999998e-06,0.0,225,mp-1113594,Cs2GaAgI6,https://materialsproject.org/materials/mp-1113594,410.18603146104346
-2.5420408755555552,-22.87836788,4.193640628641669,-0.8579500061877394,6.8e-06,0.12429999999999986,225,mp-27635,Rb2SnI6,https://materialsproject.org/materials/mp-27635,416.188925526172
-6.6032970775,-79.23956493,10.602656244426663,-0.4255867316666671,0.0001248,0.0,26,mp-1224900,GaAsRh4,https://materialsproject.org/materials/mp-1224900,174.23981022370924
-6.443413140750001,-257.73652563,2.920827413311407,-1.2090771637500004,0.0,2.4251,218,mp-554791,RuO4,https://materialsproject.org/materials/mp-554791,750.7494425447051
-8.41193408,-100.94320896,7.690209488015682,-0.5066748295312505,0.0,0.0,12,mp-27793,Nb2Se,https://materialsproject.org/materials/mp-27793,228.68844100734526
-5.771990889166666,-138.52778134,5.6040768354867625,-1.6359997588541668,0.0003032,0.3808999999999996,63,mvc-2282,Sn5O7,https://materialsproject.org/materials/mvc-2282,418.11930128765596
-6.007427145555557,-54.06684431,6.101195508484546,-0.876217385555556,0.0,0.0,189,mp-12961,YAlPd,https://materialsproject.org/materials/mp-12961,181.51365439973065
-9.403382923333334,-112.84059508,9.699684721455297,-0.37686285666666797,1.5e-07,0.0,194,mp-569979,ZrRu2,https://materialsproject.org/materials/mp-569979,200.8899830952325
-6.585635927678572,-368.79561195,3.3997605717983084,-1.6070091288392865,6.0,0.08530000000000015,110,mp-1204294,ZrMo2O11,https://materialsproject.org/materials/mp-1204294,896.9445227247281
-5.041797052857143,-141.17031748,3.4975071430523395,-1.6789645940601414,0.0,3.6221,15,mp-23897,Rb3H(SeO4)2,https://materialsproject.org/materials/mp-23897,515.9188497615143
-5.78181365625,-46.25450925,5.1334286745597755,-1.4373954459374998,0.0,0.8338999999999999,5,mp-549720,NbI2O,https://materialsproject.org/materials/mp-549720,234.65874024024305
-4.943422989375,-158.18953566,3.140567092315712,-1.2085073447812498,0.0,1.952,15,mp-581115,K3Nb2Ag3S8,https://materialsproject.org/materials/mp-581115,933.997972981367
-8.647568858181819,-380.49302976,4.365605908704596,-2.943222811701818,1.00143745,0.0,51,mp-1196679,Nb6O15F,https://materialsproject.org/materials/mp-1196679,621.0867722105639
-3.260087878,-32.60087878,4.482072748212407,-1.2399685509080465,0.0,2.4594,225,mp-1112931,Cs2YAgI6,https://materialsproject.org/materials/mp-1112931,453.47754264479124
-7.7287974624,-386.43987312,4.096662012289468,-2.88444258301,0.0,2.5679000000000003,100,mp-766938,K3Li2Nb5O15,https://materialsproject.org/materials/mp-766938,677.4843223371763
-5.214732300185187,-281.59554421,4.156472184054038,-3.321447027504074,12.0000646,0.3099000000000001,87,mp-1208697,Sr5Co3F19,https://materialsproject.org/materials/mp-1208697,779.7328642318604
-3.383152975,-40.597835700000005,3.565903907678364,-0.613454855,0.0,0.4579,62,mp-12418,SrCaGe,https://materialsproject.org/materials/mp-12418,373.1666122344943
-4.716375827407409,-127.34214734,5.3189173840671495,-1.0591794058333337,4.1e-06,2.5109,148,mp-1194095,TiAg2(IO3)6,https://materialsproject.org/materials/mp-1194095,409.91800581812356
-3.288565155833333,-39.46278187,4.242869489669176,-1.7145078758333334,0.0,3.8014,62,mp-568284,SrI2,https://materialsproject.org/materials/mp-568284,534.5024970824866
-6.378783458928572,-178.60593685,5.7308183484952675,-1.6871872146428577,5.9999862,0.7987000000000002,59,mvc-7090,Zn(MoO2)2,https://materialsproject.org/materials/mvc-7090,372.378888937526
-1.664020185,-19.96824222,2.572453313352124,-0.006539624999999975,0.0130762,0.0,12,mp-1094352,Sr2Mg,https://materialsproject.org/materials/mp-1094352,515.2315278445541
-6.4824892316666665,-77.78987078,7.4545561295322695,-1.1810225865476187,1.95e-06,0.0,194,mp-1102777,SmNiP,https://materialsproject.org/materials/mp-1102777,213.86892323871342
-6.4316341825,-180.08575711,6.351392923060764,-1.740037938214286,5.9999236,0.7309999999999999,62,mvc-6112,Zn(MoO2)2,https://materialsproject.org/materials/mvc-6112,335.9949219276225
-3.734876759565217,-85.90216547,3.3122771938068185,-0.4311189973913045,0.695396,0.0,12,mp-573908,Sr11(MgSi5)2,https://materialsproject.org/materials/mp-573908,648.3606614693405
-5.3801584841666665,-64.56190181,9.954773000981485,-0.3787832691666668,0.0,0.0,36,mp-8073,AsPd2,https://materialsproject.org/materials/mp-8073,192.0041254444483
-3.8897709096428565,-108.91358547,4.621825575305223,-0.6236387089360116,5.15e-06,0.6419000000000001,9,mp-542200,CdAg4Ge2S7,https://materialsproject.org/materials/mp-542200,656.4936994524129
-5.9188469425,-47.35077554,5.409187187885019,-0.7428925937499997,3.5e-07,0.0,62,mp-1860,LaSi,https://materialsproject.org/materials/mp-1860,205.05485602977672
-3.659236363333333,-32.93312727,6.030222375157067,-0.12181718370370358,0.004908699999999999,0.0,156,mp-1223718,InGe2SbTe5,https://materialsproject.org/materials/mp-1223718,280.83774011936146
-3.987227403333333,-47.84672884,7.234672450570269,-0.6381207891666664,0.0,0.0,194,mp-20201,NdZnSn,https://materialsproject.org/materials/mp-20201,301.4683876506174
-9.900840759642858,-277.22354127,6.146823509100161,-1.6933472410028565,0.0,0.9705999999999992,62,mp-277,Zr3N4,https://materialsproject.org/materials/mp-277,356.26708854134506
-6.4613309717857135,-180.91726721,6.2797994002070086,-1.7697347275000002,6.000000025,1.4453999999999994,57,mvc-6779,Zn(MoO2)2,https://materialsproject.org/materials/mvc-6779,339.8254678716503
-6.5365935475,-52.29274838,9.408423080859158,-0.5517514849999996,0.0,0.0,62,mp-22239,GeRh,https://materialsproject.org/materials/mp-22239,123.93156793272128
-5.997548191818183,-65.97303011,7.750872551023357,-0.34578744606060624,1e-07,0.0,10,mp-607475,Zr4In5Co2,https://materialsproject.org/materials/mp-607475,226.41897948387737
-9.251714914444443,-83.26543423,7.4772221939236365,-0.9784951251587302,1e-07,0.0,189,mp-10300,ZrMoP,https://materialsproject.org/materials/mp-10300,145.3318868310179
-3.4144011133333336,-40.97281336,5.109329584834866,-0.3711895624869796,0.0,1.3664999999999998,6,mp-1219479,Sb4Se3SI4,https://materialsproject.org/materials/mp-1219479,410.6726486238705
-7.0828592327777775,-254.98293238,3.3154666560050416,-2.4555482119827587,1e-07,3.5554,9,mp-1209472,Rb2Zr(MoO4)3,https://materialsproject.org/materials/mp-1209472,743.2281875439392
-2.5714411040000003,-25.71441104,6.8609757559729925,-0.2086113018333336,0.0020648000000000003,0.0,139,mp-1226829,Cd4InTe4As,https://materialsproject.org/materials/mp-1226829,278.2782833315785
-7.139726298888887,-128.51507338,5.645298843164777,-0.6300890821688875,0.0016262999999999998,0.0,15,mp-1245846,Sr3(MoN2)2,https://materialsproject.org/materials/mp-1245846,300.47947338086243
-7.189377553999998,-143.78755108,6.283077336934066,-0.9791607654999992,0.0,0.0,15,mp-9882,Y2Si5Rh3,https://materialsproject.org/materials/mp-9882,331.3931566879432
-8.235110440714285,-230.58309234,5.191753309776337,-3.731612951428571,0.0,3.6959,62,mp-17275,SrY2O4,https://materialsproject.org/materials/mp-17275,421.46086759537354
-4.554395427,-45.54395427,4.792475403896408,-2.33165122875,6.95e-06,3.1127,72,mp-551835,Ba2I2O,https://materialsproject.org/materials/mp-551835,377.30020299935006
-8.4548717018,-422.74358509,4.920122510755733,-3.046660422842001,20.9994676,0.0,1,mp-1216458,Y4ZrMn5O15,https://materialsproject.org/materials/mp-1216458,649.0309200226693
-6.515567209574468,-306.23165885,5.053909371271762,-2.039018689148936,34.9999999,0.41339999999999977,2,mp-1223041,Li11(MoO2)12,https://materialsproject.org/materials/mp-1223041,529.5212250983911
-3.173600487,-31.73600487,4.592240135345704,-1.1669658694080458,0.0,2.0571,225,mp-1112938,Cs2ScAgI6,https://materialsproject.org/materials/mp-1112938,426.7065071091835
-3.606660163,-36.06660163,4.0039271437486645,-0.9110208976000004,3.0000001,0.3589,225,mp-1112047,K2CuMoBr6,https://materialsproject.org/materials/mp-1112047,297.40388932921394
-5.9042155250000015,-106.27587945,5.091730301032612,-0.5917576016133334,2.37e-05,0.0,2,mp-1246298,Sr4RuN4,https://materialsproject.org/materials/mp-1246298,331.06666785840565
-6.268351540555555,-112.83032773,5.4897186915618965,-0.9288198349466662,0.00097365,1.0396999999999998,2,mp-1245594,Ba4ZrN4,https://materialsproject.org/materials/mp-1245594,421.39247784533234
-7.8922380484482755,-457.74980681,4.334936990970745,-2.847611437672413,1.1177175,0.0,1,mp-531722,Li5Nb6O18,https://materialsproject.org/materials/mp-531722,674.2863144060319
-3.165075115,-31.65075115,4.013737155614245,-1.456755088474138,5e-08,1.5665000000000002,194,mp-1205638,Cs3BrO,https://materialsproject.org/materials/mp-1205638,409.2621825752906
-6.908340754166668,-82.90008905,10.725983047665633,-0.4694667391666663,0.0,0.0,62,mp-22585,GeRh2,https://materialsproject.org/materials/mp-22585,172.43314824282538
-6.1560069825,-73.87208379,7.736469629617063,-0.9376991341666674,6.5e-07,0.0,62,mp-1095628,YSnPd,https://materialsproject.org/materials/mp-1095628,269.61589140776886
-7.3790431513333345,-221.37129454,5.771593532487053,-2.9993455392500015,1.3333333333333334e-07,2.0506999999999995,185,mp-504607,YInO3,https://materialsproject.org/materials/mp-504607,434.5361005424576
-7.2015017392307685,-187.23904522,4.984178655468793,-1.4108941001923083,1.0116241,0.0,194,mp-1094100,Nb4CoS8,https://materialsproject.org/materials/mp-1094100,457.81706823798544
-2.648684791,-26.48684791,3.4979094096445125,-1.0695934296896552,0.0,2.121,225,mp-1113430,CsRb2AlI6,https://materialsproject.org/materials/mp-1113430,518.5162264498331
-3.655824742,-36.55824742,2.7715001627705163,-1.7120618719,0.0,3.2221,225,mp-1111163,K3ScBr6,https://materialsproject.org/materials/mp-1111163,384.4582405672719
-5.940112778181819,-130.68248112,5.521648116281022,-0.6635482731818179,1.2e-06,0.0,72,mp-1209024,Sc6Sn5,https://materialsproject.org/materials/mp-1209024,519.2359957506094
-5.001110463064517,-310.06884871,2.788043034615588,-1.4310145644779728,5e-08,3.6686,14,mp-24755,Rb2NiH12(SeO7)2,https://materialsproject.org/materials/mp-24755,742.8663852224493
-7.850047842333334,-471.00287054,4.3977395077957855,-2.909976363583333,1.6666666666666667e-08,2.9835000000000003,1,mp-676694,LiNbO3,https://materialsproject.org/materials/mp-676694,669.8987706195263
-7.851215191694917,-463.22169631,4.347288258044548,-2.8597522073728814,0.9751752,0.0,1,mp-676591,Li11Nb12O36,https://materialsproject.org/materials/mp-676591,675.0218329484896
-7.057545130128204,-550.48852015,3.3595254167849182,-2.55832330007326,9.000000066666667,2.5497,1,mp-26561,Li3Mo3(PO4)4,https://materialsproject.org/materials/mp-26561,1020.9731073998962
-6.954827684545455,-153.00620906,5.823160920978426,-3.1726106165909087,0.0,3.1559,167,mp-769391,Ba4ZrO6,https://materialsproject.org/materials/mp-769391,420.05851422125494
-7.19749109826087,-496.62688578,3.3745885338777315,-2.360280244720496,6.000000166666666,1.1783,1,mp-26562,Mo3(PO4)4,https://materialsproject.org/materials/mp-26562,985.6765817466583
-7.094239166447369,-539.16217665,3.158634130929273,-2.5230813180538623,2.0000061000000002,2.3407,4,mp-15405,RbMo2P3O13,https://materialsproject.org/materials/mp-15405,1216.0008420362458
-9.754591036666666,-117.05509244,8.562439475587988,0.009080343750001182,3.3e-06,0.0,160,mp-1215625,Zr3GeMo8,https://materialsproject.org/materials/mp-1215625,216.0087116848518
-4.539671871111112,-163.42818736,4.812458005066741,-1.1572563646018523,0.00028480000000000004,3.1641,14,mp-1196607,NaIn(IO3)4,https://materialsproject.org/materials/mp-1196607,577.9026129190771
-6.459320945769231,-167.94234459,5.9775606983182215,-1.610562201923078,4.00000025,2.3238000000000003,186,mp-1209899,Ni2Mo3O8,https://materialsproject.org/materials/mp-1209899,296.2421569237053
-6.693624135454545,-147.25973098,5.148834134810602,-1.6214243436818183,11.00000095,0.03880000000000017,127,mp-28849,K(Mo2O3)2,https://materialsproject.org/materials/mp-28849,334.6693495572007
-8.673580426818182,-381.63753878,4.152077779611292,-3.09677370113091,5.525e-06,2.2294,62,mp-760188,Nb3O7F,https://materialsproject.org/materials/mp-760188,655.426066374133
-4.8557323865625,-310.76687274,2.537565441129394,-0.3085933848500213,0.00089915,9.999999999976694e-05,167,mp-1238356,Cs3Y2(H2N)9,https://materialsproject.org/materials/mp-1238356,943.2682217773207
-5.32766932326087,-245.07278887,4.498487905535251,-1.604017803553044,0.0,3.7634,161,mp-543040,Ga2Te3(HO2)6,https://materialsproject.org/materials/mp-543040,531.7625738777235
-4.482291487083333,-107.57499569,6.004621041669691,-0.8446094651128474,0.0,1.7018000000000002,14,mp-16913,Ag2SeO3,https://materialsproject.org/materials/mp-16913,379.07988407471413
-6.785904409166666,-162.86170582,4.256405213109373,-2.6461623610175,5.0000002,2.3398000000000003,113,mp-22458,Sr2MnGe2O7,https://materialsproject.org/materials/mp-22458,380.3379139409063
-6.292099413529412,-213.93138006,6.104063638055632,-2.413798500318628,1e-07,0.2826999999999997,223,mp-1147699,Ba4Ti(CuO3)3,https://materialsproject.org/materials/mp-1147699,506.9746940127173
-7.415701329230768,-96.40411728,9.181796150531731,-0.5026528192307685,0.0,0.0,87,mp-7221,Nb5(AsPd)4,https://materialsproject.org/materials/mp-7221,215.19455979919644
-4.991805959677419,-309.4919695,2.780087746514224,-1.497240049961844,0.0,3.6853,14,mp-24182,Rb2ZnH12(SeO7)2,https://materialsproject.org/materials/mp-24182,753.0145354398968
-4.8112295565,-96.22459113,5.408088299010892,-0.14222093249999973,0.0,0.0,213,mp-625,Mg3Ru2,https://materialsproject.org/materials/mp-625,337.8196067773043
-3.624258277,-36.24258277,2.7965973056728983,-1.6898755921344826,0.0,3.2699,225,mp-1111597,K2RbScBr6,https://materialsproject.org/materials/mp-1111597,408.54092185826295
-6.542030864814816,-706.5393334,2.3789725911934543,-1.0789837192303704,0.3275548166666667,0.0,14,mp-601323,MoH2(CO2)2,https://materialsproject.org/materials/mp-601323,1557.7407651143592
-3.610958394,-36.10958394,6.095747005386008,-0.07457082800000023,6.35e-06,0.1661999999999999,12,mp-1078331,Sb2Te3,https://materialsproject.org/materials/mp-1078331,341.23096336310005
-5.546074535000002,-55.46074535,5.101142156064348,-0.7891554009999999,3.895e-05,0.0,127,mp-865747,Y2MgGe2,https://materialsproject.org/materials/mp-865747,226.17122403906242
-4.981818072857143,-139.49090604,3.138703417657537,-1.8634508414306896,0.0,1.0958,12,mp-22976,Rb2(NbCl3)3,https://materialsproject.org/materials/mp-22976,813.3989712922973
-6.26620709513158,-476.23173923,3.413377662426544,-2.037633301710526,2.000002725,0.00649999999999995,62,mp-1211266,Li4(MoO4)3,https://materialsproject.org/materials/mp-1211266,987.7032963285939
-6.265461441538463,-162.90199748,5.0277384161396865,-0.2183495430215382,0.0032968000000000003,0.9558,15,mp-1247141,Si2Sn5N6,https://materialsproject.org/materials/mp-1247141,484.6867588520124
-3.6138683730000003,-36.13868373,3.0835617574426686,-1.2171249023999997,3.0000001,1.5482,225,mp-1111172,K3MoBr6,https://materialsproject.org/materials/mp-1111172,373.0060350104211
-5.274946172619048,-221.54773925,4.805880650369545,-1.2536837537358279,5.865e-05,0.049700000000000084,14,mp-1182984,Ag4Te(PO7)2,https://materialsproject.org/materials/mp-1182984,583.9409636440375
-6.952646436111111,-250.29527169999997,4.145687346771034,-3.1680576538194436,0.0,3.8991,20,mp-560233,Sr5B3BrO9,https://materialsproject.org/materials/mp-560233,556.303785575054
-8.66203148392857,-242.53688155,5.734275344835122,-3.4375629899107145,0.00015735,2.5417,12,mp-676286,Zr4CdO9,https://materialsproject.org/materials/mp-676286,359.8346784458877
-3.600362919,-36.00362919,3.517579409416212,-0.4050448841379311,0.0,0.5375000000000001,69,mp-15556,Rb2As3,https://materialsproject.org/materials/mp-15556,373.59552457277215
-7.288019865,-349.82495352,3.7657178080632905,-2.6170426881666664,8.5e-07,3.589,60,mp-19499,KY(MoO4)2,https://materialsproject.org/materials/mp-19499,789.9913735355755
-2.738849838,-27.38849838,3.210547192433093,0.07778043399999994,4.05e-06,0.0,227,mp-1208743,Sr4Rh,https://materialsproject.org/materials/mp-1208743,468.9943974001307
-8.378255572222223,-75.40430015,8.352971784691903,-0.27791309666666564,2e-07,0.0,87,mp-1743,Mo5As4,https://materialsproject.org/materials/mp-1743,154.93905376489812
-6.7969157088636365,-299.06429119,4.450999016575079,-1.9620729380681816,6.000000075,0.9613999999999998,62,mvc-9231,MgMo3O7,https://materialsproject.org/materials/mvc-9231,632.9088309868446
-2.556533693,-25.56533693,3.8132568895028682,-1.0891810576091954,0.0,1.3972,225,mp-1112521,Cs2RbInI6,https://materialsproject.org/materials/mp-1112521,534.5432507837172
-6.6015163268,-495.11372451,3.346312607042744,-2.42400339756,0.0,3.641,1,mp-1221800,Na2Mg3(MoO4)4,https://materialsproject.org/materials/mp-1221800,1129.3860011697254
-7.867437545555557,-70.80693791,6.421259067690265,-0.42685880208333377,5.0212152,0.0,12,mp-1215351,Zr6Fe2O,https://materialsproject.org/materials/mp-1215351,174.56378915531468
-2.653942984,-26.53942984,4.400417037071437,-0.8234594210747126,0.0,0.129,225,mp-1112891,Cs2InAsI6,https://materialsproject.org/materials/mp-1112891,459.2379176655331
-4.338390403333333,-182.21239694,2.7712031585601173,-0.8217253516999994,0.9999998,0.4456,136,mp-24103,CuH12Br4(NO)2,https://materialsproject.org/materials/mp-24103,545.6061515557044
-2.579168321,-25.79168321,4.4034100343830085,-0.9104020675747126,0.0,0.2835000000000001,225,mp-1113095,Cs2InGaI6,https://materialsproject.org/materials/mp-1113095,456.96536615927954
-5.752877411,-57.52877411,8.303329627475033,-0.660518759,6.5e-07,0.0,127,mp-13429,La2CdRh2,https://materialsproject.org/materials/mp-13429,238.39495970893964
-7.851443995555557,-70.66299596,6.640621439141516,-0.5199400365277774,1.5284657,0.0,8,mp-1215347,Zr6Co2O,https://materialsproject.org/materials/mp-1215347,170.34180627399797
-3.619754218,-36.19754218,3.3879341235189875,-1.2002040270499996,3.0000001,1.3648000000000002,225,mp-1111637,K2NaMoBr6,https://materialsproject.org/materials/mp-1111637,331.59980677220517
-7.503468125245901,-915.42311128,3.1463951499953016,-3.1490926703161595,0.0,4.1294,1,mp-1265911,Na10Zr6Si7(PO18)2,https://materialsproject.org/materials/mp-1265911,1701.2488468268812
-5.9446820178947375,-225.89791668,5.5003197146501694,-1.896338327802632,3.4399999999999996e-05,0.7792000000000003,40,mp-766341,NaSb5O13,https://materialsproject.org/materials/mp-766341,507.05806841128793
-4.2361349965000015,-84.72269993,3.8463185223817984,-1.4646195981724142,5.00000085,1.2902,59,mp-754255,Rb5FeO4,https://materialsproject.org/materials/mp-754255,472.4603037852473
-3.134135552,-31.34135552,2.8982840447519918,-1.4488160694,0.0,3.1738,225,mp-1111185,K3AlBr6,https://materialsproject.org/materials/mp-1111185,357.3421071118813
-9.01585795,-225.39644875,5.372827754529772,-3.7829218099999986,0.0,3.8853,148,mp-770419,Sr2Zr7O16,https://materialsproject.org/materials/mp-770419,330.6344609003773
-3.730833034,-37.30833034,2.750258770963198,-1.7735854543999998,0.0,3.801,225,mp-1111153,K3YBr6,https://materialsproject.org/materials/mp-1111153,413.9634699779581
-2.887814405,-28.87814405,3.0595928752681036,-1.2836185606344828,2.5e-06,2.191,225,mp-1111213,K2RbGaBr6,https://materialsproject.org/materials/mp-1111213,386.86557529433907
-2.6387024557142857,-73.88366876,3.9423626056619416,-0.17541660821428556,1e-07,0.0,146,mp-31503,Mg9Sn5,https://materialsproject.org/materials/mp-31503,684.2838644824867
-3.120357321666667,-37.44428786,7.976496813626336,-0.07140846897569493,1.1825e-05,0.0,19,mp-568936,Ag2Se,https://materialsproject.org/materials/mp-568936,245.39839409776263