energy_per_atom,energy,density,formation_energy_per_atom,total_magnetization,band_gap,sgr,mp_id,formula,URL,cell_volume
-6.7161494225,-26.86459769,10.751686053412406,-0.57985939875,6.7705725999999995,0.0,225,mp-1184306,EuBiPd2,https://materialsproject.org/materials/mp-1184306,88.6178588185781
-2.9893298675,-11.95731947,0.504865795015395,1.8576947741666667,1.9054089,0.0,71,mp-1093839,Y2InPb,https://materialsproject.org/materials/mp-1093839,1643.9749699743054
-4.51491068,-22.5745534,12.289196695141046,-0.2866883437240005,0.0004246,0.0,221,mp-1068746,TlHPd3,https://materialsproject.org/materials/mp-1068746,70.89184818311757
-0.6455365,-2.582146,0.5195942399250014,0.9603773766666668,1.4495898999999999,0.0,71,mp-1096160,Sr2InHg,https://materialsproject.org/materials/mp-1096160,1568.0315451832569
-5.089162805,-20.35665122,12.146816263232395,-0.23099510875000015,1e-07,0.0,225,mp-1227285,BiPd3,https://materialsproject.org/materials/mp-1227285,72.21347451844912
-2.0858126775,-8.34325071,6.119536250575634,-0.4798988008333331,2.3800000000000003e-05,0.0,225,mp-1187240,Sr2InHg,https://materialsproject.org/materials/mp-1187240,133.1375655828955
-1.68020626,-6.72082504,0.5702219336170071,1.85809201625,2.0,0.13929999999999998,71,mp-1093782,Y2CdHg,https://materialsproject.org/materials/mp-1093782,1429.2920030417781
-7.0460953025,-28.18438121,14.275078415046112,-0.021684637500000825,2.64e-05,0.0,221,mp-974370,PtRh3,https://materialsproject.org/materials/mp-974370,58.604259416169214
-3.95840205,-15.833608199999999,7.759556535644269,-0.4201037737500002,5.3e-06,0.0,225,mp-1187706,Y2CdHg,https://materialsproject.org/materials/mp-1187706,105.03353457558616
-3.66212916875,-29.29703335,7.116701695526048,-0.22175577221354148,0.0006596,0.0,160,mp-1229140,Ag2SnBiSe4,https://materialsproject.org/materials/mp-1229140,200.49260573516324
-1.993116555,-7.97246622,7.195911826429522,0.12073910874999982,0.00021180000000000003,0.0,225,mp-1008490,BiI3,https://materialsproject.org/materials/mp-1008490,136.07859806659246
-0.940277575,-3.7611102999999995,0.4109785747600912,1.1814509816666665,0.0535102,0.0,71,mp-1097657,Sr2TlIn,https://materialsproject.org/materials/mp-1097657,1997.766141745062
-1.12575539,-4.50302156,0.2951948889447333,0.5809195920258621,1.9998223000000002,0.0365000000000002,71,mp-1096445,CsRb2Bi,https://materialsproject.org/materials/mp-1096445,2884.7384332215247
-2.5227532225,-10.09101289,0.5982466537211676,1.7580278487499998,2.9999995999999998,0.2547000000000001,71,mp-1093811,Y2CdAu,https://materialsproject.org/materials/mp-1093811,1352.279692684451
-2.5255528625,-10.10221145,5.847469131355632,-0.4038243058333335,0.0037210999999999998,0.0,225,mp-1187125,Sr2TlIn,https://materialsproject.org/materials/mp-1187125,140.40930583724318
-4.43345946,-17.73383784,7.60562541538195,-0.3793465037499999,0.0024011999999999996,0.0,225,mp-865651,Y2TlCd,https://materialsproject.org/materials/mp-865651,107.98751286872232
-4.619990846666667,-41.57991762,4.2920481854944255,-2.398245558625952,0.0,2.6219,5,mp-1004530,CsBPb(IF2)2,https://materialsproject.org/materials/mp-1004530,263.36155460567846
-4.186581299999999,-16.746325199999998,8.078913574521433,-0.8370208443750005,0.0,0.07509999999999993,225,mp-862968,PmTlTe2,https://materialsproject.org/materials/mp-862968,124.26598741545537
-4.01879408,-40.1879408,4.581289777685461,-2.6611520665760686,0.0,3.3310000000000004,139,mp-561827,Cs3TlF6,https://materialsproject.org/materials/mp-561827,259.9172116044496
-3.20674772,-16.0337386,4.419040765947223,-1.3099664552413792,0.0,2.4845,221,mp-600089,CsPbBr3,https://materialsproject.org/materials/mp-600089,217.8774910547569
-3.275988205,-13.10395282,7.343799736428338,0.05538437625000015,0.0002185,0.0,160,mp-35216,BiTe3,https://materialsproject.org/materials/mp-35216,133.810083686288
-3.071162635,-12.28465054,6.24720986826416,0.12361877749999994,0.0001965,0.0,12,mp-634989,TlSbTe2,https://materialsproject.org/materials/mp-634989,154.5239019736439
-5.37599643,-21.50398572,10.340865872930957,0.7420159543749998,0.8634360999999999,0.0,225,mp-974545,ReSn3,https://materialsproject.org/materials/mp-974545,87.0886222104365
-3.42355182,-13.69420728,6.934385564781799,-0.22877040750000036,0.0,0.15500000000000025,166,mp-4573,TlSbTe2,https://materialsproject.org/materials/mp-4573,139.21107159013414
-1.2704274875,-5.08170995,0.4451770255763611,1.1849317591666668,3.0000005,0.07999999999999963,71,mp-1095866,Sr2InPb,https://materialsproject.org/materials/mp-1095866,1854.8044362425999
-2.5685271475,-10.27410859,0.5609337895133215,1.8192164987499997,6e-07,0.15280000000000005,71,mp-1097128,Y2CdPb,https://materialsproject.org/materials/mp-1097128,1472.52639825612
-1.56973935,-6.2789574,6.150925593375884,-0.4231064687499999,4.6e-06,0.0,225,mp-1187079,Sr2CdHg,https://materialsproject.org/materials/mp-1187079,131.80833179021926
-0.3057419875,-1.22296795,0.436768553139472,0.8408908937500001,8e-07,0.5564,71,mp-1096352,Sr2CdHg,https://materialsproject.org/materials/mp-1096352,1856.2308014188643
-2.12555653,-8.50222612,0.6166213508643481,1.8912265508333328,2.9999998,0.1820000000000004,71,mp-1093613,Y2AgHg,https://materialsproject.org/materials/mp-1093613,1309.507288054534
-3.946238043,-39.46238043,4.920644820921241,-2.5850465901162987,5.5100000000000004e-05,0.0,225,mp-1112225,Rb2InHgF6,https://materialsproject.org/materials/mp-1112225,202.59094330142582
-7.7204229925,-30.88169197,14.49152751719532,0.005737169999999736,0.004272,0.0,221,mp-1184768,IrRh3,https://materialsproject.org/materials/mp-1184768,57.400410840528814
-4.4567273525,-17.82690941,8.040248967539572,-0.4399442716666666,0.00022400000000000002,0.0,225,mp-1187701,Y2AgHg,https://materialsproject.org/materials/mp-1187701,100.42850118035497
-2.0506485225,-8.20259409,5.985924674300268,-0.3882009612499999,0.000737,0.0,225,mp-862740,Sr2TlCd,https://materialsproject.org/materials/mp-862740,136.49389336236194
-2.9657155175,-11.86286207,0.6592420525562326,1.7935503583333332,2.0,0.030499999999999968,71,mp-1093787,Y2AgAu,https://materialsproject.org/materials/mp-1093787,1215.7193267404411
-4.338340249,-43.38340249,4.6584926823099035,-2.7708229241162985,0.0,3.6809,225,mp-989532,Rb2TlInF6,https://materialsproject.org/materials/mp-989532,215.34368884416017
-4.9077437575,-19.63097503,7.8087105597486826,-0.3751459966666664,3.3299999999999996e-05,0.0,225,mp-865654,Y2TlAg,https://materialsproject.org/materials/mp-865654,104.21299002450392
-4.1064772230000015,-41.06477223,5.130156383122409,-2.448292652116299,5.5e-06,0.4681,225,mp-1113879,Rb2InAuF6,https://materialsproject.org/materials/mp-1113879,193.14444888020884
-5.3519848275,-21.40793931,8.406729594574491,-0.5927189516666669,9.5e-06,0.0,225,mp-1187720,Y2AgAu,https://materialsproject.org/materials/mp-1187720,95.33473097670334
-5.5251216575,-22.10048663,10.232210326666982,0.8102945374999999,0.1266293,0.0,139,mp-1186919,Sb3W,https://materialsproject.org/materials/mp-1186919,89.11419610564427
-3.079073331,-30.79073331,3.3311048625972983,-1.8214508118180688,0.0,2.5460000000000003,225,mp-1112648,Cs3TlCl6,https://materialsproject.org/materials/mp-1112648,406.68100305760305
-6.4233051923076925,-83.50296750000001,7.132914049880233,-2.151097761634616,6.6779532999999995,0.0,123,mp-1209074,Sr2GdCu2HgO7,https://materialsproject.org/materials/mp-1209074,179.7603011005637
-3.9229488225,-15.69179529,0.821735518238018,2.4637530525,4.9999987,0.0,71,mp-1097538,Zr2PdAu,https://materialsproject.org/materials/mp-1097538,981.7602512009186
-3.320341167,-33.20341167,3.163422381599587,-1.6997137598582988,0.0,1.2632,225,mp-1114523,Rb2InBiCl6,https://materialsproject.org/materials/mp-1114523,371.3546669452549
-3.00456711,-30.0456711,3.81639355477374,-1.5293877556916322,0.0,0.0,225,mp-1113339,Rb2TlAgCl6,https://materialsproject.org/materials/mp-1113339,302.79308726943225
-2.925010996,-29.25010996,4.1419034676340365,-1.3591643956916324,1e-07,0.0,225,mp-1113858,Rb2AgAuCl6,https://materialsproject.org/materials/mp-1113858,276.0232883852039
-4.3373349975,-17.34933999,12.256855131805295,0.8951344831250001,2.0921406000000005,0.0,225,mp-1186896,ReAg3,https://materialsproject.org/materials/mp-1186896,69.06845644672107
-2.5014926625,-10.00597065,5.969013744194171,-0.5054144112499999,0.0,0.0,225,mp-862721,Sr2CdPb,https://materialsproject.org/materials/mp-862721,137.66418368232016
-3.838164191,-38.38164191,3.9468574647741295,-2.0867542779473798,0.0,2.2752,225,mp-1113410,Cs2LaAuCl6,https://materialsproject.org/materials/mp-1113410,342.63830700802845
-3.777387395,-15.10954958,0.6852268016533607,1.9009449912500005,1.3733149,0.0,71,mp-1093978,Y2CdIr,https://materialsproject.org/materials/mp-1093978,1169.1164945138116
-3.0317852525,-12.12714101,0.5702055606322728,1.8344431983333327,0.0045173999999999995,0.0,71,mp-1096653,Y2AgPb,https://materialsproject.org/materials/mp-1096653,1435.3530945467476
-4.802710085,-67.23794119,4.568596879819118,-1.078480132321429,3.0000014,0.133,166,mp-1247237,Mg2In3WS8,https://materialsproject.org/materials/mp-1247237,302.9230035563464
-0.7769015425,-3.10760617,0.4771237908132266,0.8482161433333334,0.0062093999999999995,0.0,71,mp-1095988,Sr2AgHg,https://materialsproject.org/materials/mp-1095988,1683.420026716182
-7.59112771,-75.91127709999999,7.543324468744693,-2.292684249583334,2.09e-05,1.3546000000000002,123,mp-1217907,TaNb(AgO3)2,https://materialsproject.org/materials/mp-1217907,128.90737744052532
-2.90551458,-11.62205832,0.6735181838427438,1.6986355949999998,1.9999758,0.028699999999999726,71,mp-1096132,Y2HgPd,https://materialsproject.org/materials/mp-1096132,1195.313474234481
-4.6587159375,-18.63486375,0.9055291379574488,2.4237877549999998,4.0,0.0,71,mp-1096470,Zr2PdPt,https://materialsproject.org/materials/mp-1096470,887.4603320868977
-3.6045694525,-14.41827781,10.218708002419984,-0.026468474999999717,0.0039734,0.0,221,mp-1184825,In3Pt,https://materialsproject.org/materials/mp-1184825,87.67487165220378
-3.818570905,-15.27428362,0.7268830800284111,1.528062065,1.462842,0.0,71,mp-1093733,Y2PdAu,https://materialsproject.org/materials/mp-1093733,1099.2806595851562
-2.977112795,-11.90845118,11.99330809157859,-0.03720220750000003,1.4e-06,0.0,221,mp-1183137,Ag3Au,https://materialsproject.org/materials/mp-1183137,72.07592289152635
-4.6006298225,-36.80503858,5.933236453302418,-0.4198985737500003,0.9224066999999999,0.0,166,mp-12017,CeAl4Ge2Au,https://materialsproject.org/materials/mp-12017,165.20451827465715
-7.15876643,-28.63506572,13.696774241988988,-0.03525343750000065,5.2e-06,0.0,139,mp-1186437,Pd3W,https://materialsproject.org/materials/mp-1186437,60.99371839414096
-2.9696754939999996,-29.69675494,3.812670016203576,-1.5951832301973794,0.00026619999999999997,0.0,225,mp-1112902,Cs2HgSbCl6,https://materialsproject.org/materials/mp-1112902,348.80823161206285
-6.675160299,-133.50320598,5.339059164500497,-2.0521008684419995,14.0000014,0.08420000000000005,6,mp-1228618,Ba3Mn4PtO12,https://materialsproject.org/materials/mp-1228618,316.8673906781656
-3.1989870560000004,-31.98987056,4.178442321490103,-1.5275016741973793,0.0,0.2817000000000003,225,mp-1112926,Cs2SbAuCl6,https://materialsproject.org/materials/mp-1112926,316.83429746756485
-3.780824564,-37.80824564,3.989679347010324,-2.0437056586973794,0.0,2.1629,225,mp-1113408,Cs2PrAuCl6,https://materialsproject.org/materials/mp-1113408,339.7940385367532
-3.322406897,-33.22406897,3.5568317023397498,-1.7415887611973797,0.0,1.6545,225,mp-1112003,Cs2TlSbCl6,https://materialsproject.org/materials/mp-1112003,375.6684939390767
-3.5900582225,-14.36023289,7.226842308691773,-0.5266559241666671,2.68e-05,0.0,225,mp-867163,Sr2AgPt,https://materialsproject.org/materials/mp-867163,109.87604029611524
-1.4566946475,-5.82677859,0.4676536291243519,1.0178684083333334,1.6269446,0.0,71,mp-1093664,Sr2AgPb,https://materialsproject.org/materials/mp-1093664,1740.980625461229
-4.5955507975,-18.38220319,0.7718248441631448,1.44688399,0.9641089,0.0,71,mp-1097647,Y2PdPt,https://materialsproject.org/materials/mp-1097647,1031.2215761827556
-6.75182077,-27.00728308,9.01293969353132,-0.5950035791666668,4.99e-05,0.0,225,mp-866160,Y2AgIr,https://materialsproject.org/materials/mp-866160,88.0474613753964
-3.74943523,-14.99774092,0.574580430160246,1.7041603149999998,0.0025543000000000002,0.012500000000000178,71,mp-1096202,Y2PdPb,https://materialsproject.org/materials/mp-1096202,1420.2389787552984
-2.9979654225,-11.99186169,7.686866306525768,0.04048956374999957,0.0007867999999999999,0.0,221,mp-1184488,In3Bi,https://materialsproject.org/materials/mp-1184488,119.5544960237946
-3.6242514475,-14.49700579,12.460415410513251,0.011460957500000646,2e-07,0.0,221,mp-12065,Ag3Pt,https://materialsproject.org/materials/mp-12065,69.12311038813644
-4.399357056,-43.99357056,4.3599938887616565,-2.678710154616299,0.0,2.2926,225,mp-1114388,Rb2InBiF6,https://materialsproject.org/materials/mp-1114388,231.83763291237548
-6.920297047058822,-235.2900996,3.6029268206443392,-2.364903063025209,1.0,0.20120000000000027,146,mp-775210,Sb3P6WO24,https://materialsproject.org/materials/mp-775210,515.707705384464
-5.14162072,-20.56648288,0.910115028906366,2.642632470000001,2.9999981,0.0,71,mp-1096630,Zr2IrPd,https://materialsproject.org/materials/mp-1096630,877.7576445675725
-3.359448242,-33.59448242,3.1564162311818884,-1.9486961463180688,0.0,3.9505,225,mp-1112979,Cs3BiCl6,https://materialsproject.org/materials/mp-1112979,431.6068069139922
-1.9362121825,-7.74484873,5.112522464013495,0.24953758284482785,0.48153959999999996,0.0,221,mp-1064000,Cs3Pt,https://materialsproject.org/materials/mp-1064000,192.86539659166058
-3.107804271111111,-55.94047688,3.1082891544874576,-1.685213327249962,8.6e-05,0.9385,123,mp-1219616,Rb4TlSbCl12,https://materialsproject.org/materials/mp-1219616,584.1532603027478
-1.8045990675,-7.21839627,0.9455707826701766,1.4615108225,0.9737515,0.0,71,mp-1096620,Cd2PdPt,https://materialsproject.org/materials/mp-1096620,924.2934392484223
-7.049870253529412,-239.69558862,3.715673722237985,-2.5048835143487387,0.0,2.7074,146,mp-774417,Sn3P6WO24,https://materialsproject.org/materials/mp-774417,495.9701332485837
-3.953776878,-39.53776878,5.0595105119273045,-2.3785780294496317,0.0,0.5541,225,mp-1113579,Rb2TlAgF6,https://materialsproject.org/materials/mp-1113579,195.9945694557334
-3.235933195,-12.94373278,12.021237327069414,-0.12342612999999993,1.0300000000000001e-05,0.0,225,mp-1183541,Cd2RhAu,https://materialsproject.org/materials/mp-1183541,72.47797892393464
-3.881156755,-15.52462702,8.011698937159995,0.10045256250000012,0.0008771000000000001,0.0,221,mp-1187024,Sn3Bi,https://materialsproject.org/materials/mp-1187024,117.12720216651799
-5.1728290625,-20.69131625,0.91358038481299,2.451873622499999,3.0,0.0,71,mp-1095822,Zr2PtRh,https://materialsproject.org/materials/mp-1095822,873.2512631532766
-3.706530338,-37.06530338,5.455729181700216,-2.0406642434496325,7e-07,0.0,225,mp-1113875,Rb2AgAuF6,https://materialsproject.org/materials/mp-1113875,179.50319388142302
-2.299803255,-9.19921302,0.6086522734679081,0.6551643200000004,0.0017759,0.0,71,mp-1096706,Sr2PdAu,https://materialsproject.org/materials/mp-1096706,1305.7999420216727
-4.76658745,-19.0663498,13.339962114644651,-0.06457558000000052,3.0299999999999998e-05,0.0,221,mp-999298,Pd3Au,https://materialsproject.org/materials/mp-999298,64.25913086879767
-3.60439883,-14.41759532,7.136350346363543,-0.6494312549999997,1.58e-05,0.0,225,mp-1187095,Sr2PdAu,https://materialsproject.org/materials/mp-1187095,111.37038749936757
-5.00697848,-25.0348924,8.21120604927796,-0.6370462449999998,0.0,0.0,107,mp-22346,BaGe3Pt,https://materialsproject.org/materials/mp-22346,111.29255616507122
-3.1532850600000004,-22.07299542,8.131082093689736,-0.07940606068452435,2.62e-05,0.0,10,mp-675633,Ag4AuS2,https://materialsproject.org/materials/mp-675633,141.43732185721902
-7.063833275,-98.89366585,7.262179197177451,-2.183458401428572,7.1984458,0.0,38,mp-1218849,Sr2GdCu2IrO8,https://materialsproject.org/materials/mp-1218849,178.30442861680424
-1.7087504375,-6.83500175,0.9569388867896496,1.4037566275,2.0000487000000002,0.21740000000000004,71,mp-1093594,Cd2RhAu,https://materialsproject.org/materials/mp-1093594,910.4813250446093
-3.2760209710000003,-32.76020971,3.61490186257905,-1.6477120401916323,0.0,1.8337000000000003,225,mp-1113806,Rb2AgBiCl6,https://materialsproject.org/materials/mp-1113806,321.7822488481044
-4.3715062475,-17.48602499,0.7237458532454952,1.517325715,0.40971,0.0,71,mp-1096657,Y2RhAu,https://materialsproject.org/materials/mp-1096657,1095.982165067802
-4.47970868625,-35.83766949,5.933158265371366,-0.4451308946874999,1e-07,0.0,166,mp-12018,NdAl4Ge2Au,https://materialsproject.org/materials/mp-12018,166.36145708726005
-3.7842113530000003,-37.84211353,4.049832200362034,-2.048951035947379,0.0,2.1458,225,mp-1113409,Cs2NdAuCl6,https://materialsproject.org/materials/mp-1113409,336.1141915987663
-2.8105501625,-11.24220065,11.726125830452439,0.09145732625000004,5.7000000000000005e-06,0.0,221,mp-1183626,Cd3Ir,https://materialsproject.org/materials/mp-1183626,74.97552110901047
-3.8404596525,-15.36183861,7.056127280927142,-0.3415347437499996,4.6e-06,0.8409999999999993,123,mp-1218915,SnTe2Pb,https://materialsproject.org/materials/mp-1218915,136.7543133954932
-6.603327172999999,-66.03327173,6.9490695868929935,-2.3338124600833328,2.9999998,0.37760000000000016,225,mp-1205776,Sr2InOsO6,https://materialsproject.org/materials/mp-1205776,137.70803880679452
-3.028253695,-12.11301478,1.0729146890465746,1.1564181858333331,0.029564499999999997,0.10319999999999974,71,mp-1093959,In2PdPt,https://materialsproject.org/materials/mp-1093959,822.039920517216
-7.179802801818181,-315.91132328,4.115119582737786,-2.7706992443668828,15.9999994,4.002599999999998,1,mp-1228512,Ba3Fe4P8PbO28,https://materialsproject.org/materials/mp-1228512,620.7508928281088
-3.6213368475,-14.48534739,5.445776322607122,-0.6781783945985991,0.0,0.9915,156,mp-1096942,CsBiSe2,https://materialsproject.org/materials/mp-1096942,152.4019864817139
-6.2212122856521725,-429.26364771,2.1372593307134484,-0.6909860285017387,0.0,1.7948,2,mp-1195183,H26Pd4Pt(C11O8)2,https://materialsproject.org/materials/mp-1195183,906.8506081637827
-4.4935047825,-17.97401913,12.210688591101064,0.8679069275000009,0.41876709999999995,0.0,225,mp-1183177,Ag3W,https://materialsproject.org/materials/mp-1183177,69.00770277208437
-6.12302774,-24.49211096,7.145304523811602,-1.053794377500001,6.999996799999999,0.16609999999999925,123,mp-1225161,EuTe2Pb,https://materialsproject.org/materials/mp-1225161,142.77563725532525
-5.1124885425,-20.44995417,12.497628489420785,-0.3035140975000008,2.2e-06,0.0,221,mp-20849,Pd3Pb,https://materialsproject.org/materials/mp-20849,69.94986158681341
-2.881257165,-11.52502866,0.6538190934656757,0.7695122274999999,2e-07,1.0780999999999998,71,mp-1097492,Sr2PdPt,https://materialsproject.org/materials/mp-1097492,1210.8120304188092
-4.0120008625,-16.04800345,12.534879531080891,-0.20369197999999988,6.900000000000001e-06,0.0,225,mp-865929,Cd2PtRh,https://materialsproject.org/materials/mp-865929,69.25865575000853
-4.3073501725,-17.22940069,7.752546812961858,-0.6565807799999996,9.93e-05,0.0,225,mp-1187097,Sr2PdPt,https://materialsproject.org/materials/mp-1187097,102.11509110298547
-2.926440709,-29.26440709,4.050941028027741,-1.6894972335307128,1.7e-06,0.0,225,mp-1112904,Cs2InHgCl6,https://materialsproject.org/materials/mp-1112904,325.44616545516294
-1.7361773,-6.9447092,0.5065536522146701,0.7875790070833335,0.0,0.2328999999999999,71,mp-1097475,Sr2AgBi,https://materialsproject.org/materials/mp-1097475,1613.1209949161614
-3.381051175,-13.524204699999999,7.055093846955684,-0.012727621796875256,3e-06,0.0,6,mp-1100988,TlSbSe2,https://materialsproject.org/materials/mp-1100988,113.93271654750265
-7.6232468475,-30.49298739,9.414584240808825,-0.8790625624999997,5e-07,0.0,225,mp-865600,Y2IrPd,https://materialsproject.org/materials/mp-865600,84.03575204923523