energy_per_atom,energy,density,formation_energy_per_atom,total_magnetization_uB,total_magnetization_T,band_gap,sgr,num_sites,cell_volume,weight,mp_id,formula,URL,tsne_xrd_lin1_0,tsne_xrd_lin1_1,tsne_xrd_lin2_0,tsne_xrd_lin2_1
-6.395515464545454,-140.70134022,7.428151646581972,-1.9317252663372733,10.0000007,0.3931302768592712,1.5435,166,22,296.44284030853294,1326.08889,mp-1221942,Mn2Bi3Sb3O14,https://materialsproject.org/materials/mp-1221942,14.344376258249266,63.29036571983071,-7.931349948207586,38.2241281405807
-7.0184702591666674,-84.22164311,5.4643091695053085,-3.518254042065002,0.0003181,1.5137548776777653e-05,3.9429,99,12,244.89817068919038,805.8824800000001,mp-1223072,La4BrCl3O4,https://materialsproject.org/materials/mp-1223072,-13.91897990061325,10.261864155939831,-17.63747694297838,50.24214222883642
-7.839681424,-117.59522136,3.4060805018430647,-1.3159658339359992,0.0,0.0,3.2151,44,15,179.49905264248326,368.18660000000006,mp-567278,Sr(Si3N4)2,https://materialsproject.org/materials/mp-567278,-14.414123937797802,39.57291799151863,2.0528354939232893,50.5530505745714
-7.077612672222222,-63.69851405,8.19958825681387,-3.09919617375,2.0000006,0.1885122849597569,2.2640000000000002,71,9,123.64253365521515,610.5354,mp-19101,BaEr2NiO5,https://materialsproject.org/materials/mp-19101,-13.56540884830433,37.16133510729933,-10.928024746549811,54.60270787721168
-2.7999444891666667,-33.59933387,6.8878519562754725,-0.04865454166666675,3.3166666666666665e-06,1.1454474166675363e-07,0.0,5,12,337.4458539072495,1399.7124,mp-1095012,MgBi,https://materialsproject.org/materials/mp-1095012,15.562656353821039,-8.514831906284225,5.809110837907782,13.827646863565388
-8.563792892916666,-205.53102943,5.430109516357595,-3.1294451641071426,6.000000075,0.2314967526834808,0.0,14,24,302.05343573444736,987.741448,mp-3219,EuPO4,https://materialsproject.org/materials/mp-3219,9.853195531995183,14.318248311774301,13.30408115662615,8.418802883313225
-7.057780946875,-225.8489903,3.3466853003739754,-2.6480963006741067,0.999999975,0.031757150616361335,1.2628,14,32,366.9745003887055,739.60812512,mp-19291,NaVPO5,https://materialsproject.org/materials/mp-19291,18.054846533035327,20.229777990201427,58.47718621205122,33.24033494654446
-4.087245511,-81.74491022,7.963340621033666,0.002848644416666701,0.0,0.0,0.0,63,20,294.2950440050668,1411.331876,mp-752678,AgAuO3,https://materialsproject.org/materials/mp-752678,-8.092175260924815,5.457817856730147,-3.8810274649683145,26.12277741635079
-6.2899311005000005,-251.59724402,6.5538341495878685,-2.5602318376041677,0.0,0.0,2.2732,122,40,1115.2192823436058,4401.56,mp-32800,Ac2S3,https://materialsproject.org/materials/mp-32800,-44.73690365492835,-0.6494477130996845,1.9165194788230624,9.900046665242822
-6.0432521180555545,-217.55707625,3.6316279406994414,-2.653526398381705,9.216666666666668e-06,1.687733193388457e-07,3.7843,160,36,636.4254180767467,1391.87352708,mp-1225970,CsNaSiO3,https://materialsproject.org/materials/mp-1225970,0.5652210036456391,9.877809395820126,45.73953456206746,1.1096327882599415
-6.504489721923077,-169.11673277,5.880615529508482,-2.1174482493269235,12.99999975,0.4127247718200217,0.19130000000000005,186,26,367.07958783687013,1299.9717999999998,mp-17703,BaHoCo4O7,https://materialsproject.org/materials/mp-17703,6.550667670438933,53.58895876352288,9.478361053280716,52.023982551473466
-8.107008942391305,-372.92241135,5.790677494308362,-2.7820001640978265,0.0,0.0,1.7480000000000002,26,46,664.150063144666,2316.0424,mp-1224036,KNb5Pb2O15,https://materialsproject.org/materials/mp-1224036,24.359899205543496,35.158072923027824,32.355835108980024,36.92459638110393
-6.8498818391208784,-623.33924736,3.744776304616102,-2.6770142609340657,14.0000005,0.1107830721310296,0.42610000000000015,146,91,1472.7603189221259,3321.3058,mp-1219532,Sr18Ca3Cr14O56,https://materialsproject.org/materials/mp-1219532,6.4904884187611085,22.053190493585628,4.106280991812105,34.204778545714944
-7.199501976904763,-302.37908303,3.4337965040760667,-3.472941907619049,0.0,0.0,4.0564,173,42,596.4967463069132,1233.4840632,mp-5492,SrAl2O4,https://materialsproject.org/materials/mp-5492,3.374485317609938,26.149773616457036,-6.655024882479186,28.922539382897092
-7.972901153529411,-135.53931961,4.886072433833905,-3.4019368146176467,0.0,0.0,2.1812000000000005,42,17,227.7941672850073,670.2755999999998,mp-1223975,K2Nd2Ti3O10,https://materialsproject.org/materials/mp-1223975,-20.802562068262766,36.829530684294426,-13.7741806321622,56.92999052789377
-10.739586176,-107.39586176,12.297702272598126,0.029603381874999,11.00903745,0.6027694231844077,0.0,127,10,212.85093535108535,1576.342,mp-1080146,Pu3Si2,https://materialsproject.org/materials/mp-1080146,-37.88352030301835,10.81722645887123,-25.314947758933354,36.57666213570182
-6.684930221666666,-40.10958133,5.632514192389446,-2.554745194166666,0.0,0.0,1.601,65,6,62.71828759146169,212.7391386,mp-676861,AlSbO4,https://materialsproject.org/materials/mp-676861,1.9228986707343645,-2.6110956735961133,8.988307729257622,8.144446715729277
-6.753666128333332,-40.52199677,4.347164306043957,-3.015413777708334,0.0,0.0,2.3502,65,6,77.1589368189518,201.9962,mp-754534,Li2CeO3,https://materialsproject.org/materials/mp-754534,4.3116701830374415,0.3746334040140506,7.7522372213060535,-26.186316910524106
-7.088745363999999,-35.44372682,8.935201882034175,-0.41254735937500014,5.1248438,0.7521735439171623,0.0,139,5,79.40356594226154,427.263,mp-20751,Pu(CuSi)2,https://materialsproject.org/materials/mp-20751,-61.08597437526202,16.10507883938499,-59.931351798413345,24.968748771730656
-3.397178525,-6.79435705,3.8182842419542884,0.06726463874999977,0.020678799999999997,0.0030960573832368,0.0,187,2,77.83837467730011,178.98346999999998,mp-1183602,CaLa,https://materialsproject.org/materials/mp-1183602,-16.050148382260023,6.557174004361441,-25.261054905875,-11.134669574645445
-7.8557001333333325,-70.7013012,7.303927078043232,-2.605456953750001,14.000000400000001,1.2374444314049773,0.002299999999999969,71,9,131.8498894469269,579.9454000000002,mp-22294,BaEu2NiO5,https://materialsproject.org/materials/mp-22294,-13.517518673665284,36.645695586098476,-11.444909091669587,53.999585404891036
-8.030526143,-160.61052286,7.0129403459357365,-3.0478097432500006,2.99999995,0.13648043940192528,2.2679,14,20,256.16999687416484,1081.88056,mvc-5018,Ca2TaWO6,https://materialsproject.org/materials/mvc-5018,-13.87116899730331,48.7736542705152,26.30518745467562,51.80739486489487
-4.610212726666666,-69.15319090000001,3.3380824530969506,-1.8469742778640457,4.999999966666667,0.13271737686696872,1.4850000000000003,166,15,439.0557201317939,882.6074907,mp-23336,CsMnCl3,https://materialsproject.org/materials/mp-23336,9.137742977101118,5.99670962990772,7.42538830866916,14.184985445556464
-5.58025590875,-44.64204727,5.039379992221201,-1.867400476953125,3.0000002,0.21713485592357248,1.1487000000000005,63,8,161.0160492187311,488.64919,mp-1078227,BaCoSO,https://materialsproject.org/materials/mp-1078227,-10.372818238128442,23.054796688533788,-16.85947227212493,42.96471016111779
-6.426356411666667,-38.55813847,6.888773499624759,-2.985177672916668,0.0,0.0,3.4617000000000004,129,6,148.40687979351378,615.66838,mp-753173,HoIO,https://materialsproject.org/materials/mp-753173,21.247082273731433,60.96298547855629,-5.177667493149624,44.801196263375594
-6.8496165242857145,-287.68389402,2.86434499576946,-2.971441506663266,0.0,0.0,4.2975,147,42,612.5286413062195,1056.580608,mp-17035,K3Sc(PO4)2,https://materialsproject.org/materials/mp-17035,-34.390646921715835,14.969150231546676,-10.404357346714887,61.168029224668544
-7.268302004500001,-145.36604009,7.321032336925943,-2.6593270727500014,0.0,0.0,2.1193,62,20,313.8107338534696,1383.5378,mvc-15745,YBiO3,https://materialsproject.org/materials/mvc-15745,-21.57236865486072,13.798601500512293,-19.323004631607965,45.99713239542287
-6.447766458854166,-618.98558005,7.894344306608298,-1.9070450630729168,1.000000633333333,0.008411447779284341,0.7919,63,96,1385.5013380893781,6586.7916,mp-561165,VBi2O5,https://materialsproject.org/materials/mp-561165,23.089154703110818,60.67449104291018,-6.549532507177344,34.87563833920827
-4.052014968965517,-117.5084341,5.458932296814623,-0.4952174018211214,0.0,0.0,0.2157,121,29,590.2834740185871,1940.525,mp-1226169,Cu10Hg2Sb4S13,https://materialsproject.org/materials/mp-1226169,20.10492528881296,60.23389283764205,-7.299271348043648,32.80138901784049
-7.9805814779999995,-39.90290739,6.532059615497558,-3.0085550042500016,1.9999993000000003,0.38227279856395385,0.0,221,5,60.97248215105376,239.84735,mp-1069346,PrVO3,https://materialsproject.org/materials/mp-1069346,-30.214495115930127,50.52054304265825,-17.550108402700822,66.40649356987952
-6.98878956671875,-447.28253227,3.3384078964674155,-2.685508074375,1.9999996,0.029550303028566226,0.001100000000000101,130,64,788.7609430252393,1585.7536,mp-1252257,ZnSi4NiO10,https://materialsproject.org/materials/mp-1252257,20.324989522560653,-5.208482211830106,50.41415919732861,1.0848433446447865
-8.072976943461539,-419.79480106,4.9788114616285,-3.203415185384615,0.0581529,0.0008769069581322675,0.0,31,52,772.8501376653046,2317.2446,mp-760083,Sr5Nb5O16,https://materialsproject.org/materials/mp-760083,1.6412002360231257,23.29257325356688,1.6043904998429972,47.22663026281992
-4.007349257857142,-56.10288961,6.111938106903912,-0.6533860769047618,5e-08,2.7346428298329703e-09,0.5713,141,14,213.0820274849479,784.29,mp-754454,Cd(AgO2)2,https://materialsproject.org/materials/mp-754454,-0.11955067108524856,11.308542412578886,4.7690609372345385,23.756561188208785
-7.444230098999999,-148.88460198,5.796509267149004,-2.9859096060126675,3.00000005,0.12888637892383753,1.0739,166,20,271.2636912628481,946.91089,mp-1228358,Ba2TiMnO6,https://materialsproject.org/materials/mp-1228358,-16.502475445063773,20.33743781720461,-14.551325793279302,45.308690452593744
-6.59285830125,-158.22859923,4.140925116042709,-2.2053828749404762,0.0001361,4.627614834010282e-06,0.0,14,24,342.750698240555,854.725448,mp-1179348,SnPO4,https://materialsproject.org/materials/mp-1179348,25.96979647933231,-3.7570840822663274,36.37229033571944,-6.819761999373141
-8.290093408333334,-298.44336269999997,5.158787167206347,-3.2206931297222217,5e-08,1.2239960319491206e-09,2.2728,15,36,476.06628078693535,1478.9924,mp-31124,Y2MoO6,https://materialsproject.org/materials/mp-31124,20.974901605412395,56.14065207088832,-1.7743828226529599,35.86443157958015
-8.036673334736841,-152.69679336,6.921305042755604,-3.1915134773684217,0.0006361,2.9959123708032546e-05,2.1374000000000004,42,19,247.44217067462597,1031.36554,mp-1223095,La2Ti3(BiO6)2,https://materialsproject.org/materials/mp-1223095,-11.846128531186194,33.284669233307554,-4.958385988603923,61.88012214986045
-9.430840050833334,-226.34016122,7.846470464457497,-3.6482665283333326,1.004201175,0.0359032149769967,0.0,14,24,325.9603783568885,1540.2459199999998,mp-22074,CeTaO4,https://materialsproject.org/materials/mp-22074,20.53748916667703,56.75374762920814,-2.91674609792134,36.072740253385405
-5.1638166075,-144.58686501,2.414668987154968,-1.3151472006785718,0.0,0.0,1.4127999999999998,62,28,831.8181291670974,1209.5864,mp-17980,K2MoS4,https://materialsproject.org/materials/mp-17980,27.29842992204197,-3.3436450936849305,18.070278098349398,-26.22822480241805
-7.0775495600000005,-49.54284692,5.655819235685806,-2.749964900714286,2.0000001,0.2651062218543307,0.0,107,7,87.9199686355649,299.45664500000004,mp-1217766,SrYCoO4,https://materialsproject.org/materials/mp-1217766,-23.506279958787037,41.45745966895353,-12.833896276916473,59.607410189604785
-5.223841686666667,-15.67152506,7.6940594759425105,0.3186438813888894,0.0173902,0.002933465671488984,0.0,187,3,69.08774122619852,320.11604500000004,mp-1219092,SmMnIn,https://materialsproject.org/materials/mp-1219092,-52.539506448307314,21.85553366062684,-26.204646393221,42.06572287129069
-7.913605795,-189.92653908,6.341466180506704,-3.611493453854168,0.0,0.0,5.093300000000001,113,24,255.55197329200718,975.932608,mp-7013,Ho2Be2SiO7,https://materialsproject.org/materials/mp-7013,-2.091836656473967,12.907781340772846,7.749411707393337,30.85479471533253
-5.9273435985714285,-41.49140519,6.54559840152215,-0.7554499846428574,0.23870589999999997,0.018460035895464032,0.0,44,7,150.69819126818268,594.0299,mp-1219191,Sm3Si3Ni,https://materialsproject.org/materials/mp-1219191,-10.326531235042065,18.19583080449648,-13.716640466926016,23.44914212548875
-6.64138457625,-53.13107661,5.816196837411303,-2.5893607041666677,5e-08,3.6606445313898744e-09,2.8059,194,8,159.1805032232244,557.54494,mp-754535,LaAgO2,https://materialsproject.org/materials/mp-754535,-22.175246696428186,65.38716239729719,-8.440409499085458,42.2002074697972
-7.398234225416666,-177.55762141,5.642529852959879,-0.9700764016066662,0.000392925,9.427744587009433e-06,0.0,64,24,485.71250085282315,1650.4564,mp-1247251,Ba2MoN3,https://materialsproject.org/materials/mp-1247251,0.6824780072151406,29.72480938163097,2.1641265233990463,27.902455595416594
-6.125309405,-12.25061881,6.041353780973499,-1.320409765,0.8114788000000001,0.15891692337397914,0.0,187,2,59.50924732228671,216.50585,mp-865430,YTe,https://materialsproject.org/materials/mp-865430,-58.32761826655789,21.79328406801849,-54.81524758728352,29.581484084059745
-4.619722605833333,-55.43667127,6.089187359376219,-1.2503514570833332,0.0,0.0,0.6130000000000004,63,12,397.0090601467132,1455.83,mp-1214402,BaNdCuTe3,https://materialsproject.org/materials/mp-1214402,3.7657983338290415,-7.355517223090938,4.6166106464467065,4.882199162292716
-6.364921732000001,-381.89530392,6.178725267181393,-1.7821517272499998,19.999998675,0.2760844989174401,2.0046,62,60,844.2389229511156,3141.3416,mp-1196085,Fe4Bi2O9,https://materialsproject.org/materials/mp-1196085,6.158675388953112,8.820181232925957,9.290258783325186,22.75068602836477
-6.072621368888888,-163.96077696,7.597718305933091,-1.7085684647685195,0.0006268,1.6337860009292333e-05,0.7318999999999996,8,27,447.1067688966455,2045.716,mp-694856,V2Bi8O17,https://materialsproject.org/materials/mp-694856,10.74478423044882,19.28646862782805,27.763154611353887,-3.180536380998733
-5.376002908125,-688.12837224,9.125954312511944,-1.3464414398437503,0.0,0.0,0.8639000000000001,64,128,2042.5773243236015,11225.551999999998,mp-651870,Pb3O5,https://materialsproject.org/materials/mp-651870,29.996951604933415,61.116739271589815,-9.672962234382787,34.39367842515089
-10.336053360714287,-289.4094941,7.389305158712299,-3.6221860000000015,13.999999925,0.3518827125317181,2.7986000000000004,62,28,463.668433063685,2063.2984,mp-17143,BaGd2O4,https://materialsproject.org/materials/mp-17143,-0.1976699254552393,23.201777251571173,0.5572107676492011,46.08444811960359
-4.639504238333333,-27.83702543,7.294296518120296,-1.3882792695833337,0.00012869999999999998,1.0805029407936502e-05,2.2732,129,6,138.81296196442958,609.7676,mp-23072,BiBrO,https://materialsproject.org/materials/mp-23072,-14.139068097838194,32.10479725336112,-13.705588437289489,52.792266337342674
-4.450095892666667,-200.25431517,6.4837432790401515,-1.6738838192847232,0.0284427,0.00034994227413565467,0.0,121,45,947.2221352084732,3698.525,mp-1101633,Yb16S29,https://materialsproject.org/materials/mp-1101633,-5.014661884313911,-24.849966107818123,-0.5719374581152838,-20.846636396496645
-3.358777306666666,-20.15266384,4.303774847588826,-0.8602929933333332,2.05e-06,1.0424261470615586e-07,0.0,139,6,229.1848957462551,594.0,mp-15624,Sr2Sb,https://materialsproject.org/materials/mp-15624,3.164860981845013,14.65840264174613,-5.6634789017675695,19.011380735413038
-3.890286338,-38.90286338,4.764285046474943,-2.373447448232965,1.9999999,0.1324542364058745,0.6045,225,10,175.9711807804372,504.88235748,mp-1114363,Rb2NaAuF6,https://materialsproject.org/materials/mp-1114363,-17.041834300489644,-49.09511381859426,-25.463517640189586,-9.401219029028358
-5.6915922815,-113.83184563,4.674817288269115,-0.6813307664519996,1.84308235,0.05771180133507356,0.0,62,20,372.1838617261756,1047.7872,mp-669418,Sr2NiN2,https://materialsproject.org/materials/mp-669418,-26.840164342939786,43.022032382978715,-15.329383296522494,69.00277042483539
-8.707011271666667,-52.24206763,7.876536944642909,-3.2200970586458335,2.0,0.27945896295796224,0.0,166,6,83.40448020851463,395.6176,mp-8146,SrPuO4,https://materialsproject.org/materials/mp-8146,30.65839498937089,60.166765985825904,38.05079764212614,-6.509580138770933
-5.269001701666666,-31.61401021,5.019808780920019,-2.0357260738541663,4.5e-07,2.562575865427838e-08,2.4540999999999995,166,6,204.65068833293984,618.65894,mp-541073,SmSI,https://materialsproject.org/materials/mp-541073,-2.2566729347685293,-28.778706390201968,-1.869238558783247,-20.988073377152656
-5.82354059625,-372.70659816,2.6443131044856742,-2.532208135080357,0.0,0.0,4.1727,114,64,823.5934906536568,1311.52535872,mp-4223,Na3PO4,https://materialsproject.org/materials/mp-4223,-11.867599967821839,34.06899607519465,-18.002958714595724,28.165067853598188
-8.04305681111111,-72.3875113,6.266219164597818,-3.1855751858611105,0.0,0.0,1.9701,123,9,127.98278608463222,482.95653856,mp-865500,Na2Hf2O5,https://materialsproject.org/materials/mp-865500,-29.01178559099861,35.617525324617844,1.9213971646166037,41.97329590336564
-6.598618374444443,-237.55026148,6.3523134330949835,-2.8729614109722226,1.75e-07,3.991735847443561e-09,1.5065,62,36,510.92091589780034,1954.5037600000005,mp-772609,La2Zn2O5,https://materialsproject.org/materials/mp-772609,-22.232875031197143,43.83021221213293,-9.037871383057244,61.59102445831303
-7.081798366666668,-42.4907902,5.316550240269132,-3.612845799836668,0.0,0.0,4.069,129,6,118.91044396121175,380.71574,mp-23025,LaClO,https://materialsproject.org/materials/mp-23025,-6.510334282539303,9.725774783428227,-7.530427598622347,27.909082552024284
-6.4208972850000015,-89.89256199,5.8905862215782205,-2.399045733392858,1.35e-06,4.97437593838051e-08,0.0,220,14,316.2806277178504,1121.972,mp-2656,Nd3S4,https://materialsproject.org/materials/mp-2656,-25.840402420961137,-16.156768165422125,-10.994446786569876,24.981181088586073
-5.073430029,-50.73430029,7.507860265010954,-0.374529261,0.8731325000000001,0.03759878803382985,0.0,129,10,270.634859317046,1223.632,mp-1078616,CeSb3Pd,https://materialsproject.org/materials/mp-1078616,-15.318823687962293,33.2976605683942,-8.225419405217044,49.135389859606114
-4.154965645,-83.0993129,3.921646022529353,-2.7803898946139998,0.0,0.0,3.7676,62,20,246.25616562451324,581.5759155200002,mp-3795,NaZnF3,https://materialsproject.org/materials/mp-3795,-11.574561673030384,51.430661848878025,25.445186418153682,52.767567052033655
-6.5661331558928575,-735.40691346,4.44418418157045,-2.239859418035716,10.00000084375,0.06227817038788243,1.9016,62,112,1871.2922494812015,5008.2336,mp-558611,Ba(FeO2)2,https://materialsproject.org/materials/mp-558611,4.251824767138055,19.921281757026176,33.854078419557865,1.3810387007460667
-6.4869892757142855,-45.40892493,6.227533978944005,-2.611194684642857,1.0,0.12515543811594362,0.0,107,7,93.11672707152687,349.21647,mp-1218155,SrLaNiO4,https://materialsproject.org/materials/mp-1218155,-23.367536734179872,39.59792676208062,-13.973701800690833,59.3611530368886
-4.016839876666666,-48.20207852,5.353058522072417,-0.9551941358908048,0.0,0.0,0.1858000000000004,125,12,457.101073486832,1473.5509,mp-7199,RbPrTe4,https://materialsproject.org/materials/mp-7199,-2.506863728772339,18.981686535153354,1.2258310902164564,22.091353169522108
-5.0528798199999985,-25.264399100000002,7.283364258924701,-1.4707471574999993,0.0,0.0,1.4363,107,5,100.5126016849517,440.8628,mp-1219502,SbPbBrO2,https://materialsproject.org/materials/mp-1219502,-20.760736744406586,35.87907617351913,-15.019266827603627,56.22789220902793
-5.774990839,-57.74990839,3.1160822631902345,-2.9942668132760004,0.0,0.0,2.2655,139,10,160.97912785043306,302.0851620800001,mp-1223827,K2NaNb(OF2)2,https://materialsproject.org/materials/mp-1223827,-4.000378569852426,-1.7603932416643375,6.623520796081622,-38.35905695367366