energy_per_atom,energy,density,formation_energy_per_atom,total_magnetization_uB,total_magnetization_T,band_gap,sgr,num_sites,cell_volume,weight,mp_id,formula,URL,tsne_xrd_lin1_0,tsne_xrd_lin1_1,tsne_xrd_lin2_0,tsne_xrd_lin2_1
-6.867736651,-137.35473302,5.1400417555473155,-2.499397042442,2.99999955,0.14198190407701314,0.8363,194,20,246.2439794749189,762.22498,mp-19001,SrMnO3,https://materialsproject.org/materials/mp-19001,-9.545798575190103,12.606899867375065,-9.086122663731595,57.69221077909975
-7.15092581625,-57.20740653,5.215520813096991,-2.9961361721550004,0.0,0.0,3.839,11,8,109.46823774179026,343.82442000000003,mp-626724,LaHO2,https://materialsproject.org/materials/mp-626724,-2.2852148529748275,8.885814931306811,9.051811905949465,26.64889623506853
-2.663795624090909,-58.60350373,8.453758467856474,-0.7609033542290908,0.0,0.0,0.1813,72,22,447.0083529802173,2275.7072,mp-23358,Hg5(ClO2)2,https://materialsproject.org/materials/mp-23358,-5.587539842438147,31.220654169874834,5.474367985048089,46.76102065286611
-6.9665884285000015,-139.33176857,8.210465089548169,-2.9647552894166678,0.0,0.0,2.5765,62,20,265.1425397944616,1310.9860800000001,mp-776984,HoInO3,https://materialsproject.org/materials/mp-776984,-15.316806662567956,38.96566411813626,-8.434240391434143,60.689234987214746
-5.973486406666668,-89.60229609999999,8.022998635653995,-1.9368275506666672,6.991472999999999,0.3617733010653492,0.0,139,15,225.22137194111016,1088.1712,mp-1214767,Ba2GdCu2(HgO4)2,https://materialsproject.org/materials/mp-1214767,-20.7779419526188,38.42318868309631,-13.63661759949504,54.55799797445923
-6.817750351388888,-245.43901265,5.669615696698134,-3.1516638226388887,0.99992665,0.024350474320087873,0.0,62,36,478.5619283520623,1633.964728,mp-1208779,Sr2NdBeO5,https://materialsproject.org/materials/mp-1208779,20.265966765619513,43.02370561170204,24.402539588982464,45.622557850196294
-6.5481542684375,-209.54093659,6.5931274843965975,-2.142744022031251,0.999948325,0.02326880304912349,1.6115000000000004,14,32,500.81916651065313,1988.4896,mvc-9214,MgBiWO5,https://materialsproject.org/materials/mvc-9214,5.52895437282713,22.173085467597105,51.95932294952983,0.4303880560704957
-7.967717820625,-254.96697026,5.875661236821263,-3.2565773454492195,2.000254875,0.04569503986796202,0.0,57,32,510.14508231608534,1805.1004,mp-542664,Ce2SiSeO4,https://materialsproject.org/materials/mp-542664,26.77472469867877,36.858542974874226,18.39295040781015,30.69785288472941
-6.474001763,-64.74001763,4.2441942975431415,-1.8384925669999999,0.0,0.0,3.5628,167,10,98.13938979437077,250.8358,mp-9812,ZnCO3,https://materialsproject.org/materials/mp-9812,-30.082139894020546,20.084743785296236,-14.513905127736528,48.75315720798917
-4.598749703999999,-91.97499408,5.0725907863148105,-1.2465789090949997,0.0005488,1.0338342482065433e-05,1.1252,166,20,618.6437292318248,1889.82397,mp-1228784,Ba10IBr4N5,https://materialsproject.org/materials/mp-1228784,-13.791247864721795,20.716005211450078,-14.974704537274597,12.700379850329984
-6.452390324545454,-70.97629357,4.006913548506327,-2.0339285450487017,1.9423839,0.1814495600823763,0.0,5,11,124.7546027309203,301.035324,mp-1225821,Cu2P2O7,https://materialsproject.org/materials/mp-1225821,5.568110484689454,34.50344481343409,18.5699180389367,52.62812782298895
-6.425495201176472,-218.46683684,5.894074771574855,-2.2532084903676477,2.0000254,0.04279482853091189,0.0,15,34,544.6551921928672,1933.2508000000007,mp-31248,Ce2Te4O11,https://materialsproject.org/materials/mp-31248,6.4535880607081175,17.560429307918962,35.72625149971184,-3.294814338163353
-6.801061634,-34.00530817,5.889147627918869,-2.5028401775833338,0.0,0.0,0.0,221,5,58.7267942755013,208.2762,mp-1016846,TiCdO3,https://materialsproject.org/materials/mp-1016846,-29.084629896082426,55.32735283700529,-17.24908200176535,67.57628017648527
-7.417410772894738,-281.86160937,5.774704636499632,-2.1811622407894737,15.0000003,0.3345608488092449,0.0,87,38,522.5087624771244,1817.0809,mp-561129,Pr(MoO2)6,https://materialsproject.org/materials/mp-561129,-1.2783893018998504,13.043398027998345,7.918727899154337,29.97174669981309
-8.608454580833332,-103.30145497,4.995858541296488,-2.842871686666667,5.99888375,0.39402638304153625,0.0,141,12,177.42816926598056,533.8062,mp-22796,EuVO4,https://materialsproject.org/materials/mp-22796,-14.679580850010948,1.1672409520634894,27.263953328112354,-0.2306784783710965
-4.519363117999999,-22.59681559,7.3882357807995644,-0.6647138209999994,0.0,0.0,0.10659999999999936,156,5,99.18374441786209,441.2982,mp-1225053,DyZnCuAs2,https://materialsproject.org/materials/mp-1225053,-31.160747909305453,-16.802212833020178,-36.9169767246197,-16.44435250263199
-5.970478630400001,-149.26196576,5.693752293632926,-1.5647606681,30.926578000000003,1.2009493184839262,0.0,166,25,300.11286709468544,1029.044355,mp-510717,Ba2Co9O14,https://materialsproject.org/materials/mp-510717,-10.221836907601373,16.608033811773552,-21.48868542601607,18.24151192819448
-5.21630365,-26.08151825,9.181534885465608,-1.2685397172187494,0.0,0.0,0.3777999999999997,139,5,95.65847712581495,528.9196,mp-552098,Bi2SeO2,https://materialsproject.org/materials/mp-552098,-24.156612470409357,39.4678598961618,-23.28673473423749,61.14841257289569
-6.626777065666668,-198.80331197,4.407058815972154,-2.4463190351190485,1.5e-07,4.796146246913846e-09,2.5373999999999994,43,30,364.4821541896897,967.3330480000001,mvc-8609,MgSn2(PO5)2,https://materialsproject.org/materials/mvc-8609,4.074373859613694,6.454948915720143,9.139185773256806,12.955161187776294
-8.7654002225,-175.30800445,10.585912176802609,-0.2661545257499995,8.7525e-05,3.250609190736317e-06,0.0,220,20,313.79411038557834,2000.43288,mp-1188514,Th2C3,https://materialsproject.org/materials/mp-1188514,-14.619102449558437,15.126963883957222,-27.026127769081718,42.47805270232194
-9.20273532,-119.63555916,9.38650356137963,-3.6263371945192313,2.0000001,0.14634654341538852,0.0,139,13,159.2666978431346,900.28442,mp-1226883,Ce2U2O9,https://materialsproject.org/materials/mp-1226883,24.715182262738143,64.92341255639312,-7.977998804201164,35.00346147848442
-6.987425562916666,-167.69821351,3.926150130161985,-2.9955139246875007,0.9999998,0.033854867305954765,0.15879999999999986,113,24,344.23595096167725,813.9056,mp-15748,Sr2CuSi2O7,https://materialsproject.org/materials/mp-15748,-11.374741322653724,35.50509975078916,-2.989907892270617,62.349049330400035
-7.9567261511363645,-350.09595065,6.327400002918759,-3.2960630817045464,1.000000025,0.01760350797103882,0.04789999999999983,19,44,662.0308340294732,2522.635,mp-30215,Pr3MoO7,https://materialsproject.org/materials/mp-30215,21.855696547368503,56.184949230614926,-1.3051994005735958,35.644478605598685
-6.95931819,-139.1863638,7.469302742904719,-2.3808768592500007,1.99999995,0.10232825356638944,2.5236,62,20,227.77803930069118,1024.5728,mvc-5026,MgWO3,https://materialsproject.org/materials/mvc-5026,-9.725855446690012,56.321556782741396,50.836704375162356,17.234058317020164
-6.3800791399999985,-38.28047484,6.637728050488853,-1.8783467654166663,8.25e-05,1.2424800638263146e-05,0.0,166,6,77.38235580016328,309.32307000000003,mp-1222869,LaPdO4,https://materialsproject.org/materials/mp-1222869,25.09071729803377,64.17926418963317,-10.125756760571967,37.73612328570013
-3.5728285275,-42.87394233,3.345068012763317,-1.0396467771297992,1.8100000000000003e-05,6.400299842776139e-07,3.3905000000000003,87,12,329.57607856671217,663.9135676,mp-1183955,CsHS,https://materialsproject.org/materials/mp-1183955,-19.30836247196599,13.877490174949234,35.206677981297844,-2.034027876770167
-6.1398499583333335,-147.356399,5.084184825179492,-1.9240253763281256,4.99999975,0.11147904856917856,0.4469000000000003,173,24,522.7019937573516,1600.3920899999996,mp-1191873,Sm3MnGaS7,https://materialsproject.org/materials/mp-1191873,7.935398816729577,-4.693475437302683,13.171531032962918,3.975091518546772
-7.470983421111112,-67.23885079,9.729637573189462,-2.532274838611111,0.0,0.0,1.6026999999999996,164,9,128.3400623917997,751.9861099999999,mp-548598,U(BiO3)2,https://materialsproject.org/materials/mp-548598,-12.458560781554029,-23.354187411698113,-10.068885852793994,31.921158546470817
-7.839546155,-47.03727693,5.489527622777053,-3.801429663313333,0.0,0.0,5.0138,12,6,74.95976611304025,247.80730640000002,mp-634896,YOF,https://materialsproject.org/materials/mp-634896,-0.4080055976426459,24.531743134347224,-14.631130329021095,43.7392977361716
-7.750158482685184,-837.01711613,4.497693601991748,-2.573870836226851,0.9999872055555556,0.00815973208135455,0.010099999999999998,174,108,1428.2228324512353,3868.44786,mp-1202759,LaCO4,https://materialsproject.org/materials/mp-1202759,-13.132078267396775,-17.987824232445966,-2.9420760258984284,-17.574370336961447
-8.03765784,-192.90378816,5.527051963644485,-1.8201707469531268,20.99999965,0.4636483207354357,1.0153,173,24,527.8469589982195,1756.922,mp-556782,Gd3CuSnS7,https://materialsproject.org/materials/mp-556782,8.260159366092369,-5.709151154327418,13.891526193393974,3.725222779670793
-6.837406879090909,-150.42295134,6.726185714195522,-1.9127715245454544,3.9e-06,1.4769029431245256e-07,2.1587999999999994,13,22,307.7443431511301,1246.5504,mvc-690,Te(WO4)2,https://materialsproject.org/materials/mvc-690,17.418279537654012,10.279226669548713,49.84035961248148,2.1718171004630777
-7.376401744642857,-206.53924885,4.021503179044984,-2.8337260688392854,1.0,0.029894437335840213,1.7399,1,28,389.84057942404297,944.1182,mp-675355,Sr2V3O9,https://materialsproject.org/materials/mp-675355,17.60747543614552,33.675940057686574,27.62968527557612,37.68573449691016
-6.722707302857144,-47.05895112,4.819173743342291,-0.8003700992857148,0.0363277,0.002999213379937056,0.0,44,7,141.1588023947139,409.66745,mp-1216074,Y3Si3Ni,https://materialsproject.org/materials/mp-1216074,-33.915672870593966,24.2177614281258,-34.06257879004075,23.37908321045765
-4.82747041375,-115.85928993,5.290282872474823,-1.2758213251822916,0.0,0.0,1.5615,14,24,320.62522183564926,1021.4744,mp-756703,CdSeO4,https://materialsproject.org/materials/mp-756703,9.176541791989862,17.0573376788497,3.0770441847451,34.608741115215075
-6.77400598375,-54.19204787,6.406938712377382,-1.824028597656251,0.35901279999999997,0.034562118704078056,0.0,99,8,121.0561904841888,467.077,mvc-7248,BaCuReO5,https://materialsproject.org/materials/mvc-7248,-9.131799006280836,52.41360646679023,8.892235019208247,36.54229726273716
-7.557875265,-45.34725159,7.771542882788572,-3.2475390475,0.9993402,0.13563371492448295,0.0,11,6,85.86637494303783,401.86602,mp-1206313,TmO2,https://materialsproject.org/materials/mp-1206313,0.6943384997352869,14.001811183498598,6.351050148049447,33.001282282245555
-4.554395427,-45.54395427,4.792475403896408,-2.33165122875,6.95e-06,2.1467189661021566e-07,3.1127,72,10,377.30020299935006,1088.92468,mp-551835,Ba2I2O,https://materialsproject.org/materials/mp-551835,12.914977609292706,16.248054250844937,-0.4702098786523288,18.903705985675124
-2.674051677,-26.74051677,2.706182912776423,-1.2090912654312156,0.0162156,0.0006213945010793696,0.0,225,10,304.1186434666908,495.6226,mp-989518,Rb2SBrCl6,https://materialsproject.org/materials/mp-989518,-15.767329108702912,-18.916607763394587,-13.42405216076689,-20.157700240357524
-3.515340972,-35.15340972,10.062907749578716,0.2579793020000004,0.0057071000000000005,0.0001951120141385619,0.0,227,10,340.8857899249692,2065.7763379999997,mp-1214182,Bi4Au,https://materialsproject.org/materials/mp-1214182,-22.598169991998052,-25.42227518086445,-16.776942984388313,-22.149855238718505
-8.078833825714286,-226.20734712,5.430990871275028,-3.6696226592857135,5e-08,1.4767071172407165e-09,4.393700000000001,61,28,394.5963500987168,1290.5744,mp-752396,Ca2HfO4,https://materialsproject.org/materials/mp-752396,-5.8352832546174165,10.716462993117355,8.89050945892606,29.981670768416606
-7.414958517916666,-177.95900443,8.060152030209817,-2.470804670416665,1.0,0.033664493037230035,0.0,15,24,346.1826904587958,1680.349,mp-1213822,CeTl(WO4)2,https://materialsproject.org/materials/mp-1213822,26.920618974282622,52.581160636442746,39.430587825428034,-0.5269602715092677
-8.04724953125,-64.37799625,9.928997919074147,-1.7900250227232135,1.9888901,0.19881624278542204,0.0,129,8,116.58330187800064,697.0961440000001,mp-20370,UCuPO,https://materialsproject.org/materials/mp-20370,-7.157105591188719,16.475097092078073,5.846301021301754,48.84119288397476
-4.5956928781818185,-101.10524332,5.049402846986579,-1.0617364857954543,2.00932525,0.05723088961069533,0.0,81,22,409.1637710322007,1244.1939999999995,mp-542807,Cu2Te2Br2O5,https://materialsproject.org/materials/mp-542807,8.146931847885972,13.707875433264734,12.10232484617859,8.593426731056955
-6.543973400714287,-366.46251044,7.092763792389107,-2.296270287857143,0.0,0.0,2.5170000000000003,15,56,948.6118362522624,4051.8648,mp-555786,Si(PbO2)2,https://materialsproject.org/materials/mp-555786,13.560542364133834,23.205196733025986,43.433836652541935,-6.8618608102033685
-7.870539523333334,-23.61161857,6.3604361014903805,-0.1481074333333332,1.6e-06,4.095765218414039e-07,0.0,139,3,45.52630007272683,174.3814,mp-12764,SmC2,https://materialsproject.org/materials/mp-12764,-8.29829760514082,-25.60166574210705,-3.798320978305893,-18.919676589078765
-8.05408469125,-64.43267753,8.576631530319007,-2.683870153710938,4.0002064,0.3097729589002228,0.0,139,8,150.49300834623077,777.2916199999999,mp-1206557,YbU2S3O2,https://materialsproject.org/materials/mp-1206557,-1.8801867023677719,9.70293036686979,-8.574200133004329,29.844283177831787
-4.0239995225,-16.09599809,3.4604217371562465,-0.4693142599999995,4.5e-07,4.722651330837546e-08,0.0,63,4,111.04629116716517,231.41099999999997,mp-2661,SrSi,https://materialsproject.org/materials/mp-2661,-23.350942095480885,25.41453656878837,-0.1345456139410087,22.54258625820118
-6.335440445,-215.40497513,6.146198290961485,-2.3064448074264705,0.0,0.0,3.2854,15,34,533.3834868353118,1974.2268,mp-3073,Sm2Te4O11,https://materialsproject.org/materials/mp-3073,6.375970447345594,17.280363360987078,35.93241923834826,-3.3843414673318093
-5.0016825150000015,-50.01682515,3.384612404792726,-3.460202190582966,0.0,0.0,6.4263,225,10,172.20847188299618,351.00585779999994,mp-1114347,KRb2AlF6,https://materialsproject.org/materials/mp-1114347,-18.552586407951768,-49.412709744946184,-25.28669226171084,-8.401766348050653
-6.108026546153847,-79.40434509999999,6.587975427153574,-2.262954937019232,3.4e-06,2.2215750913122329e-07,0.0,123,13,178.35913078813863,707.61695,mp-9117,Sr2YTlCu2O7,https://materialsproject.org/materials/mp-9117,-24.22979085133079,42.82916811305778,-7.658247165021671,65.12352683813994
-8.176492571,-81.76492571,9.164080301054863,0.9766516719999998,0.00313475,0.00041957444355862796,0.0,14,10,87.07055471713144,480.5196,mp-1079828,IrC4,https://materialsproject.org/materials/mp-1079828,-9.61906027755413,17.603103064717203,9.412814598137476,24.250686326745626
-4.3748890125,-52.49866815,5.613015625753508,-0.8537133859744443,0.0,0.0,0.6913,148,12,130.6597970312082,441.66109000000006,mp-555477,Ag2H3IO6,https://materialsproject.org/materials/mp-555477,-8.869359507073497,16.609226561004938,-28.24733519374858,-0.660772346017787
-5.4508414179999995,-27.25420709,5.3042577980684715,-0.5606028089519995,1.829275,0.2199014318797313,0.0,139,5,96.94565949203852,309.6734,mp-1246836,Sr2PdN2,https://materialsproject.org/materials/mp-1246836,-19.805017192470334,37.973348869657904,-13.399741149256013,57.99772528443105
-2.8763819922222225,-25.88743793,4.266311242065152,-1.0160474658237548,0.0,0.0,0.8915,225,9,331.48219530340293,851.6549037999998,mp-1205847,Cs2PdBr6,https://materialsproject.org/materials/mp-1205847,-21.732350522371487,-20.116237769261968,-19.26453002195697,-11.789603366009429
-6.870640708333334,-206.11922125,4.436578449515582,-2.269357138119049,4.0,0.12994573379367855,0.0,43,30,358.73635654906366,958.461048,mvc-9049,ZnMo2(PO5)2,https://materialsproject.org/materials/mvc-9049,4.65799397359902,6.397484564455647,8.993235008055331,12.999013497236414
-4.17845473,-16.71381892,8.452889256148408,0.05911333375000005,3.41e-05,2.384840942778294e-06,0.0,139,4,166.63736420145398,848.2589999999999,mp-1183091,Ac3Er,https://materialsproject.org/materials/mp-1183091,29.86202743285057,63.65045149542039,-12.758501706726827,33.19845624225997
-8.685730911,-173.71461822,6.2333659788317455,-3.94010456375,5e-08,2.2474688339540564e-09,4.3579,62,20,259.2708872419881,973.256448,mp-31118,SmScO3,https://materialsproject.org/materials/mp-31118,-18.700556347970604,42.135577465169746,-7.97533929675646,62.61760230063825
-4.7654763440000005,-47.65476344,4.644036232518363,-0.216218214584822,2.9999998,0.1501404373672922,0.6429,5,10,232.86326188951526,651.249624,mp-1226296,CrCu(PSe3)2,https://materialsproject.org/materials/mp-1226296,-12.101004972007791,26.651368056093673,-11.156332850541151,-8.537933928947945
-6.9672798625,-139.34559725,8.143034119970011,-2.959970300416667,0.0,0.0,2.625900000000001,62,20,265.355759283709,1301.2648,mp-1178360,DyInO3,https://materialsproject.org/materials/mp-1178360,-15.238903920889328,38.899988034502776,-8.54071744895996,60.56988954788789
-2.5721428563888886,-92.59714283,4.457200479155078,-0.7581914864655173,0.0,0.0,1.1296,62,36,1548.0019537309768,4155.12968,mp-29936,Rb2PdI6,https://materialsproject.org/materials/mp-29936,17.247576829844412,-11.084876436610555,22.830337786515425,-14.456426572989436
-3.1543041764285715,-44.16025847,3.804643930009533,-1.5427841638848274,0.75822045,0.019632616337188186,0.0,107,14,450.0852094502304,1031.2398076,mp-1226412,Cs2CuBrCl3,https://materialsproject.org/materials/mp-1226412,2.822199172635669,13.036916039285867,3.9149003122090646,21.523781258285293
-7.789349167727273,-171.36568169,7.540955681817689,-2.9893693864772737,1.9999999,0.07280457587183152,0.0,63,22,320.146475693308,1453.8715,mp-5322,Pr3IrO7,https://materialsproject.org/materials/mp-5322,20.216532995311976,55.57620141678657,-1.4241503822062345,37.04025772434905
-6.395456545,-115.11821781,6.605506826814043,-1.8369975175277773,3.99999995,0.18781902396301847,0.6446000000000001,46,18,248.19774655369446,987.31307712,mp-1076261,Na2W2O5,https://materialsproject.org/materials/mp-1076261,7.390419620046966,16.27326888384878,2.125766780696292,23.333199728335266
-5.788726655,-81.04217317,7.004368467442642,-1.979355960357143,5e-07,2.153571092133229e-08,0.9921999999999996,162,14,270.5753437889925,1141.3218,mvc-588,BaCa(BiO2)4,https://materialsproject.org/materials/mvc-588,-2.7738315880137203,9.45475846889304,-3.4614441090806127,-20.07436869419721
-5.50242712203125,-352.15533581,6.431595317072523,-1.4986797987500005,4.55863505,0.06269934249406074,0.0,61,64,847.3235289858641,3281.8512,mvc-7991,ZnFeBiO5,https://materialsproject.org/materials/mvc-7991,20.12676325426981,18.512939985939628,20.58071685995032,34.02313278694601
-8.090416038888888,-72.81374435,6.338075106445498,-3.2768856348611104,1.6947433,0.13095559052080474,0.0,123,9,150.81943514220418,575.6594,mp-1187277,Tb2Y2O5,https://materialsproject.org/materials/mp-1187277,22.322271743418465,60.38154507498185,-13.92189840180563,38.792396230498596
-2.406971687727273,-52.95337713,5.277198784768354,-0.494560493030303,0.0,0.0,1.5384000000000002,128,22,838.960589131775,2666.2196400000007,mp-616218,Cd(In2I3)2,https://materialsproject.org/materials/mp-616218,5.892220732330629,27.530992378974336,33.15227949787219,-6.0629546917798605
-5.749275243181819,-126.48405535,6.928456410174293,-2.056331606136364,1e-07,3.229891915341967e-09,0.0,66,22,360.8190328971368,1505.4864,mp-555827,Sr2Cu(BiO3)2,https://materialsproject.org/materials/mp-555827,1.925046942020863,16.123782004774142,1.500474586326805,22.345607477984508
-7.72069599875,-247.06227196,5.6133919400765135,-2.61162654508375,6.9999715,0.2084249806305922,1.1095000000000002,55,32,391.4028012393537,1323.12296,mp-22802,PrMn2O5,https://materialsproject.org/materials/mp-22802,-2.9052660237790495,27.387656209295052,0.13191089588891455,49.22068643436911