energy_per_atom,energy,density,formation_energy_per_atom,total_magnetization_uB,total_magnetization_T,band_gap,sgr,num_sites,cell_volume,weight,mp_id,formula,URL,tsne_xrd_lin1_0,tsne_xrd_lin1_1,tsne_xrd_lin2_0,tsne_xrd_lin2_1
-5.79486394875,-185.43564636,4.1873849016590174,-1.8595149853724988,23.9999997,0.9755359508203336,0.6360000000000001,1,32,286.71167967722147,723.001465,mp-1175583,Li9Mn2Co5O16,https://materialsproject.org/materials/mp-1175583,16.10678369292049,-75.8176445542901,-10.731853334582912,-82.46193951184685
-6.899854981875,-331.19303913,3.9167290664867593,-2.4138839312216662,13.0000001,0.3233008157407769,0.4678,1,48,468.61262277221635,1105.321005,mp-760999,Li4TiMn3O8,https://materialsproject.org/materials/mp-760999,3.793181539829969,-62.073675777527846,-11.060963408132153,-63.414877934945146
-6.678558722222222,-120.21405700000001,4.10337650122232,-1.5828234822111114,14.999997899999999,0.8222243257622569,1.0845,12,18,212.6073647271357,525.3764249999998,mp-755683,Mn5NiO12,https://materialsproject.org/materials/mp-755683,9.398308593279411,-65.0221298475646,-3.60396194472676,-68.03803882225411
-5.563561314848485,-183.59752339,4.416482231833887,-1.5415290723484842,2.0000001,0.07373092463382518,0.0,12,33,316.1242155348328,840.7854,mp-758197,Li2Fe2NiO6,https://materialsproject.org/materials/mp-758197,23.377811369931017,-73.35355155890652,-5.1898649897866775,-70.47753308865266
-5.772274805,-184.71279376,4.158726751361082,-1.8369258416225,25.0244995,1.0102176359001815,0.0,6,32,288.6874349743623,723.001465,mp-1100577,Li9Mn2Co5O16,https://materialsproject.org/materials/mp-1100577,3.702721891243885,-71.08409660315478,-20.382581716262656,-73.73106633298384
-4.79507767,-115.08186408,3.98590034275553,-1.9111472872816664,0.999624625,0.05657304203880386,0.023900000000000254,5,24,205.92299279231065,494.29041280000007,mp-765501,Li2NiO2F,https://materialsproject.org/materials/mp-765501,21.047699912320713,-71.87831079690456,-11.960979697661708,-75.87216027760358
-5.8355681029166675,-140.05363447,4.059665096290551,-1.8881692661216656,13.9999992,0.7565287858192179,0.048000000000000036,1,24,215.66515452007167,527.2554749999998,mp-1175058,Li7Mn2(CoO4)3,https://materialsproject.org/materials/mp-1175058,18.795621249564707,-83.59132024951806,-11.67587038006222,-88.90463225430267
-5.796166055714287,-162.29264956,4.147783555700617,-1.855652860872144,9.9428206,0.4630040049690353,0.0,1,28,250.26624834938576,625.12847,mp-1174714,Li4MnCo2O7,https://materialsproject.org/materials/mp-1174714,19.224315419510415,-82.89057846615599,-15.705250183563118,-83.67952165995102
-5.795094425,-185.4430216,4.184424246647094,-1.8597454616224995,24.000000600000003,0.9748462429494738,0.7171999999999996,1,32,286.9145401716117,723.001465,mp-1175557,Li9Mn2Co5O16,https://materialsproject.org/materials/mp-1175557,15.592707349288506,-75.49373923294522,-11.663350306954285,-82.15387458792078
-6.452089746833334,-387.12538481,4.171916466451724,-2.050715910833333,8.999999925,0.18123503659952,0.0,10,60,578.7323690107069,1453.9996,mp-768676,Li3Cr3NiO8,https://materialsproject.org/materials/mp-768676,1.7047027040102196,-72.22090396332514,-19.78721340746829,-74.18040893585872
-5.823431085,-163.05607038,4.1079247298556485,-1.882917890157857,11.00000005,0.5073109346359829,0.7991000000000001,2,28,252.69455934917903,625.12847,mp-1174450,Li4MnCo2O7,https://materialsproject.org/materials/mp-1174450,1.5765197504325241,-72.88149862260575,-20.997708761220753,-75.74301858254086
-6.016603098125,-96.26564957,3.944021781171841,-2.045104514495,8.0000008,0.6679773144371337,0.7054,1,16,139.57439195714466,331.5094850000001,mp-1174383,Li5Mn2CoO8,https://materialsproject.org/materials/mp-1174383,20.75396311437363,-72.89170269029457,-10.259132775145735,-77.94864766411916
-5.832073819285714,-163.29806694,4.1629059599674125,-1.891560624443572,9.0000001,0.4206279944453565,0.7719,1,28,249.35711722361228,625.12847,mp-1174696,Li4MnCo2O7,https://materialsproject.org/materials/mp-1174696,12.80099311016579,-72.5894089112288,-10.689813685718624,-81.8504081258883
-6.4308741790625,-205.78797373,3.927878558307943,-2.1451494705225,25.999602600000003,1.0194874595939996,0.0,2,32,297.209200475971,703.025715,mp-1100531,Li9Mn7O16,https://materialsproject.org/materials/mp-1100531,10.831971688421357,-82.48815315661889,-18.56567643155425,-86.3567507290901
-7.115880325,-99.62232455,3.739369385338436,-2.5848303694228583,4.00000015,0.34091237325065443,0.91,74,14,136.73971523490022,307.92429,mp-753095,LiMnSiO4,https://materialsproject.org/materials/mp-753095,19.166303290097886,-75.7370451699278,-14.516337024888664,-71.20451344902041
-5.7807281446875,-184.98330063,4.171744697205512,-1.8453791813099996,25.9999862,1.0528827241418188,0.3716000000000004,12,32,287.7865846905516,723.001465,mp-1176285,Li9Mn2Co5O16,https://materialsproject.org/materials/mp-1176285,16.32069464124777,-71.43145277054495,-14.012490127025266,-79.76737854220329
-6.9109787929166675,-165.86349103,3.98983838939795,-2.443164384791668,5.0000004,0.2581027823698198,1.2759,2,24,225.76404635937766,542.4516,mp-769617,Li2VCrO4,https://materialsproject.org/materials/mp-769617,2.788263738813441,-66.67136608148293,-10.36541234264774,-65.24149414005181
-6.3762634612500015,-153.03032307,3.866624665165674,-2.148564028325,17.999999399999997,0.9479773607963784,0.0,2,24,221.28498800584117,515.270025,mp-1232439,Li7Mn5O12,https://materialsproject.org/materials/mp-1232439,12.76822253100559,-82.35502666034428,-16.94727567220361,-85.61508467354831
-6.4134922875,-179.57778405,3.917085665126271,-2.152635554223571,10.99992855,0.4964305968104482,0.8911000000000002,2,28,258.2312223276939,609.14787,mp-1174285,Li4Mn3O7,https://materialsproject.org/materials/mp-1174285,10.797808446924897,-82.34336272187946,-17.88670299720939,-86.34351164496194
-6.6080822121875,-211.45863079,4.214938548257971,-2.2305100509375,10.000000300000002,0.4023675602794658,2.4192,2,32,289.63729367465066,735.185,mp-768704,Li4Cr3FeO8,https://materialsproject.org/materials/mp-768704,14.98597214674983,-69.31739393549954,-11.010740259907696,-70.37287470212495
-5.823439216666666,-139.7625412,4.061083395452211,-1.876040379871667,13.9999995,0.7567931056467944,0.0,8,24,215.589835281812,527.2554749999998,mp-1174986,Li7Mn2(CoO4)3,https://materialsproject.org/materials/mp-1174986,16.893514808183674,-69.39342502822001,-12.745711122511524,-78.22118477481655
-6.2023738874999985,-148.8569733,3.9545642941692436,-2.0681079866183327,15.9999997,0.8551804324274109,0.0,1,24,218.0417439340359,519.265175,mp-1175215,Li7Mn4CoO12,https://materialsproject.org/materials/mp-1175215,14.948225307746586,-81.47678930136641,-16.04677498250291,-85.17206640645314
-5.4948698115625,-175.83583397,4.271962359164856,-1.69967114625,23.5521842,0.9659940674911204,0.0,2,32,284.1411654990107,730.991765,mp-1175440,Li9Co7O16,https://materialsproject.org/materials/mp-1175440,13.653675640806734,-75.42956666830311,-9.816044997953249,-81.46906496986996
-5.77032721125,-184.65047076,4.15870765827544,-1.834978247872499,24.0000005,0.968855039627354,0.2582,1,32,288.68876037022386,723.001465,mp-1176140,Li9Mn2Co5O16,https://materialsproject.org/materials/mp-1176140,12.876918533399946,-78.21622482739427,-13.840215911728823,-85.52415081425865
-5.828395883928572,-163.19508475,4.136578171646954,-1.8878826890864295,11.00000005,0.5108495107520538,0.9632999999999998,2,28,250.9441829397788,625.12847,mp-1174434,Li4MnCo2O7,https://materialsproject.org/materials/mp-1174434,13.213949609198961,-72.20281408310021,-12.718834344645474,-80.3152379141782
-5.75984375875,-184.31500028,4.121600772439129,-1.824494795372499,22.0000003,0.8801927139005012,0.1080000000000001,1,32,291.28783327047114,723.001465,mp-1176178,Li9Mn2Co5O16,https://materialsproject.org/materials/mp-1176178,10.860096944077421,-81.84389534902066,-16.8564205046216,-87.3961516872534
-6.012377559375,-96.19804095,3.928826916184751,-2.0408789757450005,7.9999977,0.6654035857376678,0.8260000000000001,10,16,140.11420042585257,331.5094850000001,mp-1174134,Li5Mn2CoO8,https://materialsproject.org/materials/mp-1174134,19.796148385918922,-77.82934449730483,-9.062135026992255,-83.83321116059996
-5.7950932546428575,-162.26261113,4.0811044876424845,-1.854580059800716,9.52908015,0.4366040426774673,0.0,8,28,254.3552199150174,625.12847,mp-1174381,Li4MnCo2O7,https://materialsproject.org/materials/mp-1174381,2.4637697591234438,-74.84775748329288,-24.025685106211764,-76.95018077419721
-5.785375219642857,-161.99050615,4.081968754006748,-1.8448620248007137,9.000000199999999,0.4124499486598012,0.07240000000000002,1,28,254.30136583763576,625.12847,mp-1174725,Li4MnCo2O7,https://materialsproject.org/materials/mp-1174725,18.313701753075506,-83.88071261356588,-17.282476819865185,-87.68434128626623
-6.416016943214286,-179.64847441,3.906141766359031,-2.1551602099378573,11.000000199999999,0.4950468498615023,0.7517,2,28,258.95471280108984,609.14787,mp-1174248,Li4Mn3O7,https://materialsproject.org/materials/mp-1174248,12.3890883166424,-83.33537138870727,-17.669217262100478,-86.59422087078468
-6.431636705,-205.81237456,3.934645710738008,-2.14591199646,26.000007399999998,1.0212597855679688,0.0,2,32,296.6980337506545,703.025715,mp-1100534,Li9Mn7O16,https://materialsproject.org/materials/mp-1100534,10.817681225794846,-82.48016266856125,-18.67740796754193,-86.34686055504133
-5.86871405,-140.8491372,4.0846359025105485,-1.9213152132049995,17.9999998,0.978662819965616,0.6949999999999998,12,24,214.34671808890386,527.2554749999998,mp-1174505,Li7Mn2(CoO4)3,https://materialsproject.org/materials/mp-1174505,18.542682949739184,-71.93689266688584,-12.847068332501252,-78.32078950107211
-5.846138644583332,-140.30732747,4.115884340801805,-1.8987398077883324,14.000000400000001,0.7670054489618269,0.0,5,24,212.7193642474133,527.2554749999998,mp-1174912,Li7Mn2(CoO4)3,https://materialsproject.org/materials/mp-1174912,18.854100816398105,-79.13140319726061,-16.5501720360802,-84.64425609399127
-6.338960673,-126.77921346,3.854256599046488,-2.1576814605670003,6.99999555,0.4493453519657921,0.8708999999999998,12,20,181.54945008430855,421.39218000000005,mp-1173952,Li3Mn2O5,https://materialsproject.org/materials/mp-1173952,18.713767370019763,-83.05920672228648,-17.936712444111446,-83.05715572187238
-5.870924461666667,-140.90218708,4.089422830661212,-1.9235256248716663,17.9999995,0.9798097329370395,0.8948,1,24,214.09581169420952,527.2554749999998,mp-1174923,Li7Mn2(CoO4)3,https://materialsproject.org/materials/mp-1174923,21.720224051634165,-75.17109014334345,-11.969868903407349,-78.73323357723254
-5.78523712375,-185.12758796,4.182839809284126,-1.8498881603724997,24.0,0.974477091864386,0.3209,1,32,287.023221865904,723.001465,mp-1175919,Li9Mn2Co5O16,https://materialsproject.org/materials/mp-1175919,15.698411932393752,-75.2788623234009,-11.408709564848955,-82.40112191727238
-6.222589794583333,-149.34215507,4.030622651238869,-2.088323893701666,13.999987699999998,0.7626739892165639,0.6568,2,24,213.927268764518,519.265175,mp-1175141,Li7Mn4CoO12,https://materialsproject.org/materials/mp-1175141,20.596872045095655,-79.08748488138005,-9.72517534919455,-87.08679320277668
-5.508284000625,-176.26508802,4.261291824263036,-1.7130853353125,23.999999300000002,0.9819024834837304,0.0,2,32,284.85267232570527,730.991765,mp-1175507,Li9Co7O16,https://materialsproject.org/materials/mp-1175507,16.609725353831564,-73.46885504103119,-9.106245110548288,-78.19342246927208
-6.5309601079999995,-457.16720756,3.8126489365840173,-2.0249228152194285,23.00209495,0.3808364752191847,0.0,12,70,703.8924102466441,1616.15872,mp-767763,Li7Mn8O20,https://materialsproject.org/materials/mp-767763,20.126765123373406,-68.43543957991933,-16.031580262056078,-70.26074635248095
-4.600493232461538,-299.03206011,4.601498463104451,-0.6431890876538459,5.9998584,0.10100092084261814,1.0205,2,65,692.2980289332362,1918.4182,mp-685529,Li2(NiO2)21,https://materialsproject.org/materials/mp-685529,25.249131097415212,-72.69160816623295,-5.084461527184186,-71.86508702424132
-5.484066444,-109.68132888,4.178028788500328,-1.7512681853749996,5.0,0.3352108122522888,0.6194999999999999,2,20,173.8318745486725,437.37278,mp-1173977,Li3Co2O5,https://materialsproject.org/materials/mp-1173977,21.425451333498792,-72.59983502543116,-8.568708535642086,-77.68649451277398
-5.7602615003125,-184.32836801,4.1599497301805926,-1.824912536934999,22.0000009,0.8883823894450341,0.0,2,32,288.6025640885747,723.001465,mp-1175802,Li9Mn2Co5O16,https://materialsproject.org/materials/mp-1175802,14.732764505779398,-83.38536396405631,-15.120250104164862,-87.53229666691334
-5.757350505,-184.23521616,4.1104049929519455,-1.8220015416224988,24.000000600000003,0.9576019610322044,0.08550000000000013,2,32,292.0812330338004,723.001465,mp-1175657,Li9Mn2Co5O16,https://materialsproject.org/materials/mp-1175657,10.713440988185305,-81.41372657712236,-14.932187578521367,-86.88512585204785
-5.7830585235714285,-161.92563866,4.089833065510606,-1.8425453287292857,10.000000199999999,0.4591606365032345,0.02469999999999972,1,28,253.8123715132295,625.12847,mp-1174755,Li4MnCo2O7,https://materialsproject.org/materials/mp-1174755,14.555483191234524,-83.02752274930731,-17.03744235101947,-87.49346307244438
-5.812618540833332,-139.50284498,4.0379725160527995,-1.8652197040383325,18.0000003,0.967482481571387,0.11990000000000035,2,24,216.82373934211182,527.2554749999998,mp-1174860,Li7Mn2(CoO4)3,https://materialsproject.org/materials/mp-1174860,13.484237046034668,-82.86352900313719,-14.124517200800002,-86.40278509554862
-5.8801843765,-117.60368753,3.9517139059899313,-1.9231456409710008,7.0000003,0.4521344207141582,0.2184999999999997,1,20,180.42965358682926,429.38248,mp-1174096,Li3MnCoO5,https://materialsproject.org/materials/mp-1174096,15.628719067177832,-80.45744666172735,-17.723832126412876,-84.00800623981581
-5.803328507272727,-127.67322716,4.385658292181581,-1.6784870529545457,4.0000003,0.2170713788549003,0.0,64,22,214.7508475431876,567.17958,mp-757742,Li2Fe(CoO3)2,https://materialsproject.org/materials/mp-757742,9.30817599691259,-64.84497021472403,-3.2129732362735663,-67.87993244236417
-5.91630170125,-94.66082722,3.792060960171319,-1.94480311762,9.999972099999999,0.8027983605621577,0.0,2,16,145.16761406386368,331.5094850000001,mp-1174324,Li5Mn2CoO8,https://materialsproject.org/materials/mp-1174324,16.960186943303082,-82.60116777361456,-8.952809332531698,-87.58735890108275
-5.7871534378125,-185.18891001,4.205239149686099,-1.8518044744349995,22.000000600000003,0.8980542062656628,0.5425999999999997,2,32,285.49438352377905,723.001465,mp-1175664,Li9Mn2Co5O16,https://materialsproject.org/materials/mp-1175664,13.180678169908168,-77.21689874504071,-14.102371274233436,-84.09557611266489
-5.812443459583334,-139.49864303,4.008812365867192,-1.8650446227883333,18.0000001,0.9604958125323176,0.0895999999999999,2,24,218.40091787430126,527.2554749999998,mp-1174905,Li7Mn2(CoO4)3,https://materialsproject.org/materials/mp-1174905,13.747964890506234,-83.16808272911162,-14.634205000696408,-86.2211351155068
-5.050282925,-181.8101853,4.476341537661146,-1.2629536665277783,6.9922183,0.2329775964067368,0.0,10,36,349.7665278931555,942.8712,mp-757287,Li3Fe(Ni2O5)2,https://materialsproject.org/materials/mp-757287,23.735723043771873,-73.88186530507808,-5.404586278283628,-70.46627149405361
-5.487411192083332,-131.69786861,4.251283858777756,-1.726879419375,9.999999800000001,0.5574362203923571,0.0,2,24,209.06543409173457,535.245775,mp-1174374,Li7Co5O12,https://materialsproject.org/materials/mp-1174374,19.158856092650637,-78.52786887950398,-8.834030473971945,-81.75141047569007
-5.758046048125,-184.25747354,4.125614650042884,-1.8226970847474997,24.0000009,0.9611453702256032,0.08899999999999998,1,32,291.0044345991485,723.001465,mp-1176153,Li9Mn2Co5O16,https://materialsproject.org/materials/mp-1176153,12.692566680848975,-83.61826081728903,-15.406657711147592,-87.04831969559444
-5.786205999375,-185.15859198,4.161583060213095,-1.8508570359975,24.8327686,1.0031661481053409,0.0,1,32,288.4892939150463,723.001465,mp-1176038,Li9Mn2Co5O16,https://materialsproject.org/materials/mp-1176038,6.705663182586317,-71.78589004848197,-21.044126286380887,-74.93218226017656
-5.8287224745833335,-139.88933939,4.030726070629253,-1.881323637788333,15.9999997,0.858441090914611,0.39899999999999997,1,24,217.2135453885016,527.2554749999998,mp-1175083,Li7Mn2(CoO4)3,https://materialsproject.org/materials/mp-1175083,10.889894569144564,-80.98961934643472,-14.562161604332369,-85.94362962276182
-5.83869682875,-93.41914926,4.433689283962794,-1.7993471875599996,14.0000003,1.124225630275906,0.0,12,16,145.12826066064102,387.49683,mp-1174023,Li4MnCo3O8,https://materialsproject.org/materials/mp-1174023,1.6728896848530403,-72.07432284771113,-19.97557780291004,-74.33157250072234
-4.916660019166667,-176.99976069,4.5923182496962225,-1.1880133826388888,1.9999997999999999,0.0681597323916508,0.0,2,36,341.9633029128728,945.7196,mp-758623,Li6FeNi9O20,https://materialsproject.org/materials/mp-758623,9.080055729355434,-67.81790330247085,-4.066500882220906,-70.15371679258918
-5.77044822125,-184.65434308,4.146647903982844,-1.835099257872499,23.9346961,0.9634168502259048,0.0,1,32,289.52835794342394,723.001465,mp-1176119,Li9Mn2Co5O16,https://materialsproject.org/materials/mp-1176119,10.93898946892102,-80.39125339184845,-14.564249555731351,-85.75019631829544
-5.785073849642857,-161.98206779,4.080941938516776,-1.8445606548007152,9.0000639,0.4123491157488197,0.10200000000000033,2,28,254.36535120804714,625.12847,mp-1174524,Li4MnCo2O7,https://materialsproject.org/materials/mp-1174524,14.435164365918071,-83.80118472599861,-16.858647868699233,-88.00895386902194
-5.4748320320833335,-131.39596877,4.136793576421814,-1.714300259375,17.9999999,0.9763632903027188,0.4624999999999999,2,24,214.85154841865102,535.245775,mp-1174307,Li7Co5O12,https://materialsproject.org/materials/mp-1174307,16.324539235790795,-79.36450267403333,-13.172524436116747,-82.98331709834616
-6.184622417083332,-148.43093801,3.945493120799061,-2.0503565162016666,17.802327,0.9493299979344744,0.0,6,24,218.54304868875371,519.265175,mp-1175302,Li7Mn4CoO12,https://materialsproject.org/materials/mp-1175302,11.107305450821505,-80.52519055444027,-15.92673349536872,-82.3816034962199
-6.41555483125,-205.2977546,3.930037687274465,-2.12983012271,26.0000158,1.02006407629644,0.0,12,32,297.0459162927321,703.025715,mp-1100489,Li9Mn7O16,https://materialsproject.org/materials/mp-1100489,2.420313940274036,-78.49685562056312,-29.31515607064085,-77.97897967509668
-5.7713181709375,-184.68218147,4.136235463720103,-1.835969207559999,23.999999399999997,0.9636196433435659,0.3660000000000001,1,32,290.25720830939025,723.001465,mp-1176196,Li9Mn2Co5O16,https://materialsproject.org/materials/mp-1176196,10.931855048863092,-80.31815192909075,-14.601171033813117,-85.64624154056969
-6.918079045,-55.34463236,3.894730773701324,-2.6248835089583338,3.9999997000000005,0.6021018792161575,0.8317999999999999,10,8,77.42253795106305,181.5916,mp-754391,Li2TiFeO4,https://materialsproject.org/materials/mp-754391,2.3463141118491517,-63.58798899425705,-10.831444285643961,-64.85315919921774
-6.439709270625,-206.07069666,3.9384187065285485,-2.1539845620849998,26.001123800000002,1.022282981554,0.8365,10,32,296.413797737214,703.025715,mp-1100481,Li9Mn7O16,https://materialsproject.org/materials/mp-1100481,11.575048350371775,-83.07200165293713,-19.256028192849147,-86.32069365037594
-7.0289528884,-175.72382221,4.105312338109567,-1.8546405451072008,24.999997699999998,1.0254344352388929,0.0,115,25,284.1250327640576,702.43576,mp-1222484,LiMn8O16,https://materialsproject.org/materials/mp-1222484,20.44218540644166,-69.02493469891316,-9.220522767361672,-70.78324082622281
-5.717646155666668,-171.52938467,4.445320130670024,-1.1383433638333345,12.999999,0.4475436732749473,0.3526,2,30,338.5207733595552,906.231755,mp-771048,FeCo9O20,https://materialsproject.org/materials/mp-771048,25.014998718947677,-72.87223597708925,-5.451154243434488,-71.61860567572488