energy_per_atom,energy,density,formation_energy_per_atom,total_magnetization_uB,total_magnetization_T,band_gap,sgr,num_sites,cell_volume,weight,mp_id,formula,URL,tsne_cry_lin1_0,tsne_cry_lin1_1,tsne_cry_lin2_0,tsne_cry_lin2_1
-6.536251899375,-104.58003039,6.93425052997004,-0.32180182437500005,1.822875175,0.05490295356807871,0.0,53,16,386.9355650493194,1615.80552,mp-616481,NbFeTe2,https://materialsproject.org/materials/mp-616481,56.743847874223874,32.55478059669287,-8.604250342815693,-0.5045126942092143
-3.8519715691666665,-92.44731766,5.95815978518157,-0.1738404883333331,4.625e-06,6.978253453508841e-08,0.2639999999999993,6,24,772.4002851456517,2771.44,mp-1219050,Sn2GeTe3,https://materialsproject.org/materials/mp-1219050,67.46631826342174,26.238492845413102,3.2736275864385966,-5.25756010763517
-5.2502876485000005,-105.00575297,4.056544095643588,-0.9564309427770006,4.999999900000001,0.12880818257655874,0.8711000000000002,62,20,452.3805982803794,1105.12418,mp-555844,MnSbS2Cl,https://materialsproject.org/materials/mp-555844,26.736671272273515,0.5335652488792986,4.699593041326931,-5.716848552679747
-6.270740278333334,-37.62444167,4.8179155600897925,-1.2036324518402786,0.0,0.0,0.0,10,6,156.79616559991362,454.931,mp-570062,ZrTiSe4,https://materialsproject.org/materials/mp-570062,28.686288968284764,8.355509815750871,-8.604250342815693,-0.5045126942092143
-4.642600115,-27.85560069,5.830211314177184,-0.7281987727533336,0.0,0.0,0.7763999999999998,12,6,151.49861590640052,531.9169999999998,mp-22945,TeRhCl,https://materialsproject.org/materials/mp-22945,49.90477817342398,20.763427935411716,7.088784882781058,-6.089514853874896
-5.5052350216666674,-99.09423039,4.511917306969184,-0.8215558333020836,8.0000003,0.2275497223625512,0.12400000000000012,1,18,409.723732943744,1113.27680784,mp-675310,Na3(VSe2)5,https://materialsproject.org/materials/mp-675310,50.00768975883212,25.971840752709824,-6.3164408668151,-3.69411364371028
-6.3030363450000015,-63.03036345,4.434772570487388,-1.6763218761562506,0.0,0.0,0.5559000000000003,15,10,244.72532608145488,653.583648,mp-684690,Sc2Se3,https://materialsproject.org/materials/mp-684690,51.14263220169805,7.942293200552669,6.451061240184486,-6.234681005790317
-5.900400419230769,-76.70520545,6.107725331469209,-0.20678434978365398,14.5193307,0.5258791916358095,0.0,156,13,321.76443396756036,1183.5005,mp-1226038,Cr5(Te3Se)2,https://materialsproject.org/materials/mp-1226038,54.31579441263797,33.89875753703911,-8.604250342815693,-0.5045126942092143
-5.676478643818181,-312.20632541,5.81986271302196,-0.2884612116551724,59.67933789999999,0.4531282208914013,0.0,2,55,1534.9008015917966,5379.5254,mp-1219934,Rb3(Cr5Te8)4,https://materialsproject.org/materials/mp-1219934,54.24886162288246,33.917996832760835,-8.604250342815693,-0.5045126942092143
-5.673606135238097,-119.14572884,4.648272526322408,-1.1437243256547622,15.0003986,0.3711583546160883,0.16249999999999964,12,21,471.0000858782666,1318.449435,mp-1192303,Pr2Mn3(SbS3)4,https://materialsproject.org/materials/mp-1192303,26.98195803895059,0.8095001495320073,3.748292905294908,-5.696576014095808
-6.3364339195,-126.72867839,4.427540979154927,-1.7097194506562503,0.0,0.0,0.6540000000000004,70,20,490.25008171319786,1307.167296,mp-1205354,Sc2Se3,https://materialsproject.org/materials/mp-1205354,51.14077281788436,7.941376757066172,6.48409379757054,-6.231385147936847
-3.973583905,-7.94716781,5.909651479586357,-0.09100323749999983,2.8999999999999998e-06,6.006719716876082e-07,0.5644999999999998,160,2,56.2649656275286,200.24,mp-938,GeTe,https://materialsproject.org/materials/mp-938,68.16667905504669,26.42654404541374,5.278664654369203,-6.578169851165618
-6.236530947142858,-43.65571663,5.969617036649586,-0.957215069598214,4.5e-06,3.386489382777032e-07,0.0,12,7,154.8603451799793,556.721,mp-1217118,Ti3(TeSe)2,https://materialsproject.org/materials/mp-1217118,55.663340826149216,32.152219114398534,-8.604250342815693,-0.5045126942092143
-4.137273499210527,-314.43278594,3.829630359417239,-0.6240637742631582,11.00865505,0.04873325646049993,0.1358999999999999,60,76,2632.608373205156,6071.4724,mp-1195306,K7(FeTe2)4,https://materialsproject.org/materials/mp-1195306,26.822717002721,16.4410583097891,-5.570037317299689,-2.5758217554494727
-6.584218398571429,-46.08952879,5.597723531991007,-1.0368672996726198,1.3722251,0.11655713116326212,0.0,12,7,137.20310407719396,462.5155,mp-1025203,Ti2VSe4,https://materialsproject.org/materials/mp-1025203,22.990758348764714,15.684893124027152,-8.604250342815693,-0.5045126942092143
-5.094416467777778,-45.84974821,4.353382229852155,-0.34728187322222226,14.995027300000002,0.6352585070792557,0.0,8,9,275.0896170190106,721.19367356,mp-1221335,Na2Mn3Te4,https://materialsproject.org/materials/mp-1221335,26.91895563424315,16.630881256693193,-8.604250342815693,-0.5045126942092143
-5.672729911904763,-119.12732815,4.735354053358288,-1.1446181863690474,15.0000128,0.37619916305282575,0.1402000000000001,12,21,464.67705919876704,1325.118135,mp-1192080,Nd2Mn3(SbS3)4,https://materialsproject.org/materials/mp-1192080,26.984859287878837,0.7900812314027267,3.77602095029378,-5.726126822882315
-4.3997841385714285,-30.79848897,7.266323678343576,-0.1818699028571429,5.000000900000001,0.2593149946146797,0.4754000000000005,166,7,224.70869622499688,983.2988449999999,mp-1077840,Mn(BiTe2)2,https://materialsproject.org/materials/mp-1077840,66.4849792179745,24.170313408841587,-8.604250342815693,-0.5045126942092143
-6.887523533333333,-20.662570600000002,7.923663049600606,0.03297488666666718,3.0000001,0.6998423865215191,0.0,216,3,49.957242025394976,238.383045,mp-1008872,MnFeTe,https://materialsproject.org/materials/mp-1008872,22.186900936857924,17.062488681201692,-8.604250342815693,-0.5045126942092143
-5.108143314814815,-137.9198695,7.054660089244026,-0.3894403706481487,14.588665099999998,0.2600813718601561,0.0,8,27,653.7079022791303,2777.2229,mp-1192637,Cr5(Bi3Se8)2,https://materialsproject.org/materials/mp-1192637,27.13278011165237,0.9979263664600054,-8.604250342815693,-0.5045126942092143
-4.135949357368421,-157.16607558,3.872878757405247,-0.6227396324210536,11.0000004,0.0984897216150814,0.13500000000000026,137,38,1301.6050310386145,3035.7362,mp-1194770,K7(FeTe2)4,https://materialsproject.org/materials/mp-1194770,26.78631996610221,16.426220798520962,-11.335891962352278,-0.3360155812694437
-4.4175032925,-53.01003951,9.49905458512808,-0.4328612324999999,0.0,0.0,0.040000000000000036,164,12,341.70347688824637,1954.7026,mp-9251,TlTe3Pt2,https://materialsproject.org/materials/mp-9251,53.605294842917544,27.18990181146956,-6.001858435627521,0.31739508025590585
-5.768944061749999,-230.75776247,5.724674706871058,-0.2443177245086204,43.1065159,0.4409320616720305,0.0,2,40,1139.3277379580506,3927.8093,mp-1219831,Rb(Cr5Te8)3,https://materialsproject.org/materials/mp-1219831,54.24585145520026,33.91557603909329,-8.604250342815693,-0.5045126942092143
-4.334796239,-86.69592478,4.8721517170963935,-0.6473699643437506,0.0,0.0,0.6631,62,20,518.7455127008715,1522.04,mp-1219003,Sn2SeS2,https://materialsproject.org/materials/mp-1219003,70.308594311584,24.48421117423337,5.636647685098093,-6.766080763686392
-6.30906763,-31.54533815,4.384712107487728,-1.6823531611562499,0.0,0.0,0.6197999999999997,71,5,123.75968328185785,326.791824,mp-1219395,Sc2Se3,https://materialsproject.org/materials/mp-1219395,51.14055479897568,7.936707881048843,6.590881511506202,-6.230624066656232
-7.4934985324999985,-89.92198239,8.522075273532113,-0.9614587225000004,6.854669599999999,0.26961999589144514,0.0,62,12,296.28649480826783,1520.576,mp-1101822,EuSbPd,https://materialsproject.org/materials/mp-1101822,52.31062393627768,28.72764610461197,-8.604250342815693,-0.5045126942092143
-4.718742167222222,-169.87471802,5.036312843728548,-0.8202478486342591,0.0,0.0,0.39780000000000015,15,36,1228.8315495565805,3726.97056,mp-582657,Ti4Te9I4O,https://materialsproject.org/materials/mp-582657,56.5040945745809,27.225043987270514,-3.0326531807129125,-1.6937751624241375
-5.0843945585915495,-360.99201366,8.225072481555863,-0.106201872394366,3.9e-06,2.714344428194599e-08,0.0,1,71,1674.4688750945907,8294.0705,mp-684876,Te40Rh31,https://materialsproject.org/materials/mp-684876,52.5870942894454,30.69662065796053,-8.604250342815693,-0.5045126942092143
-4.6069304650000005,-55.28316558,6.3447297753560274,-0.2829009816666665,0.0,0.0,0.4956,2,12,428.30507203768167,1636.5047,mp-28691,TaTe4I,https://materialsproject.org/materials/mp-28691,56.350914753668434,27.898816559262272,-8.604250342815693,-0.5045126942092143
-5.20253131,-20.81012524,4.5310879102295125,-0.8533798879218759,1.9999997999999999,0.27431610127140194,0.0,166,4,84.96813386555796,231.85126928,mp-3567,NaVSe2,https://materialsproject.org/materials/mp-3567,25.060614633528232,7.3197653263525035,-8.604250342815693,-0.5045126942092143
-6.588718152857143,-46.12102707,5.640742431718312,-0.961724408244047,2.9016571,0.24779656329737745,0.0,12,7,136.46718639344266,463.5701,mp-1208265,Ti2CrSe4,https://materialsproject.org/materials/mp-1208265,22.976407430018096,15.877458391362332,-8.604250342815693,-0.5045126942092143
-7.8787386986206895,-456.96684452,6.8750908398697135,-0.5850383875862069,93.81286045,0.6594367086210138,0.0,12,58,1657.9318953439347,6864.29654,mp-1204179,Eu10Mn6Sb13,https://materialsproject.org/materials/mp-1204179,2.830187879780093,33.720484412621175,-8.604250342815693,-0.5045126942092143
-4.228491144166667,-202.96757492,4.6018326672509895,-0.5228673040900382,5.0000003,0.02944802262616082,0.5401000000000002,15,48,1978.751785773627,5483.6919751999985,mp-1204512,CsMnInTe3,https://materialsproject.org/materials/mp-1204512,27.184505886986212,16.576204329025188,6.54954301872109,-6.049593776359293
-4.358382876923076,-56.6589774,5.450850988183318,-0.5101097738107868,1e-07,2.779114933353392e-09,0.0,8,13,419.3444694457969,1376.5314519,mp-1228812,CsTi2(CuTe4)2,https://materialsproject.org/materials/mp-1228812,55.858355225391996,27.654400824094157,-8.604250342815693,-0.5045126942092143
-4.016839876666666,-48.20207852,5.353058522072417,-0.9551941358908048,0.0,0.0,0.1858000000000004,125,12,457.101073486832,1473.5509,mp-7199,RbPrTe4,https://materialsproject.org/materials/mp-7199,57.53891215332872,26.713745545165878,3.613520257714732,-5.48223283638289
-5.129176577,-51.29176577,5.649769464755781,-0.8061073676250003,5.0000004,0.2429906524630072,0.7637999999999998,12,10,239.80481526257648,815.90489,mp-557805,MnBiS2Br,https://materialsproject.org/materials/mp-557805,26.78459786447679,0.41362804864859537,6.377642490533776,-5.850839345982674
-4.68693823425,-187.47752937,4.809264995812285,-1.0800770425226305,5.000001825,0.04692893930400323,1.0505999999999998,62,40,1241.6718978878766,3596.1389952,mp-556529,Cs2MnBi2S5,https://materialsproject.org/materials/mp-556529,24.94509963279299,0.6599634780562781,-6.058223895359562,-3.54213309633128
-3.543931386,-17.71965693,4.294972904082194,-0.8072032151999998,0.0,0.0,0.7676999999999996,71,5,170.0435953963558,439.8166,mp-1206350,K2Te2Pd,https://materialsproject.org/materials/mp-1206350,64.86805598838474,17.545741481133938,4.711532137964566,-5.5035473105699575
-6.600457343333333,-19.80137203,7.203790840328957,-1.0717432261979158,1.6e-06,2.1008366569279187e-07,0.0,156,3,88.75751274905178,385.05,mp-1224271,HfTeSe,https://materialsproject.org/materials/mp-1224271,57.26434783437728,27.649353640481962,4.357240344957363,-5.481142121222268
-6.588780681428572,-46.12146477,5.510134527382639,-0.7132760072916672,7.6232294000000005,0.6303226319881711,0.0,12,7,140.9462467236122,467.6992,mp-1025279,Ti(CrSe2)2,https://materialsproject.org/materials/mp-1025279,23.38171987232249,16.40339064284034,-8.604250342815693,-0.5045126942092143
-3.8435747304878047,-157.58656395,6.324893218341678,-0.24967576652439086,0.1258752,0.0010707982338475249,0.0,1,41,1369.9665237473594,5218.12,mp-675760,Sm3(Sb7Te12)2,https://materialsproject.org/materials/mp-675760,67.16673128341584,26.039730864374032,-8.604250342815693,-0.5045126942092143
-5.141807056111111,-92.55252701,4.338398946148374,-0.4661989184099621,14.99999915,0.2698807068664172,0.2391000000000001,72,18,647.7341923109996,1692.29947,mp-1209522,Rb2Mn3Te4,https://materialsproject.org/materials/mp-1209522,26.658071052456002,16.510972900905248,-8.604250342815693,-0.5045126942092143
-5.2487862425000005,-104.97572485,5.26802552194446,-1.0007497937770005,4.999999375,0.1271393610325615,0.8540999999999999,62,20,458.3184633442074,1454.0057800000002,mp-558130,MnBiS2Cl,https://materialsproject.org/materials/mp-558130,26.725685552992648,0.4055987053357896,6.429438999028237,-5.634026064725789
-5.18699131,-41.49593048,6.305083975061788,-0.6932994724999997,0.0,0.0,0.0,11,8,249.68275157326386,948.048,mp-2089,ZrTe3,https://materialsproject.org/materials/mp-2089,56.82577610424518,28.39516496144018,-6.1344132982633175,0.6743603193926953
-4.7242626725,-18.89705069,6.584578267215733,-0.013274322500000045,2.9545215,0.3644904192645869,0.0,115,4,94.46663921206002,374.591,mp-1224961,FeCuTe2,https://materialsproject.org/materials/mp-1224961,52.50781874650827,27.79673719270661,-8.604250342815693,-0.5045126942092143
-5.602622481,-56.02622481,8.438271847480703,-0.8951089065000005,0.0001291,6.421957177444633e-06,0.0,129,10,234.2805659654257,1190.53094,mp-1079540,La(SbPd)2,https://materialsproject.org/materials/mp-1079540,49.585069884139045,28.69344546548378,-8.604250342815693,-0.5045126942092143
-4.8341111219999995,-24.17055561,6.325109674530912,0.2996157060000001,4.0225001,0.32946612419227445,0.0,123,5,142.28618140318991,541.9780450000002,mp-1221564,MnSb4,https://materialsproject.org/materials/mp-1221564,37.14424867566585,28.24289962105321,-8.604250342815693,-0.5045126942092143
-4.222566025,-42.22566025,4.2257534703280415,-0.7755940994827583,4.99998645,0.12873224277607975,1.0935,72,10,452.6462422594272,1151.8978976,mp-610744,Cs2MnTe2,https://materialsproject.org/materials/mp-610744,26.78875201993296,16.55996658468619,-8.604250342815693,-0.5045126942092143
-5.684254673,-56.84254673,8.660931660072597,-0.7751947590000008,0.8344763000000001,0.042519092433297774,0.0,129,10,228.72174110071145,1192.952,mp-1078778,Ce(SbPd)2,https://materialsproject.org/materials/mp-1078778,49.58893578956109,28.724830845357214,-8.604250342815693,-0.5045126942092143
-4.189189199655171,-121.48648679,6.2406692879020085,-0.19230045965517256,0.0139768,0.00015397578197514963,0.03969999999999985,2,29,1057.8711172864882,3975.7112799999995,mp-1208488,Ta4Te16PtI8,https://materialsproject.org/materials/mp-1208488,56.31098451382932,27.9125481408285,-8.604250342815693,-0.5045126942092143
-6.4201015450000005,-38.52060927,6.2037375558713705,-0.8445960300000005,1.6899999999999997e-05,1.3609687544670653e-06,0.0,115,6,144.7158092423532,540.6551,mp-1215465,Zr2SiTe2As,https://materialsproject.org/materials/mp-1215465,43.81873308949125,27.359520707095236,-8.604250342815693,-0.5045126942092143
-3.855661203333333,-11.56698361,5.13856414576062,0.04772127166666648,3.3e-06,4.201068022038985e-07,0.0,164,3,91.54437287778364,283.2855,mp-2755,SiTe2,https://materialsproject.org/materials/mp-2755,56.97160941980174,28.284341232964465,-2.8141257534215907,-2.1997841301528123
-7.583873647999999,-37.91936824,6.2128552069972,-0.21110920399999886,15.662267499999999,1.3513668627413078,0.0,164,5,135.06996875732784,505.36009,mp-582227,Eu(MnSb)2,https://materialsproject.org/materials/mp-582227,2.907467707837869,33.754675922675894,-8.604250342815693,-0.5045126942092143
-6.954782746666668,-20.86434824,7.7152852382417265,0.12486720666666665,2.0000014,0.459968769452955,0.0,216,3,50.673322644340956,235.4411,mp-1009592,CrFeTe,https://materialsproject.org/materials/mp-1009592,22.175016682243914,17.104351282492498,-8.604250342815693,-0.5045126942092143
-6.095342316428571,-85.33479243,5.123282584306594,-1.2083305644591544,0.9679770000000001,0.03638853082108511,0.0,12,14,310.0115998585848,956.4828,mp-975271,RbTi5Se8,https://materialsproject.org/materials/mp-975271,23.076047445419587,15.795330409852559,-8.604250342815693,-0.5045126942092143
-5.62831376142857,-39.39819633,7.341315521840312,-0.3266417106249995,2.815306,0.2511764120666081,0.0,12,7,130.62436161352323,577.496,mp-1078162,Fe(RhSe2)2,https://materialsproject.org/materials/mp-1078162,22.134820553543406,15.234858621474723,-8.604250342815693,-0.5045126942092143
-6.64310420375,-106.28966726,8.570470382855131,-0.3305337687500005,0.0,0.0,0.0,14,16,383.69023695467064,1980.3243,mp-28846,TaCoTe2,https://materialsproject.org/materials/mp-28846,52.8729762905448,28.090864348300208,-8.604250342815693,-0.5045126942092143
-5.3012348903125,-169.63951649,8.770329347512043,-0.40334845218750015,0.0,0.0,0.3959999999999999,148,32,850.7729660846687,4493.456,mp-5142,Sn3Te3Ir2,https://materialsproject.org/materials/mp-5142,49.99941963024935,20.942768608160414,5.037174234048537,-5.860856728073816
-4.8297567783333335,-28.97854067,4.752181804013,-0.1024282670689652,4.61248415,0.24843936923706486,0.0,129,6,216.36743488594126,619.2069938,mp-510378,CsMnSb,https://materialsproject.org/materials/mp-510378,23.86781847923901,22.368020871856064,-8.604250342815693,-0.5045126942092143
-6.974515283333332,-20.92354585,7.862720112833934,-0.08069817000000039,1.0030896,0.23616105880414198,0.0,216,3,49.500418190350544,234.3865,mp-961656,VFeTe,https://materialsproject.org/materials/mp-961656,22.09915659762858,16.994467690383896,-11.315691867232767,-0.8647922876406712
-4.822646885,-19.29058754,6.48389135385543,-0.1350949616666668,3.0000595000000003,0.3289111174764314,0.0,160,4,106.29889315625931,415.0643,mp-1018084,CrAgTe2,https://materialsproject.org/materials/mp-1018084,53.25054786594492,33.01885617876245,-11.388431314024148,-1.4926020645024485
-6.240236067333332,-93.60354101,5.021867476041371,-1.1443873115069445,0.0045793,0.0001391874903691113,0.0,164,15,383.42137408654645,1159.558,mp-1224524,Hf(Ti2Se5)2,https://materialsproject.org/materials/mp-1224524,23.332549485668586,16.14650960345519,-8.604250342815693,-0.5045126942092143
-3.877363861666667,-558.34039608,3.682620557637093,-0.6954131116666669,6.999615283333332,0.015950085753344532,0.19099999999999984,205,144,5114.327982710714,11342.178,mp-1196434,K5Fe2Te5,https://materialsproject.org/materials/mp-1196434,26.832812152749487,16.440974259149833,-1.6462413943420682,-2.343069008741516
-5.1280563475,-41.02445078,9.342980439703377,-0.5342866500000003,0.0,0.0,0.0,62,8,160.05049201925485,900.52,mp-2369,SnPd,https://materialsproject.org/materials/mp-2369,37.779721665257306,32.164789310392514,-8.604250342815693,-0.5045126942092143
-4.0342869425000005,-48.41144331,5.228510699527686,-0.9570075596666672,0.0,0.0,0.16880000000000006,125,12,438.5363631471008,1380.8119,mp-11132,KPrTe4,https://materialsproject.org/materials/mp-11132,57.52574156724145,26.64069660885049,4.848550314280466,-5.739835581379614
-6.306632182,-94.59948273,6.149521101131419,-0.6925403363958338,0.8789899999999999,0.02802939676107573,0.0,2,15,365.46653079090737,1353.4425199999998,mp-675326,Nb4IrSe10,https://materialsproject.org/materials/mp-675326,49.42944133910575,24.58832396169562,-8.604250342815693,-0.5045126942092143
-3.70892048,-18.5446024,6.334706451782801,-0.07345291699999948,5.45e-05,4.197831590829464e-06,0.0,160,5,151.30348046644778,577.1999999999998,mp-1224339,GeSbTe3,https://materialsproject.org/materials/mp-1224339,67.74743584573157,26.30941614003227,3.5886328551325755,-5.548436687841316
-5.746857865,-22.98743146,8.217916833598123,0.05426513499999963,1.8502253,0.29085653052330224,0.0,194,4,74.1349883093004,366.89,mp-10761,FeTe,https://materialsproject.org/materials/mp-10761,53.02267431399992,28.680013008328466,-8.604250342815693,-0.5045126942092143
-6.297299183333334,-132.24328285,7.943699243717406,-0.2292056371428577,10.682628900000001,0.2350095734364149,0.0,6,21,529.7488409573332,2534.21652,mp-1218111,Ta4Fe5Te12,https://materialsproject.org/materials/mp-1218111,55.06342933020009,32.45786867029695,-8.604250342815693,-0.5045126942092143