energy_per_atom,energy,density,formation_energy_per_atom,total_magnetization_uB,total_magnetization_T,band_gap,sgr,num_sites,cell_volume,weight,mp_id,formula,URL,tsne_xrd_lin1_0,tsne_xrd_lin1_1,tsne_xrd_lin2_0,tsne_xrd_lin2_1
-4.429493663333333,-26.57696198,7.609903172125183,-1.21492054125,0.0,0.0,1.4833000000000005,129,6,153.56767482593892,703.7685399999998,mp-22987,BiIO,https://materialsproject.org/materials/mp-22987,-16.093927888714738,23.33839068540193,-15.975914194749635,40.925560685308355
-5.262248238888889,-94.7204683,2.8266619427759863,-2.6050138138622216,0.0,0.0,2.2123,129,18,312.5505666232179,532.0409641599998,mp-975958,KNaMo(OF2)2,https://materialsproject.org/materials/mp-975958,-4.133430838582775,-1.9783402676235928,6.889565604679599,-38.231479484671596
-2.8638882619999997,-85.91664786,1.9753016019270813,-1.2009921136125,1.3333333333333332e-06,1.1151270786356985e-08,1.0372,185,30,1393.4513229730255,1657.58622,mp-1211900,K3SI,https://materialsproject.org/materials/mp-1211900,16.31712648859909,-13.074078226283726,-3.364819363631205,-31.116183734953605
-7.177532694545453,-157.90571928,2.000448205431697,-0.2583878155018185,0.0,0.0,3.8956,14,22,479.2673003056321,577.3724000000002,mp-11893,K2Pd(CN)4,https://materialsproject.org/materials/mp-11893,27.13654919040923,-19.979240762133934,28.238111488479124,-29.35721313912855
-7.324328438333333,-175.78388252,5.511663135120712,-2.7430241483333333,1.000000075,0.034657086637053025,0.14950000000000066,14,24,336.267897202727,1116.1408,mp-10772,CeAsO4,https://materialsproject.org/materials/mp-10772,9.885424574763098,16.097201700388627,14.178612094019188,7.287173208840812
-7.712033998809524,-323.90542795,3.6638539772769123,-3.1138471971428574,0.0,0.0,4.7852,161,42,606.2657552915083,1337.6796,mp-5730,Ba(BO2)2,https://materialsproject.org/materials/mp-5730,-0.6763725786580039,-20.662638042869748,9.45686051806268,-17.14357422891633
-4.513460546666667,-27.08076328,4.829285914004942,-0.2885197666666664,4.0000089,0.2216652313353291,0.0,186,6,210.30074283907558,611.6100799999999,mp-1181742,CrI2,https://materialsproject.org/materials/mp-1181742,2.7285648604125696,-10.943922034957032,0.5957800135579094,-18.395492890822137
-4.278712373534483,-496.33063533,2.3194295333870243,-1.0947058100369458,0.00023295,1.083676045513976e-06,2.5434,1,116,2505.1899965918064,3499.2321920000004,mp-1147603,Li6Zn3(PS4)4,https://materialsproject.org/materials/mp-1147603,-16.720350373292614,-1.0842237890935738,-9.6429326836935,-3.429828138180215
-5.237575266875,-167.60240854,2.8805844497619986,-1.6070584856562506,2.5e-08,2.9625596263300074e-10,2.7558,62,32,983.4455878105517,1706.01112,mp-18148,K3TaS4,https://materialsproject.org/materials/mp-18148,40.07277060622365,-37.5141357816521,45.45265613324265,-33.269206363944136
-7.238659620833332,-173.72783090000001,5.536409675162751,-2.124361048098958,6.96619965,0.22944885793918915,0.0,14,24,353.8241273844083,1179.6863999999996,mp-769334,EuSeO4,https://materialsproject.org/materials/mp-769334,10.007934535442962,15.824697026821639,14.076004624894328,7.587602753743657
-5.03728390125,-161.19308484,3.709021232731773,-1.422260075625,0.0,0.0,0.4082999999999999,2,32,367.06540354915046,819.8864,mp-759720,LiCuO2,https://materialsproject.org/materials/mp-759720,27.482751064180285,-31.74166232699491,37.239846292879896,-50.5856795544731
-6.365189004166666,-305.52907220000003,5.460276426028623,-2.488232060114791,5.000000166666667,0.07730776532801213,0.0,150,48,753.7447959840148,2478.50537784,mp-554477,Ba4NaMn2O9,https://materialsproject.org/materials/mp-554477,-14.11331380136948,3.5767858920083184,9.67025419335147,-15.176930965150628
-4.2320884450000005,-84.6417689,5.116358188087161,-1.22337284825,1.1358188999999999,0.015900184483281947,0.0,148,20,832.5002168632248,2565.05219,mp-638650,Pr7FeI12,https://materialsproject.org/materials/mp-638650,-22.975995886484746,-37.92198193472507,-33.54789032877004,-23.84781583171636
-7.401153771666666,-88.81384526,6.2987972738424975,-2.626689869333332,1.2e-06,8.067239165179748e-08,4.3353,82,12,173.35394973083126,657.57043928,mp-1220735,NaLa(WO4)2,https://materialsproject.org/materials/mp-1220735,-9.52477176623118,-24.73625324162776,-2.2269210251375395,-29.383484948794674
-1.9151015425,-7.66040617,1.9181046828393624,0.007632893750000091,0.0025865,0.00016751540003467596,0.0,139,4,179.94308898158584,207.854,mp-1187169,SrCa3,https://materialsproject.org/materials/mp-1187169,-12.223008877555282,-26.65073088626261,-12.410752610507007,-26.247655021194053
-5.108252897142857,-143.03108112,4.170763978239365,-2.2072665017549267,0.0,0.0,1.7465000000000002,14,28,747.4352228458122,1877.32768,mp-1101428,Rb3HoO3,https://materialsproject.org/materials/mp-1101428,8.615403349099719,-17.109905529911913,15.018262915114393,-20.398213771953248
-5.88691176,-105.96441168,3.648009711629709,-1.095111534295977,14.99999975,0.3435762183267709,0.4763999999999999,72,18,508.7982210358307,1117.7700776,mp-2884,Cs2Mn3S4,https://materialsproject.org/materials/mp-2884,4.7732752110871575,17.934422387284116,-0.7643542619124462,24.241811035322794
-3.4785988259803924,-354.81708025,5.2540179217843175,-0.32462467039215703,0.0,0.0,0.8614000000000006,152,102,3438.0967444870957,10878.288,mp-531948,Ga6SnTe10,https://materialsproject.org/materials/mp-531948,6.6481007937049235,-15.502999747402795,7.356635360228263,-20.2875335378612
-3.9294814060000003,-39.29481406,7.4874558767436925,-0.1233547520000002,4.417250800000001,0.1991345661617077,0.0,21,10,258.5132653365541,1165.6496,mp-1216651,Tl2FeCu3Te4,https://materialsproject.org/materials/mp-1216651,-16.217779536582643,22.025118702718906,-5.525523382005505,-19.14081961352561
-4.3864048278947365,-83.34169173,2.7159338258351733,-0.27404052703315823,12.0000005,0.4277076189083879,0.0,150,19,326.9728592973776,534.7881786,mp-1182904,AlI2NO15,https://materialsproject.org/materials/mp-1182904,41.70141683779685,-37.62927600924764,49.4702679072203,-31.457641310133294
-4.4373101464285725,-62.12234205,5.327808469702168,-0.7156149504428571,1.015e-05,6.708969566092071e-07,0.0,109,14,176.31434496189445,565.70128,mp-1103947,La2H5,https://materialsproject.org/materials/mp-1103947,-12.608576150518566,-24.735213295182277,-11.67282842931932,31.73001725252431
-6.3111126415625,-201.95560453,3.9073809273073286,-2.06996679634375,0.0,0.0,3.3588,14,32,545.1353834271595,1282.74707712,mp-557087,NaSbMoO5,https://materialsproject.org/materials/mp-557087,22.312572521798725,-14.515861713594857,45.15250871331921,-4.399567079511434
-6.1400644588636375,-270.16283619,3.385633546619041,-1.706637754886365,12.00021585,0.2230378778784064,0.0,62,44,627.0293374869727,1278.4352,mvc-9205,CaFe3O7,https://materialsproject.org/materials/mvc-9205,28.05529274497154,-27.09680696113885,53.56010879160064,-11.006280036333209
-7.404748235625,-473.90388708,5.2564325078589835,-2.8040048821949397,0.0,0.0,2.3146,52,64,917.9499635153556,2905.768496,mp-559607,TiTlPO5,https://materialsproject.org/materials/mp-559607,18.186649864779664,-10.328999747942047,38.38951284805249,-4.218618406173944
-6.470023768478263,-297.62109335,4.9741799363297154,-2.484089265739131,12.971594699999999,0.1656315845749321,0.0,164,46,912.6991402343408,2734.009645,mp-1228797,Ba12MnRu5(ClO6)4,https://materialsproject.org/materials/mp-1228797,-18.31198006662501,18.056343713772367,-17.805665747872773,47.51404625271244
-5.206754688529411,-177.02965941,2.2889939478020724,-0.5264280312041177,0.0,0.0,2.3326,15,34,474.09311480336646,653.52048,mp-698349,CdH6C4(S2O)2,https://materialsproject.org/materials/mp-698349,33.971087655215634,-24.88783411110052,15.877316681699279,-41.944243694530726
-6.069922007142857,-42.48945405,5.5610557734710975,-1.3324842334821432,4.0,0.2403063242270821,0.0,12,7,193.98681761778283,649.6514,mp-1077938,Pr2CrSe4,https://materialsproject.org/materials/mp-1077938,-22.155593762477263,-35.04834187939096,-32.787039646188695,-24.235492311293754
-3.4098508043750004,-163.67283861,4.789039780126863,-1.0191517296629555,0.0,0.0,1.3864,15,48,1510.4114118942816,4356.0676152,mp-1194853,CsInHgS3,https://materialsproject.org/materials/mp-1194853,2.4686170692968714,-11.513325343607153,2.564855595090372,2.8047644922884025
-5.419321866734693,-265.54677147,3.9509352700207514,-2.7649932685885714,45.0000081,0.3705091480295642,0.0,87,49,1415.4387602901093,3367.7659999999996,mp-1198571,Ba8Eu7Cl34,https://materialsproject.org/materials/mp-1198571,5.119713150355888,-25.996302127551843,17.641690601863804,-20.456337794011052
-6.185997372666668,-371.15984236,3.491910543205955,-2.222605416015667,0.0,0.0,5.6188,14,60,676.0077723070008,1421.5616799999998,mp-1198579,NdH3S2O9,https://materialsproject.org/materials/mp-1198579,7.769676750305062,23.454961634630894,49.612361731763976,-34.66107522904057
-8.288463571,-165.76927142,6.845936838120696,-3.82402632825,0.0,0.0,4.2257,33,20,327.22445681366537,1349.0546800000004,mp-778450,LaSmO3,https://materialsproject.org/materials/mp-778450,-21.32259535494813,12.151515617270073,-29.603338797318173,48.11045284113364
-5.193665175555554,-93.48597316,4.815465414854602,-1.8777747380288887,7.26954635,0.4313364276836209,0.16379999999999995,31,18,196.4122633578392,569.5839956,mp-763243,Co3(OF2)2,https://materialsproject.org/materials/mp-763243,46.446159327640935,56.071482793591784,70.39595891486013,25.31803651594257
-7.116658629375,-113.86653807,3.93914397504536,-2.652680569069941,0.9983441999999999,0.06153954972550416,0.0,2,16,189.0616363624031,448.49352400000004,mvc-3128,TiZnPO5,https://materialsproject.org/materials/mvc-3128,7.425659429953558,25.109367842565177,58.79573637827773,33.11888494280418
-6.9391844734615376,-360.83759262,4.548142021747736,-2.6518213782599998,3.000000225,0.048697894560323016,3.0665,61,52,717.9406267048221,1966.4072055999998,mp-562662,Ba2CoC2(O3F)2,https://materialsproject.org/materials/mp-562662,9.256817876454411,16.800596665219764,14.470294654659824,7.8063781610920415
-3.3763430561538463,-43.89245973,2.619488700710812,-1.7790542376984615,0.9999998,0.022548479920438836,0.0938000000000001,2,13,516.844704515227,815.3189,mp-1104301,K3(PbCl4)2,https://materialsproject.org/materials/mp-1104301,39.937141737499374,-39.62805020072982,28.81592763019298,-53.65280513598466
-5.626928041,-56.26928041,6.2858647851051375,-2.155788526916667,0.0958284,0.0070425364685439045,0.0,38,10,158.577862626484,600.2864,mp-1227991,BaInO3,https://materialsproject.org/materials/mp-1227991,-22.040022302525216,12.203758540086849,-30.225675771721267,48.792931881482936
-5.7114890125,-45.6919121,6.8677873182642815,-1.821261145937501,1.0094597,0.07086798691804247,0.0,129,8,166.0031452945585,686.5688,mp-22620,CeZnSbO,https://materialsproject.org/materials/mp-22620,-15.127174693243273,21.40212952642653,-20.941798111123408,44.43336849213897
-6.372065971346153,-331.34743051,2.762561588435306,-1.7316075774250543,2.905239875,0.04188551133330182,0.038000000000000034,19,52,808.3428518671069,1344.802416,mp-1204204,NdP2(HO4)2,https://materialsproject.org/materials/mp-1204204,42.868693092138855,-38.14045662234633,46.82047056490183,-34.88386496096853
-1.5128507883333333,-9.07710473,2.309707954240371,0.13134337166666685,0.00034946666666666663,1.6871076970605655e-05,0.0,156,6,241.4017300898873,335.775,mp-1094327,SrMg,https://materialsproject.org/materials/mp-1094327,-19.214826698174733,19.268495071042032,-8.602539244747023,19.926449667618282
-6.1163983076666675,-183.49194923,7.475895771131003,-1.7861250968333329,0.0,0.0,2.9479,15,30,451.7878848440674,2033.9896,mp-559837,Bi2Te2WO10,https://materialsproject.org/materials/mp-559837,1.3834272945670587,-17.549618575136215,27.730527998309512,-6.055188437028337
-3.501328795714286,-98.03720628,1.7932136568446868,-0.3657457554428574,0.0003224,1.4069048868996435e-05,3.3422,19,28,267.05930995470743,288.3969544,mp-583071,CaAlH5,https://materialsproject.org/materials/mp-583071,2.017169339514634,28.340174859563433,27.64332040281449,-11.328581248523134
-3.891200395,-23.34720237,3.2199800268852803,-0.4832580476983335,3.4940746,0.2590228194650465,0.0,123,6,157.20688931057882,304.8426032,mp-1214107,Ca2FeAs2F,https://materialsproject.org/materials/mp-1214107,-8.029269993354436,-24.58754178112611,-7.194841522274338,-41.40491407633941
-3.3765637300000004,-20.25938238,4.157114220531138,-1.2289473095400003,3.185e-05,2.155694185405134e-06,3.6166,129,6,172.18674407486398,431.06482000000005,mp-24205,SrHI,https://materialsproject.org/materials/mp-24205,-14.13137204572874,20.164448992582848,-21.139751026153927,-8.556031603458447
-5.491089529047619,-115.31288011,7.639420684273343,-0.31133158214285706,13.7484263,0.4782150115802889,0.0,174,21,335.0481409847222,1541.411335,mp-1191913,Ce2Mn3Cu9As7,https://materialsproject.org/materials/mp-1191913,-21.585922650908827,21.698397368320126,-43.54895234523357,23.706383709342926
-3.832829936875,-61.32527899,4.8338892609022865,0.04975073062500002,6.5e-07,1.3765676748875019e-08,0.0,60,16,550.2920227138757,1601.92,mp-628781,GeTe,https://materialsproject.org/materials/mp-628781,20.416088800665,-4.5016446448176435,36.151488057377584,-7.724570278138208
-7.9512314560714294,-222.63448077,8.424683324544263,-2.863431868125001,0.0,0.0,2.4925999999999995,36,28,398.7300849922318,2022.9423199999999,mp-23089,SrTa2Bi2O9,https://materialsproject.org/materials/mp-23089,20.941879052069954,58.898533359906956,32.999076796223214,-4.5277919653316445
-4.435210119500001,-88.70420239,5.030107532391648,-1.2209898390625,0.0199195,0.00036440421765803946,0.0,187,20,637.0484533053573,1929.7482,mp-1228879,Ba10Ge7O3,https://materialsproject.org/materials/mp-1228879,19.711754141856233,59.15530030427725,32.856638616228864,-6.132600110198835
-5.43014561875,-43.44116495,6.66945150657463,-1.8275781959375008,0.0,0.0,0.12950000000000014,129,8,171.3339434856864,688.1520999999998,mp-975646,PrZnSbO,https://materialsproject.org/materials/mp-975646,-14.965533742660115,21.258355810518008,-15.497843073972811,41.59303699913706
-11.189051183571427,-156.64671657,7.220491577729889,-2.4164637761882157,21.00000765,0.8065918140822989,1.6596000000000002,12,14,303.4192079618328,1319.3522,mp-1104036,Gd3Se2NO,https://materialsproject.org/materials/mp-1104036,-9.983605237585,34.72276953624154,-17.887523921597303,28.561285601360545
-4.419792701111111,-159.11253724,3.1991488316759757,-1.5328884608611106,0.0,0.0,1.2686000000000002,130,36,673.1049505180509,1296.78548,mp-540618,K3IO5,https://materialsproject.org/materials/mp-540618,-6.277812765114862,-5.7901440666402895,3.849847639090485,-28.04772270066805
-8.7203820375,-174.40764075,5.872769516702622,-3.905737786250001,0.0,0.0,4.3253,62,20,311.9430955096016,1103.23808,mp-10429,LaYO3,https://materialsproject.org/materials/mp-10429,-21.423054958256774,14.43548430882712,-23.25508526140085,54.46729373903672
-5.410115096,-81.15172644,2.0861114995587706,0.6929293411720001,5.9999998,0.2657409683694477,0.0,107,15,263.12986941227854,330.5663,mp-1209100,RuN7ClO6,https://materialsproject.org/materials/mp-1209100,41.328969111112045,-41.04147555308518,33.411237283247445,-57.673209632520035
-5.7351684387500015,-321.16943257,7.420325819708688,-1.7506613161830364,0.0,0.0,2.4485,14,56,1070.629352158652,4784.240800000001,mp-505603,Pb5SO8,https://materialsproject.org/materials/mp-505603,12.331539937369234,21.159311895568692,27.1447315207614,-6.039311217814723
-3.3378721816666665,-80.10893236,3.7324903545805546,-1.6706846125,5.15e-06,4.923446142398639e-08,3.2684,62,24,1219.0330074260185,2740.09152,mp-1178538,BaCaI4,https://materialsproject.org/materials/mp-1178538,3.422208741921488,-25.451400411037145,16.790767437290373,-20.044817583961454
-2.622001812222222,-47.19603262,5.0624070521465185,-0.72148584637931,0.0,0.0,1.5523,72,18,730.4497848808671,2226.8878075999996,mp-567386,Cs2Cd3Te4,https://materialsproject.org/materials/mp-567386,3.7854520401036473,-30.344099042966754,-4.90600090956283,-27.91626041662579
-4.911079683333333,-88.3994343,4.011313139326787,-3.3495580759274333,4.5e-07,1.8579756164549802e-08,5.4755,74,18,282.26038604629525,681.8477422000002,mp-1225927,CsMgGaF6,https://materialsproject.org/materials/mp-1225927,-7.448516903328158,-11.119448576890928,0.6213890296366146,6.727708113184661
-7.09449582,-113.51193312,4.093886826976964,-2.933733604375,5.0,0.30034060047357003,2.6661,21,16,194.01414184735333,478.32175,mp-756449,Li4Y3FeO8,https://materialsproject.org/materials/mp-756449,1.561954691338759,-35.09429115477544,-0.15137979347210898,-30.93344742484525
-4.064891286,-81.29782572,6.05349253286007,-1.1993621067500002,6.2e-06,9.569361431830623e-08,0.44310000000000027,148,20,755.0681631642335,2752.599835,mp-1105583,Er7CoI12,https://materialsproject.org/materials/mp-1105583,-24.939293626029407,-38.03246052703135,-34.295777376241425,-23.759013616147676
-2.97987032,-11.91948128,3.2698008584604628,-0.12905448396499966,6.459999999999998e-05,1.635475184491531e-05,0.0,225,4,46.032651026827885,90.64381999999999,mp-978856,SrH3,https://materialsproject.org/materials/mp-978856,-11.905581162791757,-28.55994016280978,-1.1597380555034902,-28.182167930456533
-6.863632608461539,-178.45444782,2.6990482522858086,-2.6906492077142863,1.00000035,0.029683044092313017,2.6958,100,26,392.6170380382383,638.161648,mp-18935,K2V(PO4)2,https://materialsproject.org/materials/mp-18935,5.886046279284924,29.887947875237607,30.61515460955441,-4.912958885932869
-6.0345922295,-1086.22660131,2.6769745706341928,-2.1426813126846267,0.00036055,1.3729994954556463e-06,5.2696999999999985,147,180,3060.360231488617,4933.6428228,mp-1182737,Cs2Si(S2O7)3,https://materialsproject.org/materials/mp-1182737,64.97647250154137,-29.54512246316717,53.41466163124213,-30.471875878910886
-8.183380055714286,-229.13464156,5.8509824677854025,-1.0216735594897952,20.987889675,0.3483379027962473,0.0,64,28,702.1751688470633,2474.145144,mp-1194348,Eu3GaP3,https://materialsproject.org/materials/mp-1194348,10.734392985187936,-16.119122893236142,19.71572388070071,-7.058758499939415
-5.793999910652174,-266.52399589,2.1348821412147845,-1.6337854756069554,2.99999985,0.08484400652755084,3.1875,14,46,412.0761618938436,529.78823,mp-770604,Li2CoH8(CO5)2,https://materialsproject.org/materials/mp-770604,35.045823394353874,-22.114366727983388,26.457923262860408,-43.92139464934801
-6.238557132692307,-324.40497089999997,3.9674260614960892,-2.2084595948099026,0.0,0.0,3.5987,13,52,989.3585155433552,2363.8148,mp-1209387,Rb5In(MoO4)4,https://materialsproject.org/materials/mp-1209387,16.588691218868227,-16.25509017023254,29.205354022585503,-8.177144922380322
-5.750335763214286,-322.01880274,5.485463411042365,-0.7692992842342861,0.004072,3.4482573338087685e-05,1.0088,60,56,1376.2125955212953,4546.212799999998,mp-1245936,Ba7ZrN6,https://materialsproject.org/materials/mp-1245936,9.589125784227708,26.778059794149986,33.5639135476817,-2.898514705028516
-6.98966355375,-167.75192529,4.404766940242818,-2.8017904834375007,3.99998715,0.14578121453042606,1.5118,36,24,319.7676016464877,848.2196000000001,mvc-3696,Ca3Mo2O7,https://materialsproject.org/materials/mvc-3696,-25.559209275884506,43.24065488121279,-10.027568643565663,62.403533260647365
-5.893913084482759,-341.84695889999995,3.839770526696079,-1.946567703933189,10.000000199999999,0.1356001106784484,2.3711,167,58,859.4436204610877,1987.3464,mp-560990,Ca3Fe2(SeO3)6,https://materialsproject.org/materials/mp-560990,7.223866264664831,29.580220657873006,70.08464918061301,-23.403997795166397
-5.828225315384616,-227.30078730000002,8.242830566906964,-1.7391532072836535,0.0,0.0,2.6584000000000003,8,39,673.2092571842232,3341.7762,mp-759924,Bi14SO24,https://materialsproject.org/materials/mp-759924,1.3497879193433893,-17.555127641236812,27.770539683467103,-6.047578687044724
-3.932931789,-39.32931789,6.090138540051983,-0.2609821973593746,0.0,0.0,0.2982000000000005,160,10,309.97114266262423,1136.84,mp-1219030,Sn4GeTe4Se,https://materialsproject.org/materials/mp-1219030,-27.03147725632987,-45.6267004874329,-36.90703481500027,-23.09646022452046