energy_per_atom,energy,density,formation_energy_per_atom,total_magnetization_uB,total_magnetization_T,band_gap,sgr,num_sites,cell_volume,weight,mp_id,formula,URL,tsne_xrd_lin1_0,tsne_xrd_lin1_1,tsne_xrd_lin2_0,tsne_xrd_lin2_1
-6.418447801666668,-115.53206043,7.4603398788743025,-0.9956903666666672,9.000000000000001e-07,2.9308848720776766e-08,0.0,44,18,357.8666086555768,1607.7951,mp-1190225,YGePd,https://materialsproject.org/materials/mp-1190225,-52.629991130210364,13.791449471799885,-37.79396986326167,20.62604439497668
-6.880692827121212,-454.12572659,4.622869552683565,-0.5111076646969702,0.0007252999999999999,5.987737753568623e-06,0.0,202,66,1411.6672318355688,3930.0211,mp-1210379,Sc50In3Rh13,https://materialsproject.org/materials/mp-1210379,-53.79650101057023,3.052716494209482,-40.89418391688819,14.865989598835831
-6.625291558571428,-92.75408182,6.2421529869319485,-0.4780334100492608,5.5e-07,1.59339411504282e-08,0.09419999999999984,176,14,402.26931707574295,1512.1756,mp-975237,Rb(TeMo)3,https://materialsproject.org/materials/mp-975237,31.80643715536809,-55.03775484433464,3.9869587338384216,-59.46535475501814
-6.012383267083332,-144.29719841,5.444560058652859,-1.9352700194531247,1.00000085,0.023945808912679962,0.0,173,24,486.6853619776275,1595.7394672,mp-1191595,Dy3AlCoS7,https://materialsproject.org/materials/mp-1191595,7.030794355485575,-6.1041288265642635,12.054352243494082,-11.7052089303509
-5.9288462,-23.7153848,5.904564768049465,-0.4952727724999999,0.0077214,0.0018989282985100466,0.0,225,4,47.3876216418744,168.50147719999998,mp-867330,Al2FeNi,https://materialsproject.org/materials/mp-867330,-50.9444112045973,-52.0482206810316,-70.60197631970209,-44.4694078598282
-8.48785052,-101.85420624,12.601012057569045,-0.546136765,0.0,0.0,0.0,62,12,187.91226364583176,1425.97352,mp-972224,TaGeRh,https://materialsproject.org/materials/mp-972224,-52.226577144016716,-8.824937313589697,-57.46995483199579,1.6505584288425283
-8.008965655999999,-120.13448484,5.517968393499294,-3.5248083585833334,2e-07,1.1918217849405186e-08,1.7303000000000002,35,15,195.56723865626137,649.8696,mp-1228362,Ba2SrTi3O9,https://materialsproject.org/materials/mp-1228362,-25.176482674477572,35.29266065480109,-19.758874480269828,60.69044973215209
-7.484294145454545,-329.3089424,8.12400897770976,-0.08669311935727303,37.7523807,0.8425389149571981,0.0,194,44,522.1939096053306,2554.77764,mp-1213248,Dy2Fe17H3,https://materialsproject.org/materials/mp-1213248,-53.68022410234319,-22.589848696524033,-55.93011729889687,-10.550490014359152
-6.91282602,-82.95391224,4.065882569356674,-0.9740723508854168,0.000454425,1.5663488226926056e-05,1.3641,164,12,338.1046614614625,827.8599999999999,mp-1027492,MoSeS,https://materialsproject.org/materials/mp-1027492,-7.377258176136595,-81.98369399157181,-22.03313627554807,-50.74216125031271
-6.718042267142858,-94.05259174,5.275092261481995,-0.5900987171428572,3.15e-06,1.627228393089839e-07,0.0,63,14,225.60019349131562,716.672,mp-1104732,Zr2CuSi4,https://materialsproject.org/materials/mp-1104732,-62.00957715536425,-30.790976017593522,-65.67808421376138,-18.995098252340775
-4.518814076666667,-13.55644223,6.2097589207767605,-0.3992878450000005,4e-07,6.892604028344403e-08,0.0,139,3,67.63228947802467,252.918,mp-1063133,CaPd2,https://materialsproject.org/materials/mp-1063133,-41.504875547572155,-19.088824855985898,-56.92198115911949,-27.93869337322905
-8.810017197222223,-317.1606191,8.73539288040322,-0.6634588007142858,3.45318565,0.08738881754933027,0.0,62,36,460.5125731797028,2422.561684,mp-21643,UMn5P3,https://materialsproject.org/materials/mp-21643,-51.0204060073338,-6.841709076534027,-58.85733027516561,0.18823734380666196
-9.148872203333333,-329.35939932,11.390130782599867,-0.3607412337500004,4.03023795,0.12374742171962848,0.0,55,36,379.5525875645629,2603.464,mp-1197233,Pu2TcB6,https://materialsproject.org/materials/mp-1197233,-35.76650878292382,-10.563130841315207,-37.72612103895632,-12.068314220020664
-6.36482760875,-50.91862087,6.7663297921713825,-0.9243539939453118,2.0000011000000004,0.09999341937922612,0.0,11,8,233.0967628599064,949.8178199999999,mp-9429,USe3,https://materialsproject.org/materials/mp-9429,0.21457506277146365,-10.61397142247938,1.143300429780446,0.04060597164999885
-6.47556706736842,-123.03577428,7.752740452946748,-0.14127268789473652,16.4931824,0.7555021624302626,0.0,166,19,254.41702956473526,1187.8246458,mp-1106291,Pr2Al3Co14,https://materialsproject.org/materials/mp-1106291,-54.94226261518574,-24.76692107730032,-57.295047338371276,-12.208878950087884
-4.583981086666666,-13.75194326,14.647739059949556,-0.8755460716666659,8e-07,1.4715777239591987e-07,0.0,139,3,63.355483480437975,558.863458,mp-990,HoAu2,https://materialsproject.org/materials/mp-990,-65.69556378444858,8.227345729222323,-65.0765563874149,23.926697902340194
-3.1859748975,-12.74389959,8.961688980785958,0.09121683375000034,2.9100000000000003e-05,4.618998665374829e-06,0.0,187,4,73.42138620296973,396.2446,mp-1229108,Ag3Ge,https://materialsproject.org/materials/mp-1229108,-47.60734298585597,-31.97650883111324,-58.85430120598632,-28.88174711556565
-7.503087730999999,-150.06175462,5.391727735059309,-0.6825211059999999,0.9976663,0.04434814558835437,0.0,57,20,262.1725785227226,851.267648,mp-505554,Sc(FeSi)2,https://materialsproject.org/materials/mp-505554,-60.3266598007206,-25.09839860888373,-63.39636281370347,-11.464906836622596
-6.55713716,-26.22854864,5.924945658238786,-0.8638237776302091,5.05e-06,8.278704312294652e-07,0.0,194,4,71.0896595425255,253.65400000000002,mp-10027,TiSe,https://materialsproject.org/materials/mp-10027,-45.653130480719184,-27.186452978399586,-54.16927424285559,-24.754649773618212
-8.79207441625,-70.33659533,19.06622311031289,-0.6665099529687488,4.44122175,0.3583265123526378,0.0,194,8,144.44447775849846,1658.504,mp-1186823,PuPt3,https://materialsproject.org/materials/mp-1186823,-48.36599097294983,-32.88604972983586,-60.062329680854084,-30.982193624938887
-8.4181938825,-67.34555106,6.7245805145508255,-0.2771616359375013,8.99e-05,1.1308824992174753e-05,0.0,164,8,92.64449876782798,375.1766,mp-1216420,VCrGeC,https://materialsproject.org/materials/mp-1216420,-45.77684370509735,-36.261398117833146,-59.689683165688045,-34.40109419465776
-3.29500720625,-26.36005765,8.402879076167345,0.18282726500000024,0.00021185,1.7762119201099865e-05,0.0,194,8,138.99882069893386,703.3802000000002,mp-1187005,SiAg3,https://materialsproject.org/materials/mp-1187005,-46.75427037881379,-33.151560819075236,-55.5029439332892,-29.30270496354116
-4.092626734117648,-139.14930896,4.628633522454728,-2.821712497160447,0.0,0.0,4.680199999999999,64,34,658.5517107613111,1835.6656791999999,mp-17951,Cs4Zn3F10,https://materialsproject.org/materials/mp-17951,11.442533245175051,-18.99504860745644,16.813234996035153,-13.834201571648205
-3.8936668666666665,-105.1290054,6.527434091954991,-0.02022380355324026,5e-07,1.2249733367706002e-08,0.0,8,27,475.68646691050964,1869.882,mp-684605,Cu17Se10,https://materialsproject.org/materials/mp-684605,-58.713567324099635,-30.276288287731628,-25.682814649875453,-37.00924622130664
-7.38923273375,-59.11386187,8.688584775035034,0.2658079937500002,5.59614715,0.5834963555358891,0.0,194,8,111.77081183819662,584.82827,mp-1185988,Mn3Te,https://materialsproject.org/materials/mp-1185988,-56.63003835159566,-47.338694206579675,-67.74184733715663,-35.59804167124972
-7.887883495555557,-283.96380584,7.257161442989628,-0.6156851552777786,1.75e-07,5.19556312025178e-09,0.0,55,36,392.5390353258017,1715.5387999999996,mp-504560,Y2ReB6,https://materialsproject.org/materials/mp-504560,-35.53871291219808,-10.403733961112339,-37.81961321276921,-12.858721144937455
-5.897802215172414,-171.03626424,10.099979652963453,-0.7338094413054191,0.0001025,2.586519624241634e-06,0.0,225,29,461.8335882673255,2809.033532000001,mp-1212386,Ho3(P3Pd10)2,https://materialsproject.org/materials/mp-1212386,-69.49332673623779,-2.61909775170642,-58.94139003191746,-17.27006719921617
-8.999656505294118,-152.99416059,11.857473554192225,-0.4455741435294121,1.0819063,0.043412089378089616,0.0,229,17,290.43997371856625,2073.9556399999997,mp-541504,U4Tc7Ge6,https://materialsproject.org/materials/mp-541504,-44.001499629550544,-46.490581356475666,-60.256782277564675,-15.93825967689112
-5.770741295500001,-230.82965182,4.155226706162402,-3.650533050333,2.999999925,0.05382714427218222,4.6469,14,40,649.5271840325482,1625.3352896,mvc-10621,BaCaMoF7,https://materialsproject.org/materials/mvc-10621,11.238868929164104,-13.737928084576025,15.238356842119586,-8.011026221888281
-8.142455158125,-130.27928253,6.166561177180978,-0.787682768749999,8.85e-06,4.0779271158830156e-07,0.0,63,16,252.91887350178916,939.237,mp-1105799,Zr3Fe2Si3,https://materialsproject.org/materials/mp-1105799,-51.85019217374917,-8.854059186754357,-57.42183123245924,1.061878410641593
-6.817118413076923,-354.49015748,2.635770952165651,-1.558461687376154,0.0,0.0,3.2704000000000004,14,52,692.8011795534517,1099.6822,mp-1020671,Y(NO3)3,https://materialsproject.org/materials/mp-1020671,40.120206383972395,-31.90894556282331,12.688442228475205,-56.095615849562385
-6.994546381904763,-146.88547402,8.070071308004165,-0.9369536302380964,0.0,0.0,0.040399999999999985,38,21,335.5445116187418,1630.716334,mp-29932,Zr5P7Pd9,https://materialsproject.org/materials/mp-29932,-51.560085440207565,3.2451530442644887,-41.24175606549785,15.485258332070694
-6.01731591857143,-42.12121143,5.451662312801896,-0.4780606701488109,0.0266525,0.002145056812896621,0.0,2,7,144.80267351576984,475.39699999999993,mp-675929,Ti(FeSe2)2,https://materialsproject.org/materials/mp-675929,28.16000776181189,-37.72614701032357,-2.1416887886147107,-49.634349422616424
-10.00688147,-60.04128882,12.94038156671644,-0.1046526928566654,0.0019789,0.00038926285875854087,0.0,71,6,59.24590096257768,461.6962,mp-1246933,CrW2N3,https://materialsproject.org/materials/mp-1246933,-39.60362364440736,-13.074518511690949,-53.313987708453226,-4.292381405557947
-5.350525705555556,-144.46419405,10.75756621597226,-0.4448122781481482,0.0,0.0,0.09269999999999977,148,27,460.1042492269204,2980.7200000000007,mp-30066,Sb7Pd20,https://materialsproject.org/materials/mp-30066,-56.499803795137204,-31.021799393626054,-62.46688133336152,-21.38665906194129
-4.970321678636363,-218.69415386,2.5464717296553543,-1.11960895302841,17.0015577,0.17391283446799258,0.0,15,44,1139.2905835634388,1747.1262,mp-1204678,K7(FeS2)5,https://materialsproject.org/materials/mp-1204678,39.365333059414866,-27.730049122471126,12.810254443778431,-41.78323014691002
-7.626957510344827,-221.18176780000002,8.299629275379944,-0.21954366275862028,26.7327592,0.8183441199966323,0.0,225,29,380.70207832289816,1902.807485,mp-30569,Zr6Co23,https://materialsproject.org/materials/mp-30569,-60.417513372340835,-33.07528925530321,-69.05637676052275,-13.969775637440287
-6.119537908275862,-177.46659934,4.43019334651947,-0.3757023534482755,5.9351915,0.1662771506288398,0.0,225,29,415.986838341628,1109.8216175999999,mp-1208277,Ti6Al16Fe7,https://materialsproject.org/materials/mp-1208277,-57.66347354203815,-32.395133828762795,-61.826514582322815,-31.039368485928282
-7.09124319,-56.72994552,2.854584689095008,-3.1132853393750004,0.0,0.0,7.0842,136,8,58.197899711048244,100.046328,mp-7599,BeO,https://materialsproject.org/materials/mp-7599,-57.45224982388895,-45.14420724386381,-53.324280107593616,-34.42207277243852
-5.726316088125,-91.62105741,3.767821635657264,-2.6406165933125,0.0,0.0,1.2199,123,16,199.12822756460153,451.82897,mp-1031330,KLaMg6O8,https://materialsproject.org/materials/mp-1031330,-32.844244750256316,-7.463150493032255,-35.86648844947593,-56.23972807609683
-4.369419781666667,-26.21651869,8.842178575205173,-0.18209877500000005,0.0,0.0,0.0,191,6,89.51468357802283,476.65535,mp-11363,TbCu5,https://materialsproject.org/materials/mp-11363,-50.65934731391443,-16.169683198081692,-53.95045057185639,-17.15060790650625
-6.36215858,-69.98374438,4.833394542410892,-2.366040772585228,7.140000000000001e-05,3.1048554773531173e-06,0.0,121,11,267.99966401982925,780.0768800000002,mp-1223154,La4S7,https://materialsproject.org/materials/mp-1223154,-4.465936457770979,-22.47974538766612,-41.085508939874465,-12.988912014186035
-5.96263182,-35.77579092,7.719302960834991,-0.06085739333333251,1.2616542,0.1699224292202704,0.0,140,6,86.53007042591162,402.25,mp-21117,FeGe2,https://materialsproject.org/materials/mp-21117,-73.93349704294356,-35.60463106279983,-68.93234332385761,-16.40665610237608
-4.329367285,-25.97620371,6.252525865345482,-0.3260152416666671,1.83e-05,1.6596878791986937e-06,0.0,63,6,128.49969443701062,483.8475,mp-1077298,TbMgNi,https://materialsproject.org/materials/mp-1077298,-21.367707438541245,41.97787796019528,-50.930453547073355,30.08470749347923
-4.369230724375,-69.90769159,3.7895894271421473,-0.8584125740052082,1.5e-07,3.608089925989666e-09,1.0266,70,16,484.4972691207145,1105.6926,mp-14634,K2VAgSe4,https://materialsproject.org/materials/mp-14634,23.833545069785504,-21.933951204136672,23.250350470065978,-38.768667974646505
-7.9764663875,-31.90586555,9.113693761561962,-0.12126938500000063,1.8010616000000002,0.4329347149365901,0.0,225,4,48.4823411512386,266.090227,mp-1185984,MnBeRu2,https://materialsproject.org/materials/mp-1185984,-37.02903638423001,-28.716975595212325,-62.24565772895522,-41.4221842460986
-5.879965377241379,-170.51899594,9.52104646730414,-0.6947016030295562,3.3e-06,8.056708209998938e-08,0.0,225,29,477.34648875228487,2736.965522,mp-1209430,Pr3(P3Pd10)2,https://materialsproject.org/materials/mp-1209430,-69.61099324744343,-2.5799246191617944,-59.02899991277471,-17.10098701287846
-4.814949633571429,-67.40929487,3.7277652468256033,-2.506095543460714,3.9998387,0.3749614198577853,2.1884,139,14,124.3178013014533,279.08261600000003,mp-765310,Li5Ni2O2F5,https://materialsproject.org/materials/mp-765310,-2.62347801996152,-72.73474028248181,-23.596763072729544,-65.50981650866002
-7.506552734166667,-90.07863281,7.927471515342335,-0.317334085833334,4.9601742,0.3574173753604963,0.0,160,12,161.73301969909915,772.1190986,mp-1215811,Zr3AlCo8,https://materialsproject.org/materials/mp-1215811,-75.63414395270294,-22.71221252469285,-66.40018577885452,-9.050403680741471
-4.763964293333333,-28.58378576,3.876126436204629,-2.3396984513400003,0.31320925,0.019801292660718808,0.0,136,6,184.33952517180444,430.296,mp-973953,NdCl2,https://materialsproject.org/materials/mp-973953,-11.551666707537509,-5.123849230710149,-19.544340319682338,-25.10264922895814
-7.656884380609758,-1255.72903842,7.357267448311784,-0.4296670098170738,0.0141866,9.533047979099691e-05,0.0,56,164,1734.2989950839353,7684.071999999999,mp-650968,Nd5(FeB)18,https://materialsproject.org/materials/mp-650968,-39.09421419785812,-10.42823680836923,-56.756250781107006,0.8316245111097639
-7.270690879285715,-203.57934462,4.915106081368972,-1.9172368658928585,0.0,0.0,2.8584,14,28,642.1527709360885,1900.7376,mp-1239407,ReBiO5,https://materialsproject.org/materials/mp-1239407,26.85681434224736,-5.3889394725029325,38.71683939919303,-21.335388371785537
-6.32026551625,-101.12424826,5.054158345137312,-2.09286173515625,5.8118277,0.254543775136018,0.0,129,16,266.0894631053683,809.8926,mp-1106248,Sr2VFeAsO3,https://materialsproject.org/materials/mp-1106248,-25.202525828125648,34.85688746465103,-19.574626483449254,60.58653864626233
-7.1990343633333325,-43.19420618,6.587950707352205,-0.3481924516666671,1.7754886000000003,0.2520882944491853,0.0,227,6,82.0809994075796,325.644604,mp-253,ScCo2,https://materialsproject.org/materials/mp-253,-75.98308516018935,-22.65138267878877,-69.8153817115196,-8.069612576983403
-9.141452475,-73.1316198,11.354906332393293,-0.07805934249999957,5.5e-07,5.473042563120514e-08,0.0,194,8,117.11466795634148,800.84,mp-861610,Tc3Pd,https://materialsproject.org/materials/mp-861610,-53.98172410985529,-46.14809257201397,-64.50009845199664,-35.39393634790883
-4.694282314761905,-98.57992861,2.8554977255109013,-2.0062105882704757,3.6633333333333334e-05,5.429159245998229e-07,1.594,164,21,786.3597661389651,1352.24073,mp-23250,UCl6,https://materialsproject.org/materials/mp-23250,36.12480453205504,-35.95173245606429,0.8641260757160402,-53.09698255500171
-5.35536826,-21.42147304,10.539955858142195,-0.8243893193750003,1.0888744,0.2818505323503567,0.0,166,4,45.02319964046721,285.7762,mp-1101675,NiPtO2,https://materialsproject.org/materials/mp-1101675,-28.968294021630694,7.1834651465160535,-47.76040535352676,10.342539911053072
-6.404900130833332,-76.85880157,11.669690397589665,0.03389527583333418,0.00275775,0.00016280024318571717,0.0,194,12,197.41369237307202,1387.3547172,mp-7775,U2AlCu3,https://materialsproject.org/materials/mp-7775,-8.721711990822035,-65.04402491854434,-47.28047109302742,-18.59677054107224
-6.4703661258333325,-77.64439351,3.4598611286424816,-2.488300090208334,1.0,0.10761290851371967,1.61,2,12,108.29616013095587,225.6434,mp-774192,Li2VO3,https://materialsproject.org/materials/mp-774192,-9.098270653148939,-67.82309337891293,2.0781374088119584,-81.19865165082325
-8.006243843333333,-288.22477836,9.291015950444406,0.2236243914814809,0.027260325,0.0007412796646302586,0.0,142,36,428.57454268557336,2397.952,mp-1199986,Eu(BRu)4,https://materialsproject.org/materials/mp-1199986,-58.14876746843957,-11.973965917374265,-57.92649085218206,-1.310375228627076
-8.2209150875,-65.7673207,5.5647916319707615,-0.8102964642708343,1.385e-05,1.4993303200672388e-06,0.0,194,8,107.6539271831128,360.7694,mp-9958,Ti2GeC,https://materialsproject.org/materials/mp-9958,-46.163054654776424,-32.66565667483104,-59.47730856230835,-33.147290714650175
-5.6395575566666665,-33.83734534,9.439955957931863,-0.007008134999999528,0.03926325,0.005503304974486563,0.0,194,6,83.14575710460139,472.67319000000003,mp-20237,CoNiSn,https://materialsproject.org/materials/mp-20237,-37.00694043978197,-42.15323741626532,-59.16167864730406,-51.880588438242356
-8.953337154285714,-62.67336008,4.712897949696332,-3.153759607857144,2.5e-06,3.9831986054165e-07,0.0,65,7,73.1451399179046,207.5986,mp-755875,Ti3O4,https://materialsproject.org/materials/mp-755875,-7.293493396764183,-63.13577752536747,-25.549427126492528,-63.01237613569898
-5.8470452992307695,-228.03476667,4.9768652631411365,-1.5426046149599355,3.8584615384615385e-05,3.478454425554916e-07,0.8789,2,39,1292.7224333113854,3874.468,mp-1080640,CeSe2,https://materialsproject.org/materials/mp-1080640,-22.061980943857293,-35.233956154227016,-33.692453284857486,-24.57829191584609
-5.073684335,-20.29473734,3.83039045698014,0.30810777500000075,3.36338615,0.5705017279446288,0.0,51,4,68.70640022151612,158.48609,mp-1185893,MgMn,https://materialsproject.org/materials/mp-1185893,-49.667985403115615,-33.797474621124245,-57.39632915367186,-27.439606725610933
-4.743939019,-94.87878038,15.673083286181793,-0.4155373229999995,0.000305275,9.549498193122836e-06,0.0,62,20,372.5530443060629,3516.361104,mp-17813,ZrAu4,https://materialsproject.org/materials/mp-17813,-48.020297133512045,-31.710296819644032,-60.86214821654949,8.658649369051252
-10.26266041125,-82.10128329,13.996376101872787,-0.07323954125000043,4.7e-06,4.7395625115183256e-07,0.0,194,8,115.5678489268065,974.1,mp-862655,Ru3W,https://materialsproject.org/materials/mp-862655,-54.281572965058345,-46.37965623412142,-65.01794161217377,-35.829036794228784
-8.658485063333334,-51.95091038,7.008407596031118,-0.1401934666666674,5e-08,5.1603173706093834e-09,0.0,140,6,112.920038977985,476.586,mp-1159,Zr2Fe,https://materialsproject.org/materials/mp-1159,-62.16674944236686,30.407018019564386,-52.89133622022848,34.786868086599895
-8.221059259,-246.63177777,9.7955858742328,-0.6317908540000009,0.0009587999999999999,2.8507085413342835e-05,0.0,139,30,391.9698258139096,2312.2456,mp-1192706,Ta4Co4Si7,https://materialsproject.org/materials/mp-1192706,-64.79640940923393,-17.752525732532376,-56.903141469960175,-15.580242473866734