energy_per_atom,energy,density,formation_energy_per_atom,total_magnetization_uB,total_magnetization_T,band_gap,sgr,num_sites,cell_volume,weight,mp_id,formula,URL,tsne_cry_lin1_0,tsne_cry_lin1_1,tsne_cry_lin2_0,tsne_cry_lin2_1
-5.158116653571429,-72.21363315,2.6916917219896157,-1.4975785758928584,2.0000002,0.08645422904182164,0.0,166,14,269.60082964428716,437.0161158,mp-1247119,Mg2Al3VS8,https://materialsproject.org/materials/mp-1247119,25.339883580089044,8.374817140954349,5.272654366044877,-3.864331338637879
-6.248725711666666,-149.96941708,5.427719444613024,-1.7057870047395838,40.000718400000004,1.8109362665871649,0.6081999999999996,12,24,257.41986163933416,841.4152,mvc-2422,Zn2Fe9O13,https://materialsproject.org/materials/mvc-2422,-25.913018466992348,-38.57032144873316,5.234516889159826,-4.053575102539774
-5.895280998444444,-530.57528986,3.5314945613954394,-0.878707311242585,0.0,0.0,1.7792,14,90,1385.9251165455505,2947.4688,mp-558305,Rb2Ag4Pd3(NO2)12,https://materialsproject.org/materials/mp-558305,4.942467436221211,-16.74521055627644,7.389265173147014,-1.0453176197003973
-6.757407559642857,-189.20741167,2.5481395092316674,-1.9337021501785725,5.000000075,0.16106082797345128,1.962,37,28,361.7907933917886,555.1772,mp-757939,LiFeCO4,https://materialsproject.org/materials/mp-757939,-28.71002948193421,-71.45914636940151,8.549488613542902,0.2744220644934169
-7.36132191525,-294.45287661,6.715663571272238,-0.39972396824999945,4.64625e-05,9.557892672949775e-07,0.0,60,40,566.5233990621313,2291.172,mp-669501,Si3Ru2,https://materialsproject.org/materials/mp-669501,34.127179632527195,49.55310778080889,-6.309276260731955,-3.6892055846059577
-5.2059023785714285,-145.7652666,3.66632171391631,-0.7110738349687493,9.999999825,0.16379423321200234,0.4796,15,28,711.5064028859582,1570.94251424,mp-29745,Na2Mn2Se3,https://materialsproject.org/materials/mp-29745,26.19930775269876,15.978060573963981,-8.604250342815693,-0.5045126942092143
-6.1560069825,-73.87208379,7.736469629617063,-0.9376991341666674,6.5e-07,2.8096051989410026e-08,0.0,62,12,269.61589140776886,1256.1434,mp-1095628,YSnPd,https://materialsproject.org/materials/mp-1095628,4.411119814500383,49.484647081370746,-8.604250342815693,-0.5045126942092143
-6.138746425,-98.2199428,3.7990045840781703,-2.192747371875,3.999999925,0.2377406881891861,1.7102999999999997,2,16,196.08026952074883,448.5952,mvc-4866,MgFeO2,https://materialsproject.org/materials/mvc-4866,-23.344597951641642,-30.22227758204385,6.516185948777447,-4.492444517520983
-5.838178478461539,-75.89632022,6.48129546952007,-0.19795999076923135,14.048862699999997,0.4989495312229367,0.0,164,13,328.14211787172314,1280.7804999999996,mp-1213750,Cr5Te8,https://materialsproject.org/materials/mp-1213750,54.020850206621,33.87204426136149,-8.604250342815693,-0.5045126942092143
-8.213019277857143,-689.89361934,6.04732097217221,-0.5459090835028565,0.0,0.0,1.2870999999999997,205,84,1203.069748557729,4381.3175999999985,mp-1246122,V2PbN4,https://materialsproject.org/materials/mp-1246122,33.60071523891834,-8.159195545484138,7.2212043745794725,-2.5998122255340768
-3.5540076455,-71.08015291,5.694609543619504,-0.2934714444999997,8.05e-06,1.343297275896907e-07,1.1475000000000004,167,20,698.395084263578,2395.058,mp-1188957,Te6IrBr3,https://materialsproject.org/materials/mp-1188957,65.71103972844942,18.04529492004884,8.939736450304716,-6.393527122626691
-4.524251627222221,-81.43652929,3.9604015463248237,-1.0117217785833337,4.5e-07,1.1895929618856466e-08,0.5861000000000001,70,18,440.8507208498422,1051.4332,mp-9910,K2Pd3S4,https://materialsproject.org/materials/mp-9910,65.25541038495757,16.038400812672766,7.8164430002352026,-6.241197595434731
-2.882921793125,-92.25349738,3.891965540189459,-0.20902230787499976,0.0,0.0,0.34289999999999976,142,32,967.3179124272656,2267.19630848,mp-11051,NaSn,https://materialsproject.org/materials/mp-11051,34.64480096441751,19.50240029691263,4.381508802776967,-5.6081448988966764
-5.026109234444443,-45.23498311,7.452194272795836,-0.8290435911111113,0.0009168,3.7077802374775546e-05,0.0,6,9,288.16288720367834,1293.22212,mp-1101139,Th2CuTe6,https://materialsproject.org/materials/mp-1101139,3.443842406007016,30.097084203768386,-8.604250342815693,-0.5045126942092143
-4.3337420600000005,-21.6687103,7.185850695915537,-1.3547771695000002,0.0,0.0,1.3241999999999998,107,5,100.12759314837076,433.2942,mp-1226758,CdBiBrO2,https://materialsproject.org/materials/mp-1226758,9.012481635296963,-23.032178445450782,6.519921021912467,-3.0706694804929024
-6.927164852500002,-138.54329705,2.8722949462034904,-2.3154989089375007,0.0,0.0,0.7843,70,20,430.37035214073023,744.427296,mp-401,Sc2S3,https://materialsproject.org/materials/mp-401,56.43648647353072,3.7521929238122342,7.650784060146383,-4.627131592401186
-5.216927124545455,-57.38619837,2.5564204170288334,-1.3335527892981822,0.0,0.0,1.8939,1,11,225.74264650196426,347.5336,mp-613733,K2PdN2(ClO2)2,https://materialsproject.org/materials/mp-613733,-1.7172415158086731,-23.152904059292112,9.422203750365831,-0.3971076134786034
-6.226953065952381,-523.06405754,5.1136036795778965,-1.8895791659523815,2.0000001333333333,0.02772183511589583,1.4392000000000005,62,84,840.7860086300598,2589.1872,mp-20547,Ca(FeO2)2,https://materialsproject.org/materials/mp-20547,-25.4339424018719,-33.52267219675528,6.810735576308984,-3.7449210420282872
-6.282341911428572,-43.97639338,3.0297109411565857,-1.7737845542261914,0.0090161,0.0008301536727495111,0.0,12,7,126.57200328689063,230.935,mp-1223278,Li(TiS2)2,https://materialsproject.org/materials/mp-1223278,19.936045462872933,14.484568728038509,-6.2938169287929115,-3.1178988557722245
-5.378367711875,-86.05388339,6.3357901311074425,-1.4701883447656252,0.0,0.0,0.4803999999999995,14,16,379.62654887174125,1448.46588,mp-10288,LaCuTeS,https://materialsproject.org/materials/mp-10288,55.427880997272176,21.14793881212816,3.459559116613236,-4.7407204883669545
-4.180701834285714,-58.52982568,4.359009362047535,-0.19421609778735616,2.1600000000000003e-05,6.003096940951796e-07,0.006199999999999761,8,14,419.32989182643064,1100.7648,mp-1219857,Rb2InGe4As7,https://materialsproject.org/materials/mp-1219857,39.68872032691192,12.251147951057892,5.0775821450628325,-6.2056562537162865
-6.1873378825,-24.74935153,3.612648504216645,-1.9269469291149992,4.0000003,0.8046785119580904,1.9061,12,4,57.931536500239105,126.035145,mp-1002570,KMnO2,https://materialsproject.org/materials/mp-1002570,-33.94502414120994,-27.173985888115496,6.2380162920536515,-1.8171488870779275
-7.4277912525,-148.55582505,2.8305878379824416,-2.116329622500001,1.9999999,0.11166788000141922,2.0204000000000004,15,20,208.72723991372163,355.8006,mp-753909,LiV(CO3)2,https://materialsproject.org/materials/mp-753909,-18.02273293518327,-47.255909321263545,7.883061990405578,-0.028036715912372445
-4.2950905678125,-412.32869451,5.4429998972881135,-0.6398789874791664,0.0,0.0,0.9008000000000004,14,96,3491.388740884886,11444.252799999998,mp-581963,K4Hf3Te17,https://materialsproject.org/materials/mp-581963,65.35412870793557,18.33805390818951,7.231318911436177,-6.166977170639157
-6.025322885416667,-144.60774925,4.406148251347873,-2.2340574870633336,4.9999946875,0.21275338145669634,1.942,84,24,273.88641981438803,726.7424255999998,mp-1178215,FeOF,https://materialsproject.org/materials/mp-1178215,-41.90515049899759,-76.28257489733059,4.702457040296607,1.1824280071665147
-7.676855466538462,-399.19648426,4.481564974325319,-2.2329616542788453,31.00000105,0.6357040430277093,0.2035,64,52,568.3085142347774,1533.786,mp-770681,LiCr10O15,https://materialsproject.org/materials/mp-770681,-19.323631694821106,-42.12931682753342,2.4417919116290445,-1.7439449756424985
-5.686068062857142,-79.60495288,3.5555785767043813,0.703301012093596,0.70332555,0.027437186311381992,0.0,139,14,298.74060054386507,639.6692,mp-1147545,RbPdC4Br,https://materialsproject.org/materials/mp-1147545,1.8895504503503808,-4.8365825575858326,-8.604250342815693,-0.5045126942092143
-5.551930119166666,-66.62316143,8.363162397825787,-0.8948565024999997,6.0975e-05,2.444358638473037e-06,0.0,62,12,290.7129045313642,1464.1506,mp-22645,PrSnPd,https://materialsproject.org/materials/mp-22645,3.7961878713593578,49.10261117028959,-8.604250342815693,-0.5045126942092143
-4.869405333333334,-175.29859199999999,4.2895720287219605,-1.02701164821875,7.000000225,0.07552200632272209,0.20320000000000027,14,36,1080.1945022683826,2790.4024,mp-628810,K2EuGeSe5,https://materialsproject.org/materials/mp-628810,-14.932838678367386,11.585816087620909,3.1829484533677106,-5.193736736405617
-5.251707685,-63.02049222,10.372569264241356,-0.4812005716666672,0.0,0.0,0.0,205,12,280.86351473630924,1754.4160000000004,mp-562,Sb2Pt,https://materialsproject.org/materials/mp-562,50.36246218042493,30.489387171288644,-8.604250342815693,-0.5045126942092143
-6.37383617625,-50.99068941,7.275763431149827,0.025882941249999902,9.138094800000001,0.6649632728409101,0.0,164,8,160.15312882170213,701.7217,mp-1226332,Cr3NiSb4,https://materialsproject.org/materials/mp-1226332,50.15955649968043,37.75663331184815,-8.604250342815693,-0.5045126942092143
-5.12689948,-61.52279376,7.249235686532932,-0.7869701425000001,0.00011475,3.7639861170040114e-06,0.0,64,12,355.28928404116095,1551.0479999999998,mp-1102139,NdSb2,https://materialsproject.org/materials/mp-1102139,3.2615104325608253,33.45645289885743,-8.604250342815693,-0.5045126942092143
-4.269230264642856,-119.53844741,7.3846975572265245,-0.5259016260714284,0.0,0.0,0.3841000000000001,31,28,667.7256731846759,2969.48884,mp-640889,Tm(CuTe)3,https://materialsproject.org/materials/mp-640889,55.35003256327408,20.22634513410134,4.9329058280258895,-6.122824296572273
-6.3051763720833325,-151.32423293,4.6348199790187214,-2.017378962994792,4.99999995,0.11002659335722928,0.4531000000000001,173,24,529.6021761839506,1478.2011672,mp-864652,Nd3MnAlS7,https://materialsproject.org/materials/mp-864652,28.09579656312778,2.813967699565098,3.914398067301829,-5.475811700553143
-6.848143800714285,-95.87401321,5.936397414380575,-0.9214788460199992,0.000277,9.087872969288052e-06,0.6057000000000001,176,14,355.21798697104066,1269.8979599999998,mp-1247074,Ba3TaN3,https://materialsproject.org/materials/mp-1247074,30.308853676982718,-8.866027467162505,5.246723361892456,-5.652163816921308
-6.49202198625,-51.93617589,10.011931555411502,0.18643046703124974,0.24535475,0.014147957977609978,0.0,194,8,202.10550195868103,1218.56,mp-863035,PuSb3,https://materialsproject.org/materials/mp-863035,2.041138230930115,37.77512239903471,-8.604250342815693,-0.5045126942092143
-6.823607792321428,-382.12203637,2.960356458082351,-2.5427818708928576,4.9999249625,0.08384575311400988,1.7914999999999996,61,56,694.9600570905576,1238.9528,mp-759064,LiFeSiO4,https://materialsproject.org/materials/mp-759064,-25.80531899118208,-72.80536626171111,8.347704829491697,-1.4893756583101392
-3.144160031,-31.44160031,4.672949805818441,-0.6603163297356318,2.9999998,0.08659585890577619,0.24949999999999986,225,10,403.73976802872323,1136.1706199999999,mp-1113718,Rb2AgMoI6,https://materialsproject.org/materials/mp-1113718,9.53979559244026,-6.941186083817938,5.202775334406197,-5.775994179582589
-4.719084008333334,-28.31450405,8.098805896734808,-1.10167019,0.001126,7.574834623354179e-05,0.0,129,6,173.2378010398267,844.9179999999999,mp-1018692,ErTe2,https://materialsproject.org/materials/mp-1018692,-9.891808452529386,24.42574167010652,-8.604250342815693,-0.5045126942092143
-3.073146436,-30.73146436,2.669463455863045,-1.305504013022667,0.0,0.0,1.1729,225,10,274.62708273245937,441.48733856,mp-1111543,Na2AgAsCl6,https://materialsproject.org/materials/mp-1111543,6.337584058931254,-7.7715645763389105,8.449882413899637,-4.753280578915784
-2.957950825,-23.6636066,5.675146773596349,-0.14877507000000012,1.25e-07,6.53541857160442e-09,1.1641000000000004,160,8,222.9020345994966,761.80188,mp-32750,CuI,https://materialsproject.org/materials/mp-32750,16.925440828269437,-11.26808725214277,6.659612670623307,-3.8828092085744874
-2.8637660416666666,-34.3651925,5.8941240806502,-0.384630286724138,0.0,0.0,0.5587,36,12,445.4781421819294,1581.2356,mp-1219595,RbHgSbTe3,https://materialsproject.org/materials/mp-1219595,65.17325117386204,16.77994882640111,5.989368313554731,-7.043526985244831
-3.428269965,-13.71307986,5.786019139144459,-0.08662149987500012,0.000531,5.687563947133428e-05,0.0,139,4,108.80419898132573,379.11976928,mp-1186176,NaSn3,https://materialsproject.org/materials/mp-1186176,2.970182256199576,31.029546639663767,-8.604250342815693,-0.5045126942092143
-3.7429710257142856,-26.20079718,3.9135986104400313,-1.0584231271428568,3.9999995000000004,0.2821838693672854,0.3767999999999998,65,7,165.19815029728545,389.343,mp-22967,Li2FeBr4,https://materialsproject.org/materials/mp-22967,21.10620268625749,0.7485639559526466,-8.604250342815693,-0.5045126942092143
-7.1230309653333315,-106.84546448,6.121119983801657,-0.7402583995972217,0.007387899999999999,0.0002797393332270771,0.0,1,15,307.7831928029343,1134.558,mp-1223939,InMo6(SeS)4,https://materialsproject.org/materials/mp-1223939,64.80874390342304,33.90275961104516,-8.604250342815693,-0.5045126942092143
-7.46237123625,-596.9896989,5.359832115654614,-2.6523784248125004,50.00000055,0.5727674762967518,1.8314,214,80,1017.3469499441704,3283.7583,mp-1220842,Nd3Y3(Fe5O12)2,https://materialsproject.org/materials/mp-1220842,-23.33486226988504,-33.66568567315259,7.515339275502008,-1.8466812429574877
-5.92210325875,-331.63778249,5.308285155554106,-1.479882849553572,19.9999959,0.3931503188558694,0.7566999999999999,1,56,592.8552934862985,1895.1948,mp-1199236,Zn3Fe16Ni5O32,https://materialsproject.org/materials/mp-1199236,-27.870904208682624,-33.32639940311289,7.56240442519176,-3.43698935912822
-3.4573355730000004,-34.57335573,4.242273278836092,-0.4381633644827591,0.0,0.0,0.7657999999999996,72,10,418.3287580087063,1068.7282076,mp-8934,Cs2SnAs2,https://materialsproject.org/materials/mp-8934,37.65646709662,15.443080244478704,6.6974213644291325,-6.90315037093006
-6.777964054615384,-88.11353271,8.154856856260437,-0.7496184775961537,0.0035064,0.00014080951190952948,0.0,216,13,290.20633737270833,1425.19452,mp-3663,Ta4GaSe8,https://materialsproject.org/materials/mp-3663,49.855848399825256,24.889738086938124,-8.604250342815693,-0.5045126942092143
-6.469445222999999,-64.69445223,5.498956547525808,-0.5210640321562494,6.000000099999999,0.3396552277410517,0.0,148,10,205.8687283155082,681.7444,mp-2832,Cr2Se3,https://materialsproject.org/materials/mp-2832,23.994512463096328,17.147032641448053,-8.604250342815693,-0.5045126942092143
-5.460102012222222,-49.14091811,8.05781057796621,-0.6029902188888896,3.3333333333333334e-08,1.9740182626823965e-09,0.0,189,9,196.7908975797005,954.93315,mp-22376,PrNiSn,https://materialsproject.org/materials/mp-22376,3.3698069523456473,56.20311726034329,-8.604250342815693,-0.5045126942092143
-3.942582826,-39.42582826,2.9280158813125063,-2.0866412378060004,0.0,0.0,2.2477,225,10,286.29431959244044,504.8206,mp-1112218,K2SmCuCl6,https://materialsproject.org/materials/mp-1112218,13.161477506988078,-12.370178845668807,9.161422841905015,-0.05950771332014537
-7.882246273250001,-315.28985093,6.698561314093112,-2.9891156755000003,29.9999967,0.7248789487441706,1.4566000000000008,6,40,482.31764120628105,1945.65392,mp-1099896,La6Sm2Cr5(FeO8)3,https://materialsproject.org/materials/mp-1099896,-4.661605246445982,-7.230598944740826,6.812613976747737,-3.0825637110300645
-7.510389336666666,-22.53116801,7.44002877999681,0.13669223833333533,0.0036131,0.0010336696807228224,0.0,216,3,40.735742002503855,182.51609,mp-1008920,Mn2Ge,https://materialsproject.org/materials/mp-1008920,48.18151532608771,46.15462979724723,-8.604250342815693,-0.5045126942092143
-6.611025615499999,-132.22051231,4.291662669410147,-2.2770665732000004,1.9999997999999999,0.09555580959198287,2.0459,15,20,243.92161307439733,630.41533856,mp-558048,NaV(GeO3)2,https://materialsproject.org/materials/mp-558048,-14.066016975588438,-43.63050349916849,7.129067422380192,-0.4297647698966228
-6.265592459166666,-75.18710951,5.992050500551718,-2.3182473002916666,9.000000000000001e-07,5.5031812646910176e-08,0.7419000000000002,12,12,190.59263707339687,687.753,mp-557232,KSmPdO3,https://materialsproject.org/materials/mp-557232,-10.243535527160537,-23.204281028471943,7.118223836498865,-3.692947594324431
-6.830794762857143,-95.63112668,4.492235703738891,-0.7821529236160712,11.0000008,0.4551464257775015,0.3127000000000004,216,14,281.6560002694089,761.9604899999998,mp-1221710,MnCr2(SeS)2,https://materialsproject.org/materials/mp-1221710,17.861789764490567,8.816634951183177,-8.604250342815693,-0.5045126942092143
-6.007154883888888,-216.25757582,4.30923693897197,-2.2158894855355555,4.999996708333334,0.13871603170656488,0.7532999999999999,6,36,420.06886143315336,1090.1136384000001,mp-758782,FeOF,https://materialsproject.org/materials/mp-758782,-41.99572725944957,-76.98802739802994,3.5310998890407546,-0.3564650393176351
-6.0021016412962975,-324.11348863,4.394866934917323,-2.210836242942963,2.555555411111111,0.04820547173455905,0.8009,6,54,617.8263010255496,1635.1704576,mp-758352,FeOF,https://materialsproject.org/materials/mp-758352,-42.53309329196491,-76.78382843996887,0.5194650913596042,-2.4081865376902383
-3.38848083,-20.33088498,4.4459791504307535,-0.2300990998333331,1.99e-05,1.1784320141188462e-06,0.0,186,6,196.80039764309123,526.91953856,mp-952566,NaSnSb,https://materialsproject.org/materials/mp-952566,3.655493130051223,32.04563951905448,-8.604250342815693,-0.5045126942092143
-5.776002489375,-92.41603983,3.7679238083133946,-1.9156199975000003,14.0000003,0.8210769216995365,1.7733000000000003,1,16,198.7108710525425,450.8942,mp-759294,Li4Fe3TeO8,https://materialsproject.org/materials/mp-759294,-30.87493317126144,-32.56731230339344,7.352267283032303,0.6515899175919926
-5.561882345,-77.86635283,5.178477332653489,-2.0439406930357147,1.4000000000000001e-05,4.906760078499025e-07,1.7847999999999995,122,14,332.51453954468724,1036.96388,mp-36395,La2CdS4,https://materialsproject.org/materials/mp-36395,54.697729633289214,0.4461227035489481,8.268537156244022,-4.224379330945158
-6.3775984265517245,-369.90070874,4.110098639960788,-1.6895111112672418,37.99999985,0.5922602931364308,1.1744,5,58,747.7361976504213,1850.7662,mp-1178195,KFe11O17,https://materialsproject.org/materials/mp-1178195,-28.01701840540539,-33.61396779062843,6.663765173789901,-2.7293534902735086
-5.388732128125,-258.65914215,1.925860009548709,-1.0842914438541662,0.00139874375,3.964628535523994e-06,1.0067000000000004,141,48,4111.621080424519,4768.576,mp-1080352,CeSe2,https://materialsproject.org/materials/mp-1080352,34.92297576944785,8.379957244742409,7.397238196441751,-6.27873480720911
-4.9506575845,-198.02630338,2.7069019045406306,-1.5793647238000006,4.0001467875,0.07098309569133282,0.9473,60,40,656.7474876552012,1070.58670848,mp-777513,Na2FeO2,https://materialsproject.org/materials/mp-777513,-34.84942525719688,-31.99783014824305,6.700142484438933,-4.0147526089511665
-8.96625662642857,-502.11037108,4.2605129859898065,-3.0579202983928577,7.375e-07,1.0370300586607545e-08,1.6157,1,56,828.7968798958825,2126.47808,mp-680944,Nb2O5,https://materialsproject.org/materials/mp-680944,-0.2904237344052781,-47.05717418961679,6.488250097060805,-0.8669654178297804
-3.9073817572222223,-70.33287163,2.8424130364947877,-0.3768956834066665,1.99999995,0.05152545086866673,1.5501,36,18,452.36147514412363,774.32576,mp-1211579,KH2OsNCl4,https://materialsproject.org/materials/mp-1211579,6.646325156958097,-13.853277327028104,5.72410729023892,-3.84924764968684
-4.522011531,-45.22011531,4.204410401553312,-0.9362058929202582,4.99999985,0.1541126111308692,1.243,72,10,378.1022311354313,957.3378976,mp-573947,Cs2MnSe2,https://materialsproject.org/materials/mp-573947,24.917859597760497,1.7066184479800437,-8.604250342815693,-0.5045126942092143