energy_per_atom,energy,density,formation_energy_per_atom,total_magnetization_uB,total_magnetization_T,band_gap,sgr,num_sites,cell_volume,weight,mp_id,formula,URL,tsne_xrd_lin1_0,tsne_xrd_lin1_1,tsne_xrd_lin2_0,tsne_xrd_lin2_1
-3.92972741875,-31.43781935,5.555596616315284,-0.7360604315885421,0.0,0.0,0.07830000000000004,23,8,235.4135639161232,787.6134,mp-569114,BaAg2SnSe4,https://materialsproject.org/materials/mp-569114,5.9275215337961695,-21.781317722694343,17.726397439053002,-17.32229285217009
-5.302452971818182,-233.30793076,4.729110123906227,-2.255413613100455,0.00033435,4.9571470857644734e-06,2.7587,39,44,786.0441680044325,2238.6040575999996,mp-759728,Sb7(O2F3)3,https://materialsproject.org/materials/mp-759728,20.96884463048468,-15.66676455815082,26.42813732679919,-14.5452745947193
-5.120735006,-51.20735006,3.2744066972348134,-1.182230666382,7.00000055,0.6386538035802705,0.0,55,10,127.73502539298686,251.87990919999996,mp-1078939,MnNF3,https://materialsproject.org/materials/mp-1078939,1.3924916863203327,-40.2586219786987,6.625819821518877,-34.23849106499231
-6.9108350313888876,-248.79006113,7.964817092148419,-2.4150289058266674,0.000869825,1.9931686579305016e-05,2.185,19,36,508.587010459864,2439.4503328,mp-1220571,NbBi2O5F,https://materialsproject.org/materials/mp-1220571,28.92732772994412,62.96748765120205,-11.059360782160676,33.880371303381835
-6.504383771724139,-377.25425876,5.189632646560979,-2.741538034405173,8.355e-05,1.0229933434806203e-06,3.1860000000000004,194,58,951.8117766382204,2974.66867712,mp-1214658,Ba6Na2V2Sb2O17,https://materialsproject.org/materials/mp-1214658,-18.703239261458144,17.525925093890645,-17.68694630869862,47.501408895356725
-7.171932138333332,-86.06318566,4.601764904641798,-2.610348746,0.0,0.0,3.5786,82,12,173.84604370715053,481.77043928,mp-1220757,NaLa(MoO4)2,https://materialsproject.org/materials/mp-1220757,-9.47235979488742,-24.839938842031522,-2.2747457544017355,-29.289448172990237
-4.7686447445,-95.37289489,3.2754355337408456,-0.8301404048819997,3.57856435,0.1632986899335539,0.0,62,20,255.38980591113517,503.7598183999999,mp-1180187,MnNF3,https://materialsproject.org/materials/mp-1180187,1.4041104782383893,-40.27185387694982,6.714776867642702,-34.24898985535284
-7.975417630384616,-207.36085839,7.1775483622347815,-2.9670967052884625,0.0,0.0,3.4213000000000005,2,26,365.2978690003005,1578.97108,mp-30162,La2W2O9,https://materialsproject.org/materials/mp-30162,10.682629865764444,19.48184591595868,46.91400494383404,4.90658589791171
-6.95098765472973,-514.37308645,3.8292681385028833,-2.417047864459459,3e-07,2.6409014412379883e-09,2.7812,148,74,1323.8734990916466,3052.9042,mp-1205471,K10Hf3Mo12PbO48,https://materialsproject.org/materials/mp-1205471,28.678833910479078,-17.548025269293053,45.9141016303413,-28.356931830141377
-7.539156885500001,-150.78313771,4.34801936097877,-2.5945927403000004,0.0,0.0,4.4597,15,20,255.1773504657734,668.1662,mp-1211517,KLu(CO3)2,https://materialsproject.org/materials/mp-1211517,31.181281872766203,-18.221568513855765,44.08226173323742,-29.05973052339357
-2.9341555240000003,-29.34155524,3.97184542112512,-0.1612393647467126,0.0012298,8.287311235736319e-05,0.6720999999999999,225,10,172.94111985913017,413.65808239999996,mp-989535,Cs2AlInH6,https://materialsproject.org/materials/mp-989535,-18.68988901215496,-49.65782089526862,-23.190790524218798,-7.122527183461669
-5.3959877616666665,-64.75185314,5.328280070929674,-2.1378839133133334,6.95e-06,4.144871072839828e-07,2.7582000000000004,62,12,195.4119892896843,627.0312127999999,mp-756654,SbOF,https://materialsproject.org/materials/mp-756654,19.521730003348047,-9.940027097706636,27.107887849567216,-3.6013021649997987
-1.7795475764285715,-24.91366607,1.8007938211946717,0.4211459485714283,3.7713256,0.0503521035835806,0.0,15,14,872.8785828750299,946.60488,mp-1097055,K5La2,https://materialsproject.org/materials/mp-1097055,18.284297811313078,-21.328457056627034,9.418162802197608,-26.61055590257349
-6.5653391725,-315.13628028,3.75921302126346,-2.684769003218749,5.7999999999999995e-06,1.002544568477868e-07,5.6898,14,48,674.2201574486752,1526.3339999999998,mp-1211618,KSm(SO4)2,https://materialsproject.org/materials/mp-1211618,7.804128728498807,23.36720872640463,29.775938827461893,-0.07557165108901118
-7.7080095394444434,-138.74417171,5.105848940019767,-3.5250831631944437,5e-08,2.0151304470155104e-09,2.7291,55,18,289.1640288056744,889.1256480000002,mp-755950,Ba2Sc2O5,https://materialsproject.org/materials/mp-755950,-22.631929106725458,24.881737689456443,-15.602161095008476,50.38472975874714
-6.243698062173912,-143.60505543,1.700498478823942,-0.4163502906299987,4.0000001,0.14899391373659274,1.1611,2,23,312.8735871591266,320.40262,mp-24528,CrH8C4(S2N3)2,https://materialsproject.org/materials/mp-24528,63.867786272529614,-32.46293490725721,45.050007694628256,-38.03404348021332
-7.227130601964285,-404.71931371,3.9387269369438656,-3.466207632678571,0.0,0.0,4.0969,173,56,861.0196364624184,2042.3014176,mp-4202,BaAl2O4,https://materialsproject.org/materials/mp-4202,-4.253757509034377,-17.421264016415233,-3.386842210630604,-34.72041034102482
-5.911021597857142,-82.75430237,2.633902062674732,-2.073297759178572,0.0,0.0,3.0597,164,14,234.69828787531662,372.27206928,mp-19230,K3NaCr2O8,https://materialsproject.org/materials/mp-19230,-17.233544683555973,15.915933815270913,17.289509635292845,-22.52098119238883
-7.6026291852083325,-729.85240178,5.3735909383354725,-3.3267223929427088,0.0006389,5.314271960765457e-06,3.8533,185,96,1401.0916336535986,4534.0056,mp-1214885,Ba3Er(BO3)3,https://materialsproject.org/materials/mp-1214885,4.592139568930387,-23.573147411991574,19.885154214789285,-18.414153080516773
-4.0544894875,-16.21795795,3.751108494739528,-0.4700518209049998,0.0,0.0,0.7232000000000003,156,4,85.61510186360121,193.4019786,mp-571093,BaAlSiH,https://materialsproject.org/materials/mp-571093,-18.172543358212266,12.480563966256364,-21.15269303027564,-8.554184126340113
-3.174541440555556,-114.28349186,3.0453825389352094,-0.29289792979474544,1.25e-07,1.1265190809878207e-09,0.4614000000000002,62,36,1293.1499529440382,2371.601144,mp-17978,Rb5GeP3,https://materialsproject.org/materials/mp-17978,9.615488792700953,26.905604627205783,29.827303334330765,-6.665331122604405
-4.960312586785714,-138.88875243,2.2552347244909425,-1.0033366006971445,5.99704185,0.15034248907561906,0.25560000000000005,29,28,464.87133872379934,631.3576256,mp-1213097,Fe(O2F)2,https://materialsproject.org/materials/mp-1213097,54.089782606704134,-13.623176905674972,49.937040816874564,-29.095914514241194
-6.5281812680769224,-509.19813891,4.1469173126262575,-2.400894432763042,0.0,0.0,4.0047,15,78,1501.9276940973568,3750.81212,mp-1195447,Rb8Th(MoO4)6,https://materialsproject.org/materials/mp-1195447,0.8062461149405901,-20.79758951187829,18.577273632883585,-13.505739850535864
-5.939238392222222,-106.90629106,2.944866900345636,-1.8500385383391669,3.9999995999999998,0.243260782658016,4.1339999999999995,15,18,191.6307837180132,339.8457600000001,mp-643564,FeH2SO5,https://materialsproject.org/materials/mp-643564,21.005930882094322,-7.787138851108754,24.02432485924675,-20.999385806862048
-8.937475088,-357.49900352,5.6959969718225,-4.00086633825,0.0,0.0,4.0231,5,40,612.4569747083679,2100.8558000000007,mp-757197,DyY3O6,https://materialsproject.org/materials/mp-757197,18.41454887400522,59.7016017741029,-5.628417907655913,36.88922455850131
-7.2288082727499985,-289.15233091,2.6697479748217328,-2.7032404457625003,0.0,0.0,4.7513,15,40,438.18477193710265,704.49587712,mp-1020181,Na2ZnB6O11,https://materialsproject.org/materials/mp-1020181,17.944875224362868,-4.528267016808975,34.550110217867605,-18.700425820512464
-7.921840022727273,-87.14024025,3.6385597031880863,-2.9009353546590915,3.9999992,0.37824560193504986,0.0,12,11,123.243335886802,270.0498,mp-754719,V2Si2O7,https://materialsproject.org/materials/mp-754719,2.344107923959875,27.33273197764089,31.061636886800613,-1.903736506563661
-6.534698722307692,-169.90216678,2.145271856419185,-1.5926384096492299,4.99999965,0.2102943931776207,2.3684,15,26,277.089269492121,357.97520999999995,mp-23821,MnH4(CO3)2,https://materialsproject.org/materials/mp-23821,27.117366811739426,-39.539242614521854,29.54418579079839,-48.160388161350326
-6.223196611847826,-572.53408829,6.792672966215822,-1.849671320106087,25.000002375,0.2219995973170168,2.0619999999999994,94,92,1312.3971868126598,5368.5488128,mp-1225422,Fe5Bi4O13F,https://materialsproject.org/materials/mp-1225422,-9.200301766039427,-23.11972280469769,1.8665060195510816,-29.060721962226552
-3.877363861666667,-558.34039608,3.682620557637093,-0.6954131116666669,6.999615283333332,0.015950085753344532,0.19099999999999984,205,144,5114.327982710714,11342.178,mp-1196434,K5Fe2Te5,https://materialsproject.org/materials/mp-1196434,1.583037563605575,-11.15786828582668,-0.6330530894334414,-2.5898679474494264
-6.991232154,-139.82464308,6.552402914897537,-3.1449713692500003,1.022158475,0.034135992277974564,0.008000000000000007,62,20,348.966011547787,1377.0022,mp-20129,BaTbO3,https://materialsproject.org/materials/mp-20129,-18.28023490682438,-50.92492962418529,-24.633923915795194,-5.665882638381691
-4.641423584642856,-129.95986037,3.8106456096139465,1.3365134199970936,18.0000003,0.2915775596162922,0.0,167,28,719.4420917657361,1650.9933114,mp-1193676,Cs3Sm2N9,https://materialsproject.org/materials/mp-1193676,6.3396970257100955,-23.619983737715604,16.90319108661733,-17.93435586818525
-5.834392,-70.012704,7.8394966984202785,-0.3611894183333331,0.0,0.0,0.0,11,12,288.5518729450636,1362.2693599999998,mp-9391,TaNi2Te3,https://materialsproject.org/materials/mp-9391,10.748421496445044,-48.21881328454829,-0.34152145534949985,-51.63127498985962
-7.177838496666666,-129.20109294,6.2478853283428,-0.5880211799466666,0.0004542,1.5090666523695373e-05,0.0,15,18,350.7649056710058,1319.7756,mp-1247383,Ba3(MoN2)2,https://materialsproject.org/materials/mp-1247383,3.025909001966613,28.635398285495988,20.607727173275325,-16.472535590865842
-8.880273053214285,-248.64764549,4.478281049164509,-3.086938022976192,7.00001795,0.2315060720179978,0.4830999999999994,60,28,352.3823884500032,950.3344,mp-540879,Eu(BO2)2,https://materialsproject.org/materials/mp-540879,4.942017139816909,-4.7230119804203765,12.046217346905284,-11.67195161917138
-5.419849523333334,-81.29774285,6.13992963840106,-1.7773671440833343,2e-07,6.180357685321389e-09,1.5759000000000003,143,15,377.1323721356318,1394.4666,mp-1216932,Tl6Si2O7,https://materialsproject.org/materials/mp-1216932,21.31417833982573,-11.294041114570383,35.390464441150044,-3.515646231285457
-3.26966294,-78.47191056,8.808195219525675,-0.0835123099999997,0.0,0.0,0.0,28,24,681.9469566186901,3617.3325520000003,mp-20123,Te2Au,https://materialsproject.org/materials/mp-20123,-25.72106780920879,-37.77924198034077,-35.03462225736997,-23.81396960318839
-3.5643938716666668,-21.38636323,2.765223157954081,-2.1522458243311497,8e-07,6.133052250170015e-08,5.2393,71,6,152.01650724220232,253.1464519,mp-569117,CsLi2Cl3,https://materialsproject.org/materials/mp-569117,-15.259067366724846,16.470475752919914,-13.441367457389285,18.054551086298368
-6.152128406724138,-356.82344759,5.221635414962582,-2.239200547834052,5e-08,4.4655047738768767e-10,0.5022000000000002,86,58,1304.898926627037,4103.31,mp-560786,Nd10S19,https://materialsproject.org/materials/mp-560786,-4.086377914167569,-22.724389368892414,1.5204371227573057,-20.006611455589866
-6.537189270434783,-300.71070644,4.27885178933012,-2.4168657144202905,0.594394,0.012973974828526786,0.0,7,46,533.9232014840767,1375.8052,mp-768452,Li5Bi2(BO3)4,https://materialsproject.org/materials/mp-768452,33.72610920801579,-26.241609180943488,9.963241256225324,-38.498301679953826
-2.7138075522727267,-59.70376615,2.2541453352478467,-0.9977690480365908,0.0,0.0,1.6015,166,22,696.7361161810251,945.804,mp-28772,SbSCl9,https://materialsproject.org/materials/mp-28772,36.06084109420736,-36.686510226286714,25.278941237266487,-63.27148891805199
-3.9224884565,-78.44976913,2.9625821517707527,-2.65428918769738,6.075e-06,9.66030338942534e-08,5.3108,62,20,732.8801243530272,1307.5378076000004,mp-1213084,CsSrCl3,https://materialsproject.org/materials/mp-1213084,8.967751637701364,-20.220908378797077,15.395031636566609,-14.989244477610777
-7.8318336166666676,-281.9460102,5.553104136699652,-2.907301599657778,18.9999998,0.4187886639205559,0.7744,5,36,528.7326220220369,1768.1651800000004,mp-1218311,SrLa3Mn4O10,https://materialsproject.org/materials/mp-1218311,-22.088640738291264,33.632989233726214,-19.473141360489507,58.936902670934856
-6.7778944625,-27.11157785,5.470796745908197,-2.0394736017968755,6.999997500000001,0.6761379283805593,0.0,166,4,120.65352474479157,397.504,mp-1218279,SrEuSe2,https://materialsproject.org/materials/mp-1218279,-27.469849942945448,-44.65082598246008,-37.16943103377498,-22.716125887086946
-4.8696729173076925,-126.61149585,2.378158255459568,-1.7780465399261538,2.0000014,0.08355998793988642,3.6738,148,26,278.93907641032797,399.4854992,mp-24577,NiSnH12(OF)6,https://materialsproject.org/materials/mp-24577,29.855475069593464,-26.413860185934,7.9220674645889195,-39.011193342882
-5.06845808,-45.61612272,4.950478786980104,-0.7829997080555557,2.0,0.2278553550352789,0.028299999999999995,12,9,102.29353416561388,304.9624,mp-1180661,Li2PtO6,https://materialsproject.org/materials/mp-1180661,29.285619425671786,-39.99146533018578,34.26231198701923,-51.374324540410385
-6.154278518863637,-270.78825483,4.348969047740478,-1.8241134495190925,5.000050025,0.09982841747466392,0.9526,14,44,583.7106139860191,1528.74418,mvc-7998,MnZnAs2O7,https://materialsproject.org/materials/mvc-7998,7.731066311635049,28.79254416331921,31.751426773878546,-4.803888933907487
-3.333256978181818,-73.33165352,1.7740691137376732,-1.4557714125509094,0.0080211,0.00012213532173766228,0.5861999999999999,12,22,765.3676071526904,817.69533856,mp-690672,K3NaFeCl6,https://materialsproject.org/materials/mp-690672,39.208699993624684,-39.70119340188901,28.80899602390933,-62.06947308952944
-7.9986411453125,-511.91303330000005,4.945102832565126,-4.299489117083127,4.15e-06,5.612863733574536e-08,5.2002,41,64,861.6701046351968,2566.0626896,mp-766345,Y5O4F7,https://materialsproject.org/materials/mp-766345,-11.321419104139162,-24.166097455431515,28.52667409961532,-5.0275480448030985
-4.98586377453125,-319.09528157,3.9005069136682056,-2.2880345343666435,1.9999967,0.01861250811379557,0.3063,92,64,1252.2810437046746,2941.533292,mp-1213742,Cs2Sb2SO5F6,https://materialsproject.org/materials/mp-1213742,5.306277090019141,-29.888767648891744,-6.2739769040198246,-34.713393060131175
-4.654942427833333,-279.29654567,1.9407677757101465,-0.23889653832999996,0.00170355,2.339669225773096e-05,3.4942,62,60,848.5508047289869,991.7502800000001,mp-1197381,AsH10C3I,https://materialsproject.org/materials/mp-1197381,19.515503896567868,-21.869397376800112,10.813916422314904,-24.199833984190846
-7.6393852266666675,-229.1815568,4.656264834512938,-3.3060366599166677,0.00206775,4.9663994016084005e-05,3.5684000000000005,2,30,485.21454850482047,1360.5747199999998,mp-1187317,Sr4Nb2O9,https://materialsproject.org/materials/mp-1187317,-19.48081619314595,17.568123202045246,-20.25989129661898,48.080798346533754
-4.757964254117646,-161.77078464,4.0572922364424215,-1.7919782659305268,0.0,0.0,0.8486999999999998,15,34,746.5145919893351,1824.0028,mp-31039,Rb6Te2O9,https://materialsproject.org/materials/mp-31039,0.1426657055336465,-15.709920554773323,20.706322239565086,-14.133039482507419
-6.1364998884375,-196.36799643,7.068616526356737,-1.7725281589062505,1.00000055,0.023042946432146057,1.5675000000000003,14,32,505.75438417186564,2152.9056,mp-1244504,ZnBiWO5,https://materialsproject.org/materials/mp-1244504,11.62770826196382,24.502557871480878,52.00684693989108,0.5562022001827408
-5.795927388717949,-226.04116816,8.413115558453946,-1.6002069389743603,0.0,0.0,0.20379999999999976,5,39,663.5171208475382,3361.7073,mp-759588,Cr(Bi7O12)2,https://materialsproject.org/materials/mp-759588,1.3352325140558134,-17.545167582094738,28.16863539117674,-5.825446695105914
-3.004887178571429,-21.03421025,5.9791658677238475,-0.2999317114285717,0.0,0.0,0.6610999999999998,82,7,236.18381062892811,850.436,mp-16337,Ga2HgTe4,https://materialsproject.org/materials/mp-16337,-15.94221396228435,-43.089709912495174,-18.996495306667608,-34.41094914063102
-4.963799141153847,-129.05877767,6.476908956581684,-1.371496424206732,9.790000000000001e-05,2.1491779501172365e-06,3.1072000000000006,15,26,530.8694615870949,2070.6488,mp-1194412,Pb3Se2(BrO3)2,https://materialsproject.org/materials/mp-1194412,5.111986681060314,-5.450994260493648,11.335488118281205,9.772930994700213
-8.4363772653125,-269.96407249,2.2683368226424983,-0.2045789758699996,0.0,0.0,3.5811,63,32,496.37788821353007,678.0643,mp-567763,Pr(C2N3)3,https://materialsproject.org/materials/mp-567763,38.33337763423161,-35.7312985183571,24.77026294651427,-56.23388888256208
-6.3576331948333324,-381.45799169,4.419594784389785,-4.180468674039333,0.0,0.0,5.3638,18,60,848.9340175948442,2259.4737408000005,mp-29085,Sr5Zr3F22,https://materialsproject.org/materials/mp-29085,7.0059741420668376,-17.339961618693955,15.489340915066835,-11.985359923447401
-4.993264058181818,-109.85180928,3.9953377077314487,-3.340856723735329,1.83e-05,5.007645992560025e-07,5.5115,65,22,425.8875041380753,1024.7060524,mp-1226147,Cs2RbSiF7,https://materialsproject.org/materials/mp-1226147,11.122242821964798,-19.328552970537334,18.90683176208621,-16.221921598918918
-5.63167233375,-90.10675734,4.131225464859637,-0.14805302124999994,0.00214155,6.248285351642472e-05,0.0,62,16,399.4337807749868,993.74418,mp-672226,BaMnSi2,https://materialsproject.org/materials/mp-672226,11.885078267477565,-16.427848738132706,11.793339645591976,-14.694165612074439
-6.5527468494444445,-235.89888658,4.798011697777456,-0.9395870682800004,0.000486175,6.337399963165047e-06,0.7504,52,36,894.0440833356392,2583.278,mp-1245452,Ba3Y2N4,https://materialsproject.org/materials/mp-1245452,7.923692632309528,19.204356291876834,28.659223056811534,-3.9181657230297295
-4.898177195833333,-58.77812635,5.7423677697331375,-1.6945297071875,0.0,0.0,1.2288999999999994,187,12,367.7066885239254,1271.5792800000002,mp-1208330,TbSI,https://materialsproject.org/materials/mp-1208330,-19.46043066518189,12.257135389670017,-14.974448705151513,10.784008317134946
-7.537871712352942,-256.28763822,5.197620263378803,-2.7058887894117647,0.0,0.0,3.238,15,34,498.73023450080063,1561.0656,mp-560690,Sm2(MoO4)3,https://materialsproject.org/materials/mp-560690,11.204138503994526,21.793393074797397,39.97892178151922,-4.195132604787373
-5.928995027916668,-142.29588067,4.344547747653436,-3.4286877402925,10.00000045,0.2757019660797704,3.3969,11,24,422.70519368079783,1105.9438248,mp-1214624,Ba2Mn2ClF7,https://materialsproject.org/materials/mp-1214624,10.162243282798864,-13.074024273604596,14.559229194279569,-8.534829080317309
-7.00670917368421,-266.2549486,5.409610840353242,-2.871058027171053,8.00000035,0.14964857504667764,0.25460000000000016,26,38,623.0097562260088,2029.6062,mp-1194618,Ba4Y2Fe2O11,https://materialsproject.org/materials/mp-1194618,-22.355971149675227,20.217424329712323,-22.71874348731493,54.16157118792549
-2.534604226,-12.67302113,2.7078959364496042,-0.2873171548125004,0.0004195,1.1477099509663652e-05,2.8427,123,5,425.9682655859507,694.64054,mp-1207211,Tl2SI2,https://materialsproject.org/materials/mp-1207211,35.34452215879737,-37.04373903731555,25.084225219260496,-63.5496754345246
-1.5654235566666663,-9.39254134,2.430086096636646,0.09205700333333353,0.02055385,0.0008783595644487188,0.0,194,6,272.708249469356,399.09,mp-1094294,Sr2Mg,https://materialsproject.org/materials/mp-1094294,-19.388620526515123,-36.599328998259786,-14.25156781649302,-29.395153260731128