energy_per_atom,energy,density,formation_energy_per_atom,total_magnetization_uB,total_magnetization_T,band_gap,sgr,num_sites,cell_volume,weight,mp_id,formula,URL,tsne_xrd_lin1_0,tsne_xrd_lin1_1,tsne_xrd_lin2_0,tsne_xrd_lin2_1
-5.6909552121875,-182.11056679,4.143831580230253,-1.7556062488099995,27.0852296,1.0894913261672161,0.0,8,32,289.7251336993246,723.001465,mp-1100661,Li9Mn2Co5O16,https://materialsproject.org/materials/mp-1100661,6.337027675756138,-72.38128351143845,-23.485847357830924,-74.78376883392772
-5.6948290846875,-182.23453071,4.052231936597335,-1.759480121309999,27.060882300000003,1.064450345050763,0.0,8,32,296.2742946095568,723.001465,mp-1100634,Li9Mn2Co5O16,https://materialsproject.org/materials/mp-1100634,6.618370572314481,-79.7360931734212,-24.28162302437677,-74.09704620777525
-6.194807297083332,-148.67537513,3.953543765538464,-2.060541396201666,16.0004683,0.8549847812213475,0.4664000000000002,2,24,218.09802707027674,519.265175,mp-1175172,Li7Mn4CoO12,https://materialsproject.org/materials/mp-1175172,10.796866491945579,-81.45987097806444,-17.17611210432482,-85.87545500866348
-5.838303164166668,-140.11927594,4.098019597486619,-1.8909043273716661,16.0000006,0.8727729322446925,0.0,8,24,213.64668456642303,527.2554749999998,mp-1175091,Li7Mn2(CoO4)3,https://materialsproject.org/materials/mp-1175091,13.646319795735414,-72.2465575325662,-13.226760651325062,-78.69495960449271
-6.9108026225,-165.85926294,3.9868080957702574,-2.442988214375,5.000000099999999,0.2579067370966192,1.3223999999999996,2,24,225.935645125762,542.4516,mp-769635,Li2VCrO4,https://materialsproject.org/materials/mp-769635,2.8032013094357056,-66.51947359193309,-9.923777455592251,-65.67183438035165
-8.257312615421688,-685.35694708,3.639546503497936,-3.2767501478313266,0.1037036,0.0013290269055565055,0.0,8,83,909.3634346262957,1993.1302,mp-774528,Li11Ti24O48,https://materialsproject.org/materials/mp-774528,1.4512544155231029,-65.56098333821006,-13.456021668018485,-65.64166939494153
-5.759116478125,-184.2917273,4.110997075550326,-1.823767514747499,25.9073364,1.0338537132340373,0.0,8,32,292.03916630103095,723.001465,mp-1100759,Li9Mn2Co5O16,https://materialsproject.org/materials/mp-1100759,5.565127252841465,-72.00627777394524,-22.512240310388073,-76.78869403053625
-6.498593137916667,-155.96623531,4.1286522753994035,-2.2395755385416667,7.9999999000000015,0.4160495523972436,1.9823000000000004,2,24,224.08993466733205,557.1621,mp-754348,Li2CrFeO4,https://materialsproject.org/materials/mp-754348,2.1044019024976737,-67.07892603180228,-11.649329070983296,-65.66640716713017
-6.91068736875,-55.28549895,3.9987342448341416,-2.4428729606249995,5.000000599999999,0.7760347977314564,0.9309999999999996,10,8,75.08726544940518,180.8172,mp-754054,Li2VCrO4,https://materialsproject.org/materials/mp-754054,1.1646078105068085,-68.6847662765359,-11.380881561507168,-65.7536811504106
-6.498285325,-51.9862826,4.130704125540421,-2.239267725625001,7.9999994999999995,1.248768897415614,1.6652999999999998,12,8,74.6595407255852,185.7207,mp-768945,Li2CrFeO4,https://materialsproject.org/materials/mp-768945,1.6484957725109166,-67.05688808882877,-11.967202812327864,-65.72093544117224
-6.219015291875,-99.50424467,3.7832751818921255,-2.107366410180001,10.0,0.8107107934993825,0.0,10,16,143.7511979118429,327.514335,mp-1174685,Li5Mn3O8,https://materialsproject.org/materials/mp-1174685,17.377819602593938,-74.61217800125188,-13.989717668501534,-76.97422884940543
-7.227268451666667,-43.36361071,3.9895747470208818,-1.8684237041666676,0.00121415,0.0002023691811651656,0.3417999999999999,12,6,69.9206403965971,167.9898,mp-714929,CrO2,https://materialsproject.org/materials/mp-714929,22.462044866899763,-67.25275489547542,-7.4613956164320525,-70.89006620953153
-5.75700399875,-184.22412796,4.099311384223767,-1.8216550353724996,25.999999300000002,1.0346022168774751,0.0607000000000002,2,32,292.8716669902426,723.001465,mp-1175733,Li9Mn2Co5O16,https://materialsproject.org/materials/mp-1175733,13.584140656725852,-82.5686766023032,-14.403059080593307,-87.94320405384602
-4.563206678333334,-54.75848014,4.810253310167325,-0.5408443908333341,0.0,0.0,1.4986999999999997,227,12,125.2307760218552,362.7688,mp-25428,NiO2,https://materialsproject.org/materials/mp-25428,26.906818421305523,-69.71751432903389,5.402144390216104,-34.265420925990014
-5.7596678528125,-184.30937129,4.114278571656803,-1.8243188894349995,24.0,0.95850436555787,0.25249999999999995,1,32,291.80623958727904,723.001465,mp-1176274,Li9Mn2Co5O16,https://materialsproject.org/materials/mp-1176274,12.694551643436606,-83.75621712748467,-15.53209548550429,-86.69466288859967
-2.809383965,-16.85630379,5.391325811077967,-0.016437596666666703,0.00016759999999999998,1.700521996177569e-05,0.0,187,6,114.86009944425614,372.92,mp-1094618,MgGa5,https://materialsproject.org/materials/mp-1094618,-70.57695501712773,2.3498855474248668,-58.76989796809404,-28.48252360849443
-7.034500685625,-112.55201097,4.036080807777503,-2.521284994166667,7.999999400000001,0.6301456602836824,0.0,166,16,147.95390504802774,359.6145,mp-765747,Li4TiCr3O8,https://materialsproject.org/materials/mp-765747,2.804641264156317,-67.50189715599716,-11.886731088484956,-65.98782507634702
-2.0184899775,-8.07395991,9.129883937327481,-0.05726289583333299,5.5700000000000005e-05,9.068632642223834e-06,0.0,123,4,71.57985480734979,393.5564,mp-1215496,ZnCdAg2,https://materialsproject.org/materials/mp-1215496,-74.9416936454612,2.211762798319703,-66.95190484249697,9.232550134616877
-5.591687224642856,-156.56724229,3.7877591443239815,-1.5931531321428565,14.999999599999999,0.6211357698379079,0.0,1,28,281.43761060868917,641.9709849999998,mp-772702,Li6Fe3Co3O16,https://materialsproject.org/materials/mp-772702,10.343030514827143,-64.21876888200181,-1.9805418586566053,-70.03566028580612
-7.6906487314285705,-107.66908224,3.831740768178072,-2.9016858914285715,0.0,0.0,0.0,166,14,147.91723478914327,341.3232,mp-754595,Li2Ti3FeO8,https://materialsproject.org/materials/mp-754595,1.0826301031699392,-66.94751454106307,-12.969907233727,-66.24625113710066
-7.5448401425,-120.71744228,4.313304404015026,-2.8418568075,0.0010597999999999998,8.178639241965197e-05,0.0,166,16,151.01507085170098,392.26658,mp-756660,Li4Ti3NbO8,https://materialsproject.org/materials/mp-756660,4.7429971810107086,-57.654112347446116,-8.121507549329111,-62.43923424376311
-5.700083528125,-91.20133645,3.9045051281670715,-1.8687352425600008,10.0000001,0.8167625467002766,0.0,10,16,142.68608344227832,335.504635,mp-1173997,Li5Mn(CoO4)2,https://materialsproject.org/materials/mp-1173997,14.712715565245984,-73.29781665438166,-13.136463484447155,-76.73190997054668
-5.838136494166666,-140.11527586,3.9991671559298063,-1.8907376573716672,18.000053,0.9581876738367382,0.25360000000000005,6,24,218.9276582232991,527.2554749999998,mp-1175140,Li7Mn2(CoO4)3,https://materialsproject.org/materials/mp-1175140,5.3099337087908,-70.27011334205179,-22.889106580715737,-74.21573753905258
-5.7761837371875,-184.83787959,4.143148609923471,-1.8408347738099995,22.0000051,0.8847945776568334,0.0,10,32,289.7728929476825,723.001465,mp-1100691,Li9Mn2Co5O16,https://materialsproject.org/materials/mp-1100691,2.1140702862663145,-73.0952304138934,-21.97973447584346,-75.74495554040244
-7.029113785714286,-196.815186,3.5483897698518105,-2.31903391180381,2.9999994,0.13664431597826615,0.7935000000000001,62,28,255.86272707311954,546.75058,mp-1176642,LiMnBO4,https://materialsproject.org/materials/mp-1176642,28.047586215708016,-36.349555499732965,6.6020654288558,-40.59133855246574
-5.312278867272728,-58.43506754,4.408839224088533,-1.3941105165909091,7.9998125,0.8453537687610841,0.0,12,11,110.28558278029236,292.8154,mp-756110,Li2Fe(CuO3)2,https://materialsproject.org/materials/mp-756110,6.5964970276533075,-66.75954630564262,-7.620023635199423,-67.60038407793563
-5.770415894375,-184.65330862,4.142640715254728,-1.835066930997499,24.0001969,0.965119818203436,0.0,12,32,289.80841958819764,723.001465,mp-1100747,Li9Mn2Co5O16,https://materialsproject.org/materials/mp-1100747,6.350630867549285,-71.84371026948712,-21.771812210492058,-74.34862368906943
-6.6095946315625,-211.50702821,4.211844588495524,-2.2320224703125,7.9999999000000015,0.3216577494396883,2.3103,2,32,289.85005701705444,735.185,mp-768687,Li4Cr3FeO8,https://materialsproject.org/materials/mp-768687,14.998292284279033,-69.34909670258983,-11.3754366081949,-70.34959562656155
-5.54442535875,-44.35540287,4.408194652112276,-1.645226015625001,4.00000115,0.6322026946318737,0.8956,186,8,73.73627617888836,195.74598999999998,mp-753473,LiCoO2,https://materialsproject.org/materials/mp-753473,5.239544528721612,-67.32417387709329,-20.216867526986828,-71.95626699581429
-7.333576260338982,-432.68099936,3.8806234932491566,-2.8343298293220336,1.000001,0.019488371155159164,0.04199999999999982,155,59,598.0015637961245,1397.5094,mp-760001,Li11Ti12(NiO8)4,https://materialsproject.org/materials/mp-760001,-0.41964926899480376,-66.97802302320598,-16.01339583444583,-65.5575735541007
-5.966970392142858,-83.53758549,4.410848755076629,-1.6253525644228577,2.55605635,0.2088618089366643,0.0,74,14,142.6227533739575,378.84529,mp-773500,LiMnCuO4,https://materialsproject.org/materials/mp-773500,18.051131427186398,-67.30811739907818,-15.57362329986302,-69.35454167658479
-5.7820961478125,-185.02707673,4.1654707820219565,-1.8467471844349996,24.000001100000002,0.9704306703177752,0.0,12,32,288.2200407673788,723.001465,mp-1176304,Li9Mn2Co5O16,https://materialsproject.org/materials/mp-1176304,1.9213694312997749,-72.6493500492046,-22.228543918406224,-75.37206804234386
-6.4354484271875,-205.93434967,3.9120772137329065,-2.1497237186475,25.999999600000002,1.015401698543026,0.5491000000000001,2,32,298.4096637416514,703.025715,mp-1100562,Li9Mn7O16,https://materialsproject.org/materials/mp-1100562,3.6662761418328143,-78.200593088534,-28.71280757147068,-77.11797872605341
-6.312300794375,-100.99681271,4.197160068581334,-1.9926505570550008,15.163859900000002,1.1769943543743149,0.0,166,16,150.14566962011003,379.50653000000005,mp-1174110,Li4Mn3CoO8,https://materialsproject.org/materials/mp-1174110,2.006381630785945,-66.40351204029724,-13.070131237834424,-64.58951329239054
-7.021820535909091,-154.48005179,3.886703466425181,-2.344798150769092,7.0000003,0.3579774711522143,0.8163,2,22,227.887125526538,533.3988899999998,mp-753136,Li2MnV2O6,https://materialsproject.org/materials/mp-753136,5.4186637108328375,-65.32194819300696,-8.258506742293758,-65.847673568748
-5.836328205384616,-75.87226667,4.35696355195596,-1.439858353846155,7.9995134000000006,0.6654616511204322,0.3772,166,13,140.09349322473196,367.580785,mp-752999,LiFeCo3O8,https://materialsproject.org/materials/mp-752999,8.154596315136665,-68.5716011901221,-5.267257224126999,-68.86101889920036
-6.107825409,-122.15650818,3.954385416690535,-2.0386664350190005,11.999995599999998,0.7828956305370436,0.31820000000000004,1,20,178.63010155887466,425.38732999999996,mp-1174822,Li6Mn3CoO10,https://materialsproject.org/materials/mp-1174822,19.073873616854282,-79.39472851430524,-9.524788572514842,-87.63176275502855
-9.816511215,-19.63302243,10.746612426616393,0.05978103166666671,0.0011598,0.0003822951288848643,0.0,65,2,35.355889473772116,228.81488,mp-1217887,TaTi,https://materialsproject.org/materials/mp-1217887,-47.84619405558797,-65.81306436142243,-53.297833568623474,-37.24253002429178
-6.44503447,-70.89537917,3.586903521266183,-2.5907186811363645,1.9999997,0.2291789040160035,0.0,5,11,101.70275553491764,219.68647719999998,mp-768173,Li2Al2FeO6,https://materialsproject.org/materials/mp-768173,8.685564158871706,-67.7057928833118,-5.8095518957469885,-68.74093810861032
-6.11911418,-73.42937016,3.7004064962037013,-2.123515849535,2.99999985,0.3334711994922263,0.6976999999999998,12,12,104.84321471481192,233.63648999999998,mp-1173939,Li2MnO3,https://materialsproject.org/materials/mp-1173939,18.991262742272674,-72.47831643560016,-13.013243308830544,-75.95216778966027
-6.349741156875,-101.59585851,4.147473518012513,-2.0300909195550005,15.8441256,1.215236995285034,0.0,10,16,151.94440814703955,379.50653000000005,mp-1174165,Li4Mn3CoO8,https://materialsproject.org/materials/mp-1174165,5.423360679565129,-78.1478109572337,-29.455101735569567,-76.62724466351341
-5.789351586785713,-162.10184443,4.079738094054224,-1.848838391943572,10.39775015,0.4762453188606112,0.0,8,28,254.4404090456969,625.12847,mp-1174842,Li4MnCo2O7,https://materialsproject.org/materials/mp-1174842,4.752789899357416,-73.0042247815519,-22.918985272630803,-74.61118988016604
-6.942948904126984,-437.40578096,4.006273318062574,-1.821682326233333,63.0016753,0.979925728173688,0.0,8,63,749.2665858405092,1807.70620784,mp-761102,Na3Mn20O40,https://materialsproject.org/materials/mp-761102,1.1429969960344,-67.0197214308539,-13.434546092204693,-65.69009486322642
-5.7984302275,-162.35604637,4.114086542256265,-1.857917032657857,10.5745039,0.4884189251856007,0.0,8,28,252.316089802325,625.12847,mp-1174873,Li4MnCo2O7,https://materialsproject.org/materials/mp-1174873,5.721797950891652,-71.29286965683691,-22.617447096659408,-75.70978546654209
-6.08158965375,-48.65271723,6.059586894523577,-2.3241878697916665,0.0,0.0,1.4085,194,8,91.44468655532995,333.6970772,mp-9631,AlAgO2,https://materialsproject.org/materials/mp-9631,-28.570593657540396,6.793705226039084,-46.80612308167823,10.970965928680249
-6.749963554821428,-377.99795907,4.057557623547502,-2.0507281957414287,15.000033025,0.2945599633440121,0.8696999999999999,96,56,593.4661129072892,1450.14534,mp-777396,Li2Mn3FeO8,https://materialsproject.org/materials/mp-777396,2.0055504328047244,-70.24935202839245,-8.631596589276542,-66.4853834898264
-5.7682563771875,-184.58420407,4.16447428140834,-1.8329074138099992,23.228455399999998,0.9390088295797576,0.0,8,32,288.2890078033295,723.001465,mp-1100643,Li9Mn2Co5O16,https://materialsproject.org/materials/mp-1100643,1.601408365490819,-72.38034303862743,-20.712978214100968,-74.76495338962759
-6.1613178375,-147.8716281,3.9109378822660017,-2.0270519366183333,15.999603400000002,0.8457252076474889,0.0,1,24,220.47399400277286,519.265175,mp-1175276,Li7Mn4CoO12,https://materialsproject.org/materials/mp-1175276,3.5337971943416058,-78.07838784130006,-28.311145944890253,-78.01188384964534
-5.7134107275,-91.41457164,3.9643029017917253,-1.882062441935001,10.0000004,0.8292713480480237,0.0,2,16,140.53379832975236,335.504635,mp-1174089,Li5Mn(CoO4)2,https://materialsproject.org/materials/mp-1174089,21.01124657758018,-73.34116068886314,-10.57707392364691,-78.08975021014089
-6.346136239583332,-152.30726975,4.221559656876878,-2.1767855214583336,2.6666666666666665,0.14026808404778293,1.4373999999999998,2,24,221.5579279572429,563.262885,mp-755830,Li2VCoO4,https://materialsproject.org/materials/mp-755830,3.0492565652631134,-67.45562242135492,-10.033905240476773,-65.64737983779946
-5.471503111333333,-164.14509334,4.669858319640332,-1.5534695469000004,0.99999995,0.03787196604282087,0.0,59,30,307.7227143866653,865.39457568,mp-766225,Na3(CoO2)4,https://materialsproject.org/materials/mp-766225,9.029109499623283,-53.629929426050396,-7.098023907867592,-56.015380074386655
-6.541622619285714,-91.58271667,4.13192722574182,-2.0492178914285715,2.99999985,0.24057022683998705,0.0,74,14,145.33050506214192,361.62658999999996,mp-753959,LiVCoO4,https://materialsproject.org/materials/mp-753959,10.87075275235667,-69.66412463100174,-20.40885007956105,-64.86671054590077
-6.8255115252083325,-327.62455321,4.038432140335945,-1.661065714614999,12.99999965,0.2641979275568147,0.0,5,48,573.4444602400345,1394.61734,mp-771261,Mn3FeO8,https://materialsproject.org/materials/mp-771261,18.063728217094145,-67.04806419455731,-15.556178816336827,-69.1528559233731
-5.723291445,-160.25216046,4.025952563243395,-1.7827782501578582,8.685266,0.39256433074590996,0.0,12,28,257.8396573590506,625.12847,mp-1174643,Li4MnCo2O7,https://materialsproject.org/materials/mp-1174643,6.53064270726705,-79.85841140626286,-25.167536101655326,-74.22208482110425
-5.7326484175,-183.44474936,3.757134584511528,-1.949418580625,13.00000075,0.5190092616147167,0.0,1,32,291.9077981623607,660.4704,mp-780216,Li5Fe3O8,https://materialsproject.org/materials/mp-780216,10.57316765817532,-63.92213630048007,-0.6943126604735643,-68.56947297595538
-6.9112885275,-55.29030822,4.00068435971959,-2.443474119375,4.999999900000001,0.7764131480453963,0.9770000000000004,12,8,75.05066451294171,180.8172,mp-755540,Li2VCrO4,https://materialsproject.org/materials/mp-755540,1.1166195827754457,-68.71199576730707,-11.518808895901591,-65.81838058523249
-6.432742075,-205.8477464,3.906759400313721,-2.14701736646,26.000006399999997,1.0140216952919128,0.0,2,32,298.81585382188337,703.025715,mp-1100543,Li9Mn7O16,https://materialsproject.org/materials/mp-1100543,0.6087210250841502,-80.61760473921008,-29.41141293364751,-78.29094496567515
-6.2238984425,-99.58237508,4.130323586796909,-2.092516951935001,18.9999985,1.4561544127281123,1.0549000000000004,12,16,152.06300325162087,378.23224500000003,mp-763910,Li4MnFe3O8,https://materialsproject.org/materials/mp-763910,3.5398893207220667,-64.85680616487421,-10.480939616511193,-64.55186086134076
-5.785746243928571,-162.00089483,4.1109824848437455,-1.845233049086428,10.80382555,0.4986344134398809,0.0,8,28,252.50660475385703,625.12847,mp-1174844,Li4MnCo2O7,https://materialsproject.org/materials/mp-1174844,13.236606215621936,-75.53106279403703,-14.21870473084487,-80.73579437043347
-7.224793128333333,-86.69751754,3.9706005788395786,-1.9211494452400002,9.9999999,0.8106637857053354,0.5167000000000002,166,12,143.75953214536625,343.750835,mp-756398,Mn3VO8,https://materialsproject.org/materials/mp-756398,21.96014022902368,-67.1000511322682,-7.5502806910408,-70.47205657465287
-7.091686855,-85.10024226,4.016354936232536,-2.572774840763889,5.0000003,0.5245626641840229,0.0,12,12,111.0836346876871,268.6786,mp-755147,Li3TiCr2O6,https://materialsproject.org/materials/mp-755147,4.139252910708265,-67.67847946483185,-12.920768983174026,-67.14928967477573
-5.4952851927272715,-60.44813712,4.473776729325767,-1.506071691223636,5.0000003,0.5563020627379973,0.4862000000000002,5,11,104.74584090561173,282.20324500000004,mp-762624,Li2Mn(NiO3)2,https://materialsproject.org/materials/mp-762624,8.955374082886436,-68.06257329249222,-4.119904830284786,-70.41410674749797
-5.8313304225,-139.95193014,4.0190652378975935,-1.8839315857050007,17.999999300000002,0.962952317897048,0.17829999999999968,1,24,217.8437642752074,527.2554749999998,mp-1175046,Li7Mn2(CoO4)3,https://materialsproject.org/materials/mp-1175046,10.828095075475453,-80.37312264209184,-14.749993859678463,-85.18879537582704
-5.868580008333333,-140.8459202,4.083929875691187,-1.921181171538333,18.0000001,0.9784936750035376,0.8774000000000002,1,24,214.3837741932492,527.2554749999998,mp-1174928,Li7Mn2(CoO4)3,https://materialsproject.org/materials/mp-1174928,16.468794339530294,-72.83809274989508,-10.267405782991542,-78.47935293061832
-6.394554875,-179.0475365,3.914980924584932,-2.1336981417235714,11.0023702,0.4962739864960031,0.5662000000000003,2,28,258.37005051948904,609.14787,mp-1174283,Li4Mn3O7,https://materialsproject.org/materials/mp-1174283,2.2962916114255294,-78.29221012011219,-28.64874720958323,-78.84951378893528
-5.82710646892857,-163.15898113,4.14094424015455,-1.8865932740864293,10.00000035,0.4648988335460981,0.8696999999999999,1,28,250.67959606520233,625.12847,mp-1174599,Li4MnCo2O7,https://materialsproject.org/materials/mp-1174599,16.08303275442665,-75.61621763770212,-10.812433270253667,-82.93737701984045
-5.81370920923077,-75.57821972,4.566441449058081,-1.7577111730769237,2.9999708,0.2720513169959829,0.13329999999999975,12,13,128.51198224305583,353.404785,mvc-3029,Mg2Co3O8,https://materialsproject.org/materials/mvc-3029,18.008277414128766,-49.420183179980974,3.459262512359235,-39.73457121623739