energy_per_atom,energy,density,formation_energy_per_atom,total_magnetization_uB,total_magnetization_T,band_gap,sgr,num_sites,cell_volume,weight,mp_id,formula,URL,tsne_xrd_lin1_0,tsne_xrd_lin1_1,tsne_xrd_lin2_0,tsne_xrd_lin2_1
-7.948372634285715,-166.91582532,4.176195977660721,-3.286661711285716,0.0,0.0,3.1866000000000003,164,21,319.8876748266364,804.5060000000001,mp-27377,K4Zr5O12,https://materialsproject.org/materials/mp-27377,-14.341706688064251,8.00313725699633,-5.7333509343810425,26.68776442698412
-5.7648553378125,-184.47537081,4.100760331303398,-1.8295063744349989,24.000000699999998,0.9553550460537752,0.0,12,32,292.7681848278366,723.001465,mp-1100750,Li9Mn2Co5O16,https://materialsproject.org/materials/mp-1100750,-1.5681598773064611,-76.4074517374718,-22.183716316651,-77.54915178417635
-6.0993135585714295,-85.39038982,3.9030105085822115,-1.7754142507142856,8.99999995,0.6749502757187005,0.0,15,14,155.39897699671087,365.2572,mp-752935,Li(FeO2)2,https://materialsproject.org/materials/mp-752935,7.760644659886314,-56.883959704373005,-3.4816116614540373,-63.79782465250472
-6.045852239642858,-338.56772542,5.351342223727112,-1.7110155721428566,8.999999800000001,0.19279379737141925,0.02059999999999995,160,56,544.0350366674877,1753.236505,mp-767791,Mg5Co19O32,https://materialsproject.org/materials/mp-767791,-21.892416606836647,1.3423394886998907,-42.713980306816005,-18.99575236954401
-6.35711739125,-101.71387826,4.103190320453445,-2.0374671539300007,16.0000004,1.2140896004573989,0.6772999999999998,2,16,153.58425025000773,379.50653000000005,mp-1174205,Li4Mn3CoO8,https://materialsproject.org/materials/mp-1174205,5.428899438162823,-78.06877487802252,-29.684403546826182,-76.29508080188239
-5.438632504285715,-38.07042753,2.873596178539301,-3.01341179796,4.9999997,0.6963290749888471,3.7485,166,7,83.68215899574828,144.81365780000002,mp-752931,Li2MnF4,https://materialsproject.org/materials/mp-752931,2.9932817029591585,-54.622084879582594,-15.292187267411435,-56.426623206983116
-6.2194116149999985,-149.26587876,4.003426287667441,-2.0851457141183327,14.0,0.7575285617381721,0.7103999999999999,1,24,215.3805348823644,519.265175,mp-1175214,Li7Mn4CoO12,https://materialsproject.org/materials/mp-1175214,12.61765316602813,-78.00240423273154,-15.29357005385259,-84.83842532804927
-4.4935047825,-17.97401913,12.210688591101064,0.8679069275000009,0.41876709999999995,0.07072165442364532,0.0,225,4,69.00770277208437,507.4446,mp-1183177,Ag3W,https://materialsproject.org/materials/mp-1183177,-45.19795110748775,-64.26393513660403,-50.885466158724185,-37.79958280019
-5.41637517125,-86.66200274,4.011683489368037,-1.7251771837500005,10.000000199999999,0.8293073284999654,0.2812000000000001,2,16,140.52769829877943,339.49978500000003,mp-1174123,Li5Co3O8,https://materialsproject.org/materials/mp-1174123,16.606217261494056,-80.6568782417724,-12.754099843955471,-83.66323594004184
-7.9444127557142865,-111.22177858,3.611827151435538,-3.0361374535714303,3.0,0.22604511756401816,0.26270000000000016,12,14,154.6690974547479,336.4197,mp-757246,Li2Ti3VO8,https://materialsproject.org/materials/mp-757246,5.759139506241789,-63.934683356472064,-7.178433292512378,-65.20056626786267
-2.6274268725,-31.52912247,4.6676841089401035,-0.0722027858333334,2.85e-06,1.4253801348439294e-07,0.0,63,12,233.0191349652271,655.004,mp-1094630,MgGa2,https://materialsproject.org/materials/mp-1094630,-71.5879674797738,3.0023975310558395,-67.58155154609427,14.161350823629455
-4.107758681666667,-24.64655209,3.6982279260484,-0.9411795463541672,0.0,0.0,0.3704000000000001,1,6,144.3708849983662,321.532,mp-756006,LiSbS,https://materialsproject.org/materials/mp-756006,30.187277821825575,-38.559531912426905,33.304789152270885,-56.19130996940222
-5.3821217375,-21.52848695,2.729764962720269,-1.8492911163175003,0.9734164000000001,0.13528674484967998,1.2211,71,4,83.85343138292465,137.8469,mp-27712,VCl2O,https://materialsproject.org/materials/mp-27712,31.0544529163243,-36.91836703339725,3.7704441040147554,-58.52819770833888
-6.033414476875,-96.53463163,3.6238963948839884,-1.921765595180001,12.822050599999999,0.9957063642024638,0.0,166,16,150.07336859710324,327.514335,mp-1174553,Li5Mn3O8,https://materialsproject.org/materials/mp-1174553,1.1006830057091237,-65.96734403638814,-22.931601253264557,-70.74410562091148
-5.769746371875,-184.63188390000002,4.159979745873919,-1.834397408497499,24.8162415,1.0021122769014017,0.0,6,32,288.6004817212109,723.001465,mp-1100602,Li9Mn2Co5O16,https://materialsproject.org/materials/mp-1100602,-2.1683028533564355,-75.84926599858237,-19.57324941822184,-76.12068495379134
-5.037167745357143,-141.04069687,4.779026178016544,-1.360237933214287,1.999998625,0.08153152036086124,0.0,59,28,285.87855859449,822.7576,mvc-12895,Mg(NiO2)2,https://materialsproject.org/materials/mvc-12895,8.751990094968082,-58.61070759093743,-7.279038498194763,-56.29997550367892
-5.808857581666667,-139.41258196,4.010160325387977,-1.8614587448716682,18.0000009,0.9608188210808704,0.0,8,24,218.3275054486849,527.2554749999998,mp-1175134,Li7Mn2(CoO4)3,https://materialsproject.org/materials/mp-1175134,11.80060124217868,-79.57530381273905,-15.252570571176607,-85.31088240884013
-5.715262113214287,-160.02733917,4.5153104649266,-1.5316018139285703,0.999664475,0.041946598908496224,0.0,60,28,277.73776290876253,755.21996,mp-758122,Li(CoO2)2,https://materialsproject.org/materials/mp-758122,8.418149640806122,-58.78251851097487,-2.9954080233350613,-65.05529162696939
-7.571420162142857,-423.99952908,3.757784635942607,-2.734562290476191,5.00000025,0.09623267953414852,1.2319999999999998,19,56,605.5149566487672,1370.2748,mp-775564,Li2TiV3O8,https://materialsproject.org/materials/mp-775564,3.059514673918579,-66.41954971039227,-8.732111007890854,-66.40913534297516
-3.0846673733333336,-9.25400212,4.7545476306404515,-0.5028704866666671,1e-07,1.4695535966998649e-08,0.0,191,3,79.30343472147527,227.06599999999997,mp-182,SrGa2,https://materialsproject.org/materials/mp-182,-53.57420847472818,26.630622937181126,-49.56136339464771,30.969789496414727
-6.330782923636362,-278.55444864,3.2250735325337927,-2.6703202270345443,3.0,0.07554841610225875,1.0241000000000002,1,44,462.7786540270535,898.8016256000001,mp-760221,Li3V2(O2F)2,https://materialsproject.org/materials/mp-760221,3.9005366833843613,-63.3415599063321,-21.882473248442807,-69.6601989145473
-6.2063876475,-24.82555059,9.158028068898252,-0.7227690199999994,8.8e-05,1.5131737077141385e-05,0.0,225,4,67.77527885641774,373.787,mp-972183,ZrGaPd2,https://materialsproject.org/materials/mp-972183,-41.07655956390217,-62.386868387181494,-49.54647177598665,-39.58437864059325
-7.050985970810811,-521.77296184,4.090192816335634,-1.8325339019329725,37.00000015,0.5056835278346445,0.0,13,74,852.7080171648743,2100.36628,mp-694894,LiMn12O24,https://materialsproject.org/materials/mp-694894,18.61656148853427,-67.303367137473,-15.512783659154993,-69.74931178127287
-5.792873940357143,-162.20047033,4.046171440940473,-1.852360745515001,11.00000025,0.4996846796640991,0.09260000000000003,12,28,256.5512224586285,625.12847,mp-1174664,Li4MnCo2O7,https://materialsproject.org/materials/mp-1174664,5.250392889647746,-70.25809497002943,-22.356607622891346,-73.4028085807115
-5.77978446,-184.95310272,4.102780601694803,-1.8444354966224996,25.248976100000004,1.0055674906576444,0.0,2,32,292.6240214048378,723.001465,mp-1175866,Li9Mn2Co5O16,https://materialsproject.org/materials/mp-1175866,4.918974278987019,-73.35551196639814,-22.63811688682847,-76.60176662952858
-6.097158788125,-97.55454061,5.975173591452558,-1.779168603125001,13.0,0.9591246196474842,1.3286999999999995,12,16,157.95949654483817,568.3909799999999,mp-754704,Li3Co4WO8,https://materialsproject.org/materials/mp-754704,2.096096482747116,-60.233898040573074,-11.197525020959354,-59.60335187139471
-6.989176616818183,-153.76188557,3.9480668054345847,-2.257763159772728,7.99999975,0.4168778905025136,0.5541999999999998,9,22,223.6446628401829,531.7334,mp-758744,Li2Cr3O6,https://materialsproject.org/materials/mp-758744,5.716325691220647,-65.3541182139972,-6.542253040167988,-65.47609350428277
-5.850413715714287,-327.62316808,2.3793689090113777,-2.1151910388728576,5e-07,1.3379987900219726e-08,5.6644,1,56,435.5035617172833,624.0284687999998,mp-626496,Al(HO)3,https://materialsproject.org/materials/mp-626496,23.854657259227253,-41.69278766918325,1.7563324650651335,-70.67518394104128
-5.8314052799999985,-139.95372672,4.048585062205883,-1.8840064432049992,18.0000005,0.9700252170577376,0.19059999999999988,1,24,216.25537980279202,527.2554749999998,mp-1175029,Li7Mn2(CoO4)3,https://materialsproject.org/materials/mp-1175029,12.737170624591785,-77.64007374431438,-14.738182056214399,-84.17569013069344
-6.1327072635,-122.65414527,3.9663882179176952,-2.0635482895189994,11.999999,0.7852721870612356,0.5366999999999997,1,20,178.08954388161226,425.38732999999996,mp-1174770,Li6Mn3CoO10,https://materialsproject.org/materials/mp-1174770,12.485903921120086,-77.5565219793033,-9.052589134904002,-83.67118483035928
-5.865942595833333,-140.7826223,4.056990003009944,-1.9185437590383347,17.9999991,0.9720389325453084,0.6166999999999998,2,24,215.80735955515684,527.2554749999998,mp-1174868,Li7Mn2(CoO4)3,https://materialsproject.org/materials/mp-1174868,-2.2164952262117033,-76.31465326508507,-20.421003853078865,-76.89936461694793
-6.433334014375,-205.86668846,3.904525361211985,-2.147609305835,26.000000600000003,1.0134416116196436,0.0,2,32,298.9868262807354,703.025715,mp-1100559,Li9Mn7O16,https://materialsproject.org/materials/mp-1100559,3.44017975051983,-78.86157857938593,-28.747504530533423,-77.69099675843786
-6.343420945625,-101.49473513,4.159771503359061,-2.0237707083050003,13.999998999999999,1.0769773361581445,0.04429999999999978,12,16,151.49519835189255,379.50653000000005,mp-1174243,Li4Mn3CoO8,https://materialsproject.org/materials/mp-1174243,5.186805313258111,-78.55678486960957,-28.790867786160177,-76.07638808793635
-6.08334777,-146.00034648,3.766023627482933,-1.9490818691183325,21.1020005,1.0741027022811995,0.0,12,24,228.95769662927842,519.265175,mp-1175361,Li7Mn4CoO12,https://materialsproject.org/materials/mp-1175361,6.227810770955381,-79.8902805220879,-25.49725382567224,-73.49692829062772
-8.276090771666668,-49.65654463,14.96894776037173,-0.7246756674999991,2.3e-06,2.3085216928027572e-07,0.0,227,6,116.11044877964459,1046.67894,mp-1463,LaIr2,https://materialsproject.org/materials/mp-1463,-73.7444996468748,-6.1230397797682246,-76.64583877001715,-9.378806266258536
-5.7589796240625,-184.28734797,4.07832087795198,-1.823630660685,24.062002,0.9525818685923012,0.0,10,32,294.37903356260375,723.001465,mp-1100693,Li9Mn2Co5O16,https://materialsproject.org/materials/mp-1100693,3.941575767188087,-72.96883951972569,-23.477922148380795,-76.5812560389959
-4.8078908948484855,-317.32079906,4.62016087621218,-1.16996308689394,1.9999913,0.037797156522002086,0.2750999999999997,1,66,616.6608893234609,1715.7515999999996,mp-758726,Li2(NiO2)3,https://materialsproject.org/materials/mp-758726,9.526316090332374,-67.66839313468519,-4.087988680880098,-70.61482983264119
-6.4252896303125,-205.60926817,3.9067110915164673,-2.1395649217725,26.001936999999998,1.014084450529293,0.7918000000000003,12,32,298.81954885695507,703.025715,mp-1100494,Li9Mn7O16,https://materialsproject.org/materials/mp-1100494,0.7109978593077798,-80.61010649280188,-28.91546528860532,-79.4570823155932
-5.644825401818182,-124.18615884,3.34231550707435,-1.8773271948790908,7.9999993,0.3329240538326273,0.6534,70,22,280.0413756511071,563.66433424,mp-18869,Na4Mn2O5,https://materialsproject.org/materials/mp-18869,-4.524118502984447,-8.793596801522765,-33.42623949084805,-56.81399967376426
-5.533139421666667,-298.78952877,2.734510935461951,-1.0458099817077775,0.0011914000000000002,2.286287802725172e-05,1.9192,15,54,607.3011785076933,1000.0798980000001,mp-1201215,H7AuN4O15,https://materialsproject.org/materials/mp-1201215,40.65527389222364,-33.547538589328944,16.572081765920167,-56.71305325828495
-6.714155090909091,-147.71141200000002,3.820133076329183,-2.022370202307272,10.9999999,0.5368125460815798,0.0,64,22,238.80721914660373,549.38507,mp-754532,Li2Mn3O6,https://materialsproject.org/materials/mp-754532,6.367199589674161,-57.6359398800854,-5.959739727798438,-62.239692761931856
-4.23981047,-33.91848376,3.185191130447996,-0.9829174574450006,0.3829553,0.020635379004198,0.0,193,8,216.27835719843537,414.858,mp-22850,RuCl3,https://materialsproject.org/materials/mp-22850,9.994557077732068,-51.90972512119645,-18.114762804102536,-51.51761120630369
-6.696056072,-100.44084108,4.347798790976412,-2.3057759573333336,7.000000599999999,0.5044779964184685,0.7475999999999994,12,15,161.70865920718322,423.4027,mp-1177488,Li3V3SbO8,https://materialsproject.org/materials/mp-1177488,1.7392221813431978,-60.0121703324838,-10.759323919853415,-60.394474907419436
-5.686469085,-34.11881451,2.1172586005652168,-1.123527510833334,0.00096875,7.915297509903173e-05,0.0,166,6,142.6336184368554,181.86399,mp-550206,CoO2,https://materialsproject.org/materials/mp-550206,8.39275976722903,-58.97747409979315,-1.4010924491064274,-66.79255683922426
-5.8432381087500005,-140.23771461,4.056639761308124,-1.8958392719550008,16.0000017,0.8639601492193625,0.0,8,24,215.82599190639408,527.2554749999998,mp-1175120,Li7Mn2(CoO4)3,https://materialsproject.org/materials/mp-1175120,3.8345263496559263,-71.78813779832514,-22.034194921177207,-73.11314911679348
-6.189837591875,-99.03740147,3.737190734390762,-2.078188710180001,9.9999989,0.8008353574072553,0.0,12,16,145.5238381125327,327.514335,mp-1174546,Li5Mn3O8,https://materialsproject.org/materials/mp-1174546,11.637141992678965,-72.59195765586091,-22.81122322394955,-67.9651275514042
-10.293161036666666,-30.87948311,10.717135133713054,0.056106180000001636,3.8900000000000004e-05,9.008371626160118e-06,0.0,42,3,50.32464672483907,324.7957600000001,mp-1217905,TaNbV,https://materialsproject.org/materials/mp-1217905,-41.367641190786564,-63.75185439474196,-53.39793404862864,-37.73572876903938
-5.89886464,-117.9772928,3.9542782604612943,-1.941825904471,7.000178999999999,0.4524393705656442,0.1492,8,20,180.31264472744564,429.38248,mp-1174150,Li3MnCoO5,https://materialsproject.org/materials/mp-1174150,13.37846857921046,-72.07307191422406,-15.35701570451674,-78.57463563783058
-5.7967630425,-185.49641736,4.143369272732677,-1.8614140791225,25.9999999,1.045721764473306,0.8050999999999999,1,32,289.7574605552548,723.001465,mp-1175760,Li9Mn2Co5O16,https://materialsproject.org/materials/mp-1175760,-2.1143529813181963,-76.32865979536052,-20.18913481885249,-77.19235654770299
-6.4682749773333335,-194.04824932,5.456167179334483,-0.7740372451111114,0.0478449,0.0012149293191817724,0.0,44,30,458.9465039926471,1507.9975789999999,mp-1217136,Ti8Al15Rh7,https://materialsproject.org/materials/mp-1217136,-41.54248413267661,-19.156062581995307,-53.07896805386083,-22.98697420693339
-8.815319129285715,-246.82893562,7.270215450550514,-0.7635264567685718,0.0006271,1.6102668872599488e-05,0.0,227,28,453.85420744184967,1987.0763600000002,mp-1193346,Zr4Co2N,https://materialsproject.org/materials/mp-1193346,-69.24595056419564,-3.4385823499220693,-65.14723255531287,4.3634264318163405
-5.726474739333332,-85.89712109,4.755723834020568,-1.768436824666667,3.0,0.2238163473768267,0.35050000000000026,2,15,156.20929716458662,447.37778499999996,mp-772208,Li3Co3SbO8,https://materialsproject.org/materials/mp-772208,2.6475576864905688,-60.968150172622224,-9.828216604069075,-61.274495215948036
-5.233343558888889,-47.10009203,5.168969445020879,-0.4617503588888891,1.656666666666667e-05,1.1164593687212736e-06,0.0,189,9,172.92972033533897,538.3001658000002,mp-1079361,YAlCu,https://materialsproject.org/materials/mp-1079361,-44.690503921141605,0.8437149193272516,-39.51925144732221,17.930589830845353
-8.961379010833333,-107.53654813,7.810328371300415,-0.35202395666666675,0.0,0.0,0.0,124,12,194.92098138040703,916.80884,mp-22396,Nb4SiNi,https://materialsproject.org/materials/mp-22396,-76.59543175583913,9.071665375967042,-65.2346194183363,8.007361003557941
-5.554122785333333,-83.31184178,4.348548235573551,-1.5221749960000002,14.999999800000003,1.1904467113939647,0.0,12,15,146.84485041156182,384.55098,mvc-16807,Li3(CoO2)4,https://materialsproject.org/materials/mvc-16807,5.664248990253063,-67.96014773568675,-7.756144410116755,-67.53748267301015
-6.350509484375,-101.60815175,4.1513172762315085,-2.030859247055001,13.999999800000003,1.0747885727789088,0.2601,2,16,151.80372085941897,379.50653000000005,mp-1174238,Li4Mn3CoO8,https://materialsproject.org/materials/mp-1174238,5.2376765831526235,-78.33309265685631,-29.054621502700034,-76.47154346891259
-6.036703373333333,-72.44044048,4.314093291027649,-1.2868947350799995,6.0000007,0.5049973465347496,1.1944,12,12,138.4648796137623,359.73283,mp-753620,MnCo3O8,https://materialsproject.org/materials/mp-753620,9.50028407829714,-65.61451269403877,-3.0923902703031008,-69.18964491142232
-6.9785017132142855,-390.79609594,4.305059842578944,-2.419338835000001,5.000000325,0.09135552285553812,1.1648999999999998,96,56,637.8413239724247,1653.6468,mp-774164,Li2V3SnO8,https://materialsproject.org/materials/mp-774164,2.197190474670478,-60.592516563016346,-9.448342907185095,-61.06379241632062
-5.7683799846875,-184.58815951,4.141649781231953,-1.8330310213099992,24.000000399999998,0.9648810582330504,0.0,6,32,289.87775935332166,723.001465,mp-1100594,Li9Mn2Co5O16,https://materialsproject.org/materials/mp-1100594,-2.1803835706453474,-75.73252538073109,-19.674319008159173,-76.45588432858891
-6.128304441,-122.56608882,3.9787419042402763,-2.0591454670190004,12.000019400000001,0.787719329704889,0.5254999999999996,1,20,177.53658960224564,425.38732999999996,mp-1174791,Li6Mn3CoO10,https://materialsproject.org/materials/mp-1174791,19.266651419415922,-78.10445728722152,-9.223767796175675,-83.70226366769639
-6.695887491666666,-160.70129980000002,3.6945268950558834,-2.485103427291666,8.0,0.4188128173714824,0.7700999999999998,2,24,222.61142523195824,495.2873,mp-766239,Li7V5O12,https://materialsproject.org/materials/mp-766239,3.18248677594625,-67.72502327190699,-17.128175733081278,-75.32752060677194
-6.431177906875,-205.79769302,3.914837875678337,-2.145453198335,25.9999505,1.0161163250163303,0.0,2,32,298.19923147625457,703.025715,mp-1100532,Li9Mn7O16,https://materialsproject.org/materials/mp-1100532,0.6409582067153133,-80.60696990164038,-28.848329589263464,-79.45749330811009
-7.617198983333334,-91.4063878,3.72988032842291,-2.333853742499999,0.0,0.0,1.4852,88,12,147.69975871858162,331.7612,mp-634430,VO2,https://materialsproject.org/materials/mp-634430,12.442086986897907,-70.46355387346081,-7.524286578973101,-66.963970099132
-7.227232894285714,-101.18126052,3.7962177812472144,-2.409905272142857,6.9999999000000015,0.5379307912547701,0.6217000000000001,2,14,151.65231953393598,346.6978000000001,mp-781740,Li2V3CrO8,https://materialsproject.org/materials/mp-781740,6.4700227431961475,-64.7803502212227,-6.904221690004343,-65.46357948222462
-6.300785562000001,-126.01571124,3.853931649360162,-2.119506349567001,7.0000005000000005,0.4493077856972609,0.07319999999999993,12,20,181.56475768242524,421.39218000000005,mp-1174036,Li3Mn2O5,https://materialsproject.org/materials/mp-1174036,12.544127008350895,-78.92512492663892,-18.53343931020029,-83.3237452166647
-6.230398069375,-99.68636911,3.7944195568717913,-2.1187491876800006,10.000001800000001,0.8130990466293441,0.5251000000000001,2,16,143.32899440237478,327.514335,mp-1174763,Li5Mn3O8,https://materialsproject.org/materials/mp-1174763,15.598807548478188,-75.37142730838674,-16.82231621212145,-83.66398842850589
-8.11076493,-16.22152986,7.662431311189855,-0.28200678000000057,0.6152643,0.2203487041988294,0.0,221,2,32.54083127247948,150.157195,mp-2283,ZrCo,https://materialsproject.org/materials/mp-2283,-37.337969492072624,-57.022578267875296,-49.39279248698456,-42.95026307111836