energy_per_atom,energy,density,formation_energy_per_atom,total_magnetization_uB,total_magnetization_T,band_gap,sgr,num_sites,cell_volume,weight,mp_id,formula,URL,tsne_xrd_lin1_0,tsne_xrd_lin1_1,tsne_xrd_lin2_0,tsne_xrd_lin2_1
-6.5548759727777774,-235.97553502,6.077955438368983,-2.263634659236112,5.95527095,0.11928950181495282,0.3415999999999997,15,36,581.8040341647524,2129.5368,mp-867790,Ba5Ru2O11,https://materialsproject.org/materials/mp-867790,-21.413817781555995,13.187421230538394,-18.11637591425038,46.44401131413465
-5.3145508273529405,-180.69472813,5.737033805625756,-1.2642656815900732,1.00000015,0.022509385516500884,0.1166999999999998,39,34,517.7425439768757,1788.7604,mp-1202656,CuBi2Se3O11,https://materialsproject.org/materials/mp-1202656,6.809405733014763,26.91519372427343,33.4249581211623,-5.357680683558746
-6.93653280625,-55.49226245,6.253636462179098,-2.3160311471725006,1.0,0.09344672233633844,0.0,9,8,124.71346753729635,469.6744064,mp-753367,WO2F,https://materialsproject.org/materials/mp-753367,6.274602667937149,-34.550023737943604,48.6492820785565,-6.770213022137549
-3.7506256814285712,-26.25437977,3.1591085740860616,-0.4079112857142856,7.499999999999999e-06,4.458124749931016e-07,0.0,71,7,196.05886038866498,372.9940772,mp-7068,Sr3(AlSi)2,https://materialsproject.org/materials/mp-7068,-13.13987845493607,22.310745296131863,-17.865663849979782,37.43900524906474
-3.2392578383333333,-155.48437624,8.298899469267825,-0.08091646187500008,0.0,0.0,0.05959999999999965,5,48,1394.1113431952338,6967.369997,mp-1229219,Ag3Te32Au13,https://materialsproject.org/materials/mp-1229219,-25.53025776664501,-37.72485255875531,-35.193910749225076,-23.60567261058589
-3.80607303,-22.83643818,3.2268767151442366,-2.052631578333333,1.15e-06,6.514726346332421e-08,4.5304,58,6,205.72121952580002,399.772,mp-22888,CaBr2,https://materialsproject.org/materials/mp-22888,5.9681166785187125,-23.600465569133288,9.607807255806453,-11.128748558929127
-7.323740438571428,-51.26618307,6.276494104797076,-3.0394779960591123,0.0,0.0,1.8211,139,7,150.22975856328313,567.8374137999998,mp-2991,Cs2UO4,https://materialsproject.org/materials/mp-2991,-7.281709238346839,-26.70587572317544,18.32059486927771,-22.07025094555657
-5.991075774166667,-143.78581858,4.047742788822391,-2.157980348958333,7.9999993,0.4279050886120174,0.8843000000000001,3,24,217.8812837329129,531.1090999999999,mp-767678,Li8Cr3TeO12,https://materialsproject.org/materials/mp-767678,15.628544569717953,-28.61593926187452,49.81355035882223,-10.782582284394467
-2.274195345,-50.03229759,6.7388822617034565,-0.5573005659090907,1.395e-05,1.8537459614445363e-07,1.1909,128,22,877.0036831288432,3559.1000400000007,mp-27375,Tl4HgI6,https://materialsproject.org/materials/mp-27375,3.5269021409924504,27.44082176229427,31.527228833895865,-3.7953016375158053
-6.91429387,-179.77164062,3.1930233760639406,-2.4499859862068973,1.00000025,0.024802604696263997,1.9517,100,26,469.8727342871103,903.5106,mp-1179789,Rb2V3O8,https://materialsproject.org/materials/mp-1179789,8.98676865988959,-24.964854215202283,48.42115887527228,-11.088030430138119
-7.570771981999999,-37.85385991,6.426118296621536,-3.2688334412187503,0.0,0.0,2.2028,164,5,101.49466549561652,392.7741,mp-4764,Pr2SeO2,https://materialsproject.org/materials/mp-4764,-30.51027517970095,-16.342127862354335,-32.66277161174576,-19.485798533873574
-2.7894014988888887,-25.10461349,4.541991545986941,-0.9535015369348656,1.7e-06,5.730472982041028e-08,0.7008999999999999,12,9,345.7290554451764,945.6558438,mp-23099,Cs2Pd(IBr2)2,https://materialsproject.org/materials/mp-23099,6.969225864286059,21.366316639011046,23.009285068091327,-14.32449552550458
-3.919269163333333,-23.51561498,3.4575515042838068,-0.4908308616666665,0.0,0.0,1.0065,129,6,87.28785273366259,181.749564,mp-9562,LiBeAs,https://materialsproject.org/materials/mp-9562,-9.210877990580688,-25.055491207757214,-2.6078279957150605,-29.083893985286053
-6.3339393571428575,-177.350302,2.7564998996089973,-1.8243446208970409,1.9999995,0.05324522471032005,0.0,188,28,437.7504995968097,726.6671719999998,mp-1213892,CdP3NO9,https://materialsproject.org/materials/mp-1213892,27.13562611678443,-23.769247552886966,47.179765626563224,-27.94341866372499
-6.550067402500002,-78.60080883,3.497819075930674,-1.9486198200287368,1.0,0.053228923171095115,2.6065,164,12,218.9423358255761,461.18800000000005,mp-18868,RbFe(MoO4)2,https://materialsproject.org/materials/mp-18868,7.518070341630414,-21.344649279383358,45.45750497181598,-2.1646664352657345
-5.580446323975903,-463.17704489,8.37517349190593,-1.4681936100602409,3.9048537000000003,0.034629663342240456,0.0,75,83,1314.116672097718,6627.9412,mp-757768,Cu10Bi25O48,https://materialsproject.org/materials/mp-757768,-9.234713728849666,-23.19895688144755,1.6911890401966772,-29.10710593585743
-1.9090357225,-7.63614289,1.9385242031958447,0.01369871374999998,6.829999999999999e-05,4.470559524772092e-06,0.0,221,4,178.0476514304785,207.854,mp-1187151,SrCa3,https://materialsproject.org/materials/mp-1187151,-12.7718974471328,-25.666451639235692,-20.644639846482512,-11.675909210736561
-7.273141558750001,-174.55539741,5.364299419726165,-2.8597925516666667,0.0,0.0,3.9925,14,24,344.0066817401232,1111.29868,mp-4917,LaAsO4,https://materialsproject.org/materials/mp-4917,9.943071686714797,15.828498914537661,14.012714820648988,7.5763106606056825
-7.756979289166666,-93.08375147,6.705185511609446,-2.7805536216666678,0.0,0.0,2.4448000000000003,82,12,165.70662662577016,669.1162599999999,mp-1217362,ThV2PbO8,https://materialsproject.org/materials/mp-1217362,27.0620657596414,58.12032075247573,-8.317901650408714,31.55537464126014
-7.581944301818183,-166.80277464,3.6350351757955663,-2.7218919637500005,2.9999999,0.10857819987889664,2.3903,59,22,322.0001178069622,704.8806,mp-510725,SrV3O7,https://materialsproject.org/materials/mp-510725,20.141858888164393,58.47478760856986,35.3424033539802,-5.181983825015764
-5.28143340516129,-654.89774224,2.9860562093271215,-1.3796433690919752,0.999967175,0.008736861126213975,0.12369999999999998,14,124,1333.852290832226,2398.5933600000003,mp-765464,Fe2H11(SeO5)3,https://materialsproject.org/materials/mp-765464,43.631656574950895,-39.92361667231121,37.54054408990199,-55.98985798413796
-7.26398375953125,-464.89496061,4.120685177684687,-2.605524855684523,0.0004169125,5.6509306547294885e-06,2.458,33,64,859.8097510581433,2133.647696,mp-1208280,TiAgPO5,https://materialsproject.org/materials/mp-1208280,5.786753524974718,22.938870305355007,29.520572882809034,0.7382645513881199
-3.2652433841666664,-39.18292061,8.957259901693016,-0.07909275416666617,1.5e-07,5.213583469285098e-09,0.0,7,12,335.2990752296634,1808.6662760000002,mp-571547,Te2Au,https://materialsproject.org/materials/mp-571547,-26.06100478706959,-37.69187977102133,-35.28577166321471,-23.51965395274032
-5.828294588333333,-104.90930259,6.079609230355199,-2.441074593935186,2.65e-06,9.675950932396454e-08,0.919,46,18,319.17557109432653,1168.5739999999998,mp-20546,Ba2In2O5,https://materialsproject.org/materials/mp-20546,-21.176264934962283,13.784534126731607,-27.95705017735549,48.00825931403418
-4.999939548571429,-34.99957684,4.117948364663989,-0.01889405214285692,3.8e-06,2.8603961803272774e-07,0.4108000000000001,215,7,154.82277049698703,383.9429,mp-570744,Si3As4,https://materialsproject.org/materials/mp-570744,19.09237753381134,65.62442475393584,-8.617868528315903,38.86273965005263
-5.83240540125,-46.65924321,3.430117357851589,-3.1861410221425004,0.9999538,0.08956780712531287,0.0,148,8,130.10842543530114,268.7604192,mp-8096,ZrCuF6,https://materialsproject.org/materials/mp-8096,3.586636843683721,-38.19158109688156,2.4271358082180297,-33.287250171530054
-4.863853692142857,-68.09395169,3.121879073959537,-2.2541364153214287,0.0,0.0,1.9508,14,14,320.6685727129991,602.8696,mp-756334,K2Sr2O3,https://materialsproject.org/materials/mp-756334,6.893815604773509,22.727938360997285,2.8245701244387598,35.772481291430566
-5.841566806428572,-81.78193529,5.978944343030022,-2.884303754396192,0.0,0.0,2.0754999999999995,129,14,253.55109285520996,912.9372064,mp-19956,Ba2InO3F,https://materialsproject.org/materials/mp-19956,-19.98669123046725,14.578776043892931,-20.366003786747054,45.21869260916069
-7.1377960775,-171.30710586,3.229090709853838,-2.359351154541668,0.0,0.0,1.8435,11,24,312.4641143846688,607.61893856,mp-752972,NaV3O8,https://materialsproject.org/materials/mp-752972,34.35591434676855,-36.21835369911672,37.93158370965599,-50.30280055638605
-6.780800752432432,-501.77925568,5.334876624859937,-2.1624164491891893,0.0023803,2.0915422508690603e-05,2.9419999999999997,155,74,1326.3021756599692,4261.0612,mp-743697,MgZr3Tl10(MoO4)12,https://materialsproject.org/materials/mp-743697,11.4273896959741,-22.83269469375067,24.50801003315383,-13.562186950438836
-6.6655878330769225,-173.30528366,2.7510051538797238,-2.3832091340109893,4.00000055,0.16669430023618287,4.0615000000000006,2,26,279.6512264302113,463.29652400000003,mp-754987,Li3FePCO7,https://materialsproject.org/materials/mp-754987,39.92449441420906,-8.634661039136478,66.64306948572721,-20.541410925512487
-6.88408629125,-55.07269033,6.651390917633072,-1.7469588843025,4.6251279,0.31467896463769185,0.0,129,8,171.2905728860299,686.1148900000002,mp-510488,SmMnSbO,https://materialsproject.org/materials/mp-510488,-14.960048406989415,21.265849510105816,-15.088828208638315,41.859519703596376
-5.463983651666666,-131.13560764,4.730520440685461,-0.6463796574635415,12.7646352,0.24256062214849794,0.0,26,24,613.2895113033773,1747.1306,mp-1223659,KBa(Fe2Se3)2,https://materialsproject.org/materials/mp-1223659,-18.389158476466605,15.12659604875668,-14.504580147010904,10.007932747208672
-5.1999105922222215,-93.59839066,4.719367762112894,-1.8840201546955564,9.00000015,0.5233556263769801,0.2642,4,18,200.4116883719059,569.5839956,mp-754293,Co3(OF2)2,https://materialsproject.org/materials/mp-754293,46.57049935327426,55.96970268383096,70.37277013073566,25.386808281253966
-6.770066822647059,-230.18227197,2.1693843095672625,-1.5427071761447058,1.00000025,0.022313221147041838,0.4374,36,34,522.2942760830799,682.34289,mp-1201770,K2Mn(C2O5)2,https://materialsproject.org/materials/mp-1201770,38.27455038822405,-35.003905658648144,22.64113196424785,-44.5813600347072
-7.120985471,-142.41970942,2.3076683230784303,-2.774977200238,1.9e-06,8.149186460202505e-08,5.373100000000001,160,20,271.7169766086464,377.6079,mp-1189091,K3B6ClO10,https://materialsproject.org/materials/mp-1189091,4.042777011011285,27.695244125119533,18.695016164321192,-21.476223566820888
-5.3727362834375,-171.92756107,4.299392793374259,-1.8332770435637495,5.99999975,0.1496330178505312,3.6415,14,32,467.3058575326577,1209.9272512,mp-1197495,HfO3F4,https://materialsproject.org/materials/mp-1197495,41.84390960767132,-42.19948078432492,34.409344547463995,-63.925368796944504
-5.25702508,-336.44960512,4.592895502467038,-1.22831251296875,0.0,0.0,0.6358999999999999,14,64,2329.349828381949,6442.76352,mp-29426,Y5C2I9,https://materialsproject.org/materials/mp-29426,-0.5498438434188737,-12.668105914584705,0.667140879819316,1.4760819202279816
-5.947725131203702,-642.35431417,4.7009113603679715,-4.052625690830371,0.00012487777777777775,8.173922991261766e-07,6.8923999999999985,144,108,1780.4592879469806,5040.4001904,mp-1202279,KHoF4,https://materialsproject.org/materials/mp-1202279,15.41620145890692,-25.543071315229284,11.029717758899666,-24.320973106700126
-5.843730015151515,-385.68618100000003,5.426534027645496,-1.6227598974337119,0.0030636,3.3519402798612284e-05,2.4297000000000004,43,66,1065.1559949239909,3480.8608,mp-1203641,V2Pb4(Se2O7)3,https://materialsproject.org/materials/mp-1203641,-18.5163982058407,6.935230506374655,31.87694681039123,-4.670938153915405
-4.42013836125,-35.36110689,4.363477908457441,-2.7392092858925,0.0,0.0,3.8554,148,8,131.33353640238667,345.1114192,mp-13907,CdSnF6,https://materialsproject.org/materials/mp-13907,3.7049888594360336,-37.2960342020596,2.8041979935769388,-32.24485258307589
-7.824581909722222,-563.3698975,4.768378752840055,-2.902920539351852,0.0,0.0,3.5502,14,72,951.8168890005113,2733.22296,mp-558445,LaBMoO6,https://materialsproject.org/materials/mp-558445,22.25220597734417,-15.072491606917085,25.830048839385448,-13.765335432119675
-7.54135486625,-120.66167786,4.197457332665324,-2.4809967350520843,9.999998800000002,0.6148669539449201,1.8775,63,16,189.53796913788761,479.108,mp-20117,TiFe2O5,https://materialsproject.org/materials/mp-20117,17.84946555770345,3.3970596425662194,63.1126409260194,33.38358820646544
-3.8663695125,-30.9309561,2.9298957786349664,-1.1855660552762073,0.0,0.0,2.3707000000000003,63,8,173.33651772384135,305.8392,mp-549590,RbClO2,https://materialsproject.org/materials/mp-549590,-13.956299935043138,25.184007912820977,-19.87615273168451,38.301661936974405
-5.271270991111111,-284.64863352,4.507007387684483,-1.7650815989236108,4.666778833333333,0.03916683879571401,0.3849,174,54,1388.5966923842914,3768.906,mp-1228708,Ba3FeS5,https://materialsproject.org/materials/mp-1228708,2.9250509749406053,28.44015140873709,20.636973544454808,-16.187493960732557
-2.8965287366666668,-26.06875863,4.596838468966223,-0.3429071750000002,2.6666666666666667e-07,8.784555578879815e-09,2.035,164,9,353.774368903499,979.34682,mp-27922,GeI2,https://materialsproject.org/materials/mp-27922,-24.30040392237685,-37.24951955494257,-32.15988087907947,-21.843312806577984
-5.7674290092857134,-80.74400613,3.7609345351177206,-1.7151891018238916,3.9999995000000004,0.17321684507074767,0.5156000000000001,164,14,269.1207846682966,609.52836928,mp-12046,Rb3Na(RuO4)2,https://materialsproject.org/materials/mp-12046,1.7920047822551108,-14.81595554744456,26.540435706152824,-4.208293455946232
-7.1380118633333325,-342.62456944,4.594572045747072,-2.6253657660833327,0.000768375,1.177088105721486e-05,3.5569,60,48,760.7495119600119,2104.93,mp-1211601,KEr(MoO4)2,https://materialsproject.org/materials/mp-1211601,6.167714188358357,18.600020748575577,35.327896011919385,-2.7051955679910957
-4.786165725588235,-325.45926934,2.9282862719165057,-1.7462397564080885,0.0,0.0,1.6318,92,68,1216.9390812308914,2146.0176,mp-559613,K6Se2O9,https://materialsproject.org/materials/mp-559613,-15.538708033914038,16.330156778391043,-13.58283255855276,-8.710803552298705
-5.878062544464287,-329.17150249,5.969395929714512,-0.7965470761985713,0.00636015,5.4431315031591635e-05,1.0086,60,56,1361.7455323314489,4895.2768,mp-1246932,Ba7HfN6,https://materialsproject.org/materials/mp-1246932,9.641374599740267,26.74799894545198,33.66612107344234,-2.8854088346342768
-3.1319400825,-37.58328099,4.524976331332204,-0.8017702602011489,1.5e-07,4.766376539155357e-09,1.6383,63,12,366.75862712972616,999.4189037999998,mp-23017,CsCu2Br3,https://materialsproject.org/materials/mp-23017,8.727502508650597,-23.911956599546546,17.095414723125998,-12.944803362155357
-3.764200609166666,-90.34081462,4.0709598340230295,-0.9685776577812508,0.000343725,6.948068593847847e-06,1.5211999999999994,15,24,576.5333718056556,1413.42307712,mp-1191034,NaCdSbS3,https://materialsproject.org/materials/mp-1191034,-9.726093600292057,5.354611744004731,-23.075950552979673,-12.244687407801628
-7.524829609166668,-90.29795531,8.199791230159171,-2.4086460379166668,2.0000001,0.1450375942048512,1.8702,1,12,160.7040632348427,793.56145,mvc-16257,YBi(WO4)2,https://materialsproject.org/materials/mvc-16257,6.138729911809985,15.894340688076653,32.48531880490639,-2.1739481261814166
-6.851099609444443,-246.63958594,4.758007799669631,-0.5901205677244445,0.269609575,0.0059480794551442645,0.0,52,36,528.2457092322219,1513.6032,mp-1245598,Ca3(RuN2)2,https://materialsproject.org/materials/mp-1245598,-4.443245181775031,4.161073058434563,-14.939765048502009,25.05723973853168
-4.2854472975,-34.28357838,6.1002845781610535,-0.7025020645312505,0.0,0.0,0.7471000000000001,28,8,260.518255051878,957.06,mp-1078944,PbS,https://materialsproject.org/materials/mp-1078944,5.895015371168323,-23.488243491756727,18.171263286384423,-16.915700491533553
-5.02410763525,-200.96430541,7.874067211377857,-2.2070568557020005,0.0,0.0,2.7714,57,40,636.8269501241492,3019.7532768,mp-28946,Bi3NF6,https://materialsproject.org/materials/mp-28946,6.819631227059647,-33.265477139644105,21.14089731232589,-19.464333401392537
-4.521375933,-45.21375933,4.788240651527052,-3.0239847432887133,0.0,0.0,5.227,225,10,173.93872987375775,501.56032299999987,mp-1113016,Cs2LiInF6,https://materialsproject.org/materials/mp-1113016,-18.083244309659936,-49.554923963202725,-25.396231191520872,-8.553939337405119
-2.765706427,-27.65706427,5.197183866002568,-0.10302463741337924,0.0,0.0,0.44200000000000017,225,10,174.4398429941854,545.9648437999998,mp-989553,Cs2TlGaH6,https://materialsproject.org/materials/mp-989553,-18.2253431174606,-50.15748122019635,-24.73459409154614,-7.224510728757332
-7.8882690775,-31.55307631,8.803425371964213,-0.3561809031250007,1.6e-06,3.950836923505698e-07,0.0,38,4,47.19633838885432,250.21359500000003,mp-13501,ErCoC2,https://materialsproject.org/materials/mp-13501,-35.559022565135116,28.714706176760977,-55.629290244221885,33.620377595410645
-8.211426735,-197.07424164,7.250959338003902,-2.7300160475,7.140000000000001e-05,2.4771062045865555e-06,2.9872,52,24,335.9162490570907,1466.82192,mp-1205391,TaSbO4,https://materialsproject.org/materials/mp-1205391,7.204512476292147,27.53170228328505,34.16080457203575,-4.414959996562313
-7.430398766477272,-653.87509145,2.656272684155422,-2.2424560286780304,0.994841075,0.012002033231160482,0.13779999999999992,58,88,965.9981857367253,1545.254,mp-1199109,KCuB7O13,https://materialsproject.org/materials/mp-1199109,9.175631666069863,-24.510586842493524,20.064907682874747,-16.725291990456167
-6.7488873559375,-431.92879078,3.6735934018258285,-1.983748815405983,10.99999385,0.17525051612680034,0.0,33,64,731.4936563890321,1618.275876,mp-1222030,MnFe2P2O11,https://materialsproject.org/materials/mp-1222030,29.176410313943833,-12.780505550301836,54.9477294518579,-8.118001926835612
-7.15180345375,-171.64328289,5.387246578830728,-2.337072650136905,2.0,0.06878882046617679,0.40539999999999976,11,24,338.8360112466226,1099.27746256,mp-555944,NaP(WO4)2,https://materialsproject.org/materials/mp-555944,65.2245810172006,-28.683720686063946,45.495015600189426,-4.693322645311729
-7.50419054275,-300.16762171,7.223615405308321,-2.4723237600000005,0.0,0.0,0.7509999999999999,1,40,634.9884068938608,2762.30304,mp-757636,NbTlO3,https://materialsproject.org/materials/mp-757636,23.281209142622057,65.01717900720014,-8.150641933855232,38.71136308298061
-2.86474823875,-45.83597182,6.2413383357254375,-0.08346018874999972,2.1375e-06,6.247537023862812e-08,0.0903999999999998,61,16,398.7261436978935,1498.6608,mp-7373,CdAs,https://materialsproject.org/materials/mp-7373,-0.01131060528336525,-12.814165664600857,0.5236686762730718,-2.2814985377238663
-5.89788423875,-141.54922173,5.2673530673302755,-1.8528309000781256,0.99999235,0.022984133475803532,0.0,173,24,507.0443761228965,1608.3823899999998,mp-1191739,Sm3GaCoS7,https://materialsproject.org/materials/mp-1191739,7.56342848148895,-6.524572929008031,12.281566255641167,-11.822487238067719
-3.2042915588888885,-28.83862403,2.9769523558801834,-1.1177981820354408,0.0,0.0,0.193,143,9,312.8160900821217,560.805,mp-776922,Rb2O,https://materialsproject.org/materials/mp-776922,2.795971915607829,-22.946998351763806,-1.7481578164509233,-30.75666377675706
-6.45799949125,-154.99198779,5.727998228396418,-1.752860065416666,0.0,0.0,2.0463,14,24,374.77368877070546,1292.7748,mp-19146,CrPbO4,https://materialsproject.org/materials/mp-19146,10.29031467252249,-15.231657098983442,35.13756371492657,-11.533222522732
-7.603970942499998,-729.98121048,5.412677424970665,-3.333641208046876,0.0,0.0,3.8436,185,96,1394.0575474162324,4544.056860000001,mp-14385,Ba3Tm(BO3)3,https://materialsproject.org/materials/mp-14385,4.5814159667827665,-23.544053420018603,19.911276027052708,-18.39992153369089