energy_per_atom,energy,density,formation_energy_per_atom,total_magnetization_uB,total_magnetization_T,band_gap,sgr,num_sites,cell_volume,weight,mp_id,formula,URL,tsne_xrd_lin1_0,tsne_xrd_lin1_1,tsne_xrd_lin2_0,tsne_xrd_lin2_1
-5.799468067083333,-139.18723361,4.024655476493456,-1.8520692302883328,17.482870000000002,0.9365881883138752,0.0,6,24,217.5411797121233,527.2554749999998,mp-1175124,Li7Mn2(CoO4)3,https://materialsproject.org/materials/mp-1175124,16.81595041491991,-76.6663023836686,-13.935370982140993,-80.12461234090145
-6.375826690416668,-153.01984057,3.8583957515202765,-2.1481272574916668,17.999889800000002,0.9459541245954824,0.35089999999999977,2,24,221.7569289819853,515.270025,mp-1175343,Li7Mn5O12,https://materialsproject.org/materials/mp-1175343,2.2630432124335624,-78.1952153694999,-28.664134523609963,-78.85183943874026
-7.492756360833333,-89.91307633,4.001210433464902,-2.1474525099622226,9.000001,0.7418572082558542,1.4429,166,12,141.38380464577,340.676335,mp-756589,TiMn3O8,https://materialsproject.org/materials/mp-756589,19.803597956303914,-69.30834014123704,-10.129902003050605,-72.0067015720812
-6.619214995625,-105.90743993,4.023483352496168,-2.1594144602400003,3.9999952000000003,0.30079243743399425,1.214,141,16,154.97797600365962,375.51138,mp-556415,LiMnO2,https://materialsproject.org/materials/mp-556415,6.06933115442768,-77.63693742859721,-29.711274983751963,-76.01000107690912
-5.17334029875,-82.77344478,4.521127091401882,-1.547539521250001,4.0000004,0.3273834804622976,0.0,2,16,142.3903969926581,387.6844,mp-765712,Li4FeNi3O8,https://materialsproject.org/materials/mp-765712,21.98691279579203,-75.32860405954811,-11.272742523204654,-82.6101742973068
-5.781381991071428,-161.87869575,4.064372902211584,-1.8408687962292865,10.99999945,0.5019324449343693,0.1214000000000004,2,28,255.40231037502116,625.12847,mp-1174541,Li4MnCo2O7,https://materialsproject.org/materials/mp-1174541,13.522350699605925,-82.58267107071174,-13.730420864764492,-87.9218221153364
-5.7913085509375,-185.32187363,4.1435778915447,-1.8559595875599992,25.999999300000002,1.0457743924735805,0.7964000000000002,2,32,289.7428719898222,723.001465,mp-1175731,Li9Mn2Co5O16,https://materialsproject.org/materials/mp-1175731,4.515776705354714,-70.27081520118173,-21.349878837120933,-74.41234285981541
-5.794008498125,-185.40827194,4.175744565277866,-1.858659534747499,24.000000399999998,0.9728241275527992,0.6629,1,32,287.51091927238224,723.001465,mp-1175864,Li9Mn2Co5O16,https://materialsproject.org/materials/mp-1175864,16.238844314060486,-75.42200822727311,-11.073776888944554,-82.92750327456505
-5.7328496453125,-183.45118865,3.7522080512453617,-1.9496198084375005,13.00000095,0.5183287200012057,0.0,4,32,292.29106408436166,660.4704,mp-1177185,Li5Fe3O8,https://materialsproject.org/materials/mp-1177185,10.619634656618103,-63.88574909212932,-0.6817845730288036,-68.60178685496649
-5.489631875357143,-153.70969251,4.164907610705301,-1.7092904497321435,10.99999985,0.507856714876064,0.6307999999999998,2,28,252.42299056995083,633.11877,mp-1174237,Li4Co3O7,https://materialsproject.org/materials/mp-1174237,13.037095704992886,-78.10267237499593,-13.59294439543808,-87.9397675972928
-7.74115338125,-433.50458935,3.7873090972914016,-2.987250293392857,3.000047075,0.05788281640000961,2.3154000000000003,212,56,604.0262915190914,1377.64558,mp-1177906,Li2Ti3CoO8,https://materialsproject.org/materials/mp-1177906,-0.46763363200342895,-66.14466311353608,-16.595256060993755,-65.2244409357046
-5.7661525840625,-184.51688269,4.125204853476156,-1.830803620684999,25.872239,1.0360213236185538,0.0,1,32,291.0333428891456,723.001465,mp-1176169,Li9Mn2Co5O16,https://materialsproject.org/materials/mp-1176169,2.449697290271776,-74.62939681945562,-26.23044138860104,-77.4403191238698
-6.398606873125,-102.37770997,4.231096396813832,-2.1530706112499995,9.999999699999998,0.8016084993015359,0.0,166,16,145.3834937265793,370.4409,mp-754314,Li4Cr3NiO8,https://materialsproject.org/materials/mp-754314,15.565422884976899,-68.87446844608534,-10.71110663331333,-70.55230758931933
-5.79534897,-185.45116704,4.163281448140118,-1.8600000066224995,25.9999999,1.0507472868998504,0.8342999999999998,1,32,288.3716062833154,723.001465,mp-1175902,Li9Mn2Co5O16,https://materialsproject.org/materials/mp-1175902,6.785109204286784,-71.83734863005512,-21.16551862990203,-75.28904291353199
-5.772016236875,-184.70451958,4.144220678594307,-1.8366672734975,21.9999998,0.8850233112299355,0.0,8,32,289.69793158237894,723.001465,mp-1100649,Li9Mn2Co5O16,https://materialsproject.org/materials/mp-1100649,2.4023784569659603,-74.71851094880624,-24.016050095391613,-76.66795993214863
-5.9862579775,-23.94503191,3.791187542306847,-1.6314084990300008,5.0,1.497296029369836,2.1214000000000004,156,4,38.91703625723404,88.85173999999998,mp-755285,FeHO2,https://materialsproject.org/materials/mp-755285,22.977701775618804,-77.7355621387056,-5.053829842427264,-56.38187232075947
-6.6100091259375,-211.52029203,4.209523869623236,-2.2324369646875004,8.00000015,0.3214805266384793,2.3082,2,32,290.00985192932643,735.185,mp-768805,Li4Cr3FeO8,https://materialsproject.org/materials/mp-768805,14.959418584661448,-69.29352919074611,-11.275828241997829,-70.3291738871756
-5.827526551785715,-163.17074345,4.143170037320553,-1.8870133569435723,9.99999975,0.4651486932101964,0.7896999999999998,1,28,250.54492576939717,625.12847,mp-1174612,Li4MnCo2O7,https://materialsproject.org/materials/mp-1174612,15.47784482634158,-75.52029636021247,-10.897713667378886,-82.39057363801555
-6.910111851875,-110.56178963,3.9949873987812343,-2.44229744375,5.00000025,0.3876537963157495,1.725,13,16,150.31537761299947,361.6344,mp-753811,Li2VCrO4,https://materialsproject.org/materials/mp-753811,2.6915945402858963,-66.86650993096481,-11.369205806054456,-64.92987444389972
-6.1011975750000005,-134.22634665,4.400926136263895,-1.8039131215909092,1.99999985,0.11041203941007098,0.0,64,22,211.10132483327422,559.48178,mp-757009,Li2Cr(CoO3)2,https://materialsproject.org/materials/mp-757009,9.348010284003443,-65.00894041517616,-3.2646524475304077,-68.11621188325465
-5.477828914642856,-153.37920961,4.222360405491485,-1.6974874890178582,10.6522691,0.4985865714402426,0.0,12,28,248.9883225445334,633.11877,mp-1174390,Li4Co3O7,https://materialsproject.org/materials/mp-1174390,16.548140742419385,-73.24365769605714,-10.211286882882245,-79.23876629278921
-5.78518517,-185.12592544,4.182789030193551,-1.8498362066224996,24.000000699999998,0.974465290270614,0.29499999999999993,1,32,287.0267063299961,723.001465,mp-1175996,Li9Mn2Co5O16,https://materialsproject.org/materials/mp-1175996,15.939329978178485,-76.25167969306638,-10.953582427354537,-83.29909761716462
-5.7480903975,-321.89306226,4.783405041328497,-1.564430098214286,0.5,0.011113018646075636,0.6284000000000001,4,56,524.3428965484153,1510.43992,mp-774082,Li(CoO2)2,https://materialsproject.org/materials/mp-774082,25.881899819105172,-69.34157346958854,-14.642572836584478,-72.24495578437605
-5.411901263333332,-81.17851895,4.514072629266006,-1.4557336119999993,10.3094646,0.8392678222262794,0.0,166,15,143.15712462334542,389.163785,mp-769624,Li3Co3CuO8,https://materialsproject.org/materials/mp-769624,6.200676389078915,-70.97175124763214,-19.642951357210823,-72.38237651711039
-6.183946073333334,-148.41470576,3.9456198038885133,-2.0496801724516662,16.0000003,0.8532462050476054,0.0,2,24,218.5360318675792,519.265175,mp-1175204,Li7Mn4CoO12,https://materialsproject.org/materials/mp-1175204,1.8680585864266102,-73.46287539133115,-21.438137662945465,-77.23702372345468
-5.89397230625,-94.3035569,4.435564200810094,-1.899026505625,4.0000002,0.33016930517695003,0.0,74,16,141.18896181481296,377.1382,mp-762507,Li2CrNiO4,https://materialsproject.org/materials/mp-762507,18.808576688689804,-67.28531720520331,-15.266702511361576,-71.34276628917947
-5.841894646875,-93.47031435,4.414981164626934,-1.8025450056849996,14.0000001,1.1194819017891309,0.0,12,16,145.7432297212563,387.49683,mp-1174166,Li4MnCo3O8,https://materialsproject.org/materials/mp-1174166,5.568273367285151,-69.34559770255295,-20.988018000935842,-73.80290871293488
-6.6441004453333345,-99.66150668,4.220174991115239,-2.1346107519999995,8.0000004,0.6514155282804197,0.5210999999999997,12,15,143.12296651603452,363.73969500000004,mp-763184,Li3Cr3CoO8,https://materialsproject.org/materials/mp-763184,-2.4592597808454513,-75.81433895580867,-7.628149840400157,-68.12224576928939
-5.519476457222222,-99.35057623,4.510903332833002,-1.4939582245000007,2.0,0.12091994126867335,0.3054000000000001,8,18,192.7567058052964,523.62928284,mp-867705,Na3(CoO2)5,https://materialsproject.org/materials/mp-867705,9.242588368568297,-53.54016797818435,-3.5349628095895933,-59.454672553919146
-6.3958165021875,-204.66612807,4.233157113855956,-2.1502802403125,9.9999994,0.4009994456875236,0.0,2,32,290.62544097373063,740.8818,mp-756061,Li4Cr3NiO8,https://materialsproject.org/materials/mp-756061,14.980555855671776,-68.89264281683063,-10.511537533967834,-70.31709062653931
-5.7938938171875,-185.40460215,4.155471913053762,-1.858544853809999,25.9999991,1.0487762498091773,0.7709999999999999,2,32,288.91355391869814,723.001465,mp-1175535,Li9Mn2Co5O16,https://materialsproject.org/materials/mp-1175535,16.332328784869812,-74.55991533539303,-12.285186113994053,-79.70024164630118
-6.5226745841666665,-78.27209501,4.126249688791319,-2.263273407708334,2e-07,2.086117143427394e-08,0.0,12,12,111.72972533472021,277.635595,mp-756859,Li3V2CoO6,https://materialsproject.org/materials/mp-756859,2.909562301879654,-65.1468766004256,-11.564348302095857,-64.41218597506139
-5.7721845546875,-184.70990575,4.172984834216159,-1.836835591309999,23.2920223,0.9435027348193116,0.0,8,32,287.7010596265935,723.001465,mp-1100676,Li9Mn2Co5O16,https://materialsproject.org/materials/mp-1100676,12.449926520198984,-72.08198574868716,-14.291079371783152,-80.43041397690129
-5.7696435515625,-184.62859365,4.15066591141388,-1.8342945881849992,24.0,0.9669815319433606,0.21289999999999987,1,32,289.2480831348653,723.001465,mp-1176173,Li9Mn2Co5O16,https://materialsproject.org/materials/mp-1176173,6.861114297552088,-72.3583867115215,-13.012779336685819,-87.01729206259066
-5.782242215357143,-161.90278203,4.083753151353228,-1.8417290205150008,10.99999085,0.5043254274492559,0.0,8,28,254.1902487682174,625.12847,mp-1174318,Li4MnCo2O7,https://materialsproject.org/materials/mp-1174318,5.375767897026869,-72.57311576986244,-23.93187586787537,-75.66568832783106
-4.781825694358973,-186.49120208,4.610192824331632,-1.0847541203205129,4.0000004,0.12453263186678527,0.33770000000000033,1,39,374.3297082304573,1039.2602,mp-758747,Li6(NiO2)11,https://materialsproject.org/materials/mp-758747,24.832870769025675,-73.13854536308038,-4.4945015919968485,-71.57169896003926
-5.4879759903571435,-153.66332773,4.156232841627537,-1.7076345647321425,11.0,0.5067989456877199,0.12760000000000016,12,28,252.9498405411992,633.11877,mp-1174408,Li4Co3O7,https://materialsproject.org/materials/mp-1174408,11.616501076967525,-79.63671637559801,-14.80943342723021,-85.1404874780438
-5.76276663375,-184.40853228,4.112139010800274,-1.8274176703724996,21.999994100000002,0.8781718501272142,0.0,6,32,291.9580674331452,723.001465,mp-1100564,Li9Mn2Co5O16,https://materialsproject.org/materials/mp-1100564,2.4802558356645465,-76.21277245104402,-27.015860506071,-79.39143408500723
-5.795821145625,-185.46627666,4.172624356155716,-1.8604721822474997,23.9999998,0.9720971874465918,0.7970000000000002,1,32,287.72591446880057,723.001465,mp-1175872,Li9Mn2Co5O16,https://materialsproject.org/materials/mp-1175872,16.044925866252232,-75.47169185315481,-9.684423900719867,-81.55735157302338
-5.680257818333334,-68.16309382,4.322490693962126,-1.8343972085416669,8.5138041,0.899285078380063,0.0,12,12,110.3325595271925,287.2028,mp-757135,Li3Fe2NiO6,https://materialsproject.org/materials/mp-757135,3.1819779507542347,-67.91082700564607,-11.729402709563336,-64.191794322129
-5.784422708125,-185.10152666,4.1546770773692865,-1.849073744747499,23.5186875,0.9485047609506544,0.0,1,32,288.9688262775618,723.001465,mp-1176249,Li9Mn2Co5O16,https://materialsproject.org/materials/mp-1176249,5.529871645329785,-71.93802013964229,-22.64636043831943,-76.71908466942902
-6.5651988912121215,-216.65156341,4.014380650230975,-2.032647478886666,11.999997500000001,0.4089106096293011,0.0,2,33,342.0032272147073,826.7984700000002,mp-758874,Li2Mn2FeO6,https://materialsproject.org/materials/mp-758874,5.513788830321191,-64.66510602786396,-7.097284696740515,-65.92597314431057
-6.5967584625,-131.93516925,3.5947095080871923,-2.606256969375001,2.9999997000000005,0.20919001208446628,2.9729,2,20,167.13126249709615,361.8032,mp-762413,Li3CrSiO5,https://materialsproject.org/materials/mp-762413,17.87347399890713,-71.85777771235536,-13.783737176395205,-75.14615117357191
-6.899129843095237,-289.76345341,4.0123752319476536,-2.074782466940952,7.0000000333333325,0.1816949925564038,0.2604000000000002,1,42,448.98570207465775,1084.88814,mp-1097867,LiMn2O4,https://materialsproject.org/materials/mp-1097867,-1.372115148478429,-70.38104939697044,-16.3167829089193,-65.71998857853269
-5.954342735625,-95.26948377,3.8233074658715327,-1.982844151995,10.000000199999999,0.8094156772921373,0.1029,1,16,143.98121178760863,331.5094850000001,mp-1174406,Li5Mn2CoO8,https://materialsproject.org/materials/mp-1174406,18.332560777708565,-82.95465533080744,-8.956605140487948,-87.53599436638633
-5.77660556125,-184.85137796,4.1442314665011,-1.8412565978724995,24.000004999999998,0.9654826990674508,0.0,12,32,289.6971774656484,723.001465,mp-1176306,Li9Mn2Co5O16,https://materialsproject.org/materials/mp-1176306,11.941052432051599,-72.94733482454784,-13.638813954400895,-81.65400143554614
-5.7903254484375,-185.29041435,4.186076048965844,-1.854976485059999,24.0000008,0.9752310718282191,0.6263999999999998,3,32,286.8013252903733,723.001465,mp-1176302,Li9Mn2Co5O16,https://materialsproject.org/materials/mp-1176302,14.27911137117505,-73.95823524070252,-12.98845479455616,-78.19357307132083
-6.300334514375,-100.80535223,4.129545713659996,-2.159871476875,18.0000009,1.3900672210403893,1.7068000000000003,2,16,150.90865622867432,375.2903,mp-768657,Li4CrFe3O8,https://materialsproject.org/materials/mp-768657,2.706561028475101,-65.93722563562027,-11.771167490314411,-64.73261538786751
-5.7989041515625,-185.56493285,4.158459423260377,-1.863555188184999,26.0000008,1.0495303193776473,0.8527,1,32,288.7059933527988,723.001465,mp-1175878,Li9Mn2Co5O16,https://materialsproject.org/materials/mp-1175878,6.629289783974954,-71.89443495346147,-21.74343749064009,-75.9134759624874
-6.2128499449999985,-149.10839868,3.9632192278900473,-2.0785840441183328,15.9999997,0.8570520747655822,0.4717000000000002,1,24,217.5655813163242,519.265175,mp-1175206,Li7Mn4CoO12,https://materialsproject.org/materials/mp-1175206,14.844518452882786,-81.48569360224664,-16.388716069763532,-85.30542856537802
-6.62986939,-39.77921634,4.8042295508169435,-1.8779683743266653,4.0000003,0.5603300045520729,1.3238,10,6,83.19430015839181,240.695645,mp-755527,MnSbO4,https://materialsproject.org/materials/mp-755527,4.086429810353375,-62.058596118328374,-8.719698121914217,-59.982078755103245
-6.437885015625,-206.01232050000002,3.936073884418784,-2.1521603070849995,26.0000382,1.0216316864494206,0.8544,12,32,296.5903791853736,703.025715,mp-1100505,Li9Mn7O16,https://materialsproject.org/materials/mp-1100505,11.127214848837639,-83.13117219661343,-19.40095496019698,-86.60323753602472
-6.242973195,-99.88757112,3.8258433428250282,-2.131324313305001,10.0000015,0.8198327661596786,0.0,166,16,142.15175340283423,327.514335,mp-1174492,Li5Mn3O8,https://materialsproject.org/materials/mp-1174492,18.353415230745185,-70.99796774859848,-11.444581358131485,-75.4141340498411
-7.108648344166667,-170.60756026,4.114499558676807,-1.7921841490299997,22.9999946,0.9590035002332451,0.9599,10,24,279.5020318192068,692.552815,mp-769632,Mn7CrO16,https://materialsproject.org/materials/mp-769632,20.846250508771686,-68.38314268097315,-15.56878457800715,-69.79557306795553
-6.441316215833332,-154.59158918,4.162724114782924,-2.182298616458333,6.666666566666668,0.3495691783608645,1.9891,5,24,222.25576164723327,557.1621,mp-863081,Li2CrFeO4,https://materialsproject.org/materials/mp-863081,2.563464842590455,-67.42034898564994,-11.087857012956247,-65.84972112599091
-5.8776199275000005,-117.55239855,3.9403853889347165,-1.920581191971,7.00000005,0.4508382549880569,0.0,1,20,180.94838467685528,429.38248,mp-1174144,Li3MnCoO5,https://materialsproject.org/materials/mp-1174144,14.185413865605232,-80.47020713340429,-14.714851239676488,-84.95540816023224
-4.8907713600000005,-63.58002768,4.6244085285766365,-1.054411174615385,1.9995866000000002,0.16766058306229806,0.7629000000000001,166,13,138.9909979382783,387.0738,mp-756552,Mg(NiO2)4,https://materialsproject.org/materials/mp-756552,8.092559641120692,-67.15867022087961,-4.920979033705519,-68.52750858787157
-5.614267487199999,-280.71337436,4.275423072590855,-1.5487541284999995,32.9999994,0.7652522777120425,0.33929999999999993,1,50,502.5586224347659,1293.947735,mp-777406,Li8MgCo13O28,https://materialsproject.org/materials/mp-777406,7.010184004505246,-67.75971687299594,-6.431361228151642,-68.62817904180982
-5.844584398333333,-140.27002556,4.060726359432041,-1.8971855615383328,17.3531388,0.9379701207639312,0.0,6,24,215.60879084048912,527.2554749999998,mp-1175110,Li7Mn2(CoO4)3,https://materialsproject.org/materials/mp-1175110,5.77844604547192,-71.02428246303049,-21.25521217253639,-75.22530319739863
-5.7564469803125,-184.20630337,4.136688744985361,-1.8210980169349995,25.8440355,1.0377729187723768,0.0,6,32,290.22540312346905,723.001465,mp-1100569,Li9Mn2Co5O16,https://materialsproject.org/materials/mp-1100569,4.779754965553464,-73.25511746808256,-22.851275238029512,-75.86866713074994
-6.1383495804166675,-147.32038993,3.325283799585763,-2.6239277210316665,1.99999995,0.10074902446008356,1.1983,8,24,231.34843327094205,463.28281280000004,mp-763198,Li2VO2F,https://materialsproject.org/materials/mp-763198,12.067087682309944,-61.9741527441209,-0.643060130531845,-75.39826565534621
-6.445998277857143,-90.24397589,4.206206334485044,-1.8630156759200005,8.0000005,0.6378649122209697,0.0,166,14,146.1634308789386,370.237335,mp-756596,Li2Mn3CuO8,https://materialsproject.org/materials/mp-756596,15.452420767076758,-68.2979326566303,-14.85215698671519,-68.74047142063189
-5.871653139166668,-140.91967534,4.097439226298585,-1.924254302371666,15.999999800000003,0.8726492844537991,0.8586,1,24,213.67694599881858,527.2554749999998,mp-1174937,Li7Mn2(CoO4)3,https://materialsproject.org/materials/mp-1174937,19.769133224896287,-82.29658282797281,-11.893614096095845,-80.87702367930885
-5.7818178446875,-185.01817103,4.170809238011673,-1.846468881309999,19.9999997,0.8097285937558921,0.0,10,32,287.8511315425291,723.001465,mp-1100735,Li9Mn2Co5O16,https://materialsproject.org/materials/mp-1100735,3.8806183016145472,-72.37509927235944,-22.6367795431996,-77.6092537893847
-6.393546811785713,-179.01931073,3.931361962208236,-2.132690078509285,10.99978875,0.4982335665299802,0.4687999999999999,2,28,257.2934848002853,609.14787,mp-1174326,Li4Mn3O7,https://materialsproject.org/materials/mp-1174326,10.815737369700859,-81.85678840260285,-17.452725296849323,-86.29531898032477
-5.8134406883333325,-139.52257652,3.994420904564096,-1.866041851538333,18.0000005,0.9570476957840218,0.11829999999999966,1,24,219.1877924759631,527.2554749999998,mp-1174781,Li7Mn2(CoO4)3,https://materialsproject.org/materials/mp-1174781,12.770333851459403,-83.7107756762956,-17.156701031710007,-87.00430105438288
-6.232502528125,-99.72004045,3.7491540014852074,-2.1208536464300005,9.9999992,0.8033989668224334,0.8988,10,16,145.05948254238027,327.514335,mp-1174683,Li5Mn3O8,https://materialsproject.org/materials/mp-1174683,18.44534483325839,-77.3297570502845,-14.721652208321231,-78.57156448164065