energy_per_atom,energy,density,formation_energy_per_atom,total_magnetization_uB,total_magnetization_T,band_gap,sgr,num_sites,cell_volume,weight,mp_id,formula,URL,tsne_xrd_lin1_0,tsne_xrd_lin1_1,tsne_xrd_lin2_0,tsne_xrd_lin2_1
-5.773478850625,-184.75132322,4.144982596384115,-1.838129887247499,21.9999999,0.8851860273910892,0.0,6,32,289.64468021096525,723.001465,mp-1100601,Li9Mn2Co5O16,https://materialsproject.org/materials/mp-1100601,-2.05946395951855,-75.96700358049941,-19.928043918222848,-76.88794672872164
-6.6148067086363636,-145.52574759,3.8358105972281367,-2.1416393025000007,2.99999965,0.14917536729962935,1.1452,64,22,234.36972786889382,541.38919,mp-756363,Li2V2CoO6,https://materialsproject.org/materials/mp-756363,6.4219684094950615,-57.45189340809686,-5.714971406460525,-62.568124644811924
-1.345578165,-8.07346899,6.150189347516237,-0.01749998416666661,1.2e-06,1.4742057878086944e-07,0.0,189,6,94.86380967109885,351.35,mp-1094462,MgZn5,https://materialsproject.org/materials/mp-1094462,-51.67013181325653,-35.61331926977879,-60.20131192632166,-27.45049327743281
-6.681822645833333,-80.18187175,4.455254608875743,-1.7327448135733334,10.9999995,0.8181278557028143,0.6674000000000002,12,12,156.69275380068598,420.40933499999994,mp-772541,Mn3TeO8,https://materialsproject.org/materials/mp-772541,21.774805989590174,-66.52348723955078,-7.258986680574057,-66.64322788030829
-6.9687554771428575,-390.25030672,4.045316068485321,-2.1366239179014284,53.000001600000004,1.0466245520237871,0.10939999999999994,12,56,590.1499734530681,1437.691685,mp-775158,Li8Mn13Cr3O32,https://materialsproject.org/materials/mp-775158,10.910132062735297,-69.7222435437298,-16.739084537479993,-67.61573532503671
-4.8114617175,-153.96677496,3.1452179526320534,-1.1187130221737505,0.0,0.0,5.7623,161,32,486.6196346831018,921.7036,mp-768166,Dy(ClO4)3,https://materialsproject.org/materials/mp-768166,33.46256257089303,-39.54763853129329,25.86785934227015,-65.76762022298773
-10.211214993333334,-61.26728996,17.60785725215093,-0.2634530866666663,9.5e-07,9.58349096825403e-08,0.0,227,6,115.52535052838628,1224.99612,mp-1828,ThOs2,https://materialsproject.org/materials/mp-1828,-73.46966164881542,-6.354632292781488,-76.5494390487767,-9.310627880006685
-5.642246090833333,-67.70695309,4.770283023496024,-1.44885389,0.0,0.0,0.03690000000000016,227,12,214.09420689377248,615.0352,mvc-4245,SbO2,https://materialsproject.org/materials/mvc-4245,3.4939417625741136,-52.38552632043139,-9.939799216664223,-55.16738799864792
-5.583331640000001,-72.58331132,4.256823193498927,-1.2246184446153845,9.0000001,0.7253877556678974,0.0,12,13,144.5938166158731,370.66898,mvc-16812,Li(CoO2)4,https://materialsproject.org/materials/mvc-16812,7.79010433014457,-59.95162733587237,-5.3905626968742375,-64.60191718092346
-6.215726859722222,-447.53233389999997,3.6701074300967127,-2.210037921551667,31.0014696,0.5756768148852182,1.1079,1,72,627.5971611519165,1387.109215,mp-768759,Li24Mn7Cr5O36,https://materialsproject.org/materials/mp-768759,-12.179131599704752,-69.13639940887191,3.1603665832835826,-81.28767919309881
-8.021555158,-40.10777579,4.9124042699150205,0.11198779266666606,0.0036290999999999997,0.0005161450145135858,0.0,69,5,81.94163515451942,242.4095,mp-1217117,Ti4V,https://materialsproject.org/materials/mp-1217117,-37.647869375374775,-57.13769385586693,-49.853578670683014,-41.45841609367326
-7.869425876666668,-47.21655526,9.94110388935198,-0.09751931166666712,9.84e-05,1.0006301940866943e-05,0.0,227,6,114.60377474083286,686.0953,mp-2665,PrRu2,https://materialsproject.org/materials/mp-2665,-73.3568185028046,-6.6123323510616885,-76.4128386515591,-9.437752627301148
-8.305676250243902,-1021.59817878,3.6186255183446576,-3.287643175121952,0.5948543666666667,0.005070733164010059,0.0,156,123,1367.153643298978,2979.2838,mp-685809,Li5Ti12O24,https://materialsproject.org/materials/mp-685809,-0.17566221179695035,-66.02281501097195,-15.371862614514212,-65.40623434770407
-6.261316396666667,-75.13579676,4.160256487882099,-1.9883829253683332,11.9932007,1.2259753116717107,0.0,12,12,114.00681274529244,285.628685,mp-1173948,Li3Mn2CoO6,https://materialsproject.org/materials/mp-1173948,5.443368692768527,-78.32128069245901,-29.6380281828766,-76.65751657211476
-3.6079666375,-14.43186655,6.673768880717793,0.06154782819000015,0.0,0.0,0.5918000000000001,186,4,32.12407845453838,129.10788,mp-24093,CuH,https://materialsproject.org/materials/mp-24093,-50.59174952324602,-35.8179160926627,-60.68282926144978,-27.696607680461348
-8.047305561666667,-337.98683359,3.5047285358423337,-3.245920465793652,0.5855159000000001,0.015015962560072631,0.0,12,42,454.42576169626363,959.1096,mp-766393,Li7Ti11O24,https://materialsproject.org/materials/mp-766393,-0.7912650937304834,-66.35277660623957,-16.77532252114953,-65.38133608762385
-4.998033583636363,-54.97836942,2.6923506190974504,0.5818308853977272,0.0,0.0,0.15300000000000002,2,11,365.77955891932663,593.0645400000001,mp-1102535,PtC4S2(IO)2,https://materialsproject.org/materials/mp-1102535,43.02441081896677,-39.06157948517748,28.142560237733317,-61.72246921167055
-6.361078983333332,-152.6658956,3.847434940575513,-2.1333795504083333,18.0000002,0.9432726728720806,0.5880999999999998,2,24,222.38868385550614,515.270025,mp-1175344,Li7Mn5O12,https://materialsproject.org/materials/mp-1175344,3.5886385238992613,-78.23691313715909,-28.576028988784326,-77.71210161725222
-6.633649373137255,-338.31611803,4.188001449309704,-1.6187587606617648,0.0049613,6.44962183462783e-05,0.0,2,51,896.4759956261348,2260.9783199999997,mp-767218,Li9(NbS2)14,https://materialsproject.org/materials/mp-767218,4.419005668810566,-52.15746059245243,-10.058065442519387,-53.29651891989211
-6.557942889642857,-183.62240091,3.5801280753558697,-2.098087049880953,2.000076325,0.0913086849773631,0.06669999999999998,62,28,255.2771299618633,550.3784,mp-776554,LiFeBO4,https://materialsproject.org/materials/mp-776554,28.0312244722442,-36.29462115807391,32.29587221068799,-55.27643757788408
-6.254303465833334,-450.30984954,3.582467299528864,-2.2365057984161103,24.9999988,0.458988692628251,0.9977,1,72,634.7685901820007,1369.457545,mp-770985,Li24MnCr11O36,https://materialsproject.org/materials/mp-770985,-10.975829899184024,-68.7480309187939,2.871648544845184,-81.29181534542306
-7.974604827272728,-350.88261239999997,5.102702575866363,-2.6678128537727286,0.0001471,3.1305009651598986e-06,0.0,163,44,547.616163394464,1682.7803142399996,mp-867955,Na2Nb3O6,https://materialsproject.org/materials/mp-867955,5.9768745615246175,-75.62887296101728,-19.75412366242045,-50.85573248117551
-4.4378325775,-17.75133031,4.927866928733262,-1.409954155125,8.599999999999999e-06,6.688971671959078e-07,1.2715,166,4,149.8361212444174,444.6583,mp-9036,KSmTe2,https://materialsproject.org/materials/mp-9036,-4.844401962619198,-31.51582318244072,-6.430063373596278,-29.29285408383633
-7.567497692500001,-90.80997231,6.4030297007002375,-3.1592612452083335,0.0,0.0,4.699,12,12,124.67351232462887,480.7404,mp-756597,Li2HfO3,https://materialsproject.org/materials/mp-756597,1.994585787417377,-59.515744319993274,-9.447625538680168,-58.71110919622151
-6.22860070875,-448.45925103,3.6475104029832064,-2.2188755274972216,29.0001674,0.5374781930633107,1.0677000000000003,1,72,628.8065890979577,1381.225325,mp-768726,Li24Mn5Cr7O36,https://materialsproject.org/materials/mp-768726,-12.138557073222096,-69.12311593275733,3.0928696113425516,-81.10358900957895
-6.3385114675,-50.70809174,7.666196238575362,-0.5446578424999995,6.9810739,0.5125338149349424,0.0,194,8,158.73662389076304,732.8380000000001,mp-865386,GdGa3,https://materialsproject.org/materials/mp-865386,-73.53361887664178,2.8866568556901204,-70.15975451782136,15.553646599070952
-6.773412762727273,-74.50754039,4.0105251966832896,-2.081627874125454,10.999999,1.1271335436713377,0.8069999999999999,12,11,113.7351483893663,274.692535,mp-762412,Li2Mn3O6,https://materialsproject.org/materials/mp-762412,4.920866186440364,-77.71670571622367,-28.545519388318855,-75.8578582802037
-10.8181075875,-43.27243035,11.857928569180288,-0.2620821375000002,9.699999999999999e-06,1.713677069949861e-06,0.0,225,4,65.96600390827223,471.064,mp-977545,ZrTc2W,https://materialsproject.org/materials/mp-977545,-38.30439664034002,-59.923066800140184,-48.96041649773096,-39.382755769034816
-6.246331658750001,-599.64783924,3.5965514117468693,-2.231056643259168,35.0000011,0.4825370909502693,1.0414,1,96,845.3076198884331,1830.846635,mp-777691,Li32Mn3Cr13O48,https://materialsproject.org/materials/mp-777691,-10.997474213318352,-68.77716673352518,2.8307632181812306,-81.40787979098933
-4.94331371325,-790.93019412,3.665229573642712,-0.3024149870019997,1.284375e-06,7.041089202152726e-09,1.5017999999999994,61,160,2125.834372000289,4692.25403392,mp-1029851,Na2GeN2,https://materialsproject.org/materials/mp-1029851,29.430179935294234,-31.16983167187264,9.620326865982252,-41.360052174337945
-8.449711652222222,-76.04740487,7.410071976340669,-0.15900034301555385,3.0011334,0.4138957175653936,0.0,162,9,84.50293528143679,377.0901,mp-248,Fe2N,https://materialsproject.org/materials/mp-248,-56.09418261269646,-47.15010432358417,-66.60538715284493,-35.96125260023205
-6.247645353333334,-599.77395392,3.6099764250210495,-2.232370337842501,35.0315119,0.4847743332878134,0.9956999999999998,1,96,842.1640353655223,1830.846635,mp-777827,Li32Mn3Cr13O48,https://materialsproject.org/materials/mp-777827,-11.113371623723722,-68.84816406502587,2.945597550924669,-81.52598799501746
-7.6304347933333325,-45.78260876,3.721442391210688,-2.3470895524999995,0.0,0.0,1.0233,12,6,74.01732535996938,165.8806,mp-714944,VO2,https://materialsproject.org/materials/mp-714944,21.928781264607167,-66.9618611193399,-7.536624556283312,-70.19986737788746
-4.906534708000001,-49.06534708,3.7081234383790633,-1.1002155129480002,0.99999995,0.13337599850599774,0.041100000000000136,9,10,87.37752159607928,195.12136,mp-625181,Cu(HO)2,https://materialsproject.org/materials/mp-625181,19.833281999249085,-29.832339759598568,28.24708647011569,-39.04445533386672
-8.16415549,-48.98493294,15.1276748702819,-0.6603770783333331,0.0,0.0,0.0,227,6,115.3317117988483,1050.6833,mp-946,PrIr2,https://materialsproject.org/materials/mp-946,-73.5330558321893,-6.403823648883143,-76.41041664520483,-9.539175549328784
-7.999000411999999,-39.99500206,5.1790006639944535,0.010667644666666832,0.1410671,0.0207325679044339,0.0,69,5,79.29577890472342,247.313,mp-1217161,Ti4Fe,https://materialsproject.org/materials/mp-1217161,-38.392026293190476,-56.73932559340246,-53.2942555409926,-38.9211931612821
-4.4160495087500005,-211.97037642,2.7940030710926247,-1.9060463505700005,0.0,0.0,2.2201,7,48,1507.1496955648404,2535.9120000000007,mp-29018,ZrSnCl6,https://materialsproject.org/materials/mp-29018,28.3358680214053,-37.25924062683717,12.815214914367587,-59.36240682535865
-7.88746870625,-63.09974965,4.10198408356748,0.17263436787249994,2.67224255,0.3887052191053987,0.0,194,8,80.11852230171804,197.91459,mp-567767,CoCN2,https://materialsproject.org/materials/mp-567767,15.931036555545974,-48.6620570127141,-12.537938297405018,-55.32216284736978
-3.5192621233333337,-10.55778637,2.7090033502284574,-0.8564161015000001,0.0006360000000000001,8.762930458992743e-05,1.5833,216,3,84.5834076857428,137.98936928,mp-961685,NaCaAs,https://materialsproject.org/materials/mp-961685,-77.34138582235572,29.354606965780448,-76.7930139190989,18.79362984285702
-6.412746754270834,-615.62368841,3.5368704697990085,-2.384386481145833,26.000001,0.3566401463824016,1.1183999999999998,1,96,849.6118533321927,1809.6335,mp-777044,Li32Ti3Cr13O48,https://materialsproject.org/materials/mp-777044,-10.920973963907297,-68.81117649010321,2.7948861042528907,-81.54443802962724
-6.030072838571429,-84.42101974,4.116212659106647,-1.7412332828571442,12.9999995,1.0195633881851152,0.0,12,14,148.59579891930787,368.345395,mp-759180,Li2Fe3CoO8,https://materialsproject.org/materials/mp-759180,5.230098154124158,-65.2999270676479,-7.498964880697255,-65.94531811582189
-4.86323381,-58.35880572,5.969036579006363,-2.9484974566266664,2e-06,1.4350801145385632e-07,4.8641000000000005,88,12,162.41692229575557,583.8300256,mp-28567,LiBiF4,https://materialsproject.org/materials/mp-28567,-2.2038857186576672,-16.818290189317587,-2.4272584798964183,-49.716493741786365
-9.186624517,-183.73249034,11.80379821628516,-0.3975112776666663,0.0,0.0,0.0,58,20,228.3035431223384,1622.8760000000002,mp-20391,B2Mo2Ir,https://materialsproject.org/materials/mp-20391,-71.75247938201848,1.893293124915844,-61.274317372758865,-4.6778565023749055
-4.983134851428573,-69.76388792,3.094846230662992,-2.880738691849286,2.9999968999999997,0.2826098378950733,0.019000000000000128,139,14,123.71175204119734,230.5690142,mp-759438,Li6CoOF6,https://materialsproject.org/materials/mp-759438,-9.311129395940409,-56.55965474699688,-23.52156779120564,-65.59258179918696
-6.05036681125,-96.80586898,4.2654424609291235,-2.0837333256250004,2.9999995,0.23946869935024184,1.6759999999999995,74,16,145.99899103937474,375.029,mp-753337,Li2VNiO4,https://materialsproject.org/materials/mp-753337,15.9124773941044,-66.89119267265583,-17.326678909222654,-66.94638418601022
-9.14873870625,-73.18990965,6.809160956339433,-0.919696091953126,5e-08,5.1969049642611575e-09,0.0,194,8,112.12505185975193,459.77692,mp-9988,Nb2CS,https://materialsproject.org/materials/mp-9988,-43.94485499244289,-20.25739412651041,-58.38729892799001,-8.863368823400524
-11.4179009125,-45.67160365,17.513865587264473,-0.5256499756249989,1e-05,1.6759435138216852e-06,0.0,225,4,69.53733629115406,733.4169999999999,mp-864927,Hf2ReOs,https://materialsproject.org/materials/mp-864927,-45.825620476089064,-64.27139757729155,-51.00534004727931,-37.25903173801869
-4.7899704181818175,-105.37934920000001,4.629294923846995,-1.1520426102272727,1.99999995,0.11361613563546415,0.3117000000000001,9,22,205.14805253718512,571.9172,mp-753296,Li2(NiO2)3,https://materialsproject.org/materials/mp-753296,9.498521193365525,-65.60633612905704,-2.874451641863577,-69.11887158717482
-1.517457845,-6.06983138,2.7932890263978987,0.004000081250000065,6e-07,8.503504060576314e-08,0.0,187,4,82.23008789933961,138.32399999999998,mp-1094789,Mg3Zn,https://materialsproject.org/materials/mp-1094789,-71.8985327227623,7.3435996974858355,-68.13991712917714,16.32337072248026
-7.034044475,-28.136177899999996,6.141147192246133,-0.25333366499999954,1.47e-05,2.51959086725922e-06,0.0,225,4,67.99308347350122,251.45782400000002,mp-862376,Sc2CuTc,https://materialsproject.org/materials/mp-862376,-41.290528108649475,-62.19967142191571,-48.32683179754004,-38.893462848141745
-6.6720628983333325,-40.03237739,14.887499971454432,-1.0458117741666666,5e-08,4.887823816511746e-09,0.0,227,6,119.2152705380935,1068.82,mp-2720,NdPt2,https://materialsproject.org/materials/mp-2720,-74.08345769864515,-5.2604801671981365,-77.35240036520004,-8.848844713267399
-5.577218749285714,-78.08106249,3.246529389322493,-2.7511601776114283,4.0000002,0.3213339270105149,1.3248,26,14,145.07108494499653,283.6293092,mp-753603,Li2MnOF3,https://materialsproject.org/materials/mp-753603,22.662298091409678,-40.43364150877467,3.5763489283028287,-39.847766400773054
-6.38978065892857,-178.91385845,3.8796643917899085,-2.1289239256521424,11.00145045,0.4917560514381233,0.5009000000000001,2,28,260.72198961549253,609.14787,mp-1174322,Li4Mn3O7,https://materialsproject.org/materials/mp-1174322,4.0688095640068065,-79.14328153907968,-28.894983026657208,-78.26571670083169
-7.204131780952381,-302.5735348,3.80606027609986,-2.349875244491428,10.999999733333333,0.2762407341475141,0.9564,2,42,464.068812248194,1063.675005,mp-758872,Li2TiMn3O8,https://materialsproject.org/materials/mp-758872,7.368932651362256,-64.45658678417685,-6.097770034398702,-65.84460373922693
-5.08639630125,-40.69117041,3.4895391969685856,-2.655399065915,2.9961164,0.4803652617927974,0.12119999999999995,123,8,72.68830069312874,152.75080459999995,mp-759806,Li3CoOF3,https://materialsproject.org/materials/mp-759806,2.6644725317172577,-55.76184148555557,-3.2022932277892884,-50.83251322511313
-3.051037015,-12.20414806,8.32060561196632,0.007493960000000133,1e-07,1.6656683490350662e-08,0.0,65,4,69.96629778857826,350.5861386,mp-1228927,AlAg3,https://materialsproject.org/materials/mp-1228927,-44.33935049779507,-65.68700968829732,-52.58796591181758,-36.549310286680786
-5.463170044999999,-32.77902027,10.043387859508721,-0.4059929572222221,0.0,0.0,0.0,216,6,85.73126546511172,518.52581,mp-20896,TmInNi4,https://materialsproject.org/materials/mp-20896,-76.24511914067574,-20.17000638195768,-70.34173355582813,-6.402141469238617
-5.551668232666667,-83.27502349,7.363652067017688,-0.5865863886666669,0.0008019,3.460907767174435e-05,0.0,221,15,270.02726364896495,1197.43455,mp-1104503,YGa3Ru,https://materialsproject.org/materials/mp-1104503,-40.00850698289985,-59.2726891976701,-56.697224557291044,-33.22761444999702
-5.201649609375,-83.22639375,3.2638866517516147,-2.7092978077900005,3.9999998,0.30611179611686656,3.4355,74,16,152.285071502533,299.3252192,mp-752488,Li3FeOF3,https://materialsproject.org/materials/mp-752488,-3.982187199842362,-64.21536313748462,-19.90029554611773,-63.32112551407621
-4.8393796700000005,-14.51813901,5.954497518952423,-0.6631391866666672,2.2e-06,4.0261653054251206e-07,0.0,191,3,63.68079935784984,228.35185,mp-1914,YGa2,https://materialsproject.org/materials/mp-1914,-56.086145973152504,22.89975002773593,-53.016970035723936,32.229121958123315
-7.453461677142857,-104.34846348,3.8716105802458056,-2.568068408333334,7.9999991999999995,0.6287380474424744,0.0,166,14,148.285139155279,345.7325,mp-1177849,Li2TiCr3O8,https://materialsproject.org/materials/mp-1177849,0.6477203166844208,-67.35054195886711,-14.68881126736984,-65.95339791445225
-6.0947287375,-97.5156598,4.2456137468554065,-1.9152287982449991,7.99999945,0.6215720882468356,0.4936000000000002,15,16,149.9946885223036,383.50167999999996,mp-765552,Li2MnCoO4,https://materialsproject.org/materials/mp-765552,-1.51484958298019,-70.31247998123742,-20.420491742355736,-64.82799174481133
-8.256829728461538,-107.33878647,3.4879133810926786,-3.117761914615385,2.0000006,0.14859247289701802,1.5478999999999998,166,13,156.85946995250524,329.4787,mp-753531,LiTi3VO8,https://materialsproject.org/materials/mp-753531,6.627496138163547,-59.32262283935847,-6.192739731009224,-64.46578774974144
-5.769418615,-115.3883723,3.797760404463716,-1.812379879471,7.6780827,0.4766113328454023,0.0,8,20,187.74390566976882,429.38248,mp-1232448,Li3MnCoO5,https://materialsproject.org/materials/mp-1232448,6.5841332638235714,-80.09689878945616,-24.86816578489475,-74.27498976564597
-3.5819512466666663,-21.49170748,13.055406104624135,-0.4161135383333328,0.0003024,2.67210364755017e-05,0.0,216,6,131.8881919289728,1036.924676,mp-1213974,CaBiAu4,https://materialsproject.org/materials/mp-1213974,-63.31765637977802,12.267026294142473,-71.16233544010494,11.374729804839456
-8.3926369875,-33.57054795,5.555686526039339,0.058493320000000175,3.8900000000000004e-05,6.413143746211394e-06,0.0,38,4,70.68968630562622,236.50737999999998,mp-1217091,Ti3Nb,https://materialsproject.org/materials/mp-1217091,-55.487099036550525,-31.987687089234203,-57.927935037735345,-32.66244487633358
-6.344957810416666,-152.27898745,3.8779389056219333,-2.1838514622916665,7.99999925,0.3895684144556295,1.1786000000000003,36,24,239.32255793942923,558.9018,mp-761106,Li3V(FeO3)2,https://materialsproject.org/materials/mp-761106,6.247229254022501,-57.66637608852726,-6.18815932246042,-62.10473168210206
-6.5616666736363625,-144.35666682,4.006987920587783,-2.088917715227272,21.999999300000002,1.1387941823892158,0.11830000000000007,2,22,225.1411368299732,543.2801,mp-755679,Li4Cr3(FeO4)3,https://materialsproject.org/materials/mp-755679,4.467350889175094,-65.2186079660366,-8.362447676986735,-65.8441978955273