energy_per_atom,energy,density,formation_energy_per_atom,total_magnetization_uB,total_magnetization_T,band_gap,sgr,num_sites,cell_volume,weight,mp_id,formula,URL,tsne_xrd_lin1_0,tsne_xrd_lin1_1,tsne_xrd_lin2_0,tsne_xrd_lin2_1
-5.367938903333333,-64.41526684,5.630385505726236,-1.5028570658333331,0.0,0.0,2.8141,96,12,188.2784316403346,638.3951999999998,mp-2739,TeO2,https://materialsproject.org/materials/mp-2739,29.654418275674626,56.86621828431863,35.17091235141027,-3.6205632683827607
-4.946774544,-98.93549088,3.1906248772760755,-2.0270363088333334,0.0,0.0,2.6407000000000003,59,20,222.2506911855592,427.0412,mp-753783,Li5InO4,https://materialsproject.org/materials/mp-753783,21.534899413559508,-8.666294028435129,28.51400289017089,-32.58287235528542
-3.3365751025,-13.34630041,4.475717270782131,-0.1068393756249999,0.0039055999999999995,0.00037354680061353,0.0,225,4,121.84849475608259,328.4231200000001,mp-1185058,LaPrMg2,https://materialsproject.org/materials/mp-1185058,-30.60753293148037,51.39378934615432,-55.83129360830015,52.757775245839255
-7.195744921875,-115.13191875,3.575228931098513,-2.7225659292187503,1.9999999,0.13608488205440933,0.5758000000000001,15,16,171.2763977000316,368.7672,mp-1266240,MgCrSiO5,https://materialsproject.org/materials/mp-1266240,22.43426240235789,22.556407798611346,51.958516773667185,40.95374110582516
-7.683820387857144,-107.57348543,8.217617712031213,-3.714304535714286,1e-07,5.34810608885355e-09,2.9027000000000003,63,14,217.9101270419623,1078.38604,mp-752684,BaTm2O4,https://materialsproject.org/materials/mp-752684,-0.14932836260095694,27.055263903661718,-12.492143325491867,46.40216307803539
-4.6451724875,-37.1613799,6.966082949453537,-0.8058154750000002,2.5e-07,1.2541803486867505e-08,0.0,63,8,232.3044047206336,974.534,mp-9768,BaSb2Pd,https://materialsproject.org/materials/mp-9768,16.23164259462072,59.61228795957819,-17.640091966688175,40.65966067554084
-5.591364312105262,-106.23592193,7.04781947698156,-0.13001613157894773,0.0050021,0.00010988203454833255,0.053900000000000066,204,19,530.521642035845,2251.69097,mp-1210509,Pr12Co6Pb,https://materialsproject.org/materials/mp-1210509,-10.393639922348532,21.50565687014754,-11.320737490408066,47.739360371078774
-6.84234870875,-164.21636901,3.4757407973189713,-3.0173823459027784,0.0,0.0,4.369999999999999,14,24,293.09113598925967,613.4808,mp-10814,SrLiBO3,https://materialsproject.org/materials/mp-10814,1.6201879524327256,23.882720330323192,5.601442354669559,30.153999934999906
-7.3277310646666685,-219.83193194,5.130950425273365,-2.9472303012239998,1.0,0.030074861567905183,2.2501,11,30,387.50185919380897,1197.35386,mp-1194534,La3VH3O8,https://materialsproject.org/materials/mp-1194534,13.050771117895039,10.998717186784024,12.272378184474196,11.232996874661787
-6.84161767625,-437.86353128,4.877716213114226,-2.799415395546875,11.999999800000001,0.15367775119343932,0.8516000000000004,36,64,910.0131531978957,2673.0994,mp-29919,Sr9Cr5O18,https://materialsproject.org/materials/mp-29919,-19.688537399308032,37.65522186251145,-7.187545826285144,59.53590917569658
-6.43353971,-128.67079420000002,7.109955536424459,-2.3261364977499994,1.0,0.046424357981738655,2.0712,14,20,251.03340744408143,1074.8536,mvc-4979,Mg2BiWO6,https://materialsproject.org/materials/mvc-4979,-13.191250537160366,49.484221640823485,25.93375051268312,52.015467824411424
-6.0836802309848474,-803.04579049,8.047189052915686,-1.9563901310984841,2.416666666666667e-07,1.482175039502703e-09,2.6655,144,132,1900.1797437142648,9208.5192,mp-1198288,Sn2Bi2O7,https://materialsproject.org/materials/mp-1198288,23.197034785351054,65.04078909331707,-8.340346516324951,38.26200610954164
-7.402101344285714,-51.81470941,5.934523298944969,-3.527601521428571,0.0,0.0,3.3658,107,7,89.40119859494827,319.50678860000005,mp-1217963,SrPrAlO4,https://materialsproject.org/materials/mp-1217963,-6.7511712992284885,21.43566490524596,-24.036712514026355,37.935657153691615
-5.9818104945,-119.63620989,6.612019716131588,-2.2658534337500003,1.0625e-05,4.1494660760738824e-07,0.0,62,20,298.41053267654667,1188.2264,mvc-3850,CaBiO3,https://materialsproject.org/materials/mvc-3850,-22.699470309698096,18.690908829572802,-16.217355399598667,45.62459172079306
-7.919490945961537,-411.81352919,7.641816291005203,-2.9360155531730774,0.0,0.0,3.5005999999999995,14,52,695.4862785988106,3200.6344,mp-560076,Nd2W2O9,https://materialsproject.org/materials/mp-560076,14.056831517881482,20.427803440319757,36.46428523823033,2.1763614088154144
-8.014283035,-48.08569821,7.3878067669675875,-1.5390299557933318,0.0,0.0,1.0426999999999995,166,6,143.5820207366839,638.8023400000002,mp-567441,HfIN,https://materialsproject.org/materials/mp-567441,-19.924506898469552,39.42128544480431,-22.55979078790432,67.85126537321781
-8.959845227272726,-98.5582975,5.7434939486191805,-3.885774986477273,0.0,0.0,4.3508,12,11,181.84325306371474,628.9618,mp-1178353,Er2Zr2O7,https://materialsproject.org/materials/mp-1178353,12.115863176208126,18.166484879858285,38.03371846737273,-3.4927393764328833
-6.488033177380951,-272.49739345,3.9015821366165873,-2.4547724334013608,0.0,0.0,2.5567,159,42,563.3899772501665,1323.7341720000002,mp-26725,LiSnPO4,https://materialsproject.org/materials/mp-26725,3.398504227798168,7.7091005557594094,5.546861334032254,27.34401879011713
-5.864846537777778,-105.56723768,7.938834913545993,-1.8271298648611112,4.95793925,0.21533365899099147,0.0,123,18,268.3284416781924,1282.8456,mp-1208668,SrFeBi2O5,https://materialsproject.org/materials/mp-1208668,-12.348453567091429,32.74854435359739,-2.7602166001747723,51.26777417076325
-3.98613502625,-223.22356147,5.744955477895979,-0.5974483297321426,0.0001102375,8.386440460220656e-07,0.5362,70,56,1531.8954107631582,5299.887999999999,mp-571171,Ga2PbSe4,https://materialsproject.org/materials/mp-571171,-3.5179168979549376,17.328352757460767,-3.231005793557257,14.941694670231733
-6.0502827944736834,-459.82149238,3.5084907717023532,-2.12412676383564,8.00000075,0.08627491741071518,0.004599999999999938,198,76,1080.6446383157804,2283.2536,mp-1209476,Rb2Fe2(SO4)3,https://materialsproject.org/materials/mp-1209476,4.615636201742598,27.770581382606718,20.93075386836001,-17.072755766316703
-5.758376757272727,-126.68428866,6.18949853787734,-2.4521114310909087,0.0,0.0,1.9255,167,22,397.03113873387406,1479.89513856,mp-556316,Ba3NaBiO6,https://materialsproject.org/materials/mp-556316,-17.503355569920107,4.908433561617984,-6.2117260620114045,-12.844365019738285
-7.076137513541667,-339.65460065,5.718541844596497,-2.4537690543749995,0.0006383999999999999,9.375812983383422e-06,3.2843,60,48,793.5263815508908,2732.7354,mp-1208393,TbTl(MoO4)2,https://materialsproject.org/materials/mp-1208393,11.474983400383438,11.43101296414028,35.369089685155345,4.1461137997271535
-8.270011301785713,-231.56031645,6.400247021181976,-3.40539244235119,0.0,0.0,3.7855,173,28,391.95615506297406,1510.72402,mp-554773,La3BWO9,https://materialsproject.org/materials/mp-554773,5.3845998408713855,19.85841468063096,26.33274351743403,-3.1838067970731743
-9.7564992,-48.782496,5.167941614553113,1.0336610035240001,21.9485247,1.5525856302408214,0.0,221,5,164.7506736721831,512.7382386,mp-1069273,Gd3AlN,https://materialsproject.org/materials/mp-1069273,-21.542024714196657,-19.911188312570207,-18.302686937344397,-10.60228735564327
-3.295572694,-32.95572694,2.702403480114784,-1.9352355020594483,0.0,0.0,3.4003,225,10,331.10235731615126,538.8444,mp-1114498,Rb3GaCl6,https://materialsproject.org/materials/mp-1114498,-19.6604514797,-23.893461560167857,-15.72631041314563,-22.64493783736525
-2.767077183,-27.67077183,5.550129848338514,-0.5803723159999997,0.0,0.0,1.8062000000000005,63,10,421.1427662071076,1407.61342,mp-1205533,TlSnI3,https://materialsproject.org/materials/mp-1205533,7.132992537835211,0.4635148173630933,12.525721176023955,6.306123463747682
-4.5852403100000005,-27.51144186,3.0458603098558954,-0.35397084083333336,0.0032335000000000003,0.00028795695066901564,0.0,119,6,130.86476417576029,240.04,mp-1218327,SrCaSi4,https://materialsproject.org/materials/mp-1218327,-50.43515547722396,22.873635564897324,-44.81234053230604,17.278013411756348
-4.056212006,-20.28106003,7.468855150506187,-1.910633637714,1.0009449000000001,0.16147677714187286,0.0,221,5,72.23996481001349,324.9245096,mp-554973,TlCuF3,https://materialsproject.org/materials/mp-554973,-25.824570354904342,23.738417167490894,-26.352012983892703,41.1500400120901
-3.059966317142857,-42.83952844,4.430965222125746,-0.7955530309104765,0.0,0.0,1.1256,64,14,347.7516084663468,927.9368,mp-28557,Ag2PdCl4,https://materialsproject.org/materials/mp-28557,-11.53093563809421,23.94228589431202,-4.61454177229156,24.965175930587115
-6.079375623,-121.58751246,6.109504477457957,-0.4921008119000007,0.1971845,0.005647077782311545,0.0,2,20,406.93629939769403,1497.2121,mp-1223625,KBa3(FeAs)8,https://materialsproject.org/materials/mp-1223625,-16.561532516754227,32.64310682630534,-16.994557741116513,54.943018000998315
-5.687549250416668,-136.50118201,5.463319991046869,-1.9174774408333344,0.0,0.0,2.0443000000000007,15,24,334.868342395755,1101.7464,mp-15511,CaTe3O8,https://materialsproject.org/materials/mp-15511,12.233440057586947,23.94970941811302,42.26431908545857,-3.619025351039001
-7.636916717692308,-198.55983466,6.0291580198943615,-2.4263498923076927,12.9998735,0.429245807037336,0.0,8,26,352.94781060238665,1281.4984,mp-1213273,Eu2Cu(GeO4)2,https://materialsproject.org/materials/mp-1213273,22.216188856285424,32.449777420903594,43.24781995520291,29.739640435886106
-9.011139427272726,-198.2450674,7.2773163486829455,-2.6727013146590917,21.023495899999997,0.8025568544090055,0.008099999999999774,63,22,305.28576463865033,1337.9156,mp-22365,Eu3RuO7,https://materialsproject.org/materials/mp-22365,16.876957315977968,59.45311120569283,-3.4932649340431743,37.81971756106706
-7.552382835833334,-271.88578209,4.578879876967125,-2.2187045905555562,5.000844575,0.16010990260790506,0.0,60,36,364.00101208778267,1003.7204,mp-773509,VCr2O6,https://materialsproject.org/materials/mp-773509,-6.906822479187343,27.009281371604057,23.712540077962032,58.47856193483016
-5.667054125,-22.6682165,7.687290660390133,-0.8413059374999996,7.43e-05,9.576700864142765e-06,0.0,38,4,90.41704704835155,418.5762,mp-1217674,Tb2SiGe,https://materialsproject.org/materials/mp-1217674,-32.875694852498896,21.70255921707389,-39.82679289993971,24.77567607723393
-7.386032767,-73.86032767,7.18768757686576,-2.777057835250001,0.0,0.0,2.4936,148,10,159.81624866460297,691.7689,mp-754152,YBiO3,https://materialsproject.org/materials/mp-754152,-22.847966570662013,13.255819056359739,-26.957222699186072,46.30005502128317
-4.330697991428571,-151.57442969999997,3.8720950198305855,-1.4378075297904762,0.7153163,0.008306693447307703,0.0,225,35,1003.5692957670957,2340.15315424,mp-1210285,Na8Zr6BBr20,https://materialsproject.org/materials/mp-1210285,-10.725876352414527,20.473048649514784,-10.365438033263716,48.51050093478218
-8.028051738,-40.14025869,6.685229391507934,-2.809658155442,5.000000599999999,0.965195015609468,0.0,221,5,60.37156213290512,243.05224500000003,mp-1183706,CeMnO3,https://materialsproject.org/materials/mp-1183706,-29.588892060738143,51.7363245986062,-17.050619231168636,66.77029951016813
-3.508399867777777,-31.57559881,7.344652200170796,-0.20653074777777766,1.0099537333333333,0.04705262100113786,0.0,189,9,250.14687758351468,1106.4129,mp-21518,CeMgTl,https://materialsproject.org/materials/mp-21518,-10.936272933844664,17.50650532878657,-21.758730468322554,-5.0553327999804125
-4.4047200140000005,-44.04720014,6.806169981692992,-2.613017001047333,0.0,0.0,4.041600000000002,225,10,157.24614793131755,644.5160192000001,mp-989551,LiTl2InF6,https://materialsproject.org/materials/mp-989551,-25.00188963944468,10.165284745079504,-29.122337733631138,-7.292499688172303
-6.4946725439393935,-214.32419395,7.025764107659986,-0.8953906730303035,1e-06,1.3453304217561743e-08,0.00509999999999966,164,33,866.2604059266458,3665.16,mp-29957,Zr5Te6,https://materialsproject.org/materials/mp-29957,-14.994777989984277,22.94495573075105,-15.069473798158493,30.359995537947363
-7.3430440315625,-234.97740901,3.213378637938457,-2.643299138683036,6.00000045,0.18703197052932968,2.4883,11,32,373.86332230682467,723.478572,mp-26635,LiV2P3O10,https://materialsproject.org/materials/mp-26635,10.643115418988698,30.48950280925336,61.56759224949317,10.532792693091977
-4.82482019,-28.94892114,6.572028746434494,-0.4789294588888892,0.0300024,0.002499145033819071,0.0,109,6,139.90781175189622,553.7227,mp-1025028,PrSiAg,https://materialsproject.org/materials/mp-1025028,-49.54032522246352,23.18298858608149,-28.6538950484482,29.566877048588637
-8.761855800000001,-175.237116,6.217955511273313,-3.6612629080833328,2.135e-05,9.92133230407526e-07,0.0,62,20,250.78716775966384,939.0826800000001,mp-22013,LaTiO3,https://materialsproject.org/materials/mp-22013,-27.44949401167707,46.51103776718671,-8.046967390303214,62.940946036683435
-4.92549593375,-39.40396747,7.69699458830312,-1.1305587110416662,0.0002585,2.0014492370622926e-05,1.6491999999999996,11,8,150.5197178085071,697.6948000000001,mp-996968,AgBiO2,https://materialsproject.org/materials/mp-996968,22.32349426898837,31.65488802801168,3.6961788009684873,24.76281101805338
-5.216592444117646,-88.68207155,7.6038839986222495,-1.5004997216911768,3.9e-06,1.492030902341689e-07,1.8922,99,17,304.6240700621503,1394.9242,mp-1106129,Bi4Te2Br2O9,https://materialsproject.org/materials/mp-1106129,21.469395015793435,59.5607060857556,-14.251033437635037,38.96072791922051
-5.539126986333334,-166.17380959,4.569054220791021,-3.0120390734807128,4.9999995,0.109142345579232,3.4542,194,30,533.8928509051025,1469.032239,mp-558702,CsMnF3,https://materialsproject.org/materials/mp-558702,1.7197163199852623,-7.816428552436865,11.701318818137848,-14.359112372221556
-8.470996537916667,-406.60783382,7.074794839238181,-3.5027330700520833,0.00012030000000000001,2.130424748243308e-06,3.3455000000000004,165,48,658.0772183082128,2803.7650399999998,mp-769582,Sr5Ta4O15,https://materialsproject.org/materials/mp-769582,-15.629173934676409,19.898045706936376,-13.565470991724455,46.71351772765913
-6.547418308999998,-196.42254927,3.739059529063128,-2.176883370119048,8.0000005,0.27631059919742884,0.0,70,30,337.4192820626965,759.7718279999998,mvc-9120,CaCo2(PO5)2,https://materialsproject.org/materials/mvc-9120,-3.59574741825202,25.332987374973534,20.1543631139231,35.68164396895597
-5.27064058,-15.81192174,8.052118147048445,-1.4924139224045831,8e-07,1.8645504547837032e-07,1.5366999999999995,187,3,50.00267916659459,242.46794,mp-1207186,DyHSe,https://materialsproject.org/materials/mp-1207186,-36.16386159876773,51.07557054920708,-56.14720798628296,46.957177305986356
-7.241237665526316,-550.33406258,3.7138160138323064,-2.85945960721675,4.99999915,0.05403808085416071,2.4234,198,76,1078.3194561277028,2411.674744,mp-694868,Rb2ZrFe(PO4)3,https://materialsproject.org/materials/mp-694868,0.0909792529898188,-1.7642354280965074,14.669867459907833,-17.801549934556686
-7.113818629333331,-213.41455888,4.063471946916132,-2.4904345167857143,3.99999985,0.1301835278336852,0.5602,43,30,358.0810730654283,876.253048,mvc-9043,MgMo2(PO5)2,https://materialsproject.org/materials/mvc-9043,4.6440023681412175,6.3366626324635735,8.194295256029607,24.557872377800432
-8.1816688375,-163.63337675,6.66534780308741,-3.1599850382499994,12.0000008,0.577751453431048,2.2987,6,20,242.0570052458699,971.60867,mp-1222944,LaNd3Cr4O12,https://materialsproject.org/materials/mp-1222944,-24.47321927158112,49.87146615177326,-7.439253932666607,63.70024734889957
-4.984575545714286,-69.78405764,7.199656627699442,-1.0444723871428572,1.4274391000000002,0.03927491832108988,0.0,63,14,423.564667767912,1836.464,mp-1104233,Ce2Te5,https://materialsproject.org/materials/mp-1104233,-41.41182653539778,27.12792339060641,-23.313527228041163,28.0301570643175
-5.7253124743478265,-131.68218691,6.308592440559825,-1.975272052608697,11.1180128,0.39975676221842976,0.0,139,23,324.12220019570253,1231.38018,mvc-122,Ba2Ca3Tl2(CoO3)4,https://materialsproject.org/materials/mvc-122,-4.805440408937309,19.422586477161353,5.097469967031763,48.70843259606136
-7.3358454059375,-469.49410598,3.1380468441625498,-2.987148344843749,0.0018367999999999998,2.4348621486707205e-05,2.4399,130,64,879.1539260620589,1661.404,mvc-8457,MgSi4SnO10,https://materialsproject.org/materials/mvc-8457,5.4029873078652155,-4.9989803217632405,12.072948684899886,3.182225649051409
-6.736084941428572,-94.30518918,2.9148136218081357,-2.7870045949285718,0.0,0.0,3.6886,63,14,202.81732843299667,356.01373856,mp-19302,NaCaVO4,https://materialsproject.org/materials/mp-19302,-4.574967454912239,25.83701376989289,15.643427463781176,57.83660910853055
-3.60365552,-54.0548328,5.725231560454827,-0.9006300083426727,0.0,0.0,2.4848,157,15,543.4590233014278,1873.7462216,mp-1104686,Cs4Au6S5,https://materialsproject.org/materials/mp-1104686,-0.9574205543963168,17.084223001838804,6.900524865740381,14.491737031941874
-6.1294863429166675,-441.32301669,6.3263513920181325,-1.8911244661111115,0.0,0.0,2.5373,92,72,1401.3635590022861,5338.94,mp-1208305,Tl5V3O10,https://materialsproject.org/materials/mp-1208305,8.56997345176768,26.397929404391185,31.607221090600447,-6.413018964726483
-5.823789380625,-93.18063009,3.276789433860018,-2.2069648275315625,3.0000001,0.19065363267319613,2.9218,2,16,183.38069405168415,361.87039639999995,mp-942701,LiCoSO4F,https://materialsproject.org/materials/mp-942701,30.500519507159236,7.027649620486798,49.649507724760205,1.5557355075240606
-6.010233551428572,-84.14326972,7.163272137124445,-2.4963192937500014,0.0,0.0,2.1483000000000003,122,14,290.36886519000393,1252.6,mp-676154,Yb(DyS2)2,https://materialsproject.org/materials/mp-676154,-1.6388871774746672,-5.001929028394984,5.590307527753757,7.782155597577731
-7.927432005999999,-158.54864012,6.815662914030068,-3.403995072,4.99998825,0.19834201880415286,2.9164,36,20,293.78639624049913,1205.8428,mp-1105484,Sm3FeO6,https://materialsproject.org/materials/mp-1105484,-6.7605805428512635,37.662796370128795,-13.060295542082347,42.788097604866785
-6.039682363333332,-36.23809418,10.39580368921032,-0.18246033777777745,0.0,0.0,0.0,140,6,184.9354441512092,1157.78824,mp-21428,Th2In,https://materialsproject.org/materials/mp-21428,-43.678312944185926,36.354278372657056,-38.780621344786724,40.074164618204975
-7.103999627604168,-681.98396425,3.6655848643108895,-2.3627619585906943,6.0000007,0.07792560531868298,3.1032,29,96,897.3224719556827,1980.8096,mp-556141,Ni3B7ClO13,https://materialsproject.org/materials/mp-556141,-5.2683055771597305,6.875935845600206,9.502607463395824,11.199206976965954
-5.80173400625,-139.24161615,4.98725064468769,-1.8554722063281257,2.0000001,0.04455428888528811,0.3324999999999996,173,24,523.1400005179353,1571.1947999999998,mp-1191831,Nd3GaNiS7,https://materialsproject.org/materials/mp-1191831,7.163523718934917,-6.314998022555944,12.555539398103187,3.557567813669467
-5.765663026923077,-74.95361935,6.514953593451524,-0.3398670469230773,9.002194300000001,0.3227045057907388,0.0,12,13,325.1028528724637,1275.5075,mp-1207855,V5Te8,https://materialsproject.org/materials/mp-1207855,-13.173875507962627,27.052399986298365,-19.942616210388586,41.378539792446745
-5.462689825135136,-404.23904706,5.385008649820203,-1.9705007814527025,3.9999998999999997,0.049228567034442096,1.2214999999999998,167,74,946.935097505842,3070.8424,mp-759887,Sr9(NiO3)7,https://materialsproject.org/materials/mp-759887,-13.208466857505831,19.544364997303607,-12.612313263092053,26.056613724097158
-6.933499410172414,-402.14296579,5.057212952588792,-2.7522407956782757,4.00011655,0.04937851960413147,1.6755,194,58,944.086978411308,2875.24037712,mp-1214806,Ba6Na2Mn2Nb2O17,https://materialsproject.org/materials/mp-1214806,-18.49295462025801,17.539882720215854,-17.299223983619427,47.60175580006022