energy_per_atom,energy,density,formation_energy_per_atom,total_magnetization_uB,total_magnetization_T,band_gap,sgr,num_sites,cell_volume,weight,mp_id,formula,URL,tsne_cry_lin1_0,tsne_cry_lin1_1,tsne_cry_lin2_0,tsne_cry_lin2_1
-3.9561217922222216,-35.60509613,2.5354865482935582,-1.7225383072844442,2.9999999,0.1372639970160873,1.1425999999999998,225,9,254.70767216675938,388.9146,mp-27632,K2TcCl6,https://materialsproject.org/materials/mp-27632,6.978963170916388,-10.382044370589755,7.236209549144544,-2.8704517355179666
-6.5904638147500005,-263.61855259,5.297073697493548,-1.6633831411874993,3.0005794125,0.04487977570228973,0.2070999999999996,58,40,779.1693759891057,2485.5288,mp-1225651,DyCrS3,https://materialsproject.org/materials/mp-1225651,17.509440111445738,7.137701378783321,-8.604250342815693,-0.5045126942092143
-4.697317481111111,-42.27585733,3.953070724797192,-1.0055943118821844,0.0,0.0,0.8301000000000003,69,9,199.6458134979919,475.2758,mp-1079718,Rb2Ni3S4,https://materialsproject.org/materials/mp-1079718,19.47430642910005,4.907073420868851,4.829518731197794,-4.987311256933472
-3.705614954571428,-129.69652341,6.796673189471102,-0.22339383528571416,0.00101562,9.253582828886211e-06,0.17330000000000026,8,35,1279.0830841605707,5235.354,mp-677596,Sn(BiTe2)2,https://materialsproject.org/materials/mp-677596,66.73698369747872,24.08669704135412,5.470910362091316,-6.9020493144788935
-6.46464057,-84.04032741,3.5626573217117152,-1.4878188527564105,4.6724293,0.22301285026420967,0.0,44,13,244.1688613140183,523.8599999999999,mp-1217165,Ti2V2GaS8,https://materialsproject.org/materials/mp-1217165,20.144700117859205,13.949477949775865,-8.604250342815693,-0.5045126942092143
-6.075597595714287,-85.05836634,5.527546921615808,-0.4311737477678577,14.867619099999999,0.6013931901633865,0.0,216,14,288.11133687442015,959.0554,mp-1226315,Cr4FeCuSe8,https://materialsproject.org/materials/mp-1226315,13.564182709518773,2.1143047980041403,-8.604250342815693,-0.5045126942092143
-6.570110812916668,-157.68265951,4.680208727061423,-1.995897273750001,1.00000045,0.03385727504068718,2.3067,14,24,344.21169461759206,970.1564,mp-559505,VTeO4,https://materialsproject.org/materials/mp-559505,-12.472765123912888,-44.58911590644207,6.418807169216867,-0.32155413343189465
-8.1306131745,-162.61226349,6.347380227464857,-3.221133700208333,9.0000004,0.4220766961641699,1.7832,47,20,248.50125242135312,949.89151,mp-1227949,BaLa3TiCr3O12,https://materialsproject.org/materials/mp-1227949,-3.1115038850026884,-35.638099159141305,5.4072305593756855,-3.4506350089128612
-6.3332720517857135,-177.33161745,3.1323438787669287,-0.9616306476785722,10.0000007,0.20644032658025507,0.3518999999999997,62,28,564.5246634413568,1064.88636,mp-5056,Mn2SiS4,https://materialsproject.org/materials/mp-5056,26.37423878539649,0.4322729458168958,4.045028422797908,-5.525371921902819
-8.430641382380951,-708.17387612,5.111078773119213,-3.4817672622619065,7.5e-07,8.384423243037117e-09,1.9105000000000003,13,84,1042.4746373196747,3208.69902,mp-774524,Li3La5Ti6Nb2O26,https://materialsproject.org/materials/mp-774524,6.060457268738805,-41.008309432532734,3.489724330049425,-4.416005541983318
-6.7353626178125,-215.53160377,3.638681131684733,-2.5906420571875,9.9999999,0.40577795099926,1.6313999999999993,2,32,287.2030041878816,629.3379,mp-767624,Li9V5(SiO8)2,https://materialsproject.org/materials/mp-767624,-27.50893661171571,-51.3402566879165,7.170802607377744,0.6187612387760768
-6.2510653489473675,-237.54048326,5.401334762299597,-1.8274352011184218,13.00000025,0.34519668636378115,0.4683000000000002,8,38,438.88846834738393,1427.5988000000002,mp-1227632,BaZnFe6O11,https://materialsproject.org/materials/mp-1227632,-27.56666442375548,-33.564657706367456,7.6695384050206075,-2.94868400547042
-4.4867855078125,-143.57713625,3.3473749394105536,-1.0688877122265632,0.0006184000000000001,8.295519996736582e-06,0.3417999999999997,64,32,868.766955921517,1751.2920000000001,mp-1100369,CaSn2S5,https://materialsproject.org/materials/mp-1100369,43.101117093238926,0.6668929842375982,4.372117290456342,-6.178952115819354
-4.829923083571429,-67.61892317,4.936407588654184,-0.2896111663392859,10.9747472,0.3785025042533341,0.0,6,14,337.91167375120875,1004.5351,mp-1226260,CrGa3(FeSe4)2,https://materialsproject.org/materials/mp-1226260,24.000585822341968,8.187055384273535,-8.604250342815693,-0.5045126942092143
-8.011630509249999,-320.46522037,6.705220583088702,-3.028912322625,25.9999962,0.6276410736835727,1.9836,8,40,482.7689781721761,1949.4106500000007,mp-1075954,La5Sm3Cr7FeO24,https://materialsproject.org/materials/mp-1075954,-4.610323573185042,-7.147528606442941,8.034030353775854,-1.5496672146517234
-4.6633095,-13.9899285,7.560417224596673,-0.1983679666666666,3.82e-05,6.4524348969887685e-06,0.0,164,3,68.99492694138455,314.133195,mp-1009641,CoTe2,https://materialsproject.org/materials/mp-1009641,53.551384502094095,28.729645135908562,-8.604250342815693,-0.5045126942092143
-3.976706068888889,-35.79035462,5.186927041940256,-0.8027827650830146,0.0,0.0,1.6401,21,9,346.7656711621657,1083.1713037999998,mp-1078823,Cs2Zr(AgTe2)2,https://materialsproject.org/materials/mp-1078823,61.00319719325107,16.866730598126278,8.4570754516596,-5.018029816022639
-5.725554786153847,-74.43221222,6.255852728030747,-0.6205906082051277,3.9998388999999994,0.13890553360147814,0.0,12,13,335.583330712664,1264.2641,mp-1217179,Ti4CrTe8,https://materialsproject.org/materials/mp-1217179,54.73797308392906,33.45102587885387,-8.604250342815693,-0.5045126942092143
-4.3940193375,-35.152154700000004,7.467298135117216,-2.1088191333925,8.400000000000001e-06,8.526886994310356e-07,1.9846,166,8,114.80642836573556,516.2744192,mp-20458,PtPbF6,https://materialsproject.org/materials/mp-20458,6.925127105898218,-14.428212908680422,8.755927395721752,-0.9636860879882924
-1.9682888159999998,-157.46310528,4.305102698581679,-0.12455839800000028,0.0,0.0,1.7639000000000002,62,80,3920.200422604707,10163.48608,mp-570884,TeI4,https://materialsproject.org/materials/mp-570884,66.66887908641836,-10.4278983460265,9.662912173885227,-4.596655305629415
-5.955961926052631,-226.32655319,2.4732687058224774,-1.2230313134484216,0.0,0.0,1.7062,14,38,580.9391422177424,865.2724000000002,mp-1197132,K2Pd(NO3)4,https://materialsproject.org/materials/mp-1197132,-2.06326204450602,-23.565348190222537,8.170610540194126,0.5289224297790902
-5.372559682142856,-75.21583555,4.144332558967769,-0.977022885645408,7.00000035,0.18926433550079896,0.0,11,14,431.0292125084291,1075.752124,mp-10382,KEuPSe4,https://materialsproject.org/materials/mp-10382,-15.723285088152624,11.664934866867215,-8.604250342815693,-0.5045126942092143
-3.41346376,-13.65385504,6.019184059103606,-0.5330945798749998,0.0027771999999999996,0.0002408199322568603,1.1388999999999996,166,4,134.3977983177544,487.17016928,mp-1221102,NaBiTe2,https://materialsproject.org/materials/mp-1221102,66.74298841742431,22.76134994161903,7.357363677077209,-7.256924944026913
-4.9261661708333335,-59.11399405,12.21002772517126,-0.27020969999999994,1.1e-06,4.1384129912345765e-08,0.0,4,12,309.76780898784443,2277.7384,mp-1227418,Bi3SbPt2,https://materialsproject.org/materials/mp-1227418,49.47587711207407,29.881800498632305,-8.604250342815693,-0.5045126942092143
-7.926063230344827,-1379.13500208,1.5689782892870547,0.11494441035114995,0.00011205,6.557033411707341e-07,1.1884,2,174,1991.507249961222,1881.6971855999998,mp-1196283,H12C71F4,https://materialsproject.org/materials/mp-1196283,46.47188843210327,-26.361661693880354,6.259259898367107,-4.4829342507645045
-4.044760978,-40.44760978,3.3235088140087576,-1.8932979226473796,3.0000001,0.11712202460030975,1.6410999999999998,225,10,298.5108531243157,597.45867308,mp-1112538,Cs2NaMoCl6,https://materialsproject.org/materials/mp-1112538,11.500267976788175,-8.631987342277132,7.675435897379999,-3.0654709746093407
-5.787696126428571,-162.05549154,4.568849580743953,-0.4017227934821425,9.999999775,0.1766481863309038,0.08139999999999993,62,28,659.7330407068215,1815.2063600000001,mp-17367,Mn2SiSe4,https://materialsproject.org/materials/mp-17367,26.55709673903806,0.21902961217880074,2.9244728488372544,-4.909514601796208
-6.372480441666667,-38.23488265,7.964701841413312,-0.5966096866666675,6.829999999999999e-05,5.8363663579791485e-06,0.0,115,6,136.38153863963979,654.148,mp-1071230,Zr2Sb3Pd,https://materialsproject.org/materials/mp-1071230,35.56650449892265,30.73489568671162,-8.604250342815693,-0.5045126942092143
-3.569142498,-71.38284996,5.2333003389505,-0.5728443349780001,0.0,0.0,1.2547,167,20,618.6537963096223,1949.729,mp-979264,Te6RhCl3,https://materialsproject.org/materials/mp-979264,65.66476760813447,18.098298991282856,8.315355188074049,-6.4056559549327465
-3.2340582325,-25.87246586,4.728224658844437,-0.6973025028333333,0.0,0.0,0.9892,140,8,287.360959796857,818.2326,mp-19851,KInTe2,https://materialsproject.org/materials/mp-19851,61.40530167281445,16.451117263929536,8.848018049703244,-4.748054511413509
-6.086857188166666,-365.21143129,2.8258778436283114,-1.1895662315346671,0.00154045,1.849482395960198e-05,2.2243,14,60,970.6772077475847,1651.8824,mp-1224512,K4PdPt(NO2)8,https://materialsproject.org/materials/mp-1224512,-1.896448128652896,-23.57380787902564,8.55507506274483,1.3912972237704941
-8.679014533157895,-329.80255226,5.120231665697244,-3.6487010139692986,0.0,0.0,2.117,1,38,476.2126007411055,1468.38995,mp-767070,LiLa5Ti8O24,https://materialsproject.org/materials/mp-767070,5.779130966513683,-41.554763480451285,6.9995614946994476,-2.128479371874905
-5.170998406428573,-144.78795538,5.926985011057974,-1.6319669199107143,0.000366525,5.73045948408139e-06,1.6079,62,28,745.4037678179617,2660.58,mp-1232066,Dy2MgSe4,https://materialsproject.org/materials/mp-1232066,52.338855959776325,6.615048621856673,8.149850121538185,-6.1681008150219885
-4.1814727827272735,-45.99620061,7.229740401889332,-0.07644971333333346,1.2033582,0.046024180606753805,0.0,71,11,304.70970308448886,1326.6608,mp-581496,Ce3(AgSn)4,https://materialsproject.org/materials/mp-581496,1.970407522743439,47.82933863310723,-8.604250342815693,-0.5045126942092143
-5.825326164615384,-151.45848028,7.440936504985522,-0.551002867115385,6.8049931,0.1223244494985682,0.0,176,26,648.3236236853047,2905.1620000000007,mp-1209931,Nd3Fe3Sb7,https://materialsproject.org/materials/mp-1209931,3.232230756029753,34.51242189509817,-8.604250342815693,-0.5045126942092143
-6.972501272000001,-34.86250636,8.2278014074372,-0.02712489472399966,6.216476,1.2616101314643808,0.0,221,5,57.42440723503985,284.532075,mp-1210555,Mn3SnH,https://materialsproject.org/materials/mp-1210555,-3.3255352056563403,15.690585586868535,-8.604250342815693,-0.5045126942092143
-6.696514366785713,-187.50240227,6.9697147776579245,-1.927449895982143,6.999892375,0.10669056457098676,0.11290000000000022,62,28,764.6149354183908,3209.288,mp-1193984,Eu(ErSe2)2,https://materialsproject.org/materials/mp-1193984,-14.50031453651642,11.495190716750448,3.3661906077132686,-5.315765768484125
-4.600512802,-92.01025604,2.625034193815335,-1.7942854995559998,4.999999925,0.11491737032559918,1.3655,62,20,507.0627949773335,801.5813800000002,mp-23049,KMnCl3,https://materialsproject.org/materials/mp-23049,17.997220292520424,-7.883853732618687,7.348092437415278,-5.658032240748078
-4.3777434845,-87.55486969,5.372816053794177,-0.6939741319375002,3.5675e-05,7.877204732075523e-07,1.3443999999999994,62,20,527.7998667066774,1707.7416,mp-1227486,BiSbS3,https://materialsproject.org/materials/mp-1227486,70.62124758177481,15.66784402515418,8.671761994908023,-6.605421211580478
-5.379382195,-75.31135073,4.894119086598665,-1.2494865675246305,0.0,0.0,0.3268000000000004,12,14,451.6146963855404,1331.04736,mp-13336,RbSc5Te8,https://materialsproject.org/materials/mp-13336,-8.01182429460221,26.068780957581378,-8.604250342815693,-0.5045126942092143
-5.509492804117646,-93.66137767,7.775012762849245,-0.3167701876470592,4.2999999999999995e-06,1.2014099169882215e-07,0.0,204,17,417.11390769631856,1953.02,mp-22775,Sr(Sb3Ru)4,https://materialsproject.org/materials/mp-22775,34.46487612974686,28.737901854619174,-8.604250342815693,-0.5045126942092143
-5.74334601,-22.97338404,3.1842463486235384,-1.26736039565625,2.9999998,0.4819251025460118,0.9263000000000003,166,4,72.54694101253652,139.11586928,mp-5693,NaCrS2,https://materialsproject.org/materials/mp-5693,17.389818318671914,7.554593681527589,6.014409679989256,-0.5484269703338459
-6.624516377999999,-132.49032756,2.4222380235076075,0.30870491412500056,0.0,0.0,0.0,1,20,149.87216164482598,218.6194,mp-633538,B9C,https://materialsproject.org/materials/mp-633538,20.076071228066308,-12.263368703221225,5.722892033401057,-4.0213364929142354
-3.70250022,-44.43000264,7.517303579452939,-0.26155375500000017,0.0022948,6.252558695272457e-05,0.4221000000000004,164,12,427.72485862932973,1936.3216,mp-23005,Bi4Te7Pb,https://materialsproject.org/materials/mp-23005,66.59419483634906,23.91380803686131,5.187691653950255,-6.753724791710082
-6.1546874125,-147.71249790000002,4.865640476996855,-1.926676214244792,4.99999975,0.10919162216313248,0.4064999999999994,173,24,533.6519395437343,1563.6840899999993,mp-1190807,Nd3MnGaS7,https://materialsproject.org/materials/mp-1190807,28.088298538755108,2.8309369932341344,4.761786742486182,-6.112560093290767
-8.830571379148935,-415.03685482,4.202006320830982,-3.037360484537233,0.0,0.0,1.6992999999999998,1,47,695.0198654140694,1758.75290928,mp-672212,NaNb13O33,https://materialsproject.org/materials/mp-672212,-0.2609319147270419,-47.070470050471364,6.3531532741038,-0.6104113089209011
-7.818422561794871,-304.91847991,6.322562308152036,-2.570670221544872,3.3333333333333334e-08,6.738039566878147e-10,1.4132000000000002,1,39,576.5309358846258,2195.16234,mp-1223468,KTaW2O9,https://materialsproject.org/materials/mp-1223468,-3.020091748631306,-39.533866481442644,7.891323384191141,-0.7609688351338801
-3.220549035,-32.20549035,3.8449842226899884,-1.7311072471973794,0.0,0.0,1.0928,225,10,302.83480707833166,701.2151038,mp-1096926,Cs2InAgCl6,https://materialsproject.org/materials/mp-1096926,6.7182180077877165,-8.365516962933361,7.673718212923676,-3.1004563881720864
-7.511263290625,-120.18021265,4.569862098788901,-2.450905159427084,9.99999955,0.669418930718652,1.7146999999999997,15,16,174.092241992852,479.108,mp-19255,TiFe2O5,https://materialsproject.org/materials/mp-19255,-28.25373023887438,-39.49128493936147,3.4421583443995813,-3.536670427999732
-4.6288824535714275,-64.80435435,2.7709767017798455,-0.9454521725561226,1.85e-06,6.232196168027471e-08,1.2340999999999998,140,14,345.94578296240167,577.28706256,mp-559446,NaPPdS4,https://materialsproject.org/materials/mp-559446,63.29138082785756,-3.069749641952357,9.086209042185446,-4.156033452335049
-5.903965092222222,-106.27137166,4.411023195853469,-2.1126996938688887,3.999986233333333,0.22718748180944506,0.6497999999999999,6,18,205.18779591788112,545.0568192000001,mp-754527,FeOF,https://materialsproject.org/materials/mp-754527,-42.12843039656355,-76.74566792717232,4.2467726889990915,-2.5313599269259432
-6.01731591857143,-42.12121143,5.451662312801896,-0.4780606701488109,0.0266525,0.002145056812896621,0.0,2,7,144.80267351576984,475.39699999999993,mp-675929,Ti(FeSe2)2,https://materialsproject.org/materials/mp-675929,17.43436059254589,13.337675198554509,-8.604250342815693,-0.5045126942092143
-5.216592444117646,-88.68207155,7.6038839986222495,-1.5004997216911768,3.9e-06,1.492030902341689e-07,1.8922,99,17,304.6240700621503,1394.9242,mp-1106129,Bi4Te2Br2O9,https://materialsproject.org/materials/mp-1106129,9.105948589140748,-36.480283446572706,7.027664410304908,-0.8855211705489048
-5.198962238181818,-57.18858462,2.6914703353783165,-1.3155879029345456,0.0,0.0,1.7269999999999999,2,11,214.4155567780489,347.5336,mp-655297,K2PdN2(ClO2)2,https://materialsproject.org/materials/mp-655297,-1.7622686716785405,-23.153030915350513,8.958484768369628,-0.7162473212474322
-6.7107562129166665,-161.05814911,3.8061353473904034,-1.9973866594531249,5.00000035,0.11652742690728833,0.4254999999999996,173,24,500.05676335822835,1146.1842672,mp-1190648,Y3MnAlS7,https://materialsproject.org/materials/mp-1190648,28.03929759544226,2.9226744856105755,-5.970734365407892,-2.8944048153353488
-3.628341532,-36.28341532,3.7673583950036873,-1.2275517115189658,3.0000001,0.10310905642222762,1.3579,225,10,339.0797733607095,769.28936928,mp-1114445,Rb2NaMoBr6,https://materialsproject.org/materials/mp-1114445,10.52963896513822,-7.693076034879472,6.679723468419964,-2.0421725583494568
-8.876881642857143,-1242.76343,1.7625784885114733,0.3485919383928571,2.857142857142857e-09,2.101901707718002e-11,1.1035,63,140,1584.1524748438144,1681.4979999999998,mp-683919,C,https://materialsproject.org/materials/mp-683919,59.89628230665639,37.17749045602433,3.4703905329261486,-5.4226784205341385
-4.977108506666666,-44.79397656,6.391584836130836,-1.1121493019999995,0.00011240000000000001,3.9739169974026014e-06,0.0,38,9,329.6286463184526,1268.77442,mp-1223885,K(ThTe3)2,https://materialsproject.org/materials/mp-1223885,3.4386094307612094,30.23049846923023,-8.604250342815693,-0.5045126942092143
-4.260405371428571,-59.6456752,7.249366949412219,-0.4988959285714282,0.0,0.0,0.7072000000000003,148,14,337.14772297975736,1471.876,mp-1225395,Dy(CuTe)3,https://materialsproject.org/materials/mp-1225395,55.424753146854506,20.299408922859573,6.193653343392258,-6.22798435769571
-3.3777471577777787,-60.79944884,3.932281706342336,-1.2176676442911871,5.0,0.06340354282060838,2.2911,140,18,919.0389254377527,2176.3535014000004,mp-569118,Cs3MnI5,https://materialsproject.org/materials/mp-569118,17.887912138364747,-8.570146867782004,8.507732205737236,-0.8114663664873881
-5.7901655115,-231.60662046,8.219062385014102,-0.5460049139999995,1.7125e-06,2.071419689572197e-08,0.0,223,40,963.4737964246273,4768.84376,mp-30756,LaSn3Ru,https://materialsproject.org/materials/mp-30756,0.6922980425954516,49.79107218895196,-8.604250342815693,-0.5045126942092143
-1.70346003,-6.81384012,0.4203536001833607,1.791657335,2.0000042000000002,0.023813805427791088,0.10709999999999996,71,4,978.7674869044837,247.76800000000003,mp-1096585,LiMg2Ir,https://materialsproject.org/materials/mp-1096585,10.632196350271453,-8.530701086126209,5.834869645510905,-5.260965574533573
-5.9464811845000005,-118.92962369,6.40764396935387,-0.20635056249999975,6.029666075,0.13925678651575202,0.0,163,20,504.6082187671849,1947.1688,mp-2750,Cr2Te3,https://materialsproject.org/materials/mp-2750,54.03223329540125,33.90257224972477,-8.604250342815693,-0.5045126942092143
-5.094191632708333,-244.52119837,4.2508475540174375,-0.26489159183499983,0.0005276,1.2966212939953653e-05,0.0,206,48,474.20820577889367,1213.9352,mp-1247320,Li3RhN2,https://materialsproject.org/materials/mp-1247320,-9.27972710084893,-22.089880688029627,6.255003741252542,-4.323841020021513
-4.6310574,-27.786344399999997,7.582269103730877,-0.482453689083334,1.3e-06,1.1934115358300524e-07,0.0,183,6,126.94936951309208,579.66976928,mp-1220866,NaSn2Pd3,https://materialsproject.org/materials/mp-1220866,37.685975988582655,32.367810764317014,-8.604250342815693,-0.5045126942092143
-4.904174547777779,-44.13757093,6.404921697878313,-1.0630980395785443,0.7158245,0.02361490535242968,0.0,38,9,353.2626942299746,1362.5815719,mp-1229153,Cs(ThTe3)2,https://materialsproject.org/materials/mp-1229153,3.4201961753639067,30.25472250004157,-8.604250342815693,-0.5045126942092143
-3.170982545,-240.99467342,4.46575412096258,-0.14563622823684222,7.190000000000001e-05,3.5533659451642274e-07,0.17720000000000002,2,76,2358.122608473176,6341.79353984,mp-1221178,Na7Sn12,https://materialsproject.org/materials/mp-1221178,33.75074809362954,14.09384223979226,3.5441998476712215,-5.4398044171149325
-4.3415687145833335,-104.19764915,4.428652428375802,-1.0069299996982763,0.0,0.0,0.4985,14,24,967.3196190883403,2579.8384,mp-29603,Rb2ZrTe3,https://materialsproject.org/materials/mp-29603,64.97780193747796,17.363160819808108,6.922697191434722,-6.176385945788164