energy_per_atom,energy,density,formation_energy_per_atom,total_magnetization_uB,total_magnetization_T,band_gap,sgr,num_sites,cell_volume,weight,mp_id,formula,URL,tsne_xrd_lin1_0,tsne_xrd_lin1_1,tsne_xrd_lin2_0,tsne_xrd_lin2_1
-6.92153530631579,-263.01834164,8.919187968952887,-0.06350362236842133,25.2135278,0.6058309115735617,0.0,194,38,485.0199626868257,2605.16863,mp-1200096,Sm2Co17,https://materialsproject.org/materials/mp-1200096,-56.65583919957632,-23.349399492381057,-58.040875392333156,-12.997071007186225
-7.065492355000001,-268.48870949,8.763506832477272,-0.07925286868421129,23.13101785,0.5548177704288876,0.0,194,38,485.87192885107135,2564.19263,mp-2216,Ce2Co17,https://materialsproject.org/materials/mp-2216,-56.80273274189389,-23.395375769316722,-58.314208368003065,-13.019345301171429
-7.922327966052633,-301.04846271,8.993305065660659,-0.07829002500000115,25.2539845,0.6054405095514128,0.0,194,38,486.11146179544863,2632.72863,mp-1201816,Gd2Co17,https://materialsproject.org/materials/mp-1201816,-56.59991732557497,-23.24949025095873,-54.60240501090019,-8.344888510757732
-7.185846405526315,-273.06216341,8.666237015001057,-0.09596423499999973,18.14304385,0.4330459323490221,0.0,164,38,488.26277400263467,2548.2092399999997,mp-1227655,Ce2VCo16,https://materialsproject.org/materials/mp-1227655,-56.533033835423744,-23.41939387136829,-54.540340844485215,-8.800870543819528
-6.899854018333333,-206.99562055,8.45770838737563,-0.058678864999999775,30.919406199999997,0.8905976085256287,0.0,65,30,404.6010893521441,2060.7754136,mp-1227640,Ce4AlCo25,https://materialsproject.org/materials/mp-1227640,-56.3948306112241,-22.785264645541268,-55.131075683061276,-8.314958744944802
-6.32317849763158,-240.28078291,8.771553226999572,-0.06993519868421129,5.29842525,0.12528684702009646,0.0,194,38,492.85453760490236,2603.4316,mp-1201182,Eu2Ni17,https://materialsproject.org/materials/mp-1201182,-56.29650799770274,-23.423998994747794,-54.56586935337209,-8.950752044367885
-5.8165023599999985,-221.02708968,8.826559620963108,-0.14489439657894745,0.00275865,6.642837911415647e-05,0.0,194,38,483.9721548763556,2572.5436,mp-570596,Nd2Ni17,https://materialsproject.org/materials/mp-570596,-56.886836433992755,-23.391389230196687,-58.57910586989314,-13.375778331076985
-6.944166909210527,-263.87834255,9.217538416523396,-0.10069178552631654,25.47748205,0.6188070657374155,0.0,194,38,479.82035515156883,2663.4499100000003,mp-1023,Ho2Co17,https://materialsproject.org/materials/mp-1023,-57.094262083138325,-23.1430755301626,-58.63841498396946,-13.642018079256012
-6.711070232894738,-255.02066885,8.892888223382387,-0.01725849105263116,26.1652365,0.6205431819870983,0.0,194,38,491.39426523694016,2631.62393,mp-1215870,YbPrCo17,https://materialsproject.org/materials/mp-1215870,-56.60923044931018,-23.364635412411605,-54.86495619538642,-9.185063833276603
-6.592563492631579,-250.51741272,9.281953885457064,-0.03222963421052626,49.8637233,1.190637389390968,0.0,156,38,488.0705631430274,2728.179435,mp-1216133,Yb4ZrCo33,https://materialsproject.org/materials/mp-1216133,-56.70297445360158,-23.27516674209363,-54.78921606532463,-8.855421166861408
-6.889661468421052,-261.8071358,8.695256093113553,-0.06187998578947354,21.77817065,0.5164422161764872,0.0,164,38,491.44745226680743,2573.41824,mp-1227675,Ce2Co16Cu,https://materialsproject.org/materials/mp-1227675,-56.48018851186245,-23.4177901338181,-54.686124075886596,-8.83706590075502
-6.940065323157895,-263.72248228,9.059164497692887,-0.0913898936842103,25.30538565,0.6095639708129645,0.0,194,38,483.8058310211241,2639.43003,mp-1199370,Tb2Co17,https://materialsproject.org/materials/mp-1199370,-56.71256616120871,-23.198386094461785,-55.05526182117174,-8.08899951101896
-6.192768670263157,-235.32520947,10.010375820134547,-0.24275983342105326,0.00510585,0.0001226901869818052,0.01909999999999989,194,38,484.9932018426075,2923.72784,mp-30810,Th2Ni17,https://materialsproject.org/materials/mp-30810,-56.68472881344214,-22.991824266194246,-54.96077564240843,-8.12516132432579
-6.94655129,-263.96894902,9.28113690774228,-0.10419728105263236,25.47695035,0.6208922534197503,0.0,194,38,478.1989595632194,2672.76463,mp-2531,Er2Co17,https://materialsproject.org/materials/mp-2531,-57.152698054803764,-23.085297773355546,-58.58790144683049,-13.657594014779495
-7.209310750526316,-136.97690426,8.493565405758076,-0.06453735157894644,28.6487081,1.3299030784951151,0.0,160,19,251.05130234404663,1284.113535,mp-1220100,NdSmFe4Co13,https://materialsproject.org/materials/mp-1220100,-55.390542547995004,-24.445750316380497,-57.33488722182253,-11.973536460950168
-6.9416722397368416,-263.78354511,9.11326358252204,-0.0953147881578936,25.2781977,0.6092448472805702,0.0,194,38,483.53917910725113,2653.72863,mp-569638,Dy2Co17,https://materialsproject.org/materials/mp-569638,-57.01602821877345,-23.17558321554462,-58.680698249219866,-13.767500176480127
-5.573324031052632,-211.78631318,9.469044545490943,-0.3607274884210528,0.00012209999999999999,2.9382317857916888e-06,0.0,194,38,484.2917143604892,2761.6212,mp-1200461,Lu2Ga3Ni14,https://materialsproject.org/materials/mp-1200461,-56.6283002300684,-23.16516708270337,-55.140196705144824,-8.114735168609053
-6.74279191,-40.45675146,7.752281023097825,-0.1838118883333332,4.7008184,0.6676178956018209,0.0,191,6,82.05837872014494,383.092235,mp-1215948,YCo3Ni2,https://materialsproject.org/materials/mp-1215948,-53.96597719277994,-18.168828648237728,-55.42031577525346,-14.050845415958172
-8.077450034210527,-306.9431013,8.672193801807081,-0.03172043263158068,36.24311535,0.8488749797929863,0.0,194,38,497.57576074542504,2598.598,mp-1195842,Lu2Fe17,https://materialsproject.org/materials/mp-1195842,-55.4892263936497,-22.914631148872427,-56.14861111123576,-9.448501421445666
-7.430555478421053,-141.18055409,8.873143204475975,-0.07952066592105211,18.2809942,0.8693780167029227,0.0,160,19,245.05783033433795,1309.474315,mp-1219295,SmGdCo17,https://materialsproject.org/materials/mp-1219295,-55.895454575835494,-24.340680838266465,-57.51094215680104,-12.029789334964851
-7.031451573684211,-133.5975799,8.454724467774021,-0.08126015065789416,25.34071,1.211516250127214,0.0,160,19,243.76253780470643,1241.130165,mp-1219047,SmYCo17,https://materialsproject.org/materials/mp-1219047,-56.636919152370176,-24.260374643339357,-60.14804160799353,-12.225654625925465
-6.913337915263157,-131.35342039,8.741127800513901,-0.051762423552630527,25.1811505,1.1946165537422346,0.0,160,19,245.6543549938913,1293.131965,mp-1219785,PrSmCo17,https://materialsproject.org/materials/mp-1219785,-55.88871258087885,-24.36092594301813,-57.61440919815063,-12.182081141742986
-8.647269425882353,-147.00358024,8.266696402568709,-0.5241316311029406,0.0005565,2.3448686513915743e-05,0.0,162,17,276.5821037387584,1376.9145,mp-1220750,Nb10Ge6C,https://materialsproject.org/materials/mp-1220750,-54.31608824340825,-20.243163732940435,-55.79206361687446,-13.716816216718176
-7.304341503421052,-277.56497713,8.910374625210476,-0.10564624026315828,29.75399445,0.7067893341180704,0.0,194,38,490.6058450858789,2632.5679600000003,mp-1197249,Ho2Fe5Co12,https://materialsproject.org/materials/mp-1197249,-56.36987220712248,-23.34614115014789,-54.36554696583871,-9.012640469592855
-6.811187623947369,-258.82512971,8.744194154746674,-0.031722103289473884,51.1687797,1.2079939907224762,0.0,8,38,493.64837700888586,2599.49158,mp-1215883,YbPr3Co34,https://materialsproject.org/materials/mp-1215883,-55.79088644867133,-24.411538339422645,-57.45321822691676,-12.09684693987234
-7.689382994375,-123.03012791,8.017607322717314,-0.2321702693750005,0.36641935,0.01530221839135284,0.0,193,16,279.0624685654936,1347.4018,mp-1105552,Nb5Ga3,https://materialsproject.org/materials/mp-1105552,-54.59545871986621,-20.23091668780236,-56.12290760693069,-13.774414417981202
-5.843046839473684,-222.03577990000002,8.969397974050366,-0.17657008289473713,6.90658525,0.16740963503945905,0.0,194,38,480.79545625754247,2597.0156,mp-1203310,Sm2Ni17,https://materialsproject.org/materials/mp-1203310,-56.95357342077642,-23.072065959769102,-55.189074481676165,-7.982000240045957
-7.104384627894738,-134.98330793,8.427933612175309,-0.0900893036842107,24.0333365,1.1549032936817505,0.0,160,19,242.51905921822117,1230.8861650000001,mp-1226612,CeYCo17,https://materialsproject.org/materials/mp-1226612,-56.67162288336858,-24.313672754759413,-60.328896980295674,-12.368073922862857
-6.722876392105262,-127.73465145,8.587010201567633,-0.016215096315789133,23.419261499999998,1.0955420718667763,0.0,160,19,249.12743878603246,1288.29242,mp-1219957,Pr2Co16Cu,https://materialsproject.org/materials/mp-1219957,-55.35772807509058,-24.585420772687193,-57.38520885764458,-12.01627027513102
-8.099042877894737,-153.88181468,8.108868494507595,0.04036026868420986,21.9605374,1.001204160365076,0.0,166,19,255.62171576124726,1248.27109,mp-1188192,Sm2Mn2Fe15,https://materialsproject.org/materials/mp-1188192,-54.723571605018655,-24.485263634421557,-57.06937928293647,-11.983092138601586
-6.921571765263157,-131.50986354,8.899644397896674,-0.06783511105263074,25.267236999999998,1.2046952106591704,0.0,160,19,244.43196421482787,1310.030965,mp-1220026,PrErCo17,https://materialsproject.org/materials/mp-1220026,-55.912674637144015,-24.34907226159657,-57.52824619326928,-12.13695624927896
-7.03278327,-133.62288213,8.476587296198206,-0.04897812026315837,20.3001014,0.9496608322522456,0.0,160,19,249.11914714230358,1271.68356,mp-1223090,La2VCo16,https://materialsproject.org/materials/mp-1223090,-55.51329201704442,-24.526252030503727,-57.472969573978965,-12.098808149903133
-7.016000577105262,-266.60802193,8.881028031464211,-0.08230954473684224,21.3347497,0.4980907719697302,0.0,164,38,499.1792036758684,2669.75024,mp-1219324,Sm2ZrCo16,https://materialsproject.org/materials/mp-1219324,-56.0019551493281,-23.401430189613308,-54.814988315732975,-8.984810915832705
-6.608511862045455,-290.77452193,8.638771113640287,-0.13315912458454512,21.69686185,0.5118037980578327,0.0,194,44,494.04993538677695,2570.24027,mp-1213920,Ce2Co17H3,https://materialsproject.org/materials/mp-1213920,-56.740659889554976,-23.501507529016123,-58.16115848550745,-12.920789748227675
-8.062767555789472,-306.38516712,8.073479916831065,-0.004004588486843001,79.69770159999999,1.787823278172906,0.0,8,38,519.5156523634362,2525.86605,mp-1217679,Tb3SmFe34,https://materialsproject.org/materials/mp-1217679,-53.56257389682885,-23.901472978872548,-55.73434578213743,-11.313382860509893
-8.366947942631578,-317.94402182,7.3565738819498385,0.007033061052631614,27.06239615,0.6240570259393349,0.0,194,38,505.38156694582125,2238.9578,mp-1207800,Y2Cr2Fe15,https://materialsproject.org/materials/mp-1207800,-57.0531337847063,-25.233960994775053,-59.9017897102766,-12.13224510575814
-7.850696396052631,-298.32646305,8.158860130661223,-0.2797276557894726,26.073576199999998,0.6217681402214233,0.0,194,38,488.70813126394586,2401.209,mp-1204517,Er2Fe14Si3,https://materialsproject.org/materials/mp-1204517,-56.46104664449943,-23.11790792897817,-56.27863543624674,-9.409130841153784
-7.216954912105262,-137.12214333,8.579170234651954,-0.07474711657894773,28.6188249,1.3355426685318463,0.0,160,19,249.7304256596959,1290.231535,mp-1219231,Sm2Fe4Co13,https://materialsproject.org/materials/mp-1219231,-55.41478706468472,-24.47046893751855,-57.32744037824838,-12.054682100865474
-8.121592655526316,-308.62052091,8.081012335715558,-0.02149088407894863,78.2223325,1.7820830592032664,0.0,187,38,511.5407639996661,2489.41285,mp-1216207,YEr3Fe34,https://materialsproject.org/materials/mp-1216207,-54.374261793997405,-22.974036260635177,-55.519860769084886,-10.161211131333948
-6.156837426233767,-474.07648182,9.329517420796213,-0.2814230116558452,0.0001145,1.3863223129693528e-06,0.0,229,77,962.5398105293167,5407.901720000001,mp-1204867,Ho11(Ni10C)6,https://materialsproject.org/materials/mp-1204867,-55.88108215109225,-30.874929920348173,-60.490258161594284,-30.346589490043534
-5.9164106115384625,-76.91333795,8.354463548239309,-0.2809749330769237,1.55e-05,1.1331510374642149e-06,0.0,71,13,159.41211542188597,802.03035,mp-1217855,Tb(SiNi5)2,https://materialsproject.org/materials/mp-1217855,-56.679201669086105,-23.52039948830605,-57.63726046864559,-8.557624963698588
-6.795216740526316,-129.10911807,8.183775959674016,-0.16286053421052615,17.8389032,0.8410738240622242,0.0,166,19,247.17893651727996,1218.1930022,mp-16484,Ce2Al2Co15,https://materialsproject.org/materials/mp-16484,-55.80464773998428,-24.43499467466797,-57.634785542953736,-12.175885419068456
-8.184547146315786,-155.50639578,7.893731904346608,0.009440814210526132,37.074909600000005,1.6704289774258845,0.0,166,19,258.6601428460708,1229.597,mp-654,Ce2Fe17,https://materialsproject.org/materials/mp-654,-54.53760311489616,-24.32577940679993,-57.10678460130178,-11.892516662820668
-8.15152903105263,-154.87905159,8.06788996247386,0.03813249447368381,28.604458500000003,1.3036621773677892,0.0,166,19,255.70904635438282,1242.3872,mp-3890,Sm2Cr2Fe15,https://materialsproject.org/materials/mp-3890,-54.58828259304384,-24.38049330267993,-57.16808534622746,-11.818881272531529
-5.234021040833333,-565.27427241,8.819943123236834,-0.6047341426851851,8.2525e-05,5.767321756838136e-07,0.0,116,108,1667.5880693064667,8857.384,mp-30665,Ga17Rh10,https://materialsproject.org/materials/mp-30665,-65.27242823865339,-28.907284645338105,-64.73415774728934,-15.58664438828507
-5.8523094626315775,-222.38775958,9.402617928017234,-0.2003892663157896,6.8595155,0.17047373746160646,0.0,194,38,468.93579700733255,2655.29688,mp-1202187,Ho2Ni17,https://materialsproject.org/materials/mp-1202187,-57.609222948740694,-22.78167663430367,-58.7979543497225,-14.248117673711441
-5.855458889210527,-222.50743779,9.320026067603193,-0.20065636500000114,6.92400465,0.1711916739199446,0.0,194,38,471.3593647921181,2645.5756,mp-1197654,Dy2Ni17,https://materialsproject.org/materials/mp-1197654,-57.517174759323794,-23.005497405969983,-58.784722653894974,-13.970664930904743
-8.112088318421053,-154.12967805,7.958700051704358,-0.013709503947368556,33.2932683,1.4934622356488745,0.0,160,19,259.8002788398801,1245.1815,mp-1219218,Sm2VFe16,https://materialsproject.org/materials/mp-1219218,-53.509310825191314,-23.902546151286103,-56.143258222153186,-11.362900492037484
-6.71678726763158,-255.23791617,7.263766061282501,-0.2052610255263164,16.77948025,0.3946218374655305,0.0,194,38,495.5355510463025,2167.6420916,mp-1204905,Y2Al3Co14,https://materialsproject.org/materials/mp-1204905,-56.53165589911559,-24.027188369504927,-54.981045523613844,-9.093115580548092
-7.7989482984210525,-148.18001767,7.852173533880077,-0.05259063552631759,28.0293435,1.2930669224796485,0.0,166,19,252.62094250691516,1194.566,mp-1188924,Sm2Fe15Si2,https://materialsproject.org/materials/mp-1188924,-55.02877357980875,-24.40176436184661,-57.00671056060685,-11.922626652138767
-7.860320485384616,-102.18416631,7.691118913922954,-0.1552980132692312,19.5722414,1.3810448355441851,0.0,69,13,165.16203033328438,764.9810000000001,mp-1219261,Sm(Fe5Si)2,https://materialsproject.org/materials/mp-1219261,-55.6464902068454,-23.1978267023777,-56.22414952717871,-9.580211246158171
-6.484736768636364,-142.66420891,8.667242341531527,-0.12010895140272736,24.1023414,1.1229377019563795,0.0,166,22,250.1387631358184,1305.608135,mp-1191788,Sm2Co17H3,https://materialsproject.org/materials/mp-1191788,-55.291581790854536,-24.608795832535527,-56.68133767960166,-12.043125036106785
-6.406085197894738,-121.71561876,8.94871860658831,-0.20151382473684154,17.6452347,0.8196205080497647,0.0,160,19,250.89502532107474,1352.08443,mp-1217733,Tb2Ga3Co14,https://materialsproject.org/materials/mp-1217733,-55.31715803376989,-24.515818431150628,-57.3601882950253,-12.078371062301887
-8.195898076538462,-213.09334999,8.013504838231343,-0.07304060926282191,42.4859256,1.455250805118959,0.0,8,26,340.2394467832488,1641.943,mp-1219391,SmEr(TiFe11)2,https://materialsproject.org/materials/mp-1219391,-54.23545334472558,-24.459524341929907,-53.325515232629044,-10.386304598432641
-6.616000005833333,-79.39200007,7.703073049914146,-0.1679981391666665,8.599456800000002,0.606968246153915,0.0,47,12,165.11345888531946,765.944675,mp-1216167,Y2(CoNi)5,https://materialsproject.org/materials/mp-1216167,-53.58958172823884,-17.27572530771824,-55.12321058753975,-14.17210415947803
-5.855406866315789,-222.50546092,9.205298930750713,-0.19828636421052626,6.8218512,0.16749502266661806,0.0,194,38,474.65467622763566,2631.277,mp-569945,Tb2Ni17,https://materialsproject.org/materials/mp-569945,-57.439856485854385,-23.07721939732944,-58.78626765116885,-13.929045167179641
-6.158478433376622,-474.20283937,9.384528370299957,-0.28458553165584416,0.0014898,1.8058751104686513e-05,0.0,229,77,961.4300345306643,5433.517199999998,mp-1197229,Er11(Ni10C)6,https://materialsproject.org/materials/mp-1197229,-55.812519371471815,-30.79492922147772,-60.34080171170644,-30.342969123368626
-7.436090176363637,-327.18796776,11.962359182409134,0.03069639136363765,5e-08,8.373313981524843e-10,0.6958000000000002,116,44,695.9051576397114,5013.232,mp-1201064,Re4Ge7,https://materialsproject.org/materials/mp-1201064,-53.80398510724778,-18.637491541982477,-58.371327354608745,-12.810372660161665
-6.44393177,-38.66359062,9.381494901058977,-0.19983880916666766,4.718064,0.6766142135917401,0.0,191,6,81.2643635805426,459.116705,mp-1223880,HoCo3Ni2,https://materialsproject.org/materials/mp-1223880,-54.02392703610833,-17.912625399373557,-54.65051173359373,-5.755689687316834
-7.0224184985,-140.44836997,6.44960829478125,-0.036376457451999036,0.0001818,1.0173730169186706e-05,0.0,59,20,208.25291612984887,808.8636899999998,mp-1245431,MnNi5N4,https://materialsproject.org/materials/mp-1245431,-62.72321619799936,-25.86955866354691,-58.922886559288514,0.3520518523446456
-7.8692334352631566,-299.03087054,10.28871285552742,0.0009479376973675508,25.086517100000002,0.6079292506231747,0.0,194,38,480.9110515765358,2979.72863,mp-568820,Pu2Co17,https://materialsproject.org/materials/mp-568820,-56.700761814381465,-22.81195188762336,-55.15243895343024,-8.282683780614974
-6.9100930836842105,-131.29176859,8.660873739443463,-0.04693019289473754,25.3036463,1.1919723840733047,0.0,166,19,247.3969505521741,1290.348315,mp-356,Nd2Co17,https://materialsproject.org/materials/mp-356,-55.676795848803074,-24.39642399908936,-57.569832519542274,-12.15576540387202
-7.2020306294736836,-136.83858196,8.446686512189222,-0.05469162710526414,28.596056400000002,1.3264519474470984,0.0,160,19,251.241889438035,1277.995535,mp-1220336,Nd2Fe4Co13,https://materialsproject.org/materials/mp-1220336,-55.222923745965474,-24.620322486879253,-57.37930866161865,-12.07885160957706
-7.982841033157894,-151.67397963,8.212974309201256,0.08082660118421059,28.614417,1.3168149597584708,0.0,160,19,253.24307464444263,1252.53235,mp-1217525,TbNdFe17,https://materialsproject.org/materials/mp-1217525,-54.720937273999425,-24.450889829771302,-57.18158579176365,-12.030924445860482
-8.815363448461538,-114.59972483,8.641308734036484,-0.01619657230769178,0.3319844,0.024310571014565012,0.0,139,13,159.14754526997243,828.1907500000002,mp-980811,TmMn12,https://materialsproject.org/materials/mp-980811,-57.084413964862996,-23.18303839933588,-55.72273070880392,-8.374105596177973
-6.154102225974027,-473.86587139999995,9.263290333555954,-0.2747760806818185,6.4e-05,7.732092128433315e-07,0.0,229,77,964.6291495946613,5381.168199999999,mp-1202044,Dy11(Ni10C)6,https://materialsproject.org/materials/mp-1202044,-55.98157872824031,-30.909698841608748,-60.634576374341925,-30.469931081465386
-7.143884534736843,-135.73380616,10.07623686577908,-0.0023207705263156467,5.0041207000000005,0.24140049558015805,0.0,166,19,241.5833763197139,1465.940435,mp-16932,Th2Co17,https://materialsproject.org/materials/mp-16932,-56.54137864724948,-22.695013168427067,-55.21384320923398,-8.175285518140166