energy_per_atom,energy,density,formation_energy_per_atom,total_magnetization_uB,total_magnetization_T,band_gap,sgr,num_sites,cell_volume,weight,mp_id,formula,URL,tsne_xrd_lin1_0,tsne_xrd_lin1_1,tsne_xrd_lin2_0,tsne_xrd_lin2_1
-6.870467391666666,-82.44560870000001,4.977489682653391,-1.0010013057142852,7.000000675,0.32195887753598257,0.0,62,12,253.38161785985932,759.5150480000001,mp-1211143,LiEuP,https://materialsproject.org/materials/mp-1211143,2.6192097188932486,13.950321229774818,28.43315207918747,12.173309107966347
-8.266878989,-82.66878989,7.125811750112423,-2.52753744825,10.99999965,1.075257780139474,0.0,74,10,119.22230258367023,511.6144,mp-1011260,EuFeO3,https://materialsproject.org/materials/mp-1011260,-25.93851628571966,51.54711348449712,-12.288901145944328,68.38863822898595
-8.547944597142857,-239.34244872,8.022990353155784,-3.028194919196428,1e-07,2.9978381393576745e-09,0.1826000000000008,2,28,388.7489661151861,1878.2631,mp-1209784,Pr3Re2O9,https://materialsproject.org/materials/mp-1209784,33.11254235825426,32.144529381060714,30.579264520525108,32.93178614472208
-7.57386078296875,-484.72709011,5.4218580604860405,-2.37708431125,6.99999345,0.10677042779409003,0.019400000000000084,87,64,764.0540434203367,2494.7276,mp-1101209,V5BiO10,https://materialsproject.org/materials/mp-1101209,-1.352703561990204,27.25942211017025,4.986224271597122,35.76371019168563
-7.916465688,-39.58232844,10.871477942261649,-0.5404208997499993,4.2660047,0.5534695373342711,0.0,139,5,89.82661508941842,588.091,mp-16471,Np(GeRh)2,https://materialsproject.org/materials/mp-16471,-49.471029594403504,28.55202185099752,-50.78135742272976,20.29433030489661
-3.30755294125,-26.46042353,5.8310283370407605,-0.29071362958333324,0.0,0.0,0.0,140,8,250.45568492614086,879.482,mp-20408,InGaTe2,https://materialsproject.org/materials/mp-20408,-12.489766102092226,35.47343112528413,-10.06852814741806,22.401430172429308
-5.1649551166666665,-61.97946139999999,5.691305426557615,-1.5500968470746528,0.0,0.0,1.3283,63,12,333.18764450800944,1141.9621,mp-6647,BaYAgSe3,https://materialsproject.org/materials/mp-6647,-12.38346753199558,18.485521798752643,-4.391810379733541,25.775533111798726
-4.034206393333333,-24.20523836,7.858638343939158,-0.92568589,0.0,0.0,0.0,194,6,192.72925474166507,912.1071380000001,mp-568895,BaSbAu,https://materialsproject.org/materials/mp-568895,-11.815641516704838,23.505725109054733,-19.08135013413541,-9.318343668047493
-5.567434525,-55.67434525,5.447329557966991,-1.8894576840312511,3.3e-06,1.5887141968390732e-07,1.0797000000000008,12,10,242.07257558322547,794.10906,mp-1078630,Ba2ThCu2S5,https://materialsproject.org/materials/mp-1078630,6.155731772272916,3.4493711903109037,8.997451391683644,14.136544772217539
-5.603419810909092,-184.91285376,8.9685075873172,-1.5665950928787882,0.024712599999999998,0.0005487326512520527,0.0,197,33,524.8498343250013,2834.6938,mp-769006,Li(Bi3O5)4,https://materialsproject.org/materials/mp-769006,4.5014790362489965,13.820190963777437,6.778403476335583,21.149557692092504
-6.5575100955,-131.15020191,5.0938063431052685,-0.964792061499999,6.086168225,0.19136688304156535,0.0,141,20,370.64197098010317,1136.9672,mp-1209711,SmV2O2,https://materialsproject.org/materials/mp-1209711,1.9453633965121908,-0.3641372008081863,3.6726556729708735,-21.66983691201482
-6.7892594396875,-217.25630207,3.5424425085889006,-2.3952641170892863,6.00000035,0.1894123132746983,2.3565,11,32,369.16497932672326,787.5428905599998,mp-759675,NaCo2P3O10,https://materialsproject.org/materials/mp-759675,10.250661598710689,30.770112192437658,58.02233025301332,36.3412164060019
-6.096599541428572,-170.70478716,4.9000836689261735,-2.49446153875,0.0003982,6.045346067095947e-06,1.7613,62,28,767.6398573262386,2265.228,mp-1194376,Ba(SmS2)2,https://materialsproject.org/materials/mp-1194376,10.172985837569993,-10.240185059669269,13.816130906101902,-5.792984290127195
-6.753182852916668,-162.07638847,7.492428078863026,-0.5765538448611119,2e-06,9.766786099589333e-08,0.0,139,24,238.64687224080228,1076.7856,mp-27895,ErNiB4,https://materialsproject.org/materials/mp-27895,-3.1346817271128,6.8753124711413856,-36.12869632963706,-10.491851646808817
-5.143192101818182,-113.15022624,5.8697531607809745,-1.5386301078654,0.0,0.0,1.5358,63,22,463.0391145804914,1636.7729037999998,mp-18540,CsEr2Cu3S5,https://materialsproject.org/materials/mp-18540,2.633447963644276,4.169075778752701,9.191985196290053,14.01999824383083
-2.7227625513235294,-185.14785349,6.167599726727986,-0.664302351507731,0.0,0.0,2.2093000000000003,198,68,1786.5017026186026,6635.452192000002,mp-568612,SnHg6(P2Cl3)2,https://materialsproject.org/materials/mp-568612,6.568920988705609,-6.283769261622982,11.885122624698438,-11.33989512156636
-7.6133003275,-243.62561048,6.463982637856742,-3.237852301875,0.0,0.0,2.0488,57,32,522.1742418994938,2032.6684,mp-18542,Nd2SiTeO4,https://materialsproject.org/materials/mp-18542,-1.3940200586521931,30.082465870345334,2.6279228364360594,28.609866179921195
-4.482420537142857,-31.37694376,5.124793042673755,-1.5996373555357144,4e-06,1.7787249831719846e-07,0.6382000000000003,139,7,262.0768220565969,808.8274,mp-9774,Ba4Sb2O,https://materialsproject.org/materials/mp-9774,-6.55442470234678,20.707183636393566,-3.868258512146842,22.461811470139686
-9.965985791666666,-59.79591475,9.16341860671663,-3.8503769625,5.999999900000001,0.8632409460957123,0.0,123,6,81.00216722365573,446.99748,mp-1225305,EuPaO4,https://materialsproject.org/materials/mp-1225305,26.024386934753984,64.68019523538325,-11.367351938005335,36.01850060323251
-5.111398043,-51.11398043,4.0409950597478215,-3.126822300955379,3.0000001,0.1939243104402905,4.1173,164,10,180.2878422189901,438.73842300000007,mp-1206440,Cs2LiCrF6,https://materialsproject.org/materials/mp-1206440,0.4783259672844039,-26.075092166111933,12.685813187279267,-17.318790127537394
-8.41063612818182,-185.03399482,8.1433239606678,-3.3035624132954564,1.9999999,0.07627535969803545,0.0,63,22,305.57874091956904,1498.5656,mp-15281,Sm3ReO7,https://materialsproject.org/materials/mp-15281,16.893992297608143,59.54513618393464,-3.3552753803944992,38.01806642387446
-4.868222495,-77.89155992,2.5283387816915006,-1.508482860867458,9.5e-07,2.3604456096346448e-08,1.6476,70,16,469.03692627958327,714.1561999999999,mp-558815,Rb2LiVS4,https://materialsproject.org/materials/mp-558815,8.083767897671901,5.499865068572862,49.54750313529504,0.93179500435795
-7.40845920203125,-474.14138893,5.231177669602978,-2.807715848601191,0.0,0.0,2.6472999999999995,33,64,922.3816000071524,2905.768496,mp-6706,TiTlPO5,https://materialsproject.org/materials/mp-6706,18.126447996087037,-10.349527538389324,38.46035632079641,-4.3039838111634
-4.932976603999999,-98.65953208,5.3657521125018555,-0.5851935785000002,9.375e-06,3.0435132788069053e-07,0.0,62,20,358.9826862381134,1159.9920632,mp-1208898,SmAl3Ni,https://materialsproject.org/materials/mp-1208898,-2.76160796386536,14.578366771325221,-2.3008301946786047,24.34741516944141
-8.1276140295,-162.55228059,7.470331671687123,-3.7459830294166676,9.000000000000001e-07,4.6622828451054936e-08,3.2332,14,20,224.96829651411667,1012.07364,mp-1207960,Tm2MgTiO6,https://materialsproject.org/materials/mp-1207960,-6.387536942159562,57.951640717365215,22.94392256093157,36.040146967455904
-6.861039955,-137.2207991,5.768965842281706,-0.5651995658333334,0.0,0.0,0.0,127,20,215.86386951482135,749.944,mp-1632,NdB4,https://materialsproject.org/materials/mp-1632,-2.3166174793316956,17.329383668223194,10.106863953033725,24.348599731329173
-9.295676298421053,-176.61784967,5.814641665530771,-3.9896403289473694,0.0,0.0,1.934,148,19,275.14294747393075,963.45681,mp-27698,Y6UO12,https://materialsproject.org/materials/mp-27698,18.084406672560565,61.037249721990264,-5.1133562820429095,37.353683627572224
-6.566954593333333,-19.70086378,6.23649449647834,0.25023453962333403,0.0,0.0,1.8753,183,3,59.37206968237332,222.983969,mp-29196,AuCN,https://materialsproject.org/materials/mp-29196,-8.270518173313155,11.608921040496273,-25.246366569276425,-11.155247571490385
-4.761400535,-28.56840321,7.139274791005179,-0.13786791583333327,7.44e-05,7.139710320105113e-06,0.0,71,6,121.44224067982582,522.12535,mp-1071473,TbGe5,https://materialsproject.org/materials/mp-1071473,-44.968710065094356,11.089332751918805,-40.07349809375377,27.055509291582656
-3.327400141,-33.27400141,2.9063298191586866,-1.8937379168180688,0.0,0.0,3.3084,225,10,418.9124866426664,733.1943557,mp-1113496,Cs3SbCl6,https://materialsproject.org/materials/mp-1113496,-26.84930041687741,-30.28649320900781,-19.80713354399266,-19.93204628815629
-5.686849920833333,-136.4843981,6.371839913174287,-2.170649830104168,1.3e-06,4.8214950366177137e-08,0.11830000000000053,36,24,314.22378513855216,1205.7432,mvc-15998,Mg3Bi2O7,https://materialsproject.org/materials/mvc-15998,-1.5738715775766716,14.559973556499274,9.459367319161666,28.224497297810768
-8.045208621666667,-48.27125173,9.948996550959329,-0.3830855741666663,0.0051903,0.0005852424311298562,0.0,25,6,103.35561670099615,619.2475149999998,mp-1216755,U2CoSi3,https://materialsproject.org/materials/mp-1216755,-30.50727672137707,51.24854812436997,-55.497705288998425,51.11305828211084
-5.991554741818181,-65.90710216,7.164416747364055,-2.1685415052272727,4.8689675,0.32938532049589897,0.0,107,11,172.2701622982452,743.2618,mp-1218840,Sr2FeBiPbO6,https://materialsproject.org/materials/mp-1218840,-5.210951892263557,21.25141550204208,-11.39438662935036,45.58752625581806
-3.8219989683333337,-45.86398762,9.023539464398931,-0.06000254119791689,3.8125e-05,1.2146969594517992e-06,0.0,14,12,365.7794777508613,1987.6832,mp-1102082,Bi2Se,https://materialsproject.org/materials/mp-1102082,11.969052017799644,38.187492411572364,3.60912661075542,19.738040912069195
-8.3693343634375,-267.81869963,6.42971611545895,-3.0284603947691675,0.0,0.0,1.0963000000000005,63,32,507.35727037194914,1964.52064,mp-560824,La6B(NO2)3,https://materialsproject.org/materials/mp-560824,18.44083684393616,54.749830793380326,0.3252018242740772,35.85045200648647
-5.959377854444443,-107.26880138,6.288777305450408,-2.370858682638889,0.0,0.0,2.2483000000000004,11,18,355.5130589767478,1346.3956,mp-760510,Sr2Bi2O5,https://materialsproject.org/materials/mp-760510,3.8350475349146764,19.880638828145486,32.55256624879397,0.20137187947882212
-5.974217918333332,-143.38123004,3.729579838750528,-1.6669300766111108,2.5e-08,7.904047331997642e-10,2.2111,73,24,368.61067131332214,827.9015999999998,mp-541966,KAgCO3,https://materialsproject.org/materials/mp-541966,24.03082678814968,32.02098734023708,23.221545066925717,51.23254455531786
-6.087263479166666,-146.0943235,4.477851225081708,-2.0409873304947923,6.5e-07,1.3937798222730092e-08,1.7778,173,24,543.4963242479777,1465.60582,mp-504650,La3CuSiS7,https://materialsproject.org/materials/mp-504650,9.369777545576943,-2.7535333999924254,10.441916540862405,4.214537786422134
-6.257028154090909,-412.96385817,3.640887246385251,-2.638786073772728,0.0,0.0,2.87,31,66,849.8372175729297,1863.34763136,mp-555363,Na2Cd(SiO3)2,https://materialsproject.org/materials/mp-555363,19.50706835602097,8.206547325731147,52.02301884393363,-2.5744038746619577
-5.497373218333332,-98.95271793,4.9173573003837125,-2.154386987812501,0.0,0.0,1.1720999999999997,140,18,435.5356776849188,1289.7525999999998,mp-16454,BaPr2ZnS5,https://materialsproject.org/materials/mp-16454,-8.299718072197123,8.882655938245541,-0.3573244389109597,20.170570791003584
-5.638139889523809,-118.40093768,5.918988037244878,-2.0614371724404763,4.93e-05,1.98938119798054e-06,0.0,25,21,288.8060839573758,1029.4487,mp-1228589,Ba2Ca3TlCu4O11,https://materialsproject.org/materials/mp-1228589,1.120717227469156,41.192993609278886,12.555592021601482,51.29485866691024
-5.27457603,-84.39321648,4.304866951400613,-2.118044121551724,0.0,0.0,3.7302,36,16,317.59213337702823,823.3422075999998,mp-14364,Cs2LiAsO4,https://materialsproject.org/materials/mp-14364,9.078500776251692,17.755362054460413,31.28134491083497,1.1810651051601246
-5.43607333,-27.18036665,4.213744787101385,-0.7439950630593337,0.0,0.0,1.7161,160,5,66.94304677855587,169.8731,mp-8196,AgNO3,https://materialsproject.org/materials/mp-8196,-1.738967470440271,-21.574532173893857,13.253261402173338,-15.57136811913612
-7.070599963636362,-155.5531992,7.776859795275777,-2.807751198295456,0.0,0.0,1.4236000000000004,46,22,301.25962522091527,1410.8996000000004,mp-755867,Lu2Sb2O7,https://materialsproject.org/materials/mp-755867,15.314546206760154,62.216370965772285,-4.022188929284057,40.76256188950077
-6.265461441538463,-162.90199748,5.0277384161396865,-0.2183495430215382,0.0032968000000000003,7.927000282239145e-05,0.9558,15,26,484.6867588520124,1467.5224,mp-1247141,Si2Sn5N6,https://materialsproject.org/materials/mp-1247141,0.016015123576641803,21.19916389965971,8.762583353997739,27.400548034430532
-8.935581098,-268.06743294,7.087721746330439,-3.8682270498333327,6.000979,0.1717263228004465,0.0,2,30,407.25147329940177,1738.2820000000004,mp-675102,Ce9GdO20,https://materialsproject.org/materials/mp-675102,26.51281102168437,64.69670949807951,-10.747092888213775,35.73450156145584
-3.204483275,-38.45379929999999,4.294022341268532,-0.7820076066666667,0.0,0.0,2.5037000000000003,62,12,430.82217611945816,1114.072,mp-29862,SnBr2,https://materialsproject.org/materials/mp-29862,4.838234922550536,21.867565937299336,-0.18088707754268898,-1.8809152237197349
-7.148093982000001,-35.74046991,7.6413905466362415,-0.5536928239999994,3.7850486000000005,0.5440578665867695,0.0,107,5,81.07814308140561,373.10159,mp-1225693,DyMn2SiGe,https://materialsproject.org/materials/mp-1225693,-60.298960956661254,15.331006847354336,-60.32074379483152,24.281907230723
-5.609614075,-33.65768445,5.9697555385998,-0.7738957694444443,5.7100000000000006e-05,3.68339127463718e-06,0.0,10,6,180.6615287100353,649.491,mp-8677,ZrTiTe4,https://materialsproject.org/materials/mp-8677,-14.11600861703058,23.631193809271345,-16.109809436579276,43.46229561192792
-8.2136113925,-164.27222785,7.761325708152947,-3.2374091487500003,3.000000925,0.15420672842488362,2.498800000000001,62,20,226.72295466484528,1059.69848,mp-756834,HoCrO3,https://materialsproject.org/materials/mp-756834,-9.227708912957892,44.279560577751205,-3.5507029466509343,63.451453842347895
-6.62144075,-33.10720375,9.160948657382727,-2.440209110583333,0.0001604,3.046195500780273e-05,0.0,221,5,61.36546354427208,338.5442,mp-864606,AcCuO3,https://materialsproject.org/materials/mp-864606,-30.416074339221147,49.18251459248489,-17.690054365257453,66.48662989681496
-5.940573277777778,-106.930319,7.300572412289316,-2.298600705972221,0.0,0.0,2.0078,14,18,351.4661547648052,1545.2236,mp-28670,Ba2Bi2O5,https://materialsproject.org/materials/mp-28670,12.256420841647401,25.57233162576376,30.506085929540195,2.5182539058271094
-8.229267924545455,-181.04389434,10.2286045346464,-2.7776144101136366,2.368183,0.08449398293588946,0.0,51,22,326.6381476680497,2012.02884,mp-676230,U2Bi2O7,https://materialsproject.org/materials/mp-676230,27.17794729247927,64.10801876617919,-10.4331923128489,36.3761237421109
-4.26257616125,-34.10060929,6.299240883424518,-0.6796309282812505,0.0,0.0,1.2344,38,8,252.2900017689796,957.06,mp-1079101,PbS,https://materialsproject.org/materials/mp-1079101,7.670532757214469,-6.343452117853175,23.826829275722872,-4.4846932408606675
-6.917989573,-69.17989573,3.6556494601448786,-2.2453428270000004,0.0,0.0,3.3748,148,10,123.78325246960037,272.5068,mp-1227329,CaCd(CO3)2,https://materialsproject.org/materials/mp-1227329,1.7122255580053312,15.66273317694526,-9.782893187785415,28.52071753073103
-5.597694645681819,-246.29856441,6.345561084421071,-1.9706003987878788,1.9819873,0.035197510440475914,0.2336999999999998,140,44,656.2455151949771,2507.7676,mp-679985,Ba3In4(CuO4)3,https://materialsproject.org/materials/mp-679985,-0.1678490554416774,23.11191394324168,2.242621066678031,26.90238762507617
-8.834224084,-44.17112042,9.448322504694424,-2.504916711226,0.0,0.0,0.9046000000000004,156,5,100.00220214219826,569.00382,mp-1217281,Th2AsNO,https://materialsproject.org/materials/mp-1217281,-13.884168419603858,22.33517911034616,-18.482068252782575,37.94705423348961
-6.813064610714287,-95.38290455,6.634416728167205,-2.7356278146428576,1.99999985,0.12901231838418842,0.0,63,14,180.66590918550838,721.82159,mp-1217772,SrSmCoO4,https://materialsproject.org/materials/mp-1217772,-23.35522065784761,41.00080650638675,-8.067446871583979,64.72172810912025
-7.754859073409091,-341.21379923,5.911021509863343,-2.9230863942045464,3.0000001,0.05859735617416297,1.1666000000000007,148,44,596.6514151111353,2123.90029,mp-19436,La7Mo7O30,https://materialsproject.org/materials/mp-19436,2.28127610176374,-16.623183031397826,11.870167604813853,8.157643571056223
-7.397645338333334,-44.38587203,4.936660405130227,-0.0024461783333341227,15.0843437,0.7961149353836886,0.0,12,6,220.814747617602,656.466,mp-1183959,Eu2Mg,https://materialsproject.org/materials/mp-1183959,10.80394436349819,34.372630014900466,27.24751036247251,42.08717190331744
-6.443147900666668,-96.64721851,5.583469217948487,-2.445349834333333,0.7856331,0.04550091734875357,0.0,139,15,201.22273502069683,676.60014,mp-1214137,Ca2La2Cu3O8,https://materialsproject.org/materials/mp-1214137,-24.10975276846559,47.17111834629633,-9.869723104525855,65.8665847873894
-6.1790637725,-321.31131617,3.857561479162227,-2.1617084260013257,0.0,0.0,4.0278,122,52,890.123243727834,2067.8256,mp-697222,Rb3LiZn2(MoO4)4,https://materialsproject.org/materials/mp-697222,1.7988318005436204,-16.308203705615767,34.1371937240289,-7.550335985231218
-7.328422407000001,-146.56844814,7.0991954060106846,-2.99957491625,0.99999695,0.04830928114984084,0.0,62,20,241.2378936361079,1031.3488,mp-1019598,CeGaO3,https://materialsproject.org/materials/mp-1019598,-25.113730263060926,50.249997627582474,-8.456052038384366,64.58721435900998
-7.911909975555554,-142.41437956,6.499342742376096,-2.6826145444166656,0.00466595,0.00020461143112090744,0.0,46,18,265.75877617215184,1040.17872,mp-1099764,K2Ta2O5,https://materialsproject.org/materials/mp-1099764,-28.598579295455984,34.75856210246933,1.7263209167057063,42.46957887667067
-3.9771508116666663,-23.86290487,8.675813363406359,-0.7253253616666674,0.0,0.0,0.0,194,6,137.1738874277047,716.692,mp-9439,YbCuSb,https://materialsproject.org/materials/mp-9439,-52.51980804287618,22.3611108904772,-48.91455379494091,28.66193511920072
-4.59019402590909,-100.98426857,5.029946008520311,-2.1502705328784852,4.99999985,0.19209972695087246,1.4612,74,22,303.33370608897735,918.8294447999999,mp-1213740,CrNiAg2F7,https://materialsproject.org/materials/mp-1213740,14.950745925760883,62.551297639264156,-10.576363071844014,7.1240498188495325
-8.435077682631578,-160.26647597,8.755995486012703,-3.6651192506578942,0.9994354,0.04490263206996936,0.036700000000000184,148,19,259.3942570992154,1367.78172,mp-753766,Ho6ReO12,https://materialsproject.org/materials/mp-753766,15.372409172103216,60.51231280050281,-5.221615431416268,38.050862334057385
-6.687263875588235,-227.36697177,3.641371154815421,-2.4000512145693267,0.0,0.0,3.4431000000000003,5,34,473.6916762188712,1038.7513720000004,mp-759444,LiSb2P3O11,https://materialsproject.org/materials/mp-759444,26.898393120043487,-0.9721089414608058,38.898589959074776,-18.780297017919363
-7.0758137453125,-226.42603985,6.901373942084381,-2.3735997410212493,5.999999725,0.20019466638495206,0.0,55,32,349.2819598701672,1451.65236,mp-704504,YbMn2O5,https://materialsproject.org/materials/mp-704504,-1.9836325241589905,27.30081602008707,1.1124522800776526,49.63924472643591
-5.835065575000002,-70.0207869,4.47234314766347,-1.3366452919980247,4.9999997,0.1527754627936974,0.5653999999999999,63,12,381.4115126934044,1027.2586938,mp-1213646,CsYMnSe3,https://materialsproject.org/materials/mp-1213646,1.183617623439334,1.1805491358757023,-6.2046563340427126,-12.767532410956786