energy_per_atom,energy,density,formation_energy_per_atom,total_magnetization_uB,total_magnetization_T,band_gap,sgr,num_sites,cell_volume,weight,mp_id,formula,URL,tsne_cry_lin1_0,tsne_cry_lin1_1,tsne_cry_lin2_0,tsne_cry_lin2_1
-6.027639446111111,-108.49751003,8.423621240204717,-0.9058837224999996,6e-07,1.8155050614849307e-08,0.0,74,18,385.1511632700481,1953.8038199999999,mp-571217,La3SiPd5,https://materialsproject.org/materials/mp-571217,11.763695295117993,53.753430922822886,-8.604250342815693,-0.5045126942092143
-7.006864940909091,-308.30205739999997,5.300897735551876,-2.5230171962500005,5.000000825,0.10167800340990206,2.7487999999999992,14,44,573.0869167689337,1829.4512,mp-1210319,NdFeGe2O7,https://materialsproject.org/materials/mp-1210319,-18.49119751935141,-34.825631301942764,9.218773473209822,0.2820376476622655
-6.874157435,-109.98651896,3.0679677393055695,-2.524490185208333,2.0000001,0.15420337449088495,2.0473000000000003,31,16,151.15188488889794,279.2642,mp-754873,Li2VBO4,https://materialsproject.org/materials/mp-754873,-21.678692759179928,-54.431573802688895,9.525280268936985,1.4035538741721392
-7.1952549725,-143.90509945,9.45701265617916,-2.60903475375,3.00000025,0.1474894930166341,1.7199,14,20,237.0487315137233,1350.02719,mp-1213101,Dy2CoPtO6,https://materialsproject.org/materials/mp-1213101,-12.880695349646807,-28.93677897804066,7.85830751793012,-1.767248023240639
-5.294089583333333,-63.529075,6.469945314154179,-2.1490508094791667,0.0003656,1.4265148053028475e-05,1.4181999999999997,139,12,298.680817402612,1163.74774,mp-1214589,Ba3Bi2I2O5,https://materialsproject.org/materials/mp-1214589,13.828677081621947,-18.15647717461802,6.3418764231575135,-6.250611810900584
-4.404162205119047,-369.94962523,3.615837315365048,-1.9837243701591665,0.0,0.0,1.2135,62,84,1749.3166811026892,3809.151353599999,mp-557791,Te4As2S(OF6)2,https://materialsproject.org/materials/mp-557791,47.52805081128932,-18.5229141335988,9.970572559791725,-2.314674171853876
-7.547633659000001,-603.81069272,5.091612987103506,-2.7447773152500003,20.000162,0.23765513990134124,2.0581000000000005,122,80,980.7622233899414,3007.2534,mp-1216523,Y3Ga(FeO3)4,https://materialsproject.org/materials/mp-1216523,-23.229359112504287,-33.69437256479701,8.361739250961204,-0.7471278172770461
-6.861601858048781,-562.65135236,7.132913883230548,0.07118980060438916,0.00301345,2.37864110831675e-05,0.9837,2,82,1476.4287628797433,6342.060600000002,mp-1245378,Ag15W7N19,https://materialsproject.org/materials/mp-1245378,36.964776149556364,-9.996429065796082,7.1407974300426424,-4.1851484748794485
-6.6821134925,-26.72845397,13.612225372304248,0.7221059725000005,1.7e-06,2.342368382978487e-07,0.1178000000000008,216,4,84.58067594030292,693.34788,mp-632176,TaTcPb2,https://materialsproject.org/materials/mp-632176,14.457419520965194,44.541896361884135,-8.604250342815693,-0.5045126942092143
-3.1670899460000004,-95.01269838,2.489920312415773,-0.9745863724205004,2.0,0.025724961169166224,0.0,43,30,906.0511070102747,1358.592,mp-568726,Mo(SeCl6)2,https://materialsproject.org/materials/mp-568726,15.614969842902308,-6.6660387219533215,3.874292020073116,-4.8997906241793485
-4.044647184583334,-97.07153243,2.3472204622441812,-1.6293526434808048,4.999999625,0.07273011720541737,1.305,62,24,801.1855573936,1132.4992,mp-504968,RbFeCl4,https://materialsproject.org/materials/mp-504968,22.9842425899471,-2.42330853932116,-0.9251357186126136,-1.9680820651858164
-6.24807803609375,-399.87699431,5.1969767512069245,-1.3380126933789065,6.885349375,0.050980570420882915,0.0,62,64,1573.9782222029462,4926.068,mp-684111,Eu3Sb4S9,https://materialsproject.org/materials/mp-684111,-14.932661538805007,12.446665908684318,-8.604250342815693,-0.5045126942092143
-4.5375346584615395,-58.98795056,3.5007287631862067,-1.5515458052433702,7.9982425,0.3201032087006703,1.5827,12,13,291.19369512100917,613.8911038,mp-505040,Cs2K4Fe2O5,https://materialsproject.org/materials/mp-505040,-33.31966333603632,-30.13745522199904,7.00376831950538,-1.6268294614900822
-4.467760382142857,-250.19458140000003,5.647849843590737,-0.9340912316964288,0.0001040625,8.513279535892194e-07,0.0,70,56,1424.5404609134528,4845.168,mp-1197056,Sm(GaSe2)2,https://materialsproject.org/materials/mp-1197056,51.176533073161046,-1.9915598241389905,2.5253734302045285,-4.7606419122782455
-7.021134941111112,-63.19021447,7.210698203917624,-3.00962112875,1.9999978999999999,0.17549190180532814,2.1603000000000003,71,9,132.81584410338698,576.7374,mp-19199,BaSm2NiO5,https://materialsproject.org/materials/mp-19199,-22.471978098059378,-32.58428429785882,7.112393895935327,-0.7745142989111881
-7.811552275972222,-1124.86352774,5.999168507437968,-2.9073380099677784,36.0000011,0.2009379816200595,0.9926000000000004,1,144,2087.939478883156,7543.27388,mp-1076172,La7SmMn4(FeO5)4,https://materialsproject.org/materials/mp-1076172,-23.240783220423754,-29.50138326080214,4.415045212563859,0.0809854117373603
-7.0821762325,-56.65740986,8.962893004584156,-0.2705836349999995,10.9888104,0.5531113007442721,0.0,139,8,231.5344271625855,1249.72569,mp-1078314,EuMnBi2,https://materialsproject.org/materials/mp-1078314,22.906739342722826,22.817519394175296,-8.604250342815693,-0.5045126942092143
-6.088303889500001,-365.29823337,2.826175194665556,-1.161723367868,2.875e-06,3.1174651299706387e-08,2.2287,14,60,1074.765388680536,1829.2104,mp-1181207,K2Pt(NO2)4,https://materialsproject.org/materials/mp-1181207,-1.842839583617728,-23.56737723997239,9.010913934946196,1.7733772959733465
-5.912173752999999,-236.48695012,8.551437862865887,-1.7527981838750002,9.3e-06,1.5471497756329842e-07,1.2981999999999996,6,40,700.5320628409269,3607.59745,mp-867605,Y(Bi5O8)3,https://materialsproject.org/materials/mp-867605,14.31784876611826,-31.118038738304342,6.3311860960792234,-1.9177143558241097
-6.4361908825,-180.21334471,2.9268007397223443,-2.3611847326785718,5.3e-06,1.053894983319751e-07,1.2889,62,28,586.0787295903319,1032.9992960000002,mp-17597,Ca(ScS2)2,https://materialsproject.org/materials/mp-17597,55.959775662917316,3.223716507658438,7.921362049603725,-4.7758135167240034
-6.32966163875,-101.27458622,3.3773542472768985,-2.2841726268750007,4.00000025,0.1852935995685661,1.7224,2,16,251.58053010085254,511.6872,mvc-14636,CaFeO2,https://materialsproject.org/materials/mvc-14636,-23.33535406386765,-30.42117554514525,6.753756889504256,-0.4216790985066885
-4.334137251111112,-78.01447052,4.904763678343269,-0.9354052951666674,0.0,0.0,2.103,1,18,316.7789275451393,935.675549,mp-557441,KAu(IO3)4,https://materialsproject.org/materials/mp-557441,-0.2188491999107081,-23.17045357375723,8.557528565705905,-0.5783414323634163
-3.3803350033333337,-70.98703507,2.811273254634831,-1.5354160168609527,0.0018367999999999998,3.132032092745105e-05,1.3773,38,21,683.4599882875384,1157.0898,mp-1223762,K6Pd3(BrCl2)4,https://materialsproject.org/materials/mp-1223762,10.530938365014912,-9.447153334521913,9.039297982158748,-4.814804371578703
-5.9945894769444426,-215.80522117,4.304600996728122,-2.203324078591111,4.999999766666667,0.13856688365936273,0.41949999999999976,6,36,420.5212645668058,1090.1136384000001,mp-759027,FeOF,https://materialsproject.org/materials/mp-759027,-42.71820063726949,-77.00312080538224,-8.139285405165634,2.2241420299903147
-3.91551689,-39.1551689,4.501908001349675,-0.7804209144374994,5e-08,2.817864934581691e-09,0.39000000000000057,161,10,206.7889171964469,560.6279999999998,mp-1093994,ZnSnS3,https://materialsproject.org/materials/mp-1093994,42.98573579483521,0.3574817600457894,5.115975308457512,-6.276488775182808
-4.852315283695653,-223.20650305,5.230839391910036,-1.173360728260871,10.0002332,0.15883523202806255,2.7884,15,46,733.7374961803898,2311.3356,mp-704879,Ni5Te4(BrO6)2,https://materialsproject.org/materials/mp-704879,-18.3988276619677,-38.49563243078514,-6.170226759087454,-3.407105430136748
-5.02094381,-100.4188762,5.854881538917673,-1.1164566126562503,5.9e-06,1.2181638108160277e-07,0.9751000000000004,62,20,564.447749535768,1990.18188,mp-1222966,LaSbSe3,https://materialsproject.org/materials/mp-1222966,45.83316519849987,2.436266023092606,-4.7588927811240325,-1.6250589128089588
-5.456633185,-152.78572918,3.4750274579360245,-1.7770812996367005,0.0,0.0,1.4904000000000002,62,28,859.0465912170889,1797.7358075999998,mp-1192754,CsBaVS4,https://materialsproject.org/materials/mp-1192754,66.49268244162414,4.454106517602778,7.346295043484603,-6.067978192915956
-5.3310925384615375,-69.304203,2.1979514487719305,-1.963667824349231,2.0,0.19046193716053256,2.6453,160,13,122.37683755927526,161.98254959999997,mp-1187773,VH6(OF)3,https://materialsproject.org/materials/mp-1187773,-19.315823627195154,-52.0889339981719,7.964828910001898,2.290342095982341
-7.347686231875,-587.81489855,6.462748274608271,-2.689312814624999,25.000000600000003,0.2956887589143196,1.8667,230,80,985.332101822832,3834.8712,mp-21974,Dy3Fe5O12,https://materialsproject.org/materials/mp-21974,-23.31194581586817,-33.64752840245101,7.693884950492342,-1.6927673828508059
-5.069628046,-25.34814023,9.264397705337425,-1.1912809695,1e-07,1.1257675353705776e-08,0.0,139,5,103.52105924535688,577.5595999999998,mp-1067920,Bi2TeO2,https://materialsproject.org/materials/mp-1067920,60.55288445976326,25.094002445912817,-8.604250342815693,-0.5045126942092143
-6.606509896538461,-343.53851462,3.2436949220488867,-1.825486101875605,4.0008482,0.08474520857336967,2.4335,14,52,550.1920976170758,1074.7445679999996,mp-510517,Fe2PH2CO7,https://materialsproject.org/materials/mp-510517,-1.0144613968983374,-96.17914489307286,9.711728372733749,0.9024880600051216
-7.384125060416667,-177.21900145,3.490634827116206,-2.5682591149404765,5.9999997,0.22459199545723754,1.54,6,24,311.3396138485816,654.469948,mp-754862,V3Sb(PO4)4,https://materialsproject.org/materials/mp-754862,-14.904595361707251,-49.14448524115633,7.319799858370015,0.3423673973326389
-5.91311269,-106.43602842,6.459073862303475,-1.1582630819409718,0.0,0.0,0.4765999999999999,63,18,431.03890508557487,1676.63153856,mp-571189,NaHf2CuSe5,https://materialsproject.org/materials/mp-571189,47.05394912436704,-4.873979624482512,5.819166315445253,-5.759895271370483
-6.038182771071428,-169.06911759,5.4020350143094165,-2.4793675455357147,1.225e-06,2.2402891875075734e-08,1.5801999999999996,62,28,637.2493973543031,2073.0879999999997,mp-505362,Ca(LuS2)2,https://materialsproject.org/materials/mp-505362,54.08773008002196,4.775527984807698,7.7774885127611215,-5.092847305356756
-3.9469372330000003,-39.46937233,3.0993601366284333,-2.102086165556,0.0,0.0,2.3502,225,10,276.9711232640587,516.9606,mp-1111994,K2DyCuCl6,https://materialsproject.org/materials/mp-1111994,13.153938939685169,-12.378472728670445,9.356223319791942,0.05062432038607615
-6.601612393571429,-92.42257351,5.4659962234841375,-1.9913477101785717,5.00012225,0.19141162608425416,0.13539999999999974,36,14,304.43160514485834,1002.09749,mp-1217708,Tb2MnS4,https://materialsproject.org/materials/mp-1217708,28.03739335624146,7.082931956801432,2.8699405615022417,-4.926837432136286
-3.974804463913044,-91.42050267,3.579219966334989,-1.0810759543804351,5.2e-06,1.176817124804877e-07,1.2873,12,23,514.957978941362,1109.96961568,mp-1220788,Na6Cd(SnS3)4,https://materialsproject.org/materials/mp-1220788,42.944899464573005,0.5521502004366828,7.0247247362174425,-3.696979188435147
-6.647204181964287,-744.48686838,2.763114057452746,-2.69298142969898,2.0000001625,0.01353526999773647,1.9769,14,112,1722.0292940445795,2865.432992,mp-557046,K3V(PO4)2,https://materialsproject.org/materials/mp-557046,-15.993658591515414,-48.21781312431418,4.269869774240024,-2.199716978007184
-6.88326261423913,-633.26016051,4.179213971710187,-2.620040215706521,25.000471075,0.2489296879417893,1.0376000000000003,62,92,1170.4393785312068,2945.7402,mp-650518,Ca4YFe5O13,https://materialsproject.org/materials/mp-650518,-21.22434566528104,-32.525474224472326,6.489231650822425,-4.02316666077133
-4.136981351428571,-115.83547784,4.779319025774302,-0.7654928650267853,0.0,0.0,0.6613000000000002,2,28,655.0901019545297,1885.4628,mp-1194436,KCu2BiS3,https://materialsproject.org/materials/mp-1194436,60.10763450848646,8.773525444602635,7.33203057136514,-6.127921802080767
-4.737510313571429,-66.32514439,5.733752024594338,-0.3899713815773812,2.99883505,0.10150807156993044,0.0,74,14,344.2939795269941,1188.8285999999996,mp-1226303,CrAgSnSe4,https://materialsproject.org/materials/mp-1226303,14.903925271779507,2.1504022478084157,-5.907008560626828,-0.31600523809554626
-3.795126362,-18.97563181,5.922187618804108,-0.18932193971875008,0.0,0.0,0.1266999999999996,166,5,161.97733918144718,577.6800000000002,mp-3525,Sb2Te2Se,https://materialsproject.org/materials/mp-3525,67.70182881792354,26.02631512504641,2.8800797833879987,-4.939705901482215
-5.391791715277778,-194.10450175,2.361911076507233,-1.0873510310069447,0.0,0.0,0.9999999999999998,230,36,2514.406667962925,3576.432,mp-1080369,CeSe2,https://materialsproject.org/materials/mp-1080369,33.7721857444223,8.65009211876821,7.376080097060282,-6.227150298400643
-4.832343213571429,-67.65280499,2.7697533210105028,-1.7270461550357143,4.99999995,0.21975858967398912,1.9437,12,14,265.1560667846431,442.2762,mp-504570,K3FeO3,https://materialsproject.org/materials/mp-504570,-34.36361434801586,-30.770693760411273,7.199846133110187,-1.3384646379432623
-7.99091557075,-319.63662283,6.461796577209242,-2.6658970729375016,0.00021185,3.999064064149872e-06,2.2499,51,40,617.3728608650376,2402.43544,mp-1173546,Nb4Pb3O13,https://materialsproject.org/materials/mp-1173546,7.066980996843772,-36.49951405987928,8.891848893398393,0.9301588275216612
-6.510863472916667,-156.26072335,4.845748224751792,-2.5178984388541674,3.0000002,0.08633634892659632,2.655,113,24,404.95338386636087,1181.72599,mp-1190827,Ba2CoGe2O7,https://materialsproject.org/materials/mp-1190827,-8.574167341388907,-35.247484789438026,7.797849195546268,-1.9464152766739533
-6.023967440833332,-216.86282787,4.352744824421743,-2.23270204248,4.166666433333334,0.11676387670495285,0.7544999999999997,6,36,415.8700607587587,1090.1136384000001,mp-764747,FeOF,https://materialsproject.org/materials/mp-764747,-41.76902443899579,-77.13750274385805,3.8222351209815253,0.4728112385666428
-7.5840211433333335,-136.51238058,5.430199603256943,-2.7819902161111125,0.0,0.0,1.8367,8,18,211.52710005507348,691.7238,mp-753048,TiSnO4,https://materialsproject.org/materials/mp-753048,-0.2741214647676831,-28.18614450175177,8.175672284933455,-0.2703562248658737
-7.0221106488750005,-561.76885191,2.620775512230276,-2.6488759504464285,4.000159425,0.045125278154937866,2.051,15,80,1033.0820982299897,1630.480344,mp-1177570,Li3V2(PO4)3,https://materialsproject.org/materials/mp-1177570,-16.047267140876382,-50.38189842318314,8.903103826274258,1.557473673962415
-4.24412932,-12.73238796,7.4513998218156114,-0.30744382286458344,1e-07,1.670896763891953e-08,0.0,156,3,69.74736575235414,312.98,mp-1217263,TePdSe,https://materialsproject.org/materials/mp-1217263,53.50450639324333,30.881588289591278,-8.604250342815693,-0.5045126942092143
-4.436174542,-44.36174542,2.291127657268003,-1.0722580569350368,5e-08,1.8905131032893677e-09,1.8334,71,10,308.22491397394685,425.273124,mp-556953,RbPS3,https://materialsproject.org/materials/mp-556953,70.77006187035717,-0.07819104432445162,8.737436005975685,-4.763205964350171
-7.618411206,-76.18411206,6.2095626604065055,-3.1667259857500016,0.0,0.0,1.9291,225,10,115.44095320304348,431.68984000000006,mp-1206458,LiLa2VO6,https://materialsproject.org/materials/mp-1206458,-33.525128518059056,-22.38133757294716,-11.331316143612714,-0.28980110385986463
-4.872104390952381,-409.25676884,5.097495193323208,-0.5397330965401783,0.0,0.0,0.8800000000000001,33,84,3191.9740964375183,9798.66912,mp-569258,Ta4Se9I8,https://materialsproject.org/materials/mp-569258,66.74883438941269,16.134034189163998,8.596433788158082,-6.240709158772219
-2.921928324545455,-32.14121157,3.2573161806935924,-0.7154194618181821,0.0,0.0,1.6059,12,11,451.2118878533194,885.0980000000001,mp-30945,Ga2PdBr8,https://materialsproject.org/materials/mp-30945,64.05016158175013,-2.252147271945712,7.775523552694893,-6.2750425534107
-6.0010593007407405,-324.05720224,4.223674674428013,-2.209793902387407,4.933234477777777,0.08943088376278961,0.0,6,54,642.8677848554178,1635.1704576,mp-759595,FeOF,https://materialsproject.org/materials/mp-759595,-43.094755559943025,-77.33419345551161,-8.604250342815693,-0.5045126942092143
-7.33908998857143,-102.74725984,3.8766409232014247,-2.5813176449999995,4.00000005,0.2861121382978271,1.4286999999999996,12,14,162.93003138656434,380.3712,mvc-12627,MgV2O4,https://materialsproject.org/materials/mvc-12627,-30.29542890285719,-52.27393696774861,6.766088105900379,0.7634752138506171
-6.163859861666666,-36.98315917,9.671891708910236,-0.1799196133333325,8.9999999,0.8195315817133939,0.0,160,6,127.98357516417423,745.446659,mp-1221791,Mn2Sb2PtAu,https://materialsproject.org/materials/mp-1221791,48.69811403957272,41.78693194349316,-8.604250342815693,-0.5045126942092143
-5.4294448396875,-347.48446974,2.6967404088022673,-3.1399571760562504,2.000000075,0.0296066018575194,2.039,55,64,787.2612511001331,1278.524128,mp-777807,Li2VF5,https://materialsproject.org/materials/mp-777807,-21.046177720969048,-51.90474321035557,8.91100585695343,1.2196199428854233
-4.12734622,-8.25469244,6.761501689431312,0.0,9.8e-05,1.909690283968005e-05,0.0,11,2,59.805422758802955,243.52,mp-1179605,Sb,https://materialsproject.org/materials/mp-1179605,37.278346721621055,28.25380849158508,-8.604250342815693,-0.5045126942092143
-5.5384808985000005,-110.76961797,7.372544366327149,-0.2932129840000002,1.627953825,0.03757339934068908,0.0,57,20,504.9391233212376,2241.8540000000007,mp-673854,NdVSb3,https://materialsproject.org/materials/mp-673854,47.89614880253024,28.11733843703194,-8.604250342815693,-0.5045126942092143
-3.09006699,-37.08080388,3.3450801206276872,-0.4889649906388887,0.0,0.0,0.6236999999999999,72,12,363.22249367500916,731.69513856,mp-21510,K2NaInAs2,https://materialsproject.org/materials/mp-21510,36.6374209291089,19.003977413003348,6.187262142546325,-6.23191673847434
-6.2424362,-124.848724,3.961136498187911,-1.6586843504420004,6.999999099999999,0.3583729969854027,1.3384,15,20,227.63557412385742,543.01378,mp-25284,LiMn2NiO6,https://materialsproject.org/materials/mp-25284,-65.13617902670676,-40.889808516782814,5.753286196991062,0.9319565514281104
-2.6105163116666663,-93.97858722,4.890189035721579,-0.6830798089655173,2.475e-06,2.0848696764848622e-08,1.4415,15,36,1383.4826530124685,4074.2744,mp-29901,Rb2Cd3Te4,https://materialsproject.org/materials/mp-29901,60.87446685510273,16.865972847311713,9.165814083116311,-5.3550639215440885
-3.872405458571429,-27.10683821,2.6187287608036707,-1.5950706661485714,3.0,0.2568948275184699,0.08099999999999996,65,7,136.09536110712622,214.62719500000003,mp-22980,Li2CoCl4,https://materialsproject.org/materials/mp-22980,20.34726955570796,0.1934728069603721,-4.3682088302771644,-1.5998204922914667
-5.788903636666667,-312.60079638,3.2243823313471287,-2.1668773021944445,0.0,0.0,2.9353,9,54,937.7233379122348,1820.8416,mp-771185,K2Ge2O5,https://materialsproject.org/materials/mp-771185,22.21610233969795,-39.347711878687775,9.610517758582166,1.1811783179992719
-6.271254176153847,-81.52630429,3.3882308437111077,-1.6115092126282065,0.43443909999999997,0.020122267003922542,0.0,166,13,251.6108851028358,513.3969999999998,mvc-11313,Ti4ZnS8,https://materialsproject.org/materials/mvc-11313,19.8739355755186,14.471641735577345,-8.604250342815693,-0.5045126942092143
-9.570048094,-95.70048094,6.9999680181452755,-1.2213212509279998,0.0,0.0,1.7100999999999995,11,10,173.06006766394972,729.53114,mp-989646,LaWN3,https://materialsproject.org/materials/mp-989646,34.347575180655376,-9.591487869550454,8.659885473486899,-3.555488071478024