energy_per_atom,energy,density,formation_energy_per_atom,total_magnetization_uB,total_magnetization_T,band_gap,sgr,num_sites,cell_volume,weight,mp_id,formula,URL,tsne_xrd_lin1_0,tsne_xrd_lin1_1,tsne_xrd_lin2_0,tsne_xrd_lin2_1
-4.573327645625,-146.34648466,5.622885846768379,-0.4092579665625005,1.178392775,0.027972701558500013,0.0,201,32,490.94527743936544,1662.4296,mp-1201044,CdPbO6,https://materialsproject.org/materials/mp-1201044,-10.253733970583001,51.037311022857615,-10.281608623172874,25.201386310454836
-8.8424482825,-530.54689695,7.9879195078556915,-3.1141779703125017,0.0,0.0,0.9477000000000002,58,60,923.4703551886322,4442.29656,mp-6105,Pr2Ta3(SeO4)2,https://materialsproject.org/materials/mp-6105,21.250018682574826,31.49386090503347,24.442514474557715,35.93437750295847
-8.098321330000001,-161.96642659999998,6.716446950770796,-3.5684809185000006,1.4e-06,5.4761709603930906e-08,3.753600000000001,14,20,297.93976118693706,1205.08856,mp-1208761,Sr2SmTaO6,https://materialsproject.org/materials/mp-1208761,-23.07521332445,17.598495766438855,0.2684854206537639,58.296538152996426
-4.362342216666667,-26.1740533,5.759269227308184,0.010539887083332644,0.0487606,0.00274180866889708,0.0,189,6,207.2570552406424,718.83235,mp-1185091,La5Mg,https://materialsproject.org/materials/mp-1185091,-27.574197550672718,65.79269476612212,-40.34320888339603,60.53587256647442
-5.800048938888889,-52.20044045,6.351842411333273,-2.0849541871677784,0.0,0.0,0.2479999999999993,123,9,134.60634128109814,514.8919999999998,mp-545344,NdTe2ClO5,https://materialsproject.org/materials/mp-545344,-20.486413792790685,36.166148527615206,-14.805651773193484,56.35736509216015
-7.4473099939999985,-74.47309994,6.808796469397883,-3.1139186595833337,0.0,0.0,3.9309,87,10,138.2813285638236,567.0022799999998,mp-1086666,Sr2TaInO6,https://materialsproject.org/materials/mp-1086666,-26.793530465452466,29.409632366465683,-23.602882212608186,59.3053827650596
-6.47497523625,-51.79980189,7.604242221277052,-3.0183755596767234,3.5e-07,2.797602176212501e-08,2.7907,194,8,145.80066833941672,667.6769237999999,mp-753799,CsTmO2,https://materialsproject.org/materials/mp-753799,0.4008452522029936,63.492517607607454,-11.16605950871119,50.933352408096
-8.131741242105264,-618.0123344,5.997754206231527,-2.7798740871710517,1.950185275,0.02241986439614077,0.3821000000000003,55,76,1013.7253781630513,3661.5072,mp-16393,Y4Mo4O11,https://materialsproject.org/materials/mp-16393,20.484744150775782,24.422288255031106,32.21301915123149,41.14964418455543
-9.597368496875,-153.55789595,10.738469813321094,-0.22035578743999906,0.005988075,0.00041916978217113233,0.0,33,16,166.48483951177195,1076.6337800000001,mp-1245861,MnReN2,https://materialsproject.org/materials/mp-1245861,2.3669587918230173,-5.229643473412703,6.1545282688960175,5.700795164484505
-6.2897153025,-176.11202847,3.5703215258888075,-2.6678815223914287,10.000000725,0.3300294742848914,1.3783,62,28,353.1219641134006,759.2467984,mp-760089,LiMn2OF3,https://materialsproject.org/materials/mp-760089,2.7819061830637337,19.911655104311134,56.01050383065837,32.87166915820955
-6.5825577997368425,-250.13719639,7.185465192992186,-2.3488812021710532,12.0011314,0.2977685229592286,0.14210000000000012,51,38,469.7002936698931,2032.4816399999997,mp-1182461,Ba2Ho2Co4O11,https://materialsproject.org/materials/mp-1182461,-25.525124428025965,52.14439414066256,-11.18037276720066,65.80123277293579
-6.979847172857142,-195.43572084,3.4006159681724264,-3.0368620578571432,4.00000025,0.15253658646176618,3.4522000000000004,14,28,305.6070880112391,625.8524,mp-1222195,Mg3Fe(SiO4)2,https://materialsproject.org/materials/mp-1222195,23.478681759120718,24.76251166983083,31.423450203504554,57.2512427843797
-7.179465053,-71.79465053,5.004486675949791,-2.809625102583334,0.0,0.0,2.9845,148,10,107.0248049742054,322.5484,mp-14142,TiZnO3,https://materialsproject.org/materials/mp-14142,-1.4100689293008757,54.649320563526075,18.93668990746361,63.96169641588063
-7.111884654791666,-682.74092686,3.84859360307764,-2.3100175120281943,3.000000425,0.03973981043250665,0.01980000000000004,29,96,879.7777062886537,2039.0408,mp-1213325,Cu3B7ClO13,https://materialsproject.org/materials/mp-1213325,-5.461902350135516,6.5245525611645006,-0.5417042807560184,1.3171912133317665
-9.441478378333334,-113.29774054,9.194208046480869,-4.2768653475,0.0,0.0,1.9033000000000009,166,12,174.14592738758802,964.2253800000001,mp-1226598,CeTh3O8,https://materialsproject.org/materials/mp-1226598,-13.070191379427145,-24.014701573505373,-10.375431466735069,32.19961155183184
-8.087310888000001,-80.87310888,3.876235971371599,-2.736315386583334,2.0000001,0.247874166770056,1.7983000000000002,167,10,94.03210917153775,219.5014,mp-18946,VBO3,https://materialsproject.org/materials/mp-18946,-30.211047047248826,20.10727959896741,-14.524293503912684,48.74247666114399
-5.39793023375,-86.36688374,7.385057724724674,-0.7400829403125,3.4e-06,1.0820750533614742e-07,0.0,43,16,366.18365892098956,1628.56,mp-580126,Sm3Ge5,https://materialsproject.org/materials/mp-580126,-45.282960265313655,13.423587374543073,-40.32607764882865,30.06770527498056
-7.4776703075,-149.55340615,5.597610098739729,-2.769402334192,6.9999988,0.3523871352439243,0.0,26,20,231.50232021543889,780.3849799999999,mp-1227144,CaNdMn2O6,https://materialsproject.org/materials/mp-1227144,-12.835572058994147,63.50141654433134,-5.059833930739035,69.23818803435238
-4.487440067777778,-40.38696061,9.290082419113892,-0.6530838244444447,3.69e-05,2.5808382834005763e-06,0.0,189,9,166.62608923362214,932.2094,mp-973878,Lu3Ga5Ni,https://materialsproject.org/materials/mp-973878,-39.654447751408355,1.5739462517772518,-39.55785199536153,16.35206964592337
-3.6095737271428567,-75.80104827,2.175737896904104,-0.9714496578552378,0.0,0.0,3.7127,174,21,277.46193702136856,363.54728000000006,mp-984055,Ca7(H6Cl)2,https://materialsproject.org/materials/mp-984055,-4.534984127246728,22.74688917240028,-10.281128058942802,23.90533553226977
-5.9593012945,-119.18602589,3.742464408709016,-2.3250933384687498,0.0,0.0,4.2341,14,20,296.457201354044,668.1448,mp-557997,CaSeO3,https://materialsproject.org/materials/mp-557997,9.154872337661502,16.93187905960946,53.237819621707665,20.040835895937892
-5.0285738942857146,-35.20001726,3.832969093177953,-1.7544725931785723,0.0,0.0,1.2308999999999997,166,7,157.5271170321851,363.6148,mp-7502,K2Sn2O3,https://materialsproject.org/materials/mp-7502,-22.623359761168995,12.959716581025134,-28.514681186356142,-6.673080028286022
-5.391421177142856,-150.95979296,8.31490933244805,-1.4697395138392852,0.0,0.0,1.0545999999999998,13,28,417.5158705151528,2090.6504,mvc-10485,ZnBi4O9,https://materialsproject.org/materials/mvc-10485,10.09767028294755,20.427506262619506,31.703933886582227,-0.4866066357823777
-5.3250656119999995,-79.87598418,10.090944181324526,-0.6278870620000002,0.1273257,0.0035340216248076,0.0,115,15,419.87913842838714,2551.5672000000004,mp-1226947,Ce4Bi8Pd3,https://materialsproject.org/materials/mp-1226947,-50.180755696685196,21.865376078357574,-42.496441198056075,32.04421974297244
-8.046874410769231,-104.60936734,6.635145071226001,-3.3548677362276917,3.0000005,0.18915471475729392,1.3720999999999997,65,13,184.83388156394497,738.555125,mp-756496,La4MnO8,https://materialsproject.org/materials/mp-756496,-7.086302709203342,19.291235870373693,-9.574661639723825,44.94774601595624
-9.296873044166666,-223.12495306,9.17755840189728,-3.756990348333333,0.0,0.0,3.8066,14,24,299.54083777490064,1655.51876,mp-756898,TmTaO4,https://materialsproject.org/materials/mp-756898,17.261196494106287,57.61577525936246,-2.9673480404472774,36.129923665569116
-6.096305358461539,-79.25196966,6.9552250493325225,-2.2142275493269237,1.2e-06,7.258227552262121e-08,0.0,123,13,192.67620953428315,807.03095,mp-654374,Ba2YTlCu2O7,https://materialsproject.org/materials/mp-654374,-18.9177659906736,36.505228473670456,-13.820739450094482,54.37184133604082
-4.859172359285714,-136.05682606,2.6517836892741116,-2.272231768178571,0.0,0.0,2.9231000000000003,96,28,437.8489783363127,699.2192,mp-769025,K2Mg2O3,https://materialsproject.org/materials/mp-769025,-19.702787141161497,37.977475607822214,8.649301542966452,57.54684039153759
-4.35962140875,-34.87697127,5.376653072978397,-0.771162178125,0.04431545,0.0016026553197929757,0.0,63,8,322.24965552283817,1043.41094,mp-1025418,LaTe3,https://materialsproject.org/materials/mp-1025418,-11.983875185499251,17.33468284300472,-22.077234415341106,24.77258950845325
-5.367384511249999,-128.81722827,5.420245366707936,-1.7970547776666663,2.00000015,0.06510699584244806,0.0,69,24,357.9973394814941,1168.55633856,mp-6496,Ba2Na(CuO2)3,https://materialsproject.org/materials/mp-6496,1.5944022186022904,25.953400541028355,1.7279892184379408,27.57133718956739
-8.652017102,-43.26008551,8.263300041847208,-0.8073797150000004,6.8981321,0.9223598978881667,0.0,107,5,87.1582540471858,433.72350000000006,mp-1069477,GdSi3Ir,https://materialsproject.org/materials/mp-1069477,-47.16555518105396,29.75729852672061,-26.190446991129033,33.810371157655055
-9.672487029807693,-502.96932555,8.232337026322353,-3.513141468942306,1e-07,1.86197142590602e-09,2.7163000000000004,62,52,625.8992275828788,3102.97636,mp-850669,YTa3O9,https://materialsproject.org/materials/mp-850669,20.576487232279,30.37886432370961,30.193952948390304,37.12018674244503
-9.337478943846154,-121.38722627,8.093533815372464,-2.8868607092307697,20.0137622,1.1170507973980408,0.0,8,13,208.8013200157945,1017.706,mp-1178246,Gd3(BiO4)2,https://materialsproject.org/materials/mp-1178246,26.165415776941263,62.080455531735026,-1.4550224138635082,34.89115880760963
-6.587179591785714,-184.44102857,3.023850229551226,-2.566308988798469,0.0,0.0,4.1316,188,28,426.60524596681887,776.850372,mp-1211746,KCd(PO3)3,https://materialsproject.org/materials/mp-1211746,27.156226028508392,-23.749003120431446,15.302209435315635,-23.008095422067214
-7.421506342954545,-326.54627909,5.961630513393228,-3.033952073522728,0.0,0.0,3.673200000000001,92,44,621.6915375580006,2231.9832,mp-772840,Sm2Ge2O7,https://materialsproject.org/materials/mp-772840,1.9882585096975134,17.554139496272587,6.304237024646581,35.81151681306835
-4.8632835295,-97.26567059,4.043168578988752,-1.15524006065625,9.77e-05,1.979721040458254e-06,0.0,12,20,575.1326096001511,1400.3634,mp-1232305,YMgSe3,https://materialsproject.org/materials/mp-1232305,0.3420329402733226,3.6736442632788,-2.891235651522394,-0.0030519354107890703
-5.698611148,-56.98611148,5.970667486561145,-1.9836474272500009,0.0,0.0,2.1049,148,10,103.48546107384176,372.0944,mp-8285,ZnGeO3,https://materialsproject.org/materials/mp-8285,-0.6044996813245291,54.8594840173439,18.34276389473251,62.90747019743758
-5.076115203333333,-30.45669122,6.640526212524586,-0.6853368958333336,1.5e-07,1.4084629916105947e-08,0.0,109,6,124.1147070456547,496.3370000000001,mp-1218980,SmGaSi,https://materialsproject.org/materials/mp-1218980,-48.07626564971794,21.4995443636937,-29.62614566915592,28.50196320307785
-7.9774194043877555,-781.78710163,6.421748328431629,-3.0108079136967354,32.99999985,0.31463989861711883,0.03169999999999984,2,98,1222.299325154422,4726.958210000002,mp-530985,La10Mn9O30,https://materialsproject.org/materials/mp-530985,-24.10494519543772,46.0529820802905,-11.294482109357615,65.30192287380618
-3.675474605,-44.10569526,5.792752420088839,-1.0482681685344826,0.0,0.0,1.5453999999999994,63,12,460.42065241153887,1606.1669037999998,mp-12492,CsLuCdTe3,https://materialsproject.org/materials/mp-12492,6.772022032975032,-8.437380388954468,9.592377287740481,-2.5117352972357807
-6.49957220125,-155.98973283,6.981168721772182,-0.5458508745833335,14.092938425,0.2939475414481537,0.0,64,24,558.7392105118658,2349.028,mp-1191637,Eu2ZnGe3,https://materialsproject.org/materials/mp-1191637,-51.93820919705714,24.578402774122782,-33.53174799302355,35.886080744658315
-7.89620748,-110.54690472,6.548533513636111,-3.5779224378571435,0.0,0.0,3.4581,55,14,211.84987033848103,835.4552,mp-752537,Sr2HfO4,https://materialsproject.org/materials/mp-752537,-13.371036779991682,11.277295610950508,-17.453550791605462,24.667570233366423
-5.902390125714287,-82.63346176,3.902810624543376,-0.8678024545914279,2.385e-05,9.336835122956345e-07,0.0,176,14,297.6912852859085,699.6720240000002,mp-1245891,Sr3ScN3,https://materialsproject.org/materials/mp-1245891,-4.118442496309958,20.881715409821812,4.7488132178371485,48.577898739379904
-6.1204918445,-122.40983689,6.949844483455809,-0.4719029978333332,2.8775e-05,1.622311966350625e-06,0.0,127,20,206.70852510862144,865.1360000000001,mp-1189298,YbB4,https://materialsproject.org/materials/mp-1189298,-2.130858300688861,17.05070242852689,9.899617892847012,24.46976132494493
-4.85174056,-48.517405600000004,2.6729886039975046,-2.3982436196456547,7.000000200000001,0.19488869866232084,3.1515,225,10,418.589976220632,673.8090519,mp-1113407,CsRb2GdCl6,https://materialsproject.org/materials/mp-1113407,-27.008459926064234,-30.260079270092525,-19.60533473886501,-19.94459460715375
-1.6207862375,-6.48314495,5.306191225729108,-0.054199827499999735,0.00145255,0.00013705226009104362,0.0,51,4,123.51574336779457,394.69,mp-1187633,YbMg,https://materialsproject.org/materials/mp-1187633,-25.903807684921798,43.580225945406674,-7.317708841444904,19.19660928249106
-4.76404718,-19.05618872,9.049945052714225,-3.316425114642501,1.0,0.2761086194012684,0.0,139,4,42.20826136406431,230.0352096,mp-1187637,YbF3,https://materialsproject.org/materials/mp-1187637,26.9829116786705,60.119397337607886,-5.802265767312527,-19.55843728848448
-7.046552434166667,-84.55862921,7.2588753825894115,-2.718759997604168,3.9981147000000004,0.3201010104311389,0.0,107,12,145.56120150688048,636.3058,mp-1218289,SrDy2Fe2O7,https://materialsproject.org/materials/mp-1218289,-23.98671113726536,46.45565794899622,-11.211113397400274,64.03658884866958
-6.7423024950000014,-121.36144491,7.362962929921651,-2.4352626381944447,0.36560215,0.018601985549133712,0.0,46,18,229.04819089516528,1015.618,mp-1076393,Sm2Cu2O5,https://materialsproject.org/materials/mp-1076393,-19.619359227765134,43.193111407113406,-8.26389494970358,66.2662880611836
-5.43728492,-65.24741904,4.7704058411021135,-1.6244818747323997,2.98056645,0.10918596711239424,0.0,63,12,318.13350548483885,913.9357138,mp-561722,CsTmCoS3,https://materialsproject.org/materials/mp-561722,5.369818946878785,6.186454552385683,10.79961521987597,14.998671976716215
-6.864876750555557,-123.56778151,3.203742835302054,-2.3661141360416678,4.000000166666667,0.2465518742389251,2.6364,174,18,189.07283173766774,364.7856,mp-756046,LiFeBO3,https://materialsproject.org/materials/mp-756046,11.857916232812666,3.0939531762770787,13.388268759111217,-16.045867995501688
-5.6228755600000015,-50.60588004,7.738115669314759,-0.8237474144444453,0.00044400000000000006,2.5915649399798904e-05,0.0,189,9,199.66332616988774,930.43155,mp-1087485,YInPd,https://materialsproject.org/materials/mp-1087485,-39.95711222403752,14.680298881012135,-40.72086781226992,17.845593664569147
-5.653648487999999,-113.07296976,6.302050185442848,-1.442117479250001,2.9999998,0.14143941193547938,2.1353,62,20,247.18847108057042,938.12558,mp-19113,CoTeO3,https://materialsproject.org/materials/mp-19113,-22.049289423933192,42.42161771118322,-8.692204022533208,66.18808300649023
-7.063971063888888,-127.15147915,6.808559298110981,-2.1846216291111107,0.99995285,0.049091005880460066,0.0,139,18,237.38595440033896,973.33233856,mp-1221440,Na(WO3)2,https://materialsproject.org/materials/mp-1221440,-9.724557485993444,53.7187463450364,51.31740010925106,16.052967002227668
-8.037114475789473,-152.70517504,6.9257254136287045,-3.191954618421053,0.0009861000000000002,4.647313263261479e-05,2.0987,139,19,247.28423975783352,1031.36554,mp-1211253,La2Ti3(BiO6)2,https://materialsproject.org/materials/mp-1211253,-11.89445788283988,33.25572080997725,-5.037076504865438,61.845799710670605
-7.581270717105262,-288.08828725,5.372251956695372,-2.461921835840001,17.00000015,0.3808828382683913,0.0,67,38,520.1575995976451,1682.8376899999996,mp-1226301,Eu2Mn(GeO3)4,https://materialsproject.org/materials/mp-1226301,2.280015166881605,56.28746280141781,6.699823546939018,37.030837298309066
-8.394587258695653,-386.1510139,5.344196613368166,-3.285035394257247,0.0,0.0,2.4294,100,46,665.8470090656035,2142.92904,mp-557072,Ba3TiNb4O15,https://materialsproject.org/materials/mp-557072,10.157079826311069,33.43628873636645,7.5021560860926595,26.16933280444041
-6.6391474794444445,-239.00930926,4.167804286655427,-2.4199073934911115,25.00409505,0.6739469787658492,0.07339999999999991,1,36,432.37725291915086,1085.2281848000002,mp-779882,Mn6O5F7,https://materialsproject.org/materials/mp-779882,12.158909337151725,30.148242427020392,54.95398123559311,32.577080054911555
-7.7785687516666675,-46.67141251,6.903468263310366,-0.4590809472916675,1.2561358,0.1792991902866251,0.0,123,6,81.6461466051757,339.4329,mp-1206309,ErCr2Si2C,https://materialsproject.org/materials/mp-1206309,-39.91924510458973,-5.763849386286999,-49.13971679890318,8.007818306785534
-6.8817405445,-137.63481089,8.210911115367356,-2.0868013747500016,2.00000605,0.09357351999363632,1.2434000000000005,62,20,249.08970031047662,1231.6804,mp-756282,VBiO3,https://materialsproject.org/materials/mp-756282,-18.37275583356205,53.08382792000331,25.65539335675872,51.29052720159338
-5.04958344,-60.59500128,6.391503598310562,-2.203962004189167,0.0006826,3.1512839356025946e-05,0.0,139,12,252.43884005101762,971.6505999999997,mp-557692,Ba3Tl2Cl2O5,https://materialsproject.org/materials/mp-557692,-19.10985374080069,5.830322940729142,-15.393056407550544,46.01371348268909
-4.01376799,-16.05507196,7.319193475419488,-0.9601714649999996,0.00494565,0.0005104672432813322,0.0,186,4,112.91013517716476,497.67642,mp-1187584,TmBr,https://materialsproject.org/materials/mp-1187584,-27.743504517925285,7.929888044735716,-31.45440094457953,-12.28206574088715
-6.584012617999999,-32.92006309,9.654230906345814,-0.8805266109999998,1.1e-06,1.4443453871144145e-07,0.0,139,5,88.75627231674166,516.0213200000002,mp-569650,Ho(GeRh)2,https://materialsproject.org/materials/mp-569650,-49.50176524547183,28.935728010161966,-50.328866084345215,20.49329849540824
-7.35152968,-213.19436072,7.615225656773722,-3.127369286810345,0.0,0.0,2.9895,166,29,439.03333776657263,2013.4052,mp-16928,Ba6Lu2(WO6)3,https://materialsproject.org/materials/mp-16928,-16.90367317336324,18.691627998401717,-14.641985484919227,46.239490015178674
-5.303097790000002,-26.51548895,7.6623969291486,-1.6667326962500006,0.9999998999999999,0.19118267219097196,0.0,221,5,60.957739912286605,281.2836,mp-1185847,MgBiO3,https://materialsproject.org/materials/mp-1185847,-30.226191072621212,50.72368789475405,-21.46891780399245,35.89238265581725
-6.828072073076924,-88.76493695,5.004713297367659,-2.6101866707692314,2.0,0.10908699519689866,0.0,166,13,213.66551991874863,643.9684,mp-18913,Ba3Cr2O8,https://materialsproject.org/materials/mp-18913,-13.882651952717731,3.4498783407992764,-10.0126139583181,27.377002644679784
-7.275475802083334,-174.61141925,4.421728825601117,-2.7198253913541675,5.47303595,0.17687091464719998,0.0,74,24,360.6195828809636,960.2677,mvc-13320,Sr2YCr2O7,https://materialsproject.org/materials/mvc-13320,-12.163229205640624,37.62249216459606,-2.8455774987138747,43.96975826077085
-7.835262367857142,-109.69367315,3.350945517375152,-2.9354586944047614,1.9999999,0.09007193144516729,0.0,162,14,258.7723834244867,522.1991999999998,mvc-477,BaTi4ZnO8,https://materialsproject.org/materials/mvc-477,6.703845206227349,-25.02038447725125,4.104612873137237,-30.528422375697517
-9.140204417391304,-210.22470159999997,5.423358923164493,-3.0708620563043483,2.4399007999999998,0.08832366737585619,0.0,5,23,321.9381939929844,1051.45759,mp-756770,UNb6O16,https://materialsproject.org/materials/mp-756770,13.356800735750086,18.16525060529881,1.4966550017646068,36.23291901834958