energy_per_atom,energy,density,formation_energy_per_atom,total_magnetization_uB,total_magnetization_T,band_gap,sgr,num_sites,cell_volume,weight,mp_id,formula,URL,tsne_cry_lin1_0,tsne_cry_lin1_1,tsne_cry_lin2_0,tsne_cry_lin2_1
-3.720632448333333,-44.64758938,7.25421724689466,-0.20291312708333345,1.7e-06,4.803640405071637e-08,0.5968999999999998,164,12,412.4353290982035,1801.7616,mp-29644,GeBi4Te7,https://materialsproject.org/materials/mp-29644,66.85105226611388,24.164021139908773,6.120195202105736,-7.1351177770891825
-2.7444911495833333,-197.60336277,3.9443451374368133,-0.3848177173611107,0.0,0.0,1.3202,14,72,2832.5845689362072,6728.352,mp-569830,Te2PdBr6,https://materialsproject.org/materials/mp-569830,66.138952653403,17.518317514865046,8.649169161686718,-6.428814905707559
-5.129319853170732,-420.60422796,7.7928389389475985,-0.3324285400609756,0.0001391,9.479261612046795e-07,0.0,12,82,1710.1336329856013,8025.58425,mp-1216614,Y9Ni24Sn49,https://materialsproject.org/materials/mp-1216614,2.278307635264441,54.72124793652392,-8.604250342815693,-0.5045126942092143
-5.6110492475,-22.44419699,10.72863264490644,-0.8705971499999992,1.22e-05,1.824330676641663e-06,0.0,225,4,77.93520771517198,503.53421,mp-866205,TmSbPd2,https://materialsproject.org/materials/mp-866205,28.721727500563077,41.5017682599584,-8.604250342815693,-0.5045126942092143
-4.3895420608333335,-52.67450473,6.478310454315728,-0.760760275703125,0.0,0.0,1.2921000000000005,8,12,324.9088547598465,1267.5766,mp-1227567,Bi4PbS7,https://materialsproject.org/materials/mp-1227567,72.40716911594797,21.28839763164545,7.921515649727048,-5.130272885452365
-4.335421663333333,-52.02505996,5.936576413992432,-0.2830414057291666,0.0,0.0,0.4609999999999999,61,12,295.7575944269885,1057.36,mp-2418,PdSe2,https://materialsproject.org/materials/mp-2418,51.32115311265786,24.701907266763488,-8.604250342815693,-0.5045126942092143
-3.39641297,-13.58565188,6.977890985489992,-0.11568765041666662,0.00021180000000000003,2.152937033831598e-05,0.0,123,4,114.64947093391005,481.7782,mp-1229006,AgSnTe2,https://materialsproject.org/materials/mp-1229006,67.16444698361806,26.149819957589216,-8.604250342815693,-0.5045126942092143
-4.592693571,-137.78080713,3.0185231304458555,-1.8052266390249656,5.000000033333333,0.07154154475530831,1.3136,194,30,814.4963105083592,1480.58907,mp-569309,RbMnCl3,https://materialsproject.org/materials/mp-569309,17.943787389295238,-7.897111225021093,7.831016499191449,-4.375289556209872
-6.771815207352941,-460.4834341,6.454915920266608,-0.029590656861213413,8.2e-06,6.319066977899536e-08,0.0,15,68,1512.3012854463336,5878.6799999999985,mp-743270,Mo15Se19,https://materialsproject.org/materials/mp-743270,63.94879915930909,33.83295459704171,-4.938737946117897,-0.8157464160870086
-3.23964012625,-51.83424202,4.940030231301603,-0.520322871961207,2.45e-06,4.578381135112219e-08,0.5919000000000003,140,16,623.6365617051539,1855.2912,mp-28520,Rb2SnTe5,https://materialsproject.org/materials/mp-28520,75.61653233297189,15.036271132583385,7.573980099420612,-7.2821294964000165
-5.269815600249999,-210.79262401,7.4442320059517515,-0.6524382657499999,5.25e-07,6.0911964641165075e-09,0.0,57,40,1004.4634156257302,4503.03096,mp-569538,LaNiSb3,https://materialsproject.org/materials/mp-569538,3.2960565855468182,34.389652155441304,-8.604250342815693,-0.5045126942092143
-6.23335658,-87.26699212,4.428346502653917,-1.2518460747023812,2.7793417999999996,0.11385280997896245,0.0,11,14,284.4956516072615,758.6966,mp-1247002,ZrCrAgS4,https://materialsproject.org/materials/mp-1247002,17.848948936459326,4.302918915212462,4.019943986583681,-5.584428531665857
-6.333730346153847,-82.3384945,8.295697977470343,-0.4655775143990374,1.0,0.03390800533352871,0.020400000000000414,44,13,343.69655949758834,1717.03452,mp-1218080,Ta4Ga(Te3Se)2,https://materialsproject.org/materials/mp-1218080,55.38873698379013,27.10754443725968,-8.604250342815693,-0.5045126942092143
-6.4524792433333324,-77.42975092,6.462548660673167,-2.159674719036459,4.999999900000001,0.2315814027626776,0.6326,8,12,251.61918013385062,979.261045,mp-1222397,Lu4MnS7,https://materialsproject.org/materials/mp-1222397,28.123952860455546,6.876020680441836,6.308852306051604,-7.084841544531827
-7.0074400288888885,-504.53568208,6.749151579380901,-0.508286332868924,0.12085395,0.0008548877539109399,0.0,167,72,1647.514255381904,6696.213199999999,mp-1199234,Tl2Mo15Se19,https://materialsproject.org/materials/mp-1199234,63.643275061563905,33.034584808641576,-8.604250342815693,-0.5045126942092143
-4.220824986666667,-37.98742488,5.411308347142253,-0.7449134751987548,0.0,0.0,1.0576,69,9,276.45767554747266,900.9109038,mp-11694,Cs2Pd3Se4,https://materialsproject.org/materials/mp-11694,65.12968611254212,16.108938363991598,7.0379609914853525,-6.073617342366787
-6.5100483283870965,-201.81149818,4.6394830000561305,-1.2430559285080645,1.9999997999999999,0.03453352816579111,0.003499999999999837,8,31,674.9419608215834,1885.7622,mp-1217631,Ti12Se16O3,https://materialsproject.org/materials/mp-1217631,23.08689242933097,14.165418148722019,-4.805277516788852,-0.5165369427006561
-5.6219039575,-22.48761583,10.563841925505397,-0.8859681750000004,1.3e-06,1.9412950407900428e-07,0.0,225,4,78.04215168737018,496.48032,mp-30731,HoSnPd2,https://materialsproject.org/materials/mp-30731,29.07095230761725,41.34074526130929,-8.604250342815693,-0.5045126942092143
-5.594487871166667,-335.66927227,7.685618248882105,-0.4730948506666674,1.1476816333333333,0.009124663888132828,0.0,57,60,1465.824523195749,6784.404,mp-569211,NdFeSb3,https://materialsproject.org/materials/mp-569211,3.4714000128948634,34.32066647774851,-8.604250342815693,-0.5045126942092143
-5.711031250238094,-959.45325004,9.085539764222425,-0.7646860985119046,0.330583,0.0011591567580714725,0.0,191,168,3323.653740428395,18185.1721,mp-680706,Y13Sn31Pd40,https://materialsproject.org/materials/mp-680706,29.41284813515998,41.12794368284946,-8.604250342815693,-0.5045126942092143
-4.666931057,-46.66931057,3.0346394931137968,-0.7044415768660712,3.65e-06,1.5808013332306594e-07,1.1923,148,10,269.08717449592467,491.75752400000005,mp-1079752,SnPS3,https://materialsproject.org/materials/mp-1079752,35.51319945991933,-6.5756419609236865,7.479621308828928,-4.276180498378436
-5.644550985652174,-389.47401801,5.307873479500658,-0.5604805163586958,60.523445499999994,0.4692952199310998,0.0,82,69,1502.9860185216517,4804.259,mp-1216076,Zn5Cr20(GaSe10)4,https://materialsproject.org/materials/mp-1216076,21.936638136945636,9.999407081795146,-5.778834751122655,-2.5959967715683536
-5.3195731175,-42.55658494,7.777522106719992,-0.7886910243749998,0.00010109999999999999,5.7157410377848724e-06,0.0,63,8,206.13704167437308,965.49094,mp-978016,LaSn2Pd,https://materialsproject.org/materials/mp-978016,2.385925222805059,48.34326809181618,-8.604250342815693,-0.5045126942092143
-5.476948039404761,-460.06363531,6.602941362050758,-0.2728009865476197,5.8333333333333326e-08,2.7010664888736373e-10,0.5956000000000001,61,84,2516.859351172328,10008.0,mp-1204799,Tc2Te5,https://materialsproject.org/materials/mp-1204799,54.34435012028619,31.158539147142797,-8.604250342815693,-0.5045126942092143
-4.080205735,-32.64164588,5.788527152259357,-0.374142841972656,0.00028369999999999996,1.3731822330143234e-05,0.7135000000000007,6,8,240.773445540254,839.3199999999998,mp-1219000,Sn4TeSe3,https://materialsproject.org/materials/mp-1219000,69.9622443142813,17.503170957066132,7.183337098157374,-6.665643444105442
-5.422399331111111,-195.20637592,7.537995697351066,-0.4182938776388888,0.0015193,2.168656117968789e-05,0.0,164,36,816.4512788470029,3706.27012,mp-1198642,Y7Co6Sn23,https://materialsproject.org/materials/mp-1198642,-0.10805113441327917,47.926352352369086,-8.604250342815693,-0.5045126942092143
-5.625140515,-22.50056206,10.71067146149461,-0.8918673800000008,1e-07,1.5069913315183614e-08,0.0,225,4,77.33332321704663,498.809,mp-5850,ErSnPd2,https://materialsproject.org/materials/mp-5850,29.07836627788945,41.35147405537333,-8.604250342815693,-0.5045126942092143
-3.3065836675,-66.13167335,5.253750056081801,-0.23072302550000004,5e-08,7.379028770333599e-10,1.0560999999999998,167,20,789.6747075586225,2498.43782,mp-1205361,Te6RhI3,https://materialsproject.org/materials/mp-1205361,65.6489655114206,18.133600412793413,8.458596395324546,-6.359831904807162
-3.710162955833333,-89.04391094,7.482164735095563,-0.17593885958333347,0.0011146333333333332,1.553313196753529e-05,0.0,8,24,836.27751901357,3768.1536,mp-1218955,SnBi3Te4,https://materialsproject.org/materials/mp-1218955,66.49406789108617,23.970180375211555,-4.488103532153051,-0.9986014725340812
-3.687931668333333,-22.12759001,6.185850337597909,0.09240155500000036,0.0,0.0,0.0,191,6,136.7398129906617,509.384,mp-1861,Cu2Te,https://materialsproject.org/materials/mp-1861,54.664466496571464,19.964990992170673,4.757616324865961,-5.628615216671066
-4.3876040975,-35.10083278,5.584000553527496,-0.2281073511718752,2.7753194,0.17526385048864385,0.0,121,8,184.5432013616362,620.575195,mp-11771,CoCu2SnSe4,https://materialsproject.org/materials/mp-11771,31.62867442731171,2.7102088535793705,-8.604250342815693,-0.5045126942092143
-5.217186155952381,-219.12181855,3.2757734337787885,-1.7425909093838101,9.000000833333333,0.15566449782329278,1.6993999999999998,13,42,673.7990622872984,1329.2148,mp-778496,LiFe2(ClO)2,https://materialsproject.org/materials/mp-778496,-22.81792843561123,-30.381026906764777,5.146193970615669,-1.6770709616710486
-5.310537713333333,-63.72645256,9.98592201719961,-0.3989769578645834,1.25e-07,5.603520542347943e-09,0.3749000000000002,198,12,259.9719382771393,1563.3836,mp-1101765,BiRhSe,https://materialsproject.org/materials/mp-1101765,49.92212027480554,20.92700750561145,5.547960049477668,-6.213183035074312
-7.047186906805555,-507.39745729,6.571992509556649,-0.4567860843967008,0.6063301999999999,0.004401697525179222,0.0,167,72,1605.3378006866485,6353.52,mp-1199886,Sn2Mo15Se19,https://materialsproject.org/materials/mp-1199886,63.443509462603465,33.1583700235926,-8.604250342815693,-0.5045126942092143
-6.9465775325,-27.78631013,9.10678601146898,-0.5779752700000005,1.0300000000000001e-05,1.3834459608061562e-06,0.0,225,4,86.76657459566938,475.848269,mp-1187757,Y2RuAu,https://materialsproject.org/materials/mp-1187757,-11.26975283254559,54.53082217049193,-8.604250342815693,-0.5045126942092143
-6.168175878571428,-43.17723115,6.192418232216022,-0.4051187777678566,7.0000424,0.6354282751566148,0.0,12,7,128.3841949276767,478.765395,mp-1078160,Cr2CoSe4,https://materialsproject.org/materials/mp-1078160,23.771496912128182,16.9713779630805,-8.604250342815693,-0.5045126942092143
-5.69890284,-17.09670852,6.404932089977251,-0.44127873333333295,2.4e-06,3.402336357847765e-07,0.0,216,3,82.20749659165458,317.08585,mp-1215892,YSbPd,https://materialsproject.org/materials/mp-1215892,24.14160509342025,28.526377792792374,-8.604250342815693,-0.5045126942092143
-3.723755772,-18.61877886,5.205642494271395,-0.8112902112,0.0,0.0,0.7732999999999999,71,5,168.57912719675755,528.4806,mp-8623,K2Te2Pt,https://materialsproject.org/materials/mp-8623,64.95127757663045,17.35111587515073,7.181725553241731,-6.136209380828898
-4.939904412857143,-138.31732356,4.568799919798159,-0.5724476337500012,3.96405055,0.07430988377856537,0.0,62,28,621.6844855936439,1710.5,mp-20767,Fe(SbS2)2,https://materialsproject.org/materials/mp-20767,21.52760988191382,14.844832190132067,-11.339979657453874,-0.630890069338624
-5.781534556,-57.81534556,2.6174600850772345,-0.789074712866072,4.9999997,0.252186716785934,0.16809999999999992,12,10,231.06022834676563,364.213614,mp-8613,MnPS3,https://materialsproject.org/materials/mp-8613,26.462184117736005,0.5907960984364576,4.513851997000617,-5.5317354906877165
-5.792572643214285,-162.19203401,6.50471785668245,-1.22903046125,6.97918025,0.11408560101611295,0.02810000000000024,62,28,712.9367594897608,2792.7392,mp-1192923,Eu(BiS2)2,https://materialsproject.org/materials/mp-1192923,-14.6736318330824,12.269244506959605,4.1684671192150216,-6.086353927490394
-6.041004124285713,-84.57405774,3.578390643773933,-1.5576414008928583,5.999884099999999,0.2428560959001557,0.0,166,14,287.9196326947385,620.4545,mp-1247245,DyMg2V3S8,https://materialsproject.org/materials/mp-1247245,22.830570349817204,10.828929017642029,-8.604250342815693,-0.5045126942092143
-6.49994719,-64.9994719,6.038259993418351,-1.1309915211562505,1.5004541,0.0788553359430838,0.0,148,10,221.75277120465358,806.3651950000002,mp-1215665,Zr3CoSe6,https://materialsproject.org/materials/mp-1215665,28.756609477251303,8.475605210109258,-1.4827246324084824,-2.4470494654718973
-3.7466352955,-74.93270591,5.84478550914756,-0.5299600654999999,5.00004405,0.08011377506212497,1.3887999999999998,62,20,727.3510351892047,2560.13902,mp-23443,MnTlI3,https://materialsproject.org/materials/mp-23443,22.600023932701177,-0.7686258425836358,-8.604250342815693,-0.5045126942092143
-6.370452534166668,-76.44543041,9.250529775499519,0.23650712583333325,2.848979575,0.12536784356513914,0.0,198,12,264.83818783640675,1475.3604,mp-1102668,CrSbPt,https://materialsproject.org/materials/mp-1102668,54.71492716622426,36.07488591551447,-8.604250342815693,-0.5045126942092143
-5.618426494285713,-39.32898546,7.388376176605789,-0.02899419142857137,3.3963528,0.26126110611245296,0.0,10,7,151.5009873097136,674.0861,mp-1237584,Cr(FeTe2)2,https://materialsproject.org/materials/mp-1237584,54.296456202583286,33.767337344590175,-8.604250342815693,-0.5045126942092143
-5.91138617,-35.46831702,7.535141330531852,-0.678274658333334,0.0,0.0,0.0,129,6,148.76652201765646,675.068,mp-9289,ZrSnTe,https://materialsproject.org/materials/mp-9289,43.728754999550034,27.475628287800035,-8.604250342815693,-0.5045126942092143
-6.0883234625,-97.41317540000001,2.7941589111765297,-1.4029736931640633,1.9997611000000002,0.06486486604955734,0.0,59,16,359.290734852358,604.572,mvc-11311,CaV2S5,https://materialsproject.org/materials/mvc-11311,20.117231566626856,12.51916457855036,-8.604250342815693,-0.5045126942092143
-5.835140246666668,-70.02168296,8.571841510174803,-0.3232134233333343,7.5e-08,3.2188627788282645e-09,0.7001999999999997,14,12,271.541509532802,1401.72,mp-1102857,SbTeRu,https://materialsproject.org/materials/mp-1102857,50.387782972672596,20.943779659442388,6.212897543463902,-5.83568553566557
-7.789041079444446,-280.40547886,8.059766217520544,-0.5205070522222223,0.0,0.0,0.0768999999999993,55,36,1040.2585953167656,5049.10808,mp-28509,Ta4SiTe4,https://materialsproject.org/materials/mp-28509,58.085364488839815,32.946678441524746,-8.604250342815693,-0.5045126942092143
-5.057293496470588,-85.97398944,7.254042904130594,-0.0880104116470594,2.9257791,0.08641993455860797,0.0,204,17,394.5527072631311,1723.5983,mp-1212045,K(FeSb3)4,https://materialsproject.org/materials/mp-1212045,43.92472876602957,23.53345289780393,-8.604250342815693,-0.5045126942092143
-4.2563051225,-17.02522049,3.98038665002732,-1.04475333078125,0.0036506999999999998,0.0005373744493810934,0.0,166,4,79.17290134315896,189.78099999999998,mp-1001783,LiSnS2,https://materialsproject.org/materials/mp-1001783,42.513963337140154,-0.6473552946055313,-6.146945381985911,-3.3453326572523894
-3.915537238928572,-109.63504269,4.003853860939859,-1.0987217711453199,3.99999995,0.048140393814465485,0.9262,194,28,968.3397831599797,2334.8387999999995,mp-29459,Rb3Mo2Br9,https://materialsproject.org/materials/mp-29459,10.525886553529228,-7.567928186871173,5.7194047075851895,-4.853409825418238
-7.15644845,-107.34672675,6.892765980003767,-0.386456148583333,3.9316864000000002,0.15057076517188298,0.0,148,15,304.3095910330693,1263.165,mp-1104529,Fe(Mo3Se4)2,https://materialsproject.org/materials/mp-1104529,63.28350450836685,33.478688336783385,-8.604250342815693,-0.5045126942092143
-4.5639867226,-228.19933613,5.451699738193555,-0.7027205060750004,3.9964477,0.037039960398023784,0.0,14,50,1257.421980354821,4128.23,mp-22369,FeSb6(Pb2S7)2,https://materialsproject.org/materials/mp-22369,70.02526663840786,15.31893548363697,4.176696336204121,-6.067823643111508
-6.885869639333332,-103.28804459,7.477318097638513,-0.7196646229166664,4.59e-05,1.7228562929554526e-06,0.0,147,15,310.48531165815643,1398.09868,mp-1220425,Nb6BiSe8,https://materialsproject.org/materials/mp-1220425,48.0666209961723,23.195439223390604,-8.604250342815693,-0.5045126942092143
-5.197265650666667,-311.83593904,7.730393115206089,-0.6121875081666672,1.0833333333333335e-07,8.619811665580562e-10,0.0,57,60,1464.6766457036429,6818.584800000001,mp-571167,NdNiSb3,https://materialsproject.org/materials/mp-571167,3.3606666437672934,34.46593299949773,-8.604250342815693,-0.5045126942092143
-5.780722945714286,-80.93012124,5.484909049043104,-0.5240963991964287,11.926497099999999,0.4718756441378074,0.0,216,14,294.5525403564881,972.9334,mp-1226304,Cr4GaCuSe8,https://materialsproject.org/materials/mp-1226304,13.521480644546434,2.0786121859332005,-8.604250342815693,-0.5045126942092143
-3.5438089471428573,-49.61332526,3.645942815825367,-1.0768730672413795,4.9999997,0.08721337077229392,2.0813,11,14,668.1351706806228,1466.98305,mp-1209441,Rb2MnI4,https://materialsproject.org/materials/mp-1209441,17.887664138612656,-8.480116194013185,7.677751738308888,-2.463667034624367
-5.276265547916666,-126.63037315,6.206436490565159,-1.3153732373046871,2.00000815,0.03910577331800675,0.2159,173,24,596.0302673522306,2227.7248,mp-1190815,Nd3GaNiSe7,https://materialsproject.org/materials/mp-1190815,26.832481592004513,6.2213496762365725,-5.899275064300317,-1.2278803609738356
-5.41943127525,-216.77725101,7.856298092270035,-0.5680055607499994,4.125e-07,5.001312788477286e-09,0.0,57,40,961.2079711864047,4547.64156,mp-570956,NdCoSb3,https://materialsproject.org/materials/mp-570956,3.819423839694044,34.54922994143228,-8.604250342815693,-0.5045126942092143
-5.176611231428573,-72.47255724,8.449496904588568,-0.5582973871428568,0.8884068000000002,0.03182128718690765,0.0,63,14,325.36554322171736,1655.592,mp-1104512,Ce(Sn2Pd)2,https://materialsproject.org/materials/mp-1104512,2.7102991035318382,48.785108508419725,-8.604250342815693,-0.5045126942092143
-3.530745550833333,-211.84473305,4.55869694442951,-0.5236599439706671,3.00031855,0.01690332745491274,0.2211999999999996,15,60,2068.5812786434535,5678.9000000000015,mp-624000,Re(Te4Cl3)2,https://materialsproject.org/materials/mp-624000,35.64425012441611,-5.6930308549062225,4.283902835358662,-6.1706503574902785
-4.666805603999999,-46.66805604,3.0160772259381523,-0.7043161238660716,1.05e-06,4.51969449477113e-08,1.1710999999999996,12,10,270.7432554422536,491.75752400000005,mp-1080140,SnPS3,https://materialsproject.org/materials/mp-1080140,35.511214691436145,-6.538379246334809,7.28775830768148,-4.290230428042654
-5.0766053825,-60.91926459,10.047424284385393,-0.5580301303645829,8e-07,3.590810264836144e-08,0.4885999999999999,198,12,259.642006411419,1571.0159999999996,mp-1218926,SnPtSe,https://materialsproject.org/materials/mp-1218926,50.11469027984821,28.891234826098447,6.160686387520522,-6.085295346410193
-6.422509155,-51.38007324,6.066744547865152,-1.3262329722460944,5.7000000000000005e-06,3.517022884490495e-07,0.5904000000000003,6,8,188.87613582649064,690.0550000000002,mp-1224418,Hf2(SeS)3,https://materialsproject.org/materials/mp-1224418,56.36968677113933,1.504506829450304,5.394383437230974,-5.6022915104555695
-2.5646880281818185,-28.21156831,2.437563804317172,0.13499367727272696,0.0012111,1.4783153145743954e-05,0.0,8,11,954.7515138954308,1401.51341,mp-685011,Te8I3,https://materialsproject.org/materials/mp-685011,57.869840323014095,28.85140583967382,-8.604250342815693,-0.5045126942092143
-4.028603918,-40.28603918,7.000621831665274,-0.4872558442187504,0.00032460000000000003,1.2128728162268546e-05,0.5248999999999997,160,10,311.8966287777139,1314.9165999999998,mp-1227434,Bi4(TeS)3,https://materialsproject.org/materials/mp-1227434,67.58465451867913,23.97951461842012,5.192974341576744,-6.748243763298284