energy_per_atom,energy,density,formation_energy_per_atom,total_magnetization_uB,total_magnetization_T,band_gap,sgr,num_sites,cell_volume,weight,mp_id,formula,URL,tsne_xrd_lin1_0,tsne_xrd_lin1_1,tsne_xrd_lin2_0,tsne_xrd_lin2_1
-7.012220301538463,-91.15886392,4.972905908108565,-2.3288197147115395,16.999999,1.056461528541356,0.0,82,13,187.53081312197966,561.60865,mp-1105068,BaYFe4O7,https://materialsproject.org/materials/mp-1105068,7.406997026064486,55.87591290603991,-8.495028787932599,51.56384838541953
-6.3325147820000005,-126.65029564,4.67994520738164,-1.7514898845833344,0.0,0.0,1.9226,15,20,293.5184721297625,827.2316,mp-624691,VAgO3,https://materialsproject.org/materials/mp-624691,4.732020801871702,7.688048187293334,37.1709155011764,34.289759367697
-3.944736435625,-126.23156594,3.5240098484471654,-1.2704294660757904,2.625e-07,3.069144729634974e-09,2.0973,15,32,996.7571660137256,2115.3264,mp-601861,RbInS2,https://materialsproject.org/materials/mp-601861,-3.930845917329825,8.841171430492524,1.6688653698442544,19.044562120464246
-7.405768446666666,-177.73844272,6.6185145421844735,-2.667830346708333,0.0,0.0,3.7962,12,24,343.7904131238303,1370.267,mp-1211353,KSm(WO4)2,https://materialsproject.org/materials/mp-1211353,27.838061836343297,8.73617024567576,45.67129240883048,23.04173333462212
-6.4967065264583335,-311.84191327,2.227550981090274,-1.9510293729166683,3.99999995,0.07238747065126927,0.4478,114,48,643.9824197216667,863.8783168,mp-1201367,Na5Sc(C2O7)2,https://materialsproject.org/materials/mp-1201367,-10.95711249022126,24.001860765412776,-15.506107626096027,-6.158316013442748
-5.8991552,-29.495776,8.396315179171275,-1.47764552525,4.3449973,0.8231630532049775,0.0,221,5,61.51500577393843,311.0432,mp-973579,FePbO3,https://materialsproject.org/materials/mp-973579,-30.24848934454253,48.42056546533685,-17.76928233779016,66.23577927115839
-8.372551833333334,-100.47062199999999,4.522669107349767,-1.6158371595233338,3.8e-06,2.4434762708906716e-07,1.8437,36,12,181.23951790857518,493.62667719999996,mp-1245982,Y2AlN3,https://materialsproject.org/materials/mp-1245982,12.398987764184772,55.30803546973606,2.5840297553925446,39.21269794461227
-4.89161129125,-234.79734198,3.1496496390320385,-0.4936891076266665,2.25e-07,3.344494271771936e-09,0.8685,206,48,784.0242382704664,1487.1084627199998,mp-1245753,Na3YN2,https://materialsproject.org/materials/mp-1245753,-4.068207998823559,1.0634619938869465,-4.023620544013773,-9.801975866454775
-5.14509705,-123.48232920000001,1.991560086693064,-2.0164833318116657,0.0,0.0,4.5162,129,24,294.23286569522617,352.88687432,mp-643248,Na2AlH4ClO4,https://materialsproject.org/materials/mp-643248,-14.337056777437516,38.13100322433592,-2.378848033624657,45.27383939049885
-4.310442443333334,-25.86265466,5.950989008776866,-0.7531998850000002,0.0,0.0,0.029300000000000107,194,6,153.91313936078404,551.5892,mp-9898,BaCuAs,https://materialsproject.org/materials/mp-9898,-53.555021873425076,26.128524649584648,-50.033367825910176,31.155370608138124
-7.124243140000001,-206.60305106,7.478817458706914,-2.40768164566092,3.9993285000000003,0.11732571156221967,0.4728000000000003,42,29,397.25677147099,1789.1846,mp-1208356,Ti4Fe(BiO3)6,https://materialsproject.org/materials/mp-1208356,-8.089581731595096,30.876465679948573,5.336447224373902,30.341498914271288
-8.0534994075,-64.42799526,7.5681663071648515,-1.9148068195312504,1.71131175,0.13093175280031785,0.0,141,8,152.32162981090147,694.229644,mp-36052,ScUS2,https://materialsproject.org/materials/mp-36052,-6.974858816019807,10.11382140864459,10.595338532682938,31.03797669831133
-8.05877435403846,-419.05626641,7.582198970840117,-3.7674721472058983,0.0,0.0,4.7497,14,52,724.7274722339911,3309.1832,mp-1204549,Er4BClO7,https://materialsproject.org/materials/mp-1204549,3.598302336882693,39.036541120892956,7.030709556200203,34.215949458960274
-8.1766504075,-163.53300815,8.008387139168441,-3.7556082500833337,0.0,0.0,2.3173,62,20,223.02996840653407,1075.6208,mp-754225,YbTiO3,https://materialsproject.org/materials/mp-754225,-8.592444731451577,44.99016709683536,-3.7067780237152888,64.19720358404615
-7.143265846499999,-142.86531693,4.341714468214345,-0.7015045838389995,0.0,0.0,0.8073999999999999,176,20,419.91712592766345,1097.93279,mp-861914,Ba3Co(CN)3,https://materialsproject.org/materials/mp-861914,9.53736423773316,-4.4626839281100565,11.93931285923626,5.528218823911548
-8.2436881035,-164.87376207,6.439060895875193,-3.19777991025,3.000000275,0.1418719182760235,2.1644999999999994,62,20,246.4349389744985,955.5990800000001,mp-19281,LaCrO3,https://materialsproject.org/materials/mp-19281,-27.83354693480838,47.91649220025482,-11.868991415933866,65.03294559714628
-2.521306837,-50.42613674,5.757789933918129,-0.8875612639999997,0.0,0.0,2.7474,62,20,641.9827383505177,2226.0252,mp-28219,TlCdBr3,https://materialsproject.org/materials/mp-28219,17.052600826739848,21.551983908199183,21.785559741037652,38.53749218174017
-5.0053535404347835,-115.12313143,6.726161378427894,-1.5892622902173918,0.22557249999999998,0.00900035385402873,0.0,139,23,292.08146352284854,1183.102,mvc-132,Ba2Mg3Tl2(NiO3)4,https://materialsproject.org/materials/mvc-132,-4.385907284995359,21.0771736606757,5.070026679424516,48.61114362613508
-7.268481777142857,-50.87937244,8.212253083229443,-0.7038923212499993,9.990000000000002e-05,1.1121012531230506e-05,0.01309999999999967,12,7,104.68840562037327,517.74012,mp-9211,Tm2Fe2Si2C,https://materialsproject.org/materials/mp-9211,-41.68133043764983,1.235589934328645,-20.563002233600482,20.36976407820593
-2.4421497975,-9.76859919,2.955128684434647,1.501565244625,3.834973,0.2620629532947009,0.0,139,4,170.54308203860603,303.5019,mp-1185114,K3Re,https://materialsproject.org/materials/mp-1185114,10.180738173596717,12.066401649787991,34.240859460738285,-5.34777082815756
-6.10555676625,-48.84445413,7.840833120571003,-2.2299453500000004,0.0,0.0,1.2339000000000002,123,8,158.78710850696345,749.77052,mp-545728,PrBi2IO4,https://materialsproject.org/materials/mp-545728,22.75782133063789,59.39969531356266,-14.511843916553335,39.090536443376884
-4.377545407916666,-105.06108979,3.7510320804846256,-1.769550168915,0.0,0.0,4.1758000000000015,62,24,470.0348276293103,1061.7731199999996,mp-643356,SrH2Br2O,https://materialsproject.org/materials/mp-643356,-12.382381917090333,18.57817759645077,-12.041783441849672,23.878050707050573
-7.3416341917857135,-205.56575737,6.218408424524304,-2.354582313452382,2.99999765,0.09799770953384868,2.2358,62,28,356.76514376645554,1336.0187999999996,mp-21100,CrBPbO4,https://materialsproject.org/materials/mp-21100,1.6935529009372412,12.884169499435885,4.668844436520954,26.916062114150527
-9.902024057727274,-217.84452927,7.838483068019693,-3.3281824887500018,18.000011399999998,0.6611752938295165,0.0,20,22,317.2733475072993,1497.67136,mp-1213095,Eu3TaO7,https://materialsproject.org/materials/mp-1213095,23.634286956480107,63.720946268696615,-8.403139034022661,37.471012728408326
-4.047082525,-40.47082525,5.487111047868216,-1.5712916454759995,2.17e-05,1.038553381880615e-06,0.0,63,10,243.50525449794964,804.6425528,mp-1208906,Sn2IF2,https://materialsproject.org/materials/mp-1208906,1.1701575199152772,23.28805798025451,2.8348081876853213,19.877806449563888
-6.267480171153847,-162.95448445,6.283137463500749,-2.517504983173078,4e-07,1.3540892217125028e-08,0.0,46,26,344.2628324836945,1302.6196,mp-541324,Sr2ErGaCu2O7,https://materialsproject.org/materials/mp-541324,-22.556424889722212,46.78556160431882,-9.316207771204493,66.76709611940312
-5.464936675833332,-65.57924011,4.2378703355387035,-0.1052703434082763,0.39389945,0.018489497582631437,0.0,62,12,248.2776875715577,633.63078,mp-1029420,RbCoN,https://materialsproject.org/materials/mp-1029420,-11.091749288360358,15.133008911422412,-18.62898243044097,44.930054583297135
-7.0379158855,-422.27495313,2.8722836621911374,-3.5253323758273325,1.00000005,0.013808015423388964,0.1442000000000001,7,60,844.0072666432916,1459.9044192,mp-1227334,Ca8Si4(O5F)3,https://materialsproject.org/materials/mp-1227334,7.2244416200979105,23.09032801973685,-1.5059591475823138,42.16855665322957
-5.838523497285714,-408.69664481,4.5509006013584425,-2.060081888794643,0.0,0.0,1.6752000000000002,146,70,1658.1154460784803,4544.25846,mp-1224774,La9Ga5S21,https://materialsproject.org/materials/mp-1224774,11.096987488531587,-1.825561259709647,45.697972001162654,0.8695677255344635
-7.278888308571429,-101.90443632,7.350746197819225,-2.9167248542857145,0.0,0.0,0.0,64,14,187.96188929022068,832.0552,mp-15742,Nd2CuO4,https://materialsproject.org/materials/mp-15742,-21.868918963752133,38.37775568173187,-8.846959897170281,60.08260782203328
-3.2161969016666667,-38.59436282,2.2688988285016602,-1.098436240698276,2.1000000000000002e-06,5.947357288091699e-08,0.001999999999999988,139,12,411.5027034171687,562.2620000000002,mp-756889,KRbO,https://materialsproject.org/materials/mp-756889,0.9976061219509678,-17.654623492191362,-12.292363884608614,-26.240670132309212
-7.8179858790625,-250.17554813,5.314018032258742,-2.8372471076562498,3.000000425,0.0952899171445566,2.6931000000000003,55,32,366.90344916155505,1174.1558,mp-1207733,YCrGeO5,https://materialsproject.org/materials/mp-1207733,-2.0880394240335955,27.511858444983787,1.4920802586517536,49.84162023355764
-8.481521556,-84.81521556,6.355229656586369,-3.4082710134166656,2.0000002,0.1883273270073368,0.0,148,10,123.76393934070072,473.67044,mp-1225793,La2TiCrO6,https://materialsproject.org/materials/mp-1225793,-22.087699779733263,52.301187275040725,5.584048013605638,59.379089348551986
-7.235817537619049,-151.95216829,7.4302138832738684,-2.5437096225595246,0.0,0.0,1.7884000000000002,160,21,321.38533071058714,1438.0642,mp-1215669,Zr3TePb4O13,https://materialsproject.org/materials/mp-1215669,24.910743417763964,64.83790714740397,-10.379907644985051,36.595740864931564
-7.903782205833332,-284.53615941,7.091919908452492,-3.243252918333334,0.0,0.0,2.2285,15,36,477.45681991104203,2039.1484,mp-18340,Tb2MoO6,https://materialsproject.org/materials/mp-18340,20.992091046658643,56.128821866548776,-1.838299187157174,35.87217644449212
-5.693246100769231,-74.01219931,7.0751898991121935,-2.088403009903847,0.0008136000000000002,4.734864557309591e-05,0.0,123,13,200.2538189675739,853.2372700000002,mp-1214663,Ba2LaCu2HgO7,https://materialsproject.org/materials/mp-1214663,-19.160502420326704,36.22022538300082,-13.702467523050304,54.20775087112736
-4.211431488541667,-202.14871145,9.136644226221767,-1.5985821788850003,8e-07,1.3383055152641059e-08,0.0,8,48,696.6459983696526,3833.0966544,mp-758418,Tl16O15F17,https://materialsproject.org/materials/mp-758418,-12.485623256023727,-23.922746135987676,-1.4703337659789943,34.599158169014906
-7.264626446346154,-377.76057521,5.117257065167874,-3.0115972766346166,0.0,0.0,3.1081,136,52,984.4738652143905,3033.8376399999997,mp-1203678,La3As2BrO7,https://materialsproject.org/materials/mp-1203678,7.873035021155692,18.93518780711645,0.7598426103318426,34.770864111854536
-6.6947814370000005,-66.94781437,7.685406774308567,-2.3958040467500004,9.000000000000001e-07,9.267556590735207e-08,0.0,167,10,113.17609115858276,523.8084,mp-772548,SmCuO3,https://materialsproject.org/materials/mp-772548,-25.241594948686643,54.733854162476995,-12.812885178171875,59.022424974603176
-5.7035204880000006,-28.51760244,6.678675289840053,-0.615467322,0.9967188,0.11534454439924098,0.0,139,5,100.70546045959681,405.03659,mp-20563,Ba(CoAs)2,https://materialsproject.org/materials/mp-20563,-17.128886205236412,32.371832121089824,-17.673574578286722,55.6104113652506
-6.342899135714285,-88.80058790000001,4.378649253064604,-0.9044954353057132,1.09323815,0.04668423188389916,0.0,176,14,272.91159558153583,719.63629,mp-9325,Sr3MnN3,https://materialsproject.org/materials/mp-9325,-4.202087752395811,21.531162263416466,4.028642281654033,49.11576046329161
-3.4537015785714287,-24.17591105,4.086254691384814,-0.5155356742857141,1e-07,5.174322482025545e-09,0.0,71,7,225.22880653541299,554.2430772000001,mp-7376,Sr3(AlSn)2,https://materialsproject.org/materials/mp-7376,1.2125815785440262,14.008347172571805,4.1178814318185895,20.02105877321218
-4.2182953823333325,-126.54886147,3.861318752214224,-1.221738952402299,2.9999998,0.03602516993134746,0.6103000000000001,185,30,970.4934648051061,2256.7278,mp-29314,RbVBr3,https://materialsproject.org/materials/mp-29314,-15.669380010806739,29.28202464329025,-19.55747634431323,-9.19284931036886
-7.069131387692307,-91.89870804,4.378519056333554,-2.606887878021979,7.9999994999999995,0.5600423470022938,0.3376000000000001,148,13,166.4740404944116,438.959724,mp-1103865,BaFe2(PO4)2,https://materialsproject.org/materials/mp-1103865,-4.2908789373690785,-6.70088220936838,0.5738164743673394,11.419458979358506
-7.154879182,-143.09758364,7.093368092133227,-3.0561600462500014,0.0,0.0,3.3949,62,20,242.1773672067533,1034.5154,mp-4535,PrGaO3,https://materialsproject.org/materials/mp-4535,-24.49297127018882,49.87838338464053,-7.942047048240777,64.28657156434238
-6.222612114,-62.22612114,3.6822901710688214,-1.213012362951999,2e-07,1.9335355183992558e-08,1.8506,140,10,120.54668416133272,267.315528,mp-11919,Sr(BeN)2,https://materialsproject.org/materials/mp-11919,-20.542312757077454,22.928604610972126,-1.1966669085573851,20.141792717135207
-6.600830834999999,-92.41163169,4.505964371613203,-0.9191280203057132,0.00154975,6.113617279077258e-05,0.0,176,14,295.4206332654234,801.6402,mp-1246448,Sr3MoN3,https://materialsproject.org/materials/mp-1246448,-6.338963966821321,36.77499491865881,-3.0028178068231406,47.50005137029336
-7.567790685416668,-181.62697645,7.3860945282957555,-2.442344405,1.04573855,0.03853906999882893,0.0,13,24,316.22726747773044,1406.5821,mvc-705,YSn(WO4)2,https://materialsproject.org/materials/mvc-705,8.59975726019414,17.538626540447062,50.05910901403631,7.276839653477388
-5.388788612999999,-53.88788613,5.919572314516438,-1.745169470250001,0.0,0.0,1.4754999999999998,186,10,136.9025970989407,488.0372,mp-19241,BaNiO3,https://materialsproject.org/materials/mp-19241,-2.2193247981005095,-3.913304346267312,-1.2625023379612217,-18.976276449144088
-5.794560904444443,-52.15104814,4.9899392162542355,-1.9021818726388884,4.2000000000000004e-06,3.423709797256045e-07,0.0,99,9,142.96501439456011,429.6115386,mvc-16096,BaAlCuSbO5,https://materialsproject.org/materials/mvc-16096,-5.999669701904717,13.085940327264268,-3.094546302251449,26.223021806776536
-8.201997754999999,-164.0399551,4.954888802530076,-3.4194163473333328,0.0,0.0,2.3176,125,20,229.842125921525,685.8267999999998,mp-756581,LiNdTi2O6,https://materialsproject.org/materials/mp-756581,-4.754568854331733,12.358837408135892,-9.994359119202814,42.540819999169685
-6.836626936666666,-41.01976162,7.382641896877189,-3.5171454573366674,0.0,0.0,5.0946,129,6,99.14081568904308,440.77322,mp-772222,TmClO,https://materialsproject.org/materials/mp-772222,-6.185134578464483,11.659423509074196,-11.552030599272545,42.098983009852795
-3.215092549,-32.15092549,3.4967409182686278,-1.6491153532413794,2.13e-05,7.618155927836147e-07,4.3567,12,10,325.8420830538564,686.1539038,mp-571409,Cs2Li3Br5,https://materialsproject.org/materials/mp-571409,7.8494883799747965,20.040528113040182,4.332224718886391,19.14488852828761
-3.396434508,-16.98217254,5.853670581043903,-0.6432483480000002,1.3e-06,1.2777207458514806e-07,0.0,139,5,118.57273393672071,417.9882,mp-570198,Ba(ZnAs)2,https://materialsproject.org/materials/mp-570198,-19.795829754457134,14.6421849044626,-35.144610992811266,-16.136395463104826
-7.293123297777778,-131.27621936,5.636371702415191,-2.9221210275000007,1.0,0.03991124637448865,0.07230000000000025,14,18,291.9995197145484,991.1346800000001,mp-756689,La2SbO6,https://materialsproject.org/materials/mp-756689,20.644793024152673,29.02480977495021,34.22784987941835,38.91860398572357
-8.5219655965,-170.43931193,5.251691243485608,-3.2437877325333337,5.99998315,0.30154726691540235,0.0,31,20,231.88468255619657,733.36833856,mp-1221064,NaEuTi2O6,https://materialsproject.org/materials/mp-1221064,-8.150734862657773,13.942770655223987,-0.7424621423916827,64.43480699906073
-7.428767415,-252.57809211,6.361616451364736,-2.297764784191177,13.9604633,0.3113707613955037,2.8974,15,34,522.5158034234483,2001.7868,mp-542515,Gd2Te4O11,https://materialsproject.org/materials/mp-542515,6.1874866890559845,16.81818908122421,35.931682818880866,-3.4042671813074286
-6.8939693716,-172.34923429,5.720097173005742,-2.4775217030420005,3.0,0.10025260255240233,0.8691,166,25,348.7410144729584,1201.316225,mp-675227,BaMnO3,https://materialsproject.org/materials/mp-675227,-8.176544539244777,29.70397978106781,0.9439951510721449,23.95433863668991
-6.991016406,-69.91016406,6.552734216417228,-3.1447556212500003,1.0,0.06679535334559138,0.0,74,10,174.47418403886448,688.5011,mp-5735,BaTbO3,https://materialsproject.org/materials/mp-5735,-18.163645733286906,-50.946648882080424,-24.592797935324914,-5.581329361866436
-6.913866508333334,-41.48319905,5.4411202568945125,-1.7070420003472229,3.71e-05,3.55158829080776e-06,0.0,123,6,121.7387173454243,398.90359999999987,mp-1018735,BaTi2As2O,https://materialsproject.org/materials/mp-1018735,-27.16953922095923,35.010153091280486,-19.123293422248512,59.20656064057643
-7.414369167640449,-659.87885592,7.125345221876541,-2.428098526853934,17.9995989,0.1801138987566948,0.3511999999999995,8,89,1164.6435555984385,4997.465999999999,mp-1178586,Ca9(WO3)20,https://materialsproject.org/materials/mp-1178586,14.522390260069294,15.057775332075169,48.095364835637255,5.279588116446252
-8.045331471764705,-136.77063502,4.764174770509131,-3.455367608147058,0.0,0.0,2.0435,139,17,229.9025164511568,659.6025400000002,mp-6548,K2La2Ti3O10,https://materialsproject.org/materials/mp-6548,-20.893717950417088,36.82932528322519,-13.903623076213751,56.982690571784104
-6.878133741000002,-137.56267482,5.556866199975729,-2.485740102442,6.00000055,0.2715715237849011,0.7562000000000002,194,20,257.48058585287305,861.6389800000001,mp-1227420,BaSrMn2O6,https://materialsproject.org/materials/mp-1227420,-9.601687047680418,12.632407335767558,-26.258658681535177,28.145394738817693
-7.0425210067499995,-563.40168054,3.851924468494727,-2.4970592180000004,9.18125e-06,1.0430562954482473e-07,2.8185,61,80,1025.8207793768363,2379.5792,mp-769171,SiGeO3,https://materialsproject.org/materials/mp-769171,11.785016796258182,32.375283716304644,58.64501966863556,35.598795635672545
-5.326266459166667,-63.91519751,7.968904658281565,-2.144529705813333,2.5e-08,1.4327022952856761e-09,2.4281,70,12,203.35810186993362,975.9128127999999,mp-1178491,BiOF,https://materialsproject.org/materials/mp-1178491,5.964632280485112,-4.8570863880816235,-2.2288604156269187,-11.842868842766794
-7.357935046500001,-147.15870093,8.350115350960865,-2.6129695917500007,3.99999945,0.20181535257177646,0.0,14,20,230.98467032593013,1161.5196,mp-1213197,Dy2NiRuO6,https://materialsproject.org/materials/mp-1213197,-7.030266863154846,57.25885766115167,15.481451517917158,61.71609469308587
-5.366305084166666,-64.39566101,5.615451203848197,-1.5012232466666664,0.0,0.0,2.8091,19,12,188.77915844449834,638.3951999999998,mp-561224,TeO2,https://materialsproject.org/materials/mp-561224,29.648093305746062,56.866416973590525,35.35363367669051,-3.117616557861477
-3.794223911111112,-34.1480152,9.612165854126367,-0.6755122911111116,4.0566666666666666e-05,2.337781753040733e-06,0.0,189,9,202.22869834844414,1170.617337,mp-1206259,TmMgAu,https://materialsproject.org/materials/mp-1206259,-39.04707557414898,13.402590743887705,-27.294170204443088,29.180700906350303
-5.172680988,-25.86340494,7.7685225920605525,-0.4970009519999991,0.6055493000000001,0.0800396088988787,0.0014000000000002901,139,5,88.17023049293094,412.48800000000006,mp-20173,Ce(CuGe)2,https://materialsproject.org/materials/mp-20173,-49.10483178873888,29.20599682877809,-32.77933814897723,33.51953321418879