energy_per_atom,energy,density,formation_energy_per_atom,total_magnetization_uB,total_magnetization_T,band_gap,sgr,num_sites,cell_volume,weight,mp_id,formula,URL,tsne_cry_lin1_0,tsne_cry_lin1_1,tsne_cry_lin2_0,tsne_cry_lin2_1
-2.8263745588571427,-98.92310956,5.455654428586506,-0.12778021942857146,0.0016527,1.8460285861567805e-05,0.0,8,35,1043.357236937913,3427.92093,mp-685158,Cu16I19,https://materialsproject.org/materials/mp-685158,16.91690549741971,-11.164008564820142,-6.285838334411334,-3.659166558094168
-4.596589615,-55.15907538,6.848219084956968,-0.6478412222968751,0.0,0.0,1.0065,166,12,323.0509782992735,1332.2926,mp-14796,KPt2Se3,https://materialsproject.org/materials/mp-14796,64.99918684573615,15.773478681011445,6.79096615993688,-6.319001565589076
-5.06623197125,-40.52985577,4.050209131845322,-0.006536849107142473,9.5e-07,6.379983039362211e-08,0.0,166,8,173.5327737648419,423.262572,mp-7541,SnP3,https://materialsproject.org/materials/mp-7541,38.41444788455875,28.238811753995662,-5.077925333317465,-1.1868526621905822
-3.9129977409090912,-43.04297515,6.290466356802934,-0.05426909090909116,5e-06,1.6268209036652366e-07,0.0,166,11,358.1852417283003,1356.88,mp-12826,Sb8Te3,https://materialsproject.org/materials/mp-12826,66.65842613916658,25.94668974621901,-8.604250342815693,-0.5045126942092143
-6.06047329,-72.72567948,7.790438924504228,-0.5129328199999996,0.0,0.0,0.24659999999999996,14,12,215.49444786178435,1010.9948,mp-15954,As2Rh,https://materialsproject.org/materials/mp-15954,39.75897966150115,7.949043928927315,6.527464622158655,-7.004520618153527
-4.7515751775,-38.01260142,7.540390139116352,-0.7490857910416677,1.04e-05,5.612666159379161e-07,0.0,129,8,215.94420582468325,980.58734,mp-20271,LaAgSb2,https://materialsproject.org/materials/mp-20271,2.5872178995915682,33.948904938110466,-8.604250342815693,-0.5045126942092143
-3.6340005625,-14.53600225,0.5684458455538571,1.6459664675,5.0000029,0.0682938100900102,0.2713000000000001,71,4,853.2304403984323,292.083045,mp-1095802,MgMnPd2,https://materialsproject.org/materials/mp-1095802,51.8388388538989,8.362735955806839,4.77939801868321,-6.534288579310316
-4.243394554,-42.43394554,4.0246079054470645,-1.2550578232413792,4.9999998,0.16515792197513224,1.2909000000000002,194,10,352.81578282850546,855.1109938,mp-23048,CsMnBr3,https://materialsproject.org/materials/mp-23048,17.062617707327885,-8.022151983269438,5.99567529766992,-2.224614120313088
-3.924659422,-19.62329711,7.0762258509937155,-0.4155116888125001,0.0,0.0,0.4367999999999999,166,5,165.49146360991008,705.2257999999998,mp-27910,Bi2Te2S,https://materialsproject.org/materials/mp-27910,67.53037188943713,23.919338371594485,5.7098746091527675,-6.677452112597464
-6.010672555740742,-324.57631801,4.345183263148261,-2.2194071573874083,4.999917366666667,0.09324729230841013,0.18910000000000027,6,54,624.8906472893264,1635.1704576,mp-759436,FeOF,https://materialsproject.org/materials/mp-759436,-41.74213176212367,-76.84575044776572,4.400529845850289,-0.2471011878172163
-5.148887425,-72.08442395,3.5767637898529414,-1.2498770277976194,2.0000001,0.07885850752488903,0.0,74,14,295.5690063392265,636.649,mp-1247055,MgVInS4,https://materialsproject.org/materials/mp-1247055,25.28842689326583,9.708370402929702,-1.9843063202587288,-2.4044377018090106
-7.38772181,-66.48949629,6.2810745822181,-2.719006708750001,8.0000009,0.7161897563282257,1.2031,1,9,130.17852858873886,492.407,mp-1094126,Sm2Fe2O5,https://materialsproject.org/materials/mp-1094126,-23.077621860312878,-29.66132703824892,4.9055946323519874,-5.79686581347112
-5.557912620833334,-66.69495145,8.256652696326476,-0.8677180400000011,5.55e-06,2.158887530102533e-07,0.0,51,12,299.5990230423648,1489.6879999999999,mp-570619,NdSbPd,https://materialsproject.org/materials/mp-570619,23.896886563689453,28.324968009523115,-8.604250342815693,-0.5045126942092143
-4.9371121745,-98.74224349,7.994719114917061,-0.2602066345000004,2.75e-07,6.676789401278993e-09,0.0,142,20,480.00133295203193,2310.982,mp-1188303,Sn4Rh,https://materialsproject.org/materials/mp-1188303,34.09921220744907,36.12031991813007,-8.604250342815693,-0.5045126942092143
-5.0612332208333335,-60.73479865,4.14512045884889,0.08621174607142852,3.325e-05,1.7967694206057888e-06,0.0,205,12,215.6635399309964,538.350096,mp-1212495,GeP2,https://materialsproject.org/materials/mp-1212495,38.40841302348157,28.590473332934298,-8.604250342815693,-0.5045126942092143
-4.135807926666667,-37.22227134,3.0730183590420084,-1.6705155147844444,3.0,0.1356081116556303,1.0776,225,9,257.8178686424285,477.1216,mp-22947,K2ReCl6,https://materialsproject.org/materials/mp-22947,7.000528172668643,-10.437748681674316,7.1812683085206865,-2.111874507705966
-6.4140471125,-25.65618845,6.280759457326144,-1.6877451585416663,3.0000002,0.6892397630089611,1.6688000000000005,166,4,50.72573946671368,191.8631,mp-19378,CrAgO2,https://materialsproject.org/materials/mp-19378,-26.899838966420322,-30.852121581131104,4.90438576999757,-3.9001642632505114
-6.999099729999998,-90.98829649,4.690958257545496,-1.2365748294230772,1.0,0.049339394206974016,0.0,216,13,236.20202395821903,667.2615386,mp-3861,Al(MoS2)4,https://materialsproject.org/materials/mp-3861,18.912832799339377,3.5750600122232825,-6.2979069414832285,-3.319061638466676
-4.752668646981132,-251.89143829,7.779364816578991,-0.1879138001886794,2.0742898000000003,0.020749038463382854,0.0,2,53,1165.0615872596275,5458.130705,mp-684822,Co19Te34,https://materialsproject.org/materials/mp-684822,53.542481179222754,28.68506726183727,-8.604250342815693,-0.5045126942092143
-4.347231263333334,-13.04169379,4.536917827930926,-0.44127778666666667,4.0,0.5906004012917182,0.44030000000000014,164,3,78.93028685433177,215.653,mp-22880,FeBr2,https://materialsproject.org/materials/mp-22880,19.05373698008762,-0.375720756728166,4.976162942985594,-4.9497072975466345
-2.8074436945833336,-67.37864867,4.91437669281518,-0.16949534791666684,0.0,0.0,0.6704999999999997,62,24,905.8373978920984,2680.8320000000003,mp-27648,Te2Br,https://materialsproject.org/materials/mp-27648,65.89801530321013,18.90282220254741,7.211065074371668,-7.082076919355414
-5.264957952666666,-78.97436929,7.377488286666909,-0.6572036106666663,0.000598,1.8414996269899772e-05,0.0,25,15,378.44866389585366,1681.38208,mp-1223411,La4Ni3Sn8,https://materialsproject.org/materials/mp-1223411,0.6926606278533262,52.14928334742889,-8.604250342815693,-0.5045126942092143
-5.79966997375,-92.79471958,2.820527437426064,-1.164065183789064,1.99774205,0.06901186263041814,0.0,59,16,337.35961271250096,573.026,mvc-11755,MgV2S5,https://materialsproject.org/materials/mvc-11755,19.905607977211474,12.532056663790874,-8.604250342815693,-0.5045126942092143
-6.1398499583333335,-147.356399,5.084184825179492,-1.9240253763281256,4.99999975,0.11147904856917856,0.4469000000000003,173,24,522.7019937573516,1600.3920899999996,mp-1191873,Sm3MnGaS7,https://materialsproject.org/materials/mp-1191873,28.09092781381457,2.919200490475669,-5.751651039220394,-2.677006973772673
-7.512684345,-240.40589904,2.258495177277734,-0.2873410385746116,3.0000002,0.0463461019358002,2.0011,14,32,754.371892957094,1026.0194076,mp-1201008,Cs2KCr(CN)6,https://materialsproject.org/materials/mp-1201008,19.079803654303692,-9.95619533774039,4.791325546454624,-3.682445943683048
-7.10642064875,-284.25682595,4.215936406605892,-2.1238838961875004,2.999996625,0.043418436530350005,0.3092000000000006,58,40,805.237539144725,2044.4146,mp-1207827,Y3CrS6,https://materialsproject.org/materials/mp-1207827,25.658663090821968,5.63007255337039,-5.053567833007134,-1.4584471559181833
-3.619754218,-36.19754218,3.3879341235189875,-1.2002040270499996,3.0000001,0.10543490909541778,1.3648000000000002,225,10,331.5998067722052,676.55036928,mp-1111637,K2NaMoBr6,https://materialsproject.org/materials/mp-1111637,10.551501685392216,-7.7177476967589085,6.788130432685643,-2.1929556892365927
-6.834245325,-41.00547195,4.938733031922624,-1.1452262858854163,0.7702507,0.06545787998715184,0.0,164,6,137.13477354707138,407.86276000000004,mp-1220413,NbSeS,https://materialsproject.org/materials/mp-1220413,48.153617565798434,24.343110572884306,-8.604250342815693,-0.5045126942092143
-6.2929230535,-125.85846107,9.453350184341367,-0.1808769385000005,2.75e-07,8.170384497572425e-09,0.0,116,20,392.2542217451507,2233.08,mp-680677,Sn3Ru2,https://materialsproject.org/materials/mp-680677,2.498828556093581,50.37006671122671,-8.604250342815693,-0.5045126942092143
-8.099596988,-40.49798494,8.465283418455435,-0.21167350547599995,3.0513672,0.6093016194543497,0.0,221,5,58.36326354344839,297.530835,mp-505571,Mn3SnN,https://materialsproject.org/materials/mp-505571,-3.358746192925002,15.767538486997914,-8.604250342815693,-0.5045126942092143
-6.3179631853333325,-94.76944778,5.169582491314852,-1.224023603116667,0.5971364,0.022615217768685074,0.0,147,15,307.7160854621184,957.9803,mp-1223931,K(Ti3Se4)2,https://materialsproject.org/materials/mp-1223931,23.09295582231894,15.076680863648589,-8.604250342815693,-0.5045126942092143
-6.334694,-38.008164,6.0748742468453845,-0.12601442476562494,13.939172199999998,1.1910351498037997,0.0,71,6,136.3922934780083,498.974135,mp-1221758,Mn3Te2Se,https://materialsproject.org/materials/mp-1221758,51.67851435378869,33.64332759747225,-8.604250342815693,-0.5045126942092143
-6.3850179440625,-204.32057421,6.473884708815534,-1.6520597594335935,1.999729925,0.029643587692881893,0.0,62,32,786.1727910610497,3065.0240000000003,mp-1194651,Ce2ZrSe5,https://materialsproject.org/materials/mp-1194651,46.97868111530103,3.1243983461451954,-1.7855105142143166,-2.3853564039184083
-6.010920705833333,-144.26209694,4.326713213937201,-2.2196553074800005,5.0000899625,0.20892179630106056,1.726,5,24,278.9147581692736,726.7424255999998,mp-763022,FeOF,https://materialsproject.org/materials/mp-763022,-42.08337468181622,-76.26208029980593,3.2358332908305982,-0.9505670445131668
-5.554036768529412,-377.67450026,7.535942238094482,-1.6706745964430143,7.5e-08,5.379103410986876e-10,0.5317000000000007,1,68,1624.9080769793545,7374.24,mp-32633,Dy6Se11,https://materialsproject.org/materials/mp-32633,49.677263967230694,3.9294942181417047,5.381728432857673,-6.868792024265209
-8.226723253,-658.13786024,4.54312459831491,-3.4188305047500007,4.00000075,0.0497004937812795,0.0,230,80,937.9437563726202,2566.1518632,mp-1207869,Y3Al3V2O12,https://materialsproject.org/materials/mp-1207869,-11.756095583395181,-24.120286016437696,4.36799644593698,-2.2594556694666905
-4.067700416999998,-162.70801668,2.448447973615873,-1.896055228356,3.0000001,0.030256515837795612,1.6431,14,40,1155.5261574239735,1703.8116000000002,mp-27643,K3MoCl6,https://materialsproject.org/materials/mp-27643,11.549745961327028,-8.634103102732263,7.251870782900869,-4.491501754157237
-2.9734361047222224,-214.08739954,6.02998596055187,-0.7040957313888891,2.8425e-05,1.34366235001589e-07,1.3458,61,72,2465.4020495259965,8952.7192,mp-31287,Tl3PdBr5,https://materialsproject.org/materials/mp-31287,11.546588590736096,-9.817316480135645,7.539694992347165,-4.679253259111191
-5.496088080714286,-76.94523313,2.8428137036677765,-1.454756991607144,2.00000015,0.0865622183565387,0.0,74,14,269.26448669817927,460.9760772,mp-1246431,MgAlVS4,https://materialsproject.org/materials/mp-1246431,25.18574144110188,9.267650358665211,-5.902794242536812,-0.4039617916533721
-6.816904152916668,-163.60569967,4.367104305497669,-1.991786177916668,1.999999925,0.08071547599497265,1.71,14,24,288.7690171401117,759.4428,mp-752642,VAsO4,https://materialsproject.org/materials/mp-752642,-13.574994610862055,-45.03579944804143,8.522181339254429,-0.5630973401564034
-4.816747716,-24.08373858,7.4099185102001845,-0.7577417759999996,0.0,0.0,0.0,139,5,121.90417826265629,543.98,mp-6961,Sr(SbPd)2,https://materialsproject.org/materials/mp-6961,28.343011712393785,23.639077763844238,-8.604250342815693,-0.5045126942092143
-6.642498434,-166.06246085,2.8674089676468704,-1.8180980261333344,0.0019164000000000002,4.1200570991909e-05,0.0,164,25,542.0762186650115,936.054,mvc-16026,Ca(TiS2)8,https://materialsproject.org/materials/mvc-16026,19.86962767174295,14.434188801853384,-8.604250342815693,-0.5045126942092143
-5.394448545,-43.15558836,8.191135812288616,-0.8449660543750008,5.5e-07,3.199029426162525e-08,0.0,129,8,200.36500985227852,988.3639999999999,mp-21122,NdSb2Pd,https://materialsproject.org/materials/mp-21122,3.949470610534765,34.72695302555565,-8.604250342815693,-0.5045126942092143
-4.09000211,-40.900021100000004,2.5618134778394035,-1.838593088556,3.0,0.1369702468958641,1.4862,225,10,255.2539336828397,393.7956,mp-1111666,K2LiMoCl6,https://materialsproject.org/materials/mp-1111666,11.567477258330715,-8.530238932415983,7.157789075190237,-3.815331720731572
-6.4057563532142865,-179.36117789,5.795894719145236,-1.223287869345238,3.00071535,0.06539666320112293,0.4793000000000003,26,28,534.7448836244852,1866.4572,mp-1246605,HfCrAgS4,https://materialsproject.org/materials/mp-1246605,17.907162522225747,4.440568310303601,4.9493992196774945,-5.828503561322296
-6.88503417625,-110.16054682,3.0141562010593184,-2.535366926458333,2.0000002,0.1514986858339097,2.277,7,16,153.85038984090858,279.2642,mp-768868,Li2VBO4,https://materialsproject.org/materials/mp-768868,-21.722323636391877,-54.58073093806421,9.230772729096396,1.0502861835965716
-7.001424026923076,-91.01851235,4.684987506231316,-1.2388991263461535,1.0,0.04927659397797427,0.11819999999999985,160,13,236.50305006406987,667.2615386,mp-554868,Al(MoS2)4,https://materialsproject.org/materials/mp-554868,18.913251410835766,3.573987390173445,-6.307594320092909,-3.3161260517893525
-2.7915911722222213,-25.12432055,4.544991937812826,-0.9556912102681993,1.39e-05,4.6885995743272095e-07,0.6932999999999999,139,9,345.50082123791674,945.6558438,mp-543024,Cs2Pd(IBr2)2,https://materialsproject.org/materials/mp-543024,9.154846127431576,-5.8182962015912265,6.3575826624648775,-6.05999598391665
-3.641585,-32.774265,4.003926708185063,-1.1227520356321838,1.9999999,0.07530628459975211,0.0,225,9,309.5110654256024,746.2995999999998,mp-1205757,Rb2MoBr6,https://materialsproject.org/materials/mp-1205757,10.278361489486864,-7.316268528243812,4.682929436783466,-5.3906449070190146
-6.5356832375,-26.14273295,9.248116769162836,-0.17148748874999864,5.1246072,0.9811624913933732,0.0,216,4,60.86912694543831,339.00124,mp-1221631,MnCoSnPd,https://materialsproject.org/materials/mp-1221631,44.97253832594593,37.96035798676878,-8.604250342815693,-0.5045126942092143
-3.702584171764706,-62.94393092,7.711144060166402,-0.20448442764705904,2e-07,3.8378729061140155e-09,0.07500000000000018,166,17,607.3189528498405,2820.2432,mp-580062,Bi8Te9,https://materialsproject.org/materials/mp-580062,66.4767683268221,23.88358262575904,-2.7139919133602577,-1.0670236216875288
-3.9985959363333334,-239.91575618,3.343158893174045,1.5690411591826674,4.0000002,0.02372155935556389,0.6927,205,60,1965.143215178975,3956.4176800000014,mp-1179109,TeC6(I3N)2,https://materialsproject.org/materials/mp-1179109,36.019048449814186,-6.087298970076404,5.9034267778684475,-5.821031208595144
-3.5721996175,-14.28879847,9.593014232009816,-0.010491887500000184,2.51e-05,2.2555859389919917e-06,0.0,139,4,129.68560440750596,749.1999999999998,mp-1187450,TePb3,https://materialsproject.org/materials/mp-1187450,0.6103204767071049,31.81849714751803,-8.604250342815693,-0.5045126942092143
-4.484573541111111,-161.44464748,4.282062097636952,-1.3629377133589269,0.0,0.0,1.1778,40,36,1175.8759895621793,3032.2527114,mp-568854,CsReBrCl3,https://materialsproject.org/materials/mp-568854,6.770002803617048,-9.756413782452825,6.838903066199667,-3.0416651648284536
-4.286678195714286,-120.02698948,6.091371745088125,-0.4881957167410716,0.0,0.0,0.7183000000000002,19,28,540.6450577698076,1983.2536,mp-607291,Cu3BiS3,https://materialsproject.org/materials/mp-607291,45.444303971874675,-6.308025129082402,6.273103499455725,-6.241150362614018
-3.932931533,-39.32931533,6.560004429214969,-1.5851256459520002,0.0,0.0,1.1225,43,10,137.23617530492157,542.1552256,mp-8943,PtF4,https://materialsproject.org/materials/mp-8943,-3.4778352878417893,-23.821230139554658,6.102530948904848,-1.5523353275242953
-6.204324835,-136.49514637,2.6016700113583826,-1.2136903842172722,0.0,0.0,2.6311,166,22,285.88114480006715,447.90780784,mp-14374,Na3Rh(NO2)6,https://materialsproject.org/materials/mp-14374,-3.0120638893902862,-24.01261416608388,9.201935502959689,0.09905258792479277
-5.382206347647059,-91.49750791,7.800308804925704,-0.19684401970588247,0.9259248,0.027768727802181446,0.0,204,17,388.5949572695829,1825.40765,mp-1188509,Pr(FeSb3)4,https://materialsproject.org/materials/mp-1188509,43.94766090496139,23.5195642485314,-8.604250342815693,-0.5045126942092143
-5.822484555,-81.51478377,8.893171203776408,-0.8213624810714281,5.5e-07,1.999516256411206e-08,0.0,148,14,320.5643167118943,1716.8120000000001,mp-1104199,Nd3Pd4,https://materialsproject.org/materials/mp-1104199,14.126886568737488,53.02972067653607,-8.604250342815693,-0.5045126942092143
-4.335382982857142,-121.39072352,2.672063986520501,-1.7396438488099994,4.0017343,0.059725477995070726,0.9338,176,28,780.8471744440927,1256.5038,mp-620069,K3Mo2Cl9,https://materialsproject.org/materials/mp-620069,11.508922538327296,-8.453314911629043,6.377244837531311,-5.791923481585894
-4.237648876000001,-42.37648876,4.132924161202399,-1.2653209292413792,2.99998195,0.1027213111589398,0.6589999999999998,194,10,340.35764893726434,847.1179037999999,mp-23038,CsVBr3,https://materialsproject.org/materials/mp-23038,9.952809592747956,-6.0611011729682005,5.814039767167865,-5.502405008437075
-5.366309960714285,-150.2566789,4.149642573398989,-0.9707731642168368,6.92722325,0.0937682917215711,0.05690000000000017,62,28,860.9553076768883,2151.504248,mp-628715,KEuPSe4,https://materialsproject.org/materials/mp-628715,-15.692613788054777,11.677194507663284,-8.604250342815693,-0.5045126942092143
-4.47841083,-17.91364332,11.71361221029,-0.20761022791666586,1.6e-06,2.483239088277457e-07,0.0,225,4,75.08944154479296,529.6886000000002,mp-1183166,AgBiPd2,https://materialsproject.org/materials/mp-1183166,28.416614062328616,39.69398443098749,-8.604250342815693,-0.5045126942092143
-4.7096278934375,-301.41618518,7.918970473631707,-0.32303713340332063,5e-08,4.641432124321671e-10,0.0,221,64,1255.438457398846,5987.08,mp-21765,Pd17Se15,https://materialsproject.org/materials/mp-21765,51.3215203313723,24.761918824621095,-8.604250342815693,-0.5045126942092143
-6.33862493125,-50.70899945,6.648031036357187,-0.07843457624999939,13.839884699999997,0.8965148111489268,0.0,10,8,179.90880990784282,720.271745,mp-1221613,MnV(CrTe2)2,https://materialsproject.org/materials/mp-1221613,53.21768415972914,33.40732970148385,-8.604250342815693,-0.5045126942092143
-4.462903271,-89.25806542,4.693962530332441,-1.4053529989559994,5.000000025,0.1126098429292029,1.2884000000000002,62,20,517.4532051410841,1462.7213800000002,mp-30528,MnTlCl3,https://materialsproject.org/materials/mp-30528,17.89347747617255,-7.882981215906653,7.925123350624159,-4.301746841989229
-3.623172797692308,-47.10124637,5.729611412044879,-0.02662096115384626,0.00024430000000000003,7.0435611405528515e-06,0.5362999999999998,8,13,404.2114446262709,1394.71247,mp-1217385,Te7As5I,https://materialsproject.org/materials/mp-1217385,68.74822247241372,27.003099055136424,6.4524469452169635,-7.065926478262258
-6.7568859764285705,-94.59640367,4.459791349078428,-2.040898619285715,17.9999995,1.3766340637015535,0.8570000000000002,12,14,152.38120689458668,409.2577,mp-1222391,LiV(FeO2)4,https://materialsproject.org/materials/mp-1222391,-27.506501081546425,-35.59287339435318,6.473631947819675,-1.4847977128396477
-4.6595210993478275,-214.33797057,4.462083690141926,-0.4152303502472829,0.0,0.0,0.8439000000000001,4,46,1330.2645071028976,3574.5932,mp-542749,K2(MoSe6)3,https://materialsproject.org/materials/mp-542749,66.39034865214303,14.728993498579149,6.5024164949670835,-6.168890370177348