energy_per_atom,energy,density,formation_energy_per_atom,total_magnetization_uB,total_magnetization_T,band_gap,sgr,num_sites,cell_volume,weight,mp_id,formula,URL,tsne_cry_lin1_0,tsne_cry_lin1_1,tsne_cry_lin2_0,tsne_cry_lin2_1
-6.23930459,-37.43582754,8.674521017229019,-1.172584341666666,3.45e-06,2.4166487472231026e-07,0.0,129,6,166.37305488243186,869.1193199999999,mp-1019363,ThTeAs,https://materialsproject.org/materials/mp-1019363,-6.697918384826451,28.580926578678714,-8.604250342815693,-0.5045126942092143
-5.3057663040000005,-106.11532608,9.79467856203999,-0.5778869495000002,0.01460475,0.0003498759304423855,0.0,220,20,486.471596579488,2869.4495,mp-1209761,Pr3Ni3Bi4,https://materialsproject.org/materials/mp-1209761,5.747219983654282,33.209304783280714,-8.604250342815693,-0.5045126942092143
-6.774727515384615,-176.14291540000002,5.319865074567083,-1.1491847359702565,0.0,0.0,1.4765,2,26,540.8807483081688,1732.8184,mp-28926,Ba5(TiN3)2,https://materialsproject.org/materials/mp-28926,33.14967167688501,-11.311359576292432,8.430421373962341,-4.378373325421411
-6.6877070855,-133.75414171,4.388873836960717,-2.3992787314375006,3.775e-05,9.972030135349369e-07,1.8644000000000005,62,20,441.1749054032669,1166.043648,mp-1188840,SmScS3,https://materialsproject.org/materials/mp-1188840,54.35086862372233,1.5873844110376565,7.996905786959443,-5.171115350093674
-8.82749416340909,-388.40974319,5.637936266094913,-3.8063719715530313,0.0,0.0,2.8256,4,44,572.0244545005761,1942.16296,mp-559768,La2Ti2O7,https://materialsproject.org/materials/mp-559768,5.995845955693289,-45.087281037450225,8.631308081928491,-0.6008771804702203
-8.494893996,-169.89787992,4.4416970779818,-3.2130964022500015,1.999999825,0.10831776473567016,1.5092999999999996,62,20,215.18287016480915,575.582448,mp-756546,ScVO3,https://materialsproject.org/materials/mp-756546,-13.596162275531174,-28.945445438199197,7.9007279394919,-2.22720723530744
-3.9531489310000003,-39.53148931,4.072198989134028,-2.1550899876973797,0.0,0.0,2.283300000000001,225,10,289.24830117547486,709.3339037999999,mp-1112917,Cs2ErCuCl6,https://materialsproject.org/materials/mp-1112917,13.237395080354569,-12.309656749426322,8.425347379146901,1.0912899651097132
-4.4921091375,-17.96843655,0.4626736330870456,2.8117854975,0.9999995999999999,0.01170624456588469,0.14080000000000004,71,4,995.5421694244293,277.3865,mp-1096133,MgVRu2,https://materialsproject.org/materials/mp-1096133,7.086776228056433,13.793381698737983,-8.604250342815693,-0.5045126942092143
-7.147993467222222,-257.32776482,4.764879035953762,-1.5188448021955565,0.00087675,1.2410100979009715e-05,0.9958999999999998,62,36,823.3374818322427,2362.548192,mp-1245883,Sc4Te3N2,https://materialsproject.org/materials/mp-1245883,57.95451607486821,18.93639386800649,3.8412796623845136,-5.186547528251492
-3.1872441016666664,-38.24692922,5.748901527245216,-0.4246851241979168,0.0,0.0,0.00649999999999995,12,12,300.7582044920772,1041.2458,mp-9782,KAg3Se2,https://materialsproject.org/materials/mp-9782,51.97444602536546,16.943705964276027,2.3629237243074246,-4.693857275972396
-4.76125674375,-114.27016185,3.5031405049708835,-1.5715393248697918,7.395e-05,1.5616717789290163e-06,0.6261000000000001,55,24,551.8560952172793,1164.2179999999996,mp-866475,Ca3Sn2S7,https://materialsproject.org/materials/mp-866475,43.10714263617691,0.9558222150425456,5.515426178508838,-6.784903864268236
-7.499053165,-134.98295697,3.1856102659124472,-2.303995740886666,8.999999800000001,0.3972355894048608,1.8649,5,18,264.04124761168947,506.541845,mp-1176412,MnV4FeO12,https://materialsproject.org/materials/mp-1176412,-13.416331707234864,-41.116479741669906,6.9888642591686825,-3.019238401476863
-6.508218785416666,-156.19725085,4.926069141114564,-1.9376544005729148,40.0004689,1.8215185754610224,0.5642999999999998,12,24,255.92275685433148,759.2072000000002,mvc-2470,Mg2Fe9O13,https://materialsproject.org/materials/mvc-2470,-26.070776608265344,-38.58095196120668,5.660862370854852,-4.43071523546516
-6.156856349285714,-86.19598889,3.1371122540541223,-1.3105624244642855,2.99995455,0.13929670058631746,0.0,141,14,250.9870262057687,474.168,mvc-16735,Li(VS2)2,https://materialsproject.org/materials/mvc-16735,21.580267398784137,11.587571732195482,-8.604250342815693,-0.5045126942092143
-5.0494699475,-282.77031706,6.248036236147097,-1.5284377459821437,0.0,0.0,1.9309,14,56,799.0278290586277,3006.4664,mp-30941,Cd2(TeO3)3,https://materialsproject.org/materials/mp-30941,-2.1692873106908817,-31.683732542911038,8.520220581770946,-0.017046870843420988
-3.3854277625000004,-40.62513315,6.3258591563109245,-0.4164932336979171,0.00021185,5.6680100069141585e-06,1.5602999999999998,62,12,435.587378825205,1659.37948,mp-23020,BiSeI,https://materialsproject.org/materials/mp-23020,72.0001386809655,15.66514159606701,9.697104955729973,-6.229543183762663
-3.74615128475,-149.84605139,3.996233009207157,-1.4570639879560006,9.2e-06,8.316604441463236e-08,1.8217,167,40,1289.1967708961424,3102.5652316000005,mp-646102,Al3Bi5Cl12,https://materialsproject.org/materials/mp-646102,47.0722783322625,12.414906895149667,7.349869954512313,-5.966581441446947
-6.495112206071428,-181.86314177,3.0562149055038383,-0.24623830436534486,5e-08,1.0179460722948245e-09,2.5701,18,28,572.4303619683483,1053.5556,mp-647987,RbBiC4(SN)4,https://materialsproject.org/materials/mp-647987,61.848356427797,-6.9185883727575765,8.240194296176961,-2.8266305441501074
-3.945758447,-39.45758447,3.167191456688382,-2.104710650056,0.0,0.0,2.3469,225,10,273.53438387934557,521.7196,mp-1112164,K2ErCuCl6,https://materialsproject.org/materials/mp-1112164,13.155869362644784,-12.382929180806814,9.309238553160798,0.025366831235030137
-3.52318978,-10.56956934,6.458954920015769,-0.05246428666666662,8.65e-05,1.0401870176653723e-05,0.0,164,3,96.913015227682,376.96,mp-1219462,SbTe2,https://materialsproject.org/materials/mp-1219462,57.879489134580716,28.85924762984023,-8.604250342815693,-0.5045126942092143
-5.0636417775,-182.29110399,8.591744533900433,-0.4172984412500003,0.027937299999999998,0.00040143622523998635,0.0,164,36,811.045648846942,4196.406620000001,mp-1208387,Tb7Co6Sn23,https://materialsproject.org/materials/mp-1208387,-0.0752843369792904,47.90637985422421,-8.604250342815693,-0.5045126942092143
-5.0268281125,-20.10731245,7.426860544817737,-1.1127398930468746,0.0,0.0,0.5111999999999997,164,4,86.39265143062931,386.39632,mp-1206723,HoCuSe2,https://materialsproject.org/materials/mp-1206723,7.4837293687679,-7.1732060012859105,6.358205556249326,-6.440739353122352
-4.30839286,-189.56928584,5.787742403293263,-0.9394377669999998,0.0013027000000000002,1.1441337550288584e-05,0.4603999999999999,31,44,1326.9209227054562,4624.9298,mp-1224412,K3Sm4(CuTe2)5,https://materialsproject.org/materials/mp-1224412,56.35613168041361,20.62489765371196,5.444835179872234,-6.7534195943143365
-6.246598373333334,-18.73979512,8.069234759669147,-0.09168589666666686,3.3210241999999996,0.6643014145732098,0.0,216,3,58.261852660518315,283.118045,mp-4142,MnSbPd,https://materialsproject.org/materials/mp-4142,48.970122913821704,41.53557377165807,-8.604250342815693,-0.5045126942092143
-4.52601827625,-181.04073105,2.5189137993980024,-1.5325352735929998,0.0,0.0,1.7989,19,40,1019.2662272686058,1546.1508,mp-560966,K2RuNCl5O,https://materialsproject.org/materials/mp-560966,-1.163446844157539,-22.064622215028656,9.552003662165852,-0.137375494233825
-4.615828324166666,-110.77987978,2.435993816338771,-1.2662641266116663,3.000000066666667,0.053981192915724285,0.0,12,24,647.6736286506281,950.1306,mp-1192095,CrCl3,https://materialsproject.org/materials/mp-1192095,18.99544851925069,0.2564130878706537,-8.604250342815693,-0.5045126942092143
-6.32526704,-164.45694304,3.1731070706134696,-2.300368225108974,2.00000035,0.07010984961927189,2.2387,11,26,332.4516277044629,635.2784156800002,mp-755361,Na3VBAsO7,https://materialsproject.org/materials/mp-755361,-17.221900636264518,-49.27036937088786,8.554285874742002,-0.7016784585737649
-6.910415132142857,-96.74581185,4.393321323683696,-2.3512522539285716,4.9999997,0.3729138558852741,0.0,160,14,156.25678543976048,413.4117,mp-779083,Li2V3SnO8,https://materialsproject.org/materials/mp-779083,-32.78761836815654,-56.15143607643262,4.041409649506999,0.1175486689659076
-7.659275663,-153.18551326,5.036545511735306,0.4232684245480002,0.0,0.0,1.7682,122,20,325.8983078475695,988.4752,mp-1247533,Pt(CN)2,https://materialsproject.org/materials/mp-1247533,18.635661905593945,-10.276609391552327,8.821019012401454,-1.4556413095405538
-6.203477202222222,-167.49388446,2.8089959738230044,-1.969552690212804,3.9999997000000005,0.17347224603010086,2.3592,87,27,268.72457503046627,454.57904400000007,mp-23983,V2NiP2(H4O7)2,https://materialsproject.org/materials/mp-23983,-12.113599541090679,-50.30783547986452,7.999918021155881,0.8166553705741851
-6.878313056666666,-20.63493917,8.06680075943216,-0.0004685899999993618,3.3644385000000003,0.681239134038922,0.0,216,3,57.55597739934503,279.603545,mp-568891,MnSbRh,https://materialsproject.org/materials/mp-568891,48.73903743946219,42.371497738609655,-8.604250342815693,-0.5045126942092143
-4.5438987025,-90.87797405,2.952111826641957,-1.4978258800560007,2.5e-08,5.318857532379965e-10,1.6951999999999998,9,20,547.7710533517989,973.8292,mp-28408,KTcCl3,https://materialsproject.org/materials/mp-28408,6.853522418292092,-9.835217645409664,6.899348233927157,-0.5460996171855206
-3.6339651529166654,-87.21516367,2.6366295018965564,-1.0676168481666668,1.002350225,0.02229464418693243,1.5664999999999998,92,24,523.9578774612892,831.9484,mp-505153,K3NiO2,https://materialsproject.org/materials/mp-505153,-33.28088612063392,-29.507419773346573,7.9502965191686465,-0.7726003973556755
-6.996189159375,-223.8780531,3.101576653648699,-2.6195724711722166,1.9999997999999999,0.04972383763396327,2.1397000000000004,15,32,468.7515751677642,875.5403558,mp-1197494,CsVP3HO10,https://materialsproject.org/materials/mp-1197494,-14.141181782442127,-50.30144395783639,7.951891475707089,1.0422317024353331
-7.455429462307693,-193.84116602,4.543501900632178,-2.9842526463976924,10.00000005,0.3107937690158416,0.3918999999999997,46,26,374.9774285286907,1025.9985572,mp-1259193,Sr2YMn2AlO7,https://materialsproject.org/materials/mp-1259193,-27.334579288998786,-27.3928922370928,5.0909760436154805,-4.816139904257517
-4.736120866315789,-179.97259292,2.703759203195772,-1.7063187377894735,25.0003185,0.3953681879218803,2.0907,8,38,736.9215329767261,1199.8865,mp-558482,K17Fe5O16,https://materialsproject.org/materials/mp-558482,-34.3892379600744,-30.77845780024591,7.628120907532457,-1.5088696416831722
-5.6315523025,-22.52620921,6.347044825411419,-0.898429777031251,3.0000002,0.4169465791730056,0.06810000000000027,160,4,83.85294038828175,320.5094,mp-9630,TlCrS2,https://materialsproject.org/materials/mp-9630,16.110669894255448,7.572327416198743,-8.139285354640856,2.22414201929372
-3.795955376666667,-113.87866129999999,4.299291005500422,-0.8653722707356323,2.999999766666667,0.029174373526624386,0.6301000000000001,185,30,1198.3870559033933,3102.73626,mp-672346,RbVI3,https://materialsproject.org/materials/mp-672346,9.92860725251956,-6.085816977069662,5.678460978277682,-5.388615052121704
-3.7021722235000003,-74.04344447,4.854423570208817,-0.4642969975,1.25e-07,1.772905020161464e-09,0.4775999999999998,36,20,821.6785896614418,2402.0970399999997,mp-570044,NbI4,https://materialsproject.org/materials/mp-570044,10.31800366507248,-4.50298744955245,4.839367744849239,-5.147887106297403
-6.53833994,-104.61343904,5.964967989038727,-1.8937697218387504,5.0000002,0.24987994033667324,2.3385,2,16,233.19329320753585,837.6740900000002,mp-554839,MnBiAsO5,https://materialsproject.org/materials/mp-554839,-14.016683476174547,-36.80791643368733,7.934410438535522,-0.008257249926078741
-5.442908496666668,-65.31490196,3.3837979235213536,-1.4817681889610277,4.973233400000001,0.2764470056521233,2.2168,150,12,209.65459197482213,427.228,mp-22038,RbFe(SeO4)2,https://materialsproject.org/materials/mp-22038,-7.639088141291566,-43.13215756345234,8.350150771964689,1.9608142454056048
-7.580864806666668,-22.74259442,6.956490134592039,0.3925452516666669,0.0501825,0.010998205962815994,0.0,216,3,53.17504576894068,222.766025,mp-961666,MnNbAs,https://materialsproject.org/materials/mp-961666,49.87073163791459,43.04465468604168,-8.604250342815693,-0.5045126942092143
-6.494066358,-357.17364969,4.95589433211246,-1.6402046101818193,19.999996300000003,0.3872339481060051,0.6341000000000006,1,55,601.9132709597773,1796.4158,mp-776135,Fe23O32,https://materialsproject.org/materials/mp-776135,-27.89213831985198,-33.96825043304888,4.330217892679719,-3.7472291507753015
-8.265771968125,-132.25235149,4.150214192496565,-2.9954813427604168,3.00000015,0.18618440401393954,1.7454,63,16,187.78262470991498,469.32839,mp-753066,Ti2CoO5,https://materialsproject.org/materials/mp-753066,-16.628987352588485,-40.50992546325978,6.4710517175730295,0.3371462052832044
-5.712870067142857,-159.96036188,8.839084083536044,-0.6392776278571424,1.3225e-05,2.496506602965816e-07,0.0,62,28,617.3627036836333,3286.2346,mp-1194179,Pr(Sn2Rh)2,https://materialsproject.org/materials/mp-1194179,2.1993822194313024,49.996930102262446,-8.604250342815693,-0.5045126942092143
-6.36215858,-69.98374438,4.833394542410892,-2.366040772585228,7.140000000000001e-05,3.1048554773531173e-06,0.0,121,11,267.99966401982925,780.0768800000002,mp-1223154,La4S7,https://materialsproject.org/materials/mp-1223154,45.291709849003524,4.4657748670609365,2.8457584031419247,-4.905159405820076
-5.478124292222222,-49.30311863,8.673613939273451,-0.6434566147222225,1.2533333333333332e-05,7.75913493214073e-07,0.0,189,9,188.24814848586388,983.2902,mp-1205849,SmNiSn,https://materialsproject.org/materials/mp-1205849,3.458654275565669,56.1253394674989,-8.604250342815693,-0.5045126942092143
-7.5546118309375,-241.74757859,2.497040176919388,-0.27941612901211155,2.9999997000000005,0.05466801329231631,1.8904,128,32,639.5365171679588,961.7048076,mp-570502,Cs2LiCr(CN)6,https://materialsproject.org/materials/mp-570502,19.086422066962868,-9.960313233637796,8.530258966557552,-1.478288295190056
-8.690978359999999,-330.25717768,5.1103713530894055,-3.6606648408114033,0.0,0.0,1.9349,25,38,477.1314390772395,1468.38995,mp-560293,LiLa5Ti8O24,https://materialsproject.org/materials/mp-560293,5.7313073404992,-41.628921298159,8.518539664650001,-0.5748226836417756
-4.667653266428571,-130.69429146,4.011188487287652,-1.6025570017549258,5.0013635,0.0977079598970872,1.9876,14,28,596.5349623664944,1440.9863999999998,mp-1101417,Rb3FeO3,https://materialsproject.org/materials/mp-1101417,-33.50810884511037,-30.51049544976447,8.568426267843082,1.4769360640172349
-8.525546491,-170.51092982,4.700352354814118,-2.914592083775333,5.000000325,0.2734375202273576,1.5326,62,20,213.10289678577752,603.21298,mp-556925,TiMnO3,https://materialsproject.org/materials/mp-556925,-24.890834035969057,-43.527374642144785,6.4707567921710805,-0.2615747712318879
-8.486711973095238,-712.88380574,4.1439177194186065,-1.1078044315980942,0.0,0.0,1.6077,205,84,1180.6561210600314,2946.3576000000007,mp-1246716,Sr(VN2)2,https://materialsproject.org/materials/mp-1246716,33.760364103370804,-8.171151318168874,6.788834417920464,-3.1752449017652764
-6.866160737777778,-61.79544664,6.053702387529715,-2.314484159826389,8.0000005,0.5708429297197819,1.7317,139,9,163.3243036806576,595.4191400000001,mp-552651,La2Fe2Se2O3,https://materialsproject.org/materials/mp-552651,20.001550399881154,1.9340826665976023,3.0104865205581546,-1.6339293131408688
-5.0280369444444455,-45.2523325,9.598783202678245,-0.43213923277777866,0.00046939999999999997,3.123363994923309e-05,0.0,107,9,175.1450683663861,1012.43,mp-1218994,Sn(TePd3)2,https://materialsproject.org/materials/mp-1218994,45.70463250225596,37.093809215894716,-8.604250342815693,-0.5045126942092143
-7.109979811785713,-199.07943473,6.418626695608768,-2.310541392852858,0.0,0.0,2.5580000000000003,9,28,373.28936381281835,1442.9080064000002,mp-1222570,LiW3O9F,https://materialsproject.org/materials/mp-1222570,-3.1682213950897427,-39.760306218042686,6.139157564953035,-2.6767634688732587
-4.69690355,-93.938071,4.29632420279328,-1.4795622674374995,0.0001371,3.4161865375532423e-06,0.9201999999999996,62,20,467.7063921287794,1210.1,mp-1205419,SrSnS3,https://materialsproject.org/materials/mp-1205419,43.09442737761629,0.9477586230502391,4.558332999030312,-5.99238917436675
-6.905922779375,-220.98952894,2.517131111959866,-2.5562555295833342,1.9999995,0.0632584870568154,1.8954,14,32,368.4584441160106,558.5284,mp-768177,Li2VBO4,https://materialsproject.org/materials/mp-768177,-22.203157622377912,-54.65768467529333,7.593892480599524,2.127579363088601
-6.573458270108695,-604.75816085,3.7259710793738967,-2.160500514121064,5.00000035,0.03492225584564574,2.7734,14,92,1668.5728493391853,3743.9976,mp-1199199,Rb3FeMo4O15,https://materialsproject.org/materials/mp-1199199,-7.4174716310275794,-41.84122215343308,8.188431143360734,0.358473013032401
-7.132193741666668,-128.37948735,5.301051868380903,-2.342216453796297,3.00000005,0.17359746071511575,0.9293,102,18,201.3980778080473,642.9368,mp-1216868,TiFeSbO6,https://materialsproject.org/materials/mp-1216868,-4.737552212330816,-35.11326760308508,7.557841091216344,-1.0289498534774641
-5.1749603225,-20.69984129,6.3547730572799255,-1.2553390605468748,0.0,0.0,0.6594999999999995,166,4,106.41919307423771,407.25921199999993,mp-13313,ScTlSe2,https://materialsproject.org/materials/mp-13313,57.50879139294037,6.49907837998485,6.304074293124876,-6.3335363285942705
-4.870838245384615,-126.64179438,6.432043507026324,-1.295451765360577,0.0,0.0,2.7837,15,26,583.1082497755866,2258.65068,mp-1193210,Pb3Se2(IO3)2,https://materialsproject.org/materials/mp-1193210,52.8672418579969,-19.373680041029047,10.96588140824577,-3.081427507955265
-6.07233317909091,-133.59132994,8.218647912622831,-1.9450430792045463,0.0,0.0,2.712,227,22,310.0896439973682,1534.7532,mp-23372,Sn2Bi2O7,https://materialsproject.org/materials/mp-23372,11.40352515786716,-36.68795936091708,9.192385501755126,0.6498323749012825
-4.9758597869642855,-278.64814807,4.507854283859494,-0.5882557258419467,4.4625e-05,3.0979999471609765e-07,0.9152,7,56,1678.7044846532822,4557.1678956,mp-1195822,CsNb2PSe10,https://materialsproject.org/materials/mp-1195822,64.90655114117581,14.060659270537494,7.153925656613772,-6.1635196418410985
-7.098802272222222,-63.88922045,7.336367536075058,-0.35725555293650835,3.071497433333333,0.2783438255516296,0.0,189,9,128.60148762372268,568.169586,mp-1087537,CrPPd,https://materialsproject.org/materials/mp-1087537,34.41554442384812,48.04112690271001,-8.604250342815693,-0.5045126942092143
-3.3726092789999997,-33.72609279,3.2642894164240417,-1.5984781080560004,0.0,0.0,0.9383,225,10,286.6215760554672,563.441,mp-1112238,K2CuBiCl6,https://materialsproject.org/materials/mp-1112238,4.894365781683108,-7.296071183039013,8.575231792697119,-4.8440541760944535
-6.630582984166666,-318.26798324,2.390415553045119,-0.03368909865247124,1.00000345,0.010966997148549032,2.9339999999999997,52,48,1062.6523214355927,1529.73256,mp-1209885,Rb2HPd(CN)4,https://materialsproject.org/materials/mp-1209885,44.374051092377826,-19.33345384386599,10.017954926568711,0.2477683621179722
-5.498667142142856,-76.98133999,3.392551422867156,-1.1305511189880957,11.999989999999999,0.4886033241775285,0.0,166,14,286.22126336425856,584.762135,mp-1246492,Mg2Mn3InS8,https://materialsproject.org/materials/mp-1246492,19.660526592605606,10.933642964881132,-8.139285401024893,2.2241420291136813
-5.432896475714286,-38.03027533,7.019379739428122,-0.006088800625001056,2.1219172000000004,0.21488471274684234,0.0,1,7,115.08012912925044,486.46319500000004,mp-676089,Fe2CoSe4,https://materialsproject.org/materials/mp-676089,18.902799538429033,17.672756700683895,-8.604250342815693,-0.5045126942092143