energy_per_atom,energy,density,formation_energy_per_atom,total_magnetization_uB,total_magnetization_T,band_gap,sgr,num_sites,cell_volume,weight,mp_id,formula,URL,tsne_xrd_lin1_0,tsne_xrd_lin1_1,tsne_xrd_lin2_0,tsne_xrd_lin2_1
-5.84083403,-140.18001672,4.0549927749511685,-1.8934351932049995,18.0,0.9715604530942108,0.38180000000000014,6,24,215.91365234967327,527.2554749999998,mp-1175136,Li7Mn2(CoO4)3,https://materialsproject.org/materials/mp-1175136,6.727538382549148,-71.84841318323059,-22.560519105424103,-73.63559300318713
-4.5543091525,-18.21723661,4.590915388276522,-1.645901688125,1.0,0.3087736038065109,0.0,166,4,37.7430733355775,104.3488,mp-754344,LiZnO2,https://materialsproject.org/materials/mp-754344,1.637564911793952,-64.7274260176908,-23.183702197195004,-65.28273505824195
-4.084811098333334,-98.03546636,4.431905618395578,-0.5578761799183335,0.9999998999999999,0.03871800017785625,0.0,62,24,300.99859377082333,803.352,mp-1190465,Ni2ClO3,https://materialsproject.org/materials/mp-1190465,5.897485334237786,-61.31493481846096,-16.516230657230178,-58.32152367008182
-6.5930538475,-105.48886156,4.2947051173357735,-2.383991825,8.9999992,0.7111205007074269,3.1689,2,16,147.49479662791833,381.4705,mp-755522,Li4Cr3GaO8,https://materialsproject.org/materials/mp-755522,13.59381429323768,-67.74537364292831,-12.937142269418374,-68.56779951025719
-6.4332940684375,-205.86541019,3.932548668314873,-2.1475693598975,25.9999199,1.0207120511206476,0.0,2,32,296.8562487954291,703.025715,mp-1100547,Li9Mn7O16,https://materialsproject.org/materials/mp-1100547,3.3738952096816006,-78.8203934294855,-29.17784890929667,-77.65278131006625
-6.3710435866666675,-152.90504608,3.8832534660310665,-2.143344153741667,12.000000300000002,0.6347028576688576,0.0,2,24,220.3374052553877,515.270025,mp-1175337,Li7Mn5O12,https://materialsproject.org/materials/mp-1175337,12.634429425234151,-82.35756352100974,-17.711739701363367,-85.68141214539969
-6.057342374249999,-242.29369497,4.2157110402233045,-2.047704811875,44.9915908,1.3998423982480346,0.22940000000000005,10,40,374.5671041682473,950.9361949999999,mp-770651,Li10Fe9CoO20,https://materialsproject.org/materials/mp-770651,2.879322936008681,-65.46830600437163,-12.189507928115056,-64.72998040002123
-5.7685512428125,-184.59363977,4.143748325108131,-1.833202279435,24.000000399999998,0.965369956460315,0.0,12,32,289.73095478195205,723.001465,mp-1100733,Li9Mn2Co5O16,https://materialsproject.org/materials/mp-1100733,2.0468786545830335,-72.84302142384456,-22.23505197345885,-75.58217596729884
-6.613070678157895,-251.29668577,3.794205290975541,-1.774916828673684,13.00086295,0.36019624969649844,0.05710000000000004,9,38,420.6398568728473,961.13005,mp-758668,Li2Mn5O12,https://materialsproject.org/materials/mp-758668,20.17719201591049,-68.37325258671372,-16.00791444739268,-70.20242684019203
-6.43109537,-205.79505184,3.9123526327239033,-2.1453706614600003,25.999998,1.0154731226043936,0.0,2,32,298.3886565124452,703.025715,mp-1100542,Li9Mn7O16,https://materialsproject.org/materials/mp-1100542,2.4649336767482617,-78.42963608314763,-28.83525616317026,-78.58390331823081
-5.77833402,-184.90668864,4.140899418164297,-1.8429850566224992,25.5094057,1.0253784416663492,0.0,8,32,289.9302874499471,723.001465,mp-1100666,Li9Mn2Co5O16,https://materialsproject.org/materials/mp-1100666,5.696381302352128,-70.9857915546244,-22.570458570228592,-74.48661061138898
-6.315195571,-126.30391142,3.8439093111640217,-2.133916358567,7.00000045,0.44813933557189856,0.6379000000000001,2,20,182.038156833833,421.39218000000005,mp-1173969,Li3Mn2O5,https://materialsproject.org/materials/mp-1173969,12.927668357482741,-82.05994171301086,-17.745946910870362,-84.15826751976876
-5.799787285625,-185.59319314,4.177561243025896,-1.8644383222475,25.999999399999997,1.0543512640765036,0.7898999999999998,12,32,287.38589065904233,723.001465,mp-1176277,Li9Mn2Co5O16,https://materialsproject.org/materials/mp-1176277,1.3780331175748228,-72.55391986193601,-20.961453652483552,-75.11704279465397
-5.9304813175,-118.60962635,4.018339956169108,-1.973442581971,7.0,0.45975740493182704,0.9973999999999998,5,20,177.4380413079249,429.38248,mp-1174046,Li3MnCoO5,https://materialsproject.org/materials/mp-1174046,16.676211836535433,-72.88869495889197,-11.707272690071113,-78.23372699978725
-5.7614404653125,-184.36609489,4.145164949982112,-1.8260915019349997,23.9999991,0.9656999355592726,0.0007999999999999119,8,32,289.63193819702514,723.001465,mp-1100647,Li9Mn2Co5O16,https://materialsproject.org/materials/mp-1100647,12.992843024590444,-76.18353151172198,-14.927958895689676,-81.73266172959484
-5.4841024745833336,-131.61845939,4.194494345060045,-1.7235707018750002,16.0000005,0.8799838436271228,0.0,2,24,211.8959837028538,535.245775,mp-1174315,Li7Co5O12,https://materialsproject.org/materials/mp-1174315,16.551496766210953,-73.03735165989436,-10.210469589849538,-78.9547654192026
-5.374818191,-53.74818191,4.613450023556653,-1.23954729525,3.0,0.34753453390898204,0.5686000000000002,2,10,100.60063362461568,279.49719,mp-774305,LiCo2NiO6,https://materialsproject.org/materials/mp-774305,24.96406152234093,-72.61377270505153,-4.688370068637792,-72.21888620778154
-6.218159898333332,-149.23583756,4.01042532461608,-2.083893997451666,14.0,0.758852919928452,0.5990000000000002,1,24,215.0046504811747,519.265175,mp-1175201,Li7Mn4CoO12,https://materialsproject.org/materials/mp-1175201,18.811542162893996,-79.59513170349179,-11.154227472398622,-86.22846037468372
-6.299733973125,-100.79574357,4.120600255627842,-2.159270935625,17.999999399999997,1.3870559296839389,1.7114000000000005,166,16,151.23626554946162,375.2903,mp-759919,Li4CrFe3O8,https://materialsproject.org/materials/mp-759919,2.6567484183857712,-65.08248377477608,-12.125816010997605,-64.40021801548156
-5.775954255625,-184.83053618,4.160140934845878,-1.8406052922474991,23.3209693,0.9417677202901364,0.0,8,32,288.5892995964502,723.001465,mp-1100665,Li9Mn2Co5O16,https://materialsproject.org/materials/mp-1100665,5.759245719127907,-71.17319231500589,-22.606472086299995,-74.4282811665428
-5.813673727333334,-87.20510591,4.233805946343853,-1.7916744893333336,14.9999992,1.1884072395221257,0.9102,166,15,147.09685068515518,375.0466,mp-757161,Li3Fe3NiO8,https://materialsproject.org/materials/mp-757161,3.8472199457386864,-69.07610007828022,-8.293270318603879,-68.15966753624633
-7.18676469388889,-129.36176449,4.038088649367418,-1.8808656283222231,15.9999935,0.876010168122154,1.0718,12,18,212.85707334795762,517.624525,mp-1176451,Mn5VO12,https://materialsproject.org/materials/mp-1176451,22.012045771957283,-66.42704003946086,-7.206540136951935,-70.99552265882406
-5.7969071690625,-185.50102941,4.173620591975185,-1.8615582056849995,23.9999992,0.9723292564099985,0.4602999999999997,1,32,287.6572348042584,723.001465,mp-1175853,Li9Mn2Co5O16,https://materialsproject.org/materials/mp-1175853,1.834427426022352,-73.24235269031733,-21.796595959673194,-77.5592854693747
-5.731488564166668,-68.77786277,4.309650091613596,-1.8452083052083332,12.000000199999999,1.2427574066456435,0.6104999999999999,12,12,112.53103691330914,292.0554,mp-755180,Li3Fe2CuO6,https://materialsproject.org/materials/mp-755180,2.740862161662159,-65.25562888119384,-12.220056680142982,-64.30701717399481
-6.3999994864285705,-89.59999281,4.013016631146457,-1.9406092507142867,9.9999985,0.7792935994079631,0.0,166,14,149.54649997515293,361.4083,mp-1178043,Li2CrFe3O8,https://materialsproject.org/materials/mp-1178043,1.0894609131446638,-67.05418129757518,-13.444641484032138,-64.56994808395285
-5.857905013636364,-128.87391029999998,4.3439498722526055,-1.6930486653581818,13.000001199999998,0.7069095173320483,0.29000000000000004,2,22,214.31718248743007,560.6511350000002,mp-753186,Li4Mn3(NiO4)3,https://materialsproject.org/materials/mp-753186,7.6511917069365944,-68.31806284002113,-5.753939026026269,-69.51723798853189
-5.771754980625,-184.69615938,4.172043579084817,-1.8364060172475,21.9999999,0.890965063422514,0.0,8,32,287.7659678888235,723.001465,mp-1100655,Li9Mn2Co5O16,https://materialsproject.org/materials/mp-1100655,12.455272633128095,-72.18141973969236,-14.310254273436728,-80.5900753055985
-6.33945170375,-101.43122726,4.1724776484905535,-2.0198014664300006,15.9999994,1.2345908936545271,0.40299999999999997,10,16,151.03386095499124,379.50653000000005,mp-1174209,Li4Mn3CoO8,https://materialsproject.org/materials/mp-1174209,5.3264103409029335,-74.70113107719864,-27.026261029101786,-75.01939338250126
-5.8608287445833325,-140.65988987,4.0988551105453315,-1.913429907788333,14.0000001,0.7638319924978181,0.4234,8,24,213.6031346994257,527.2554749999998,mp-1175103,Li7Mn2(CoO4)3,https://materialsproject.org/materials/mp-1175103,6.400799749772926,-71.19564999459445,-22.293576002248038,-73.40754761000937
-5.7920168490625,-185.34453917,4.163402124981936,-1.856667885684999,24.0,0.9699486903632494,0.5962999999999998,1,32,288.3632477885865,723.001465,mp-1175791,Li9Mn2Co5O16,https://materialsproject.org/materials/mp-1175791,-2.0206454505309708,-76.48025464205098,-20.49708699827089,-77.27780100386623
-5.7953178425,-185.45017096,4.1639713490386745,-1.8599688791224995,26.0,1.0509214111656304,0.8228,1,32,288.32382789734294,723.001465,mp-1175846,Li9Mn2Co5O16,https://materialsproject.org/materials/mp-1175846,6.821554826317325,-71.87202804904089,-21.36294463147389,-75.3565681501409
-6.84573540375,-109.53176646,3.9604645206030704,-2.40115870006,9.999999800000001,0.7646171960784199,0.5371000000000001,12,16,152.4169819780399,363.521745,mp-763955,Li4MnV3O8,https://materialsproject.org/materials/mp-763955,3.0442918035205264,-66.26190891410559,-10.332828671857145,-65.36644195277496
-6.43503258125,-205.9210426,3.932527666098215,-2.14930787271,25.9999866,1.0207092184066813,0.4258000000000002,2,32,296.85783419794444,703.025715,mp-1100522,Li9Mn7O16,https://materialsproject.org/materials/mp-1100522,2.3147514650258723,-78.34301966856414,-28.731823245566844,-78.86790487786924
-5.7509230464285706,-161.02584530000001,4.035532855613815,-1.8104098515864289,12.00005515,0.5436797885171591,0.0,12,28,257.2275500139816,625.12847,mp-1174588,Li4MnCo2O7,https://materialsproject.org/materials/mp-1174588,6.249115719886262,-72.51959384024953,-23.603205481440988,-75.96384310575979
-7.1378965658333335,-85.65475879,3.890205119536448,-2.7542720096527793,3.0003972,0.30521063822763445,0.0,12,12,114.5662009530858,268.3984,mp-774337,Li3Ti2FeO6,https://materialsproject.org/materials/mp-774337,3.4669076984054263,-64.0897150233411,-10.711821241155029,-64.88062979268908
-6.170708309999998,-203.63337423,4.277060802831946,-1.8302091149472723,8.000000466666666,0.28747401038327897,0.3242000000000003,2,33,324.31635644118734,835.34367,mp-758510,Li2Mn2NiO6,https://materialsproject.org/materials/mp-758510,7.1931507700649275,-67.13600728425358,-6.114633490949338,-68.53599778443936
-6.43425904875,-205.89628956,3.938156303668341,-2.1485343402100003,25.9985186,1.0221124489641702,0.5090000000000003,2,32,296.43354805242086,703.025715,mp-1100558,Li9Mn7O16,https://materialsproject.org/materials/mp-1100558,2.389479905858379,-78.3587796892603,-28.836955519059497,-78.25871870329097
-6.6206096175,-26.48243847,4.058996752670288,-2.160809082115001,3.9999997000000005,1.213790930236133,1.1504,12,4,38.405506609734296,93.877845,mp-754656,LiMnO2,https://materialsproject.org/materials/mp-754656,5.772670251286155,-77.91900800255665,-29.999825321096267,-76.04252775476802
-6.30061758625,-201.61976276,4.124009844454043,-2.16015454875,17.9999999,0.6941018435248207,1.9208,2,32,302.22245726273826,750.5806,mp-768874,Li4CrFe3O8,https://materialsproject.org/materials/mp-768874,2.737288207401706,-65.11307741019526,-12.078902446055636,-64.45561403207165
-5.7744094403125,-184.78110209,4.1687226949953535,-1.839060476934999,24.000000600000003,0.9711882489856828,0.3233000000000001,1,32,287.9952077529665,723.001465,mp-1176020,Li9Mn2Co5O16,https://materialsproject.org/materials/mp-1176020,2.3888638190886557,-74.92471628950464,-26.359010049955447,-78.14616906635443
-6.1452570125,-147.48616830000003,3.3455590078274637,-2.630835153115,1.99999855,0.10136324917920693,1.6041000000000003,6,24,229.94638427106338,463.28281280000004,mp-753043,Li2VO2F,https://materialsproject.org/materials/mp-753043,12.037792496357536,-61.95108081328743,-0.5610754216391592,-75.42076730366749
-7.280770304666666,-109.21155457,3.9285874040579496,-2.5938717437777776,9.0,0.7036139454423689,2.3384,166,15,149.0683685740396,352.6735,mp-754193,Li3TiCr3O8,https://materialsproject.org/materials/mp-754193,2.82882756394337,-65.48612764796772,-12.144508850395503,-66.36710522901699
-7.050864509666668,-211.52593529,3.953202396721528,-2.3972940830000002,9.999997800000001,0.3899463222152621,1.5116999999999998,1,30,298.8632420600713,711.4960000000001,mp-769583,Li3VCr3O8,https://materialsproject.org/materials/mp-769583,3.910333150323559,-66.82100955706251,-8.728513028335746,-66.2713616077381
-6.370909480000001,-152.90182752,3.8798117967951695,-2.143210047075,18.000000399999998,0.9512104924429821,0.0,2,24,220.53286021787102,515.270025,mp-1175334,Li7Mn5O12,https://materialsproject.org/materials/mp-1175334,12.843766376805453,-82.32328828436594,-18.30289515318393,-86.04583061439409
-5.798775721428571,-162.36572019999997,4.108631061489665,-1.8582625265864283,10.0,0.4612710556646141,0.2388999999999997,1,28,252.6511175900284,625.12847,mp-1174729,Li4MnCo2O7,https://materialsproject.org/materials/mp-1174729,14.199997104581795,-79.90950209404848,-14.036257301314574,-85.21424580149045
-6.91190241875,-110.5904387,3.9387497696437688,-2.4582441681250007,9.0000023,0.6899664202834498,0.9637000000000002,10,16,152.01697745565215,360.5798,mp-754321,Li4V3CrO8,https://materialsproject.org/materials/mp-754321,2.9940224166081815,-66.00132282151147,-10.023724911137426,-65.47634156154443
-5.757340608125,-184.23489946,4.0916987850814825,-1.8219916447474995,24.0000002,0.953243955756668,0.0,1,32,293.41655426519503,723.001465,mp-1176092,Li9Mn2Co5O16,https://materialsproject.org/materials/mp-1176092,2.0677529741818703,-77.47419944514499,-27.304595071155767,-78.20188677483749
-6.685002565555554,-60.16502309,4.2288375246787995,-1.8263795454629632,2.0000001,0.22679119909490456,1.0959999999999999,12,9,102.77352385606544,261.72979,mp-753158,Ti(CoO3)2,https://materialsproject.org/materials/mp-753158,24.340845558753198,-70.7150767386863,-7.106653952109741,-71.23578793030212
-5.98755649875,-95.80090398,4.329884939708381,-1.99632530625,14.9999989,1.1925431699836384,1.7644999999999995,12,16,146.58669234701375,382.227395,mp-752777,Li4Fe3CoO8,https://materialsproject.org/materials/mp-752777,4.04593104805614,-69.57246560024748,-12.123216763018545,-65.96415013861649
-6.0209608053846155,-78.27249047,4.43326733591209,-1.4897549354584607,4.9999937999999995,0.42426949683422255,0.0,166,13,137.34254298834304,366.67383,mp-756037,LiMnCo3O8,https://materialsproject.org/materials/mp-756037,8.578966086411775,-66.79603757287944,-4.5241904717201855,-68.71830390925848
-5.8041680542857135,-162.51670552,4.1399964860594345,-1.8636548594435718,10.999992500000001,0.5112713068772438,0.07819999999999983,12,28,250.7369832186776,625.12847,mp-1174566,Li4MnCo2O7,https://materialsproject.org/materials/mp-1174566,16.68984918672841,-71.08623771005135,-10.194186503243511,-77.85568009860344
-6.345667535,-101.53068056,4.203729000081596,-1.9953400145549995,11.000000300000002,0.862154254090687,0.14509999999999978,166,16,148.69115983146526,376.418335,mp-756625,Li4Mn3FeO8,https://materialsproject.org/materials/mp-756625,1.9379350804194344,-67.08550993000051,-12.714514242038668,-65.8480550439796
-6.3571428875,-101.7142862,4.11933235504604,-2.037492650180001,15.999998999999999,1.218865747111635,0.6831999999999998,2,16,152.98241430506957,379.50653000000005,mp-1174183,Li4Mn3CoO8,https://materialsproject.org/materials/mp-1174183,5.388676099727066,-78.30166809816284,-29.515631266631193,-76.25121837214604
-5.9287344305,-118.57468861,4.019753817019822,-1.971695694971,7.000000200000001,0.4599191846234256,1.1333000000000002,1,20,177.37563134168002,429.38248,mp-1174101,Li3MnCoO5,https://materialsproject.org/materials/mp-1174101,21.720572003818045,-75.19154514187295,-11.049982076796649,-78.74534216630208
-7.037910185632184,-612.29818615,4.064115264988674,-1.844825775136552,87.0000073,1.0107703109462003,0.0,5,87,1003.1000211494464,2455.05466,mp-1177832,Li3Mn28O56,https://materialsproject.org/materials/mp-1177832,18.03178270032172,-67.03616029888936,-15.596500617096074,-69.34189326561115
-5.807836560357143,-162.61942369,4.123573372384672,-1.8673233655150008,11.00000035,0.5092434881860094,0.3860000000000001,12,28,251.7356030093292,625.12847,mp-1174531,Li4MnCo2O7,https://materialsproject.org/materials/mp-1174531,16.32454125483212,-71.34616795640972,-12.94452295655971,-77.71220497900127
-4.42814596375,-35.42516771,6.28173021007204,-0.5382984387499992,1.285e-05,9.502883721048547e-07,0.0,194,8,157.5887243528937,596.1496999999998,mp-865598,YGa3,https://materialsproject.org/materials/mp-865598,-73.24676099720982,4.3712531075806265,-69.52217311401972,13.967599090849731
-5.792686695625,-185.36597426,4.193945229205246,-1.8573377322474995,24.0000005,0.9770643442923822,0.7286999999999999,1,32,286.2631944378545,723.001465,mp-1175947,Li9Mn2Co5O16,https://materialsproject.org/materials/mp-1175947,-2.1333223935387062,-76.31856360888341,-20.221984198000303,-77.06510882595059
-5.220456301875,-83.52730083,4.973759976176054,-1.6946233150000003,5.0,0.3847784077886854,0.0,166,16,151.4386532177753,453.5994,mp-754228,Li4Ni3SbO8,https://materialsproject.org/materials/mp-754228,2.2743867561352813,-65.27138406387265,-13.031607857411576,-64.06822942533256
-4.9607062471428565,-69.44988746,4.599650844672111,-1.1018179678571425,2.9469486000000003,0.2401947248125103,0.0,227,14,142.98369746717822,396.0612,mp-25385,Li(CuO2)2,https://materialsproject.org/materials/mp-25385,17.56283024126858,-69.08144643069288,-10.223967320428278,-73.32462107107385
-5.784433023571429,-161.96412466,4.027165015527952,-1.8439198287292868,10.99999925,0.4973374230858859,0.0,12,28,257.7620299759142,625.12847,mp-1174593,Li4MnCo2O7,https://materialsproject.org/materials/mp-1174593,6.354436603196723,-75.1562651098531,-25.707404481302554,-77.31129956336683
-5.8080999053571425,-162.62679735,4.1052523453638186,-1.867586710515,10.00000115,0.4608917842812944,0.0,2,28,252.85905521076413,625.12847,mp-1174568,Li4MnCo2O7,https://materialsproject.org/materials/mp-1174568,5.799866144650326,-70.8071931255354,-21.26631634003585,-75.46804000393269
-5.711633010625,-91.38612817,3.948451722647529,-1.880284725060001,10.000000199999999,0.8259555080354274,0.2633000000000001,5,16,141.0979755236539,335.504635,mp-1174011,Li5Mn(CoO4)2,https://materialsproject.org/materials/mp-1174011,19.21900817347559,-71.8952941910768,-11.888816565684216,-76.24161027497263
-5.364880511666667,-64.37856614,4.54867259945304,-1.6142284693750009,9.000318400000001,0.9585227496148684,0.08769999999999989,12,12,109.42911229744459,299.7564,mp-755201,Li3Fe(CuO3)2,https://materialsproject.org/materials/mp-755201,14.93046643797691,-68.80310698458219,-10.378274066486446,-70.47795622794094
-5.85195149,-140.44683576,4.034103282600174,-1.9045526532050008,17.869650699999998,0.959555977680924,0.0,1,24,217.0317017086691,527.2554749999998,mp-1175064,Li7Mn2(CoO4)3,https://materialsproject.org/materials/mp-1175064,6.722008634550758,-72.14366243482873,-23.033930264491893,-76.17880537336623
-6.299975970625,-100.79961553,4.1279473572755565,-2.159512933125,18.0000005,1.3895291593538297,1.6786000000000003,12,16,150.96708861486383,375.2903,mp-754088,Li4CrFe3O8,https://materialsproject.org/materials/mp-754088,2.483777106900781,-65.04457463677862,-12.388900052849277,-64.35889964481913
-5.591883936875,-89.47014299,4.677641771037677,-1.69268459375,2.500000075,0.20963917800172108,0.3685000000000001,12,16,138.9776619197338,391.49197999999996,mp-1097885,LiCoO2,https://materialsproject.org/materials/mp-1097885,23.014713764843613,-69.09119309772926,-15.427279895708235,-71.99342057004203