energy_per_atom,energy,density,formation_energy_per_atom,total_magnetization_uB,total_magnetization_T,band_gap,sgr,num_sites,cell_volume,weight,mp_id,formula,URL,tsne_xrd_lin1_0,tsne_xrd_lin1_1,tsne_xrd_lin2_0,tsne_xrd_lin2_1
-10.627941670833334,-127.53530005,14.162673129366688,-0.4126993745238097,5e-08,3.065501051461791e-09,0.0,124,12,190.0841750976145,1621.220564,mp-22444,Ta4FeP,https://materialsproject.org/materials/mp-22444,-76.68253680697836,9.115549154573504,-65.1770241299769,8.06230691295592
-8.630755340357142,-241.66114953,5.301579449259814,-3.0401504974999987,0.0,0.0,1.2894000000000003,57,28,363.1905877323269,1159.55344,mp-29792,CaNb2O4,https://materialsproject.org/materials/mp-29792,3.3904314958207133,-61.49706568675064,-20.380244983561468,-50.44874274437457
-6.090796334285714,-170.54229736,5.359387848701946,-2.52034553375,0.000171675,2.7334221287059517e-06,1.7561999999999998,62,28,731.9438694880092,2362.348,mp-1193410,Ba(DyS2)2,https://materialsproject.org/materials/mp-1193410,9.808663907593667,-10.370615595877524,13.95091461398559,-6.049644788269468
-3.9716710808333335,-47.66005297,2.4133401190985584,0.17998534916666686,3.85e-06,2.0257284423251487e-07,0.0,1,12,221.4914321035783,321.904,mp-1073592,MgSi2,https://materialsproject.org/materials/mp-1073592,-57.42305238666563,-6.493848132625443,-48.65679034946806,-6.403072362850367
-5.54347144125,-44.34777153,4.27284056880883,-3.2845216508925,1.9999997999999999,0.197734845869546,0.0,166,8,117.87566886255232,303.3135192,mp-559246,BaCrF6,https://materialsproject.org/materials/mp-559246,-3.0987341824906536,-24.670455891849837,-8.951035665310007,-28.024448311256727
-3.2450115291666664,-77.8802767,4.501929837354949,-0.8623033813644444,1.875e-07,2.6649871563542925e-09,1.6597999999999995,14,24,819.9428427430826,2222.968,mp-504630,InTeCl,https://materialsproject.org/materials/mp-504630,27.61651654677332,-7.056353001733464,16.162086178116983,-37.13368091015369
-7.804272668666668,-117.06409003,3.9842389605368846,-3.0626894091111114,5e-07,4.108652226486945e-08,0.0,12,15,141.82345122118502,340.2862,mp-753131,Li3Ti4O8,https://materialsproject.org/materials/mp-753131,-8.78568125517131,-65.03168517432168,-25.799396130611054,-61.941947223726864
-7.990558706875,-127.84893931,7.055823134151776,-0.8218927078125011,28.000125800000003,1.19165989461138,0.0,121,16,273.83256010259254,1163.546334,mp-1224964,Gd4Cu5P7,https://materialsproject.org/materials/mp-1224964,-38.252699563476206,-16.973642522271444,-42.05309549156361,-21.002820711247466
-7.377177929,-295.08711716,5.290374708145631,-0.6232677385000003,1.98379665,0.03812034714225395,0.0,128,40,606.4817449959862,1932.21334,mp-1198388,Y2Mn3Si5,https://materialsproject.org/materials/mp-1198388,-35.78310585078651,1.2245956433123486,-22.632218118622,16.56633962572716
-6.0135125077777785,-108.24322514,3.918594502622692,-1.4212372869444452,0.0,0.0,0.42200000000000015,14,18,315.53625241299073,744.6128,mp-675618,Sr2RuO6,https://materialsproject.org/materials/mp-675618,16.65492187575142,-1.393577573729131,4.765786766665201,-12.99857290435622
-7.470129090833333,-89.64154909,8.17760092712703,-0.17409766333333346,3.5104975,0.2512942424256436,0.0,160,12,162.80343255780863,801.7526049999999,mp-1215821,YZr2Co9,https://materialsproject.org/materials/mp-1215821,-70.99195205362916,-21.4204379862587,-60.53315162070429,-6.200572779565513
-5.028977351875,-80.46363763,10.77701143206886,-0.8211875593749998,2.2625e-05,8.33289729624193e-07,0.0,71,16,316.4244153087997,2053.616,mp-1188677,YbGe2Pt,https://materialsproject.org/materials/mp-1188677,-47.18163076078032,17.350826597103165,-31.825187614665108,29.727475539324136
-5.979632685,-95.67412296,3.7878124652825194,-2.0081341013700005,10.0000098,0.801901956012713,0.3272999999999997,6,16,145.3304372954842,331.5094850000001,mp-1174400,Li5Mn2CoO8,https://materialsproject.org/materials/mp-1174400,4.210570480120826,-71.34997926264879,-21.42199585957502,-73.23167029223298
-4.657088741428573,-32.59962119,6.429559876416598,-0.3791300021428573,0.4333717000000001,0.04351326632391246,0.0,123,7,116.06901271897421,449.41591200000005,mp-1025241,ScGa5Fe,https://materialsproject.org/materials/mp-1025241,-44.800440994267,-34.9642954583431,-55.05814817696808,-28.988528740654985
-5.217882283787879,-344.38023073,10.194821106702985,-0.5178630858333328,0.0049353,4.800719722373447e-05,0.062400000000000226,152,66,1198.0767301195026,7355.549999999998,mp-1209131,Sn9Pd13,https://materialsproject.org/materials/mp-1209131,-54.047152970552816,-29.545996484019252,-53.73997350627743,-32.73145690200998
-6.204518356,-31.02259178,5.785810302295363,-0.5566414680000001,9.000000000000001e-07,1.1343221370755415e-07,0.0,71,5,92.46631051691462,322.18003860000005,mp-604516,Y2AlNi2,https://materialsproject.org/materials/mp-604516,-46.49912996670928,-14.515010283467937,-48.3619222950951,-16.457477020123598
-8.79223220090909,-96.71455421,7.845541565529704,-0.5419779485064941,3.6211835,0.2958734402767981,0.0,187,11,142.63364438133985,673.9005579999998,mp-29005,U(Cr3P2)2,https://materialsproject.org/materials/mp-29005,-32.252158258071496,-4.828955037455051,-57.632851267009876,-8.999103320353116
-7.8542076425,-125.66732228,7.197242979509134,-0.4367636506249992,0.00180875,9.52751251706043e-05,0.0,140,16,221.2465175944061,958.9446,mp-7022,V5As3,https://materialsproject.org/materials/mp-7022,-60.24647100723704,-25.796584591499172,-57.93207900583315,-10.822112275431447
-8.294207843863637,-364.94514513,8.240252440745419,-0.09193956778409272,35.03923425,0.7656785275910356,0.0,194,44,533.3171700859031,2646.53104,mp-1208084,Tm2Fe17C3,https://materialsproject.org/materials/mp-1208084,-52.27387186232605,-22.73250876768146,-55.993286153298996,-10.476996073754512
-6.952454926875,-111.23927883,4.328130713495726,-2.2742741950000003,3.0000002999999995,0.22311728667705566,0.6304999999999996,12,16,156.69874053507783,408.4292,mp-755085,Li3V4FeO8,https://materialsproject.org/materials/mp-755085,-6.060393822343142,-61.14265046761489,-23.45467617283791,-64.08448615108175
-6.405806963947367,-243.42066463,7.6976544189058655,-0.39560071263157903,1e-07,2.9680436609241045e-09,0.0,36,38,392.65139276728775,1820.1889,mp-1201639,Pr(Ni2B)6,https://materialsproject.org/materials/mp-1201639,-69.4869766157486,-26.07090953324207,-43.928884860345924,0.10447340210919416
-6.3102895666666665,-132.51608090000002,7.675099753266543,-0.7559878328571423,8.3e-06,3.659064198320439e-07,0.0,174,21,264.3537592388931,1221.857134,mp-1190918,Sm2Ni12P7,https://materialsproject.org/materials/mp-1190918,-63.47596357046197,-30.065612681710448,-65.94181251425724,-17.411270715457487
-5.720125224166666,-68.64150269,7.06297588902547,-0.2932531183333336,6.434082,0.4558093252617728,0.0,160,12,164.50564791954903,699.7121999999998,mp-1224816,GdMg3Ni8,https://materialsproject.org/materials/mp-1224816,-75.65948466689524,-22.359757089217787,-56.920712459538926,-24.94663258816555
-6.426683796818183,-141.38704353,9.293472946705494,0.09563528863636413,20.794840100000002,0.5124173527737474,0.0,216,22,472.94341643310105,2646.90365,mp-1221878,Mn5(Bi2Pd)2,https://materialsproject.org/materials/mp-1221878,-41.87072695197004,-12.827043512686016,-41.00576430398997,-16.796099924822247
-7.065163513333332,-105.9774527,8.611811332891735,-0.5768767893333338,7.209433333333332,0.3106928957572596,0.0,221,15,270.42524688353586,1402.467,mp-1104851,GdGa3Ru,https://materialsproject.org/materials/mp-1104851,-40.02255882459024,-59.35830833595986,-56.62792469792135,-33.32547337658958
-8.879095946206899,-257.49378244,7.69326457762043,-0.0436308389655198,29.0800933,0.7761753375132263,0.0,160,29,436.629810985851,2022.90255,mp-1225167,Gd3Y3Fe23,https://materialsproject.org/materials/mp-1225167,-56.589388361745726,-17.49660124334581,-53.86178562441943,-10.356023331385998
-8.508727993214285,-476.48876762,5.867751793159031,-0.19070483959142692,8.8813934,0.1689375046588036,0.0,60,56,612.6782455040269,2164.98606,mp-1247750,Mn7GeN6,https://materialsproject.org/materials/mp-1247750,-33.01616133686537,1.8039772387168551,11.715702221906554,21.15464943466794
-3.48090331,-13.92361324,5.413992892932514,0.14454676446428616,1e-05,1.5822551466812582e-06,0.0,139,4,73.65477557146086,240.142762,mp-1184292,Ga3P,https://materialsproject.org/materials/mp-1184292,-62.01034891044713,13.06079128887244,-74.00996874192415,13.837625176113605
-7.867879370895523,-527.14791785,5.4747534989347,-1.3687722235774256,0.1728547,0.001471105298592408,0.0,156,67,1369.351243564184,4514.715,mp-1100827,Zr40S27,https://materialsproject.org/materials/mp-1100827,-40.37896334223541,-20.367608074735227,-61.155371788930864,-9.095125897744532
-6.9838225525,-83.80587063,10.012590729975516,-0.8631959891666661,1e-06,5.0072406745352284e-08,0.0,62,12,232.7442503778075,1403.3834000000004,mp-1103280,YGaIr,https://materialsproject.org/materials/mp-1103280,-51.73471906366521,14.04104560394924,-34.73604915998812,21.51372880636197
-6.242462785,-49.93970228,5.911143413040516,-0.0916305899999994,0.09423560000000002,0.005354284540399894,0.0,11,8,205.1119580953393,730.1521799999999,mp-672389,MnTe,https://materialsproject.org/materials/mp-672389,-4.03098709720485,-22.60231415899839,1.410342810837127,-19.92881630670491
-6.178152656086957,-142.09751109,4.352947337303259,-2.0611831122554354,0.0,0.0,0.3164999999999996,143,23,532.9991281762738,1397.20722,mp-1223361,La6Si2NiS14,https://materialsproject.org/materials/mp-1223361,10.288534501353563,-3.48568036849953,12.042877118300895,4.562220325407608
-7.768668228333333,-46.61200937,10.26889613679843,0.06622929833333302,0.0537998,0.007493301770812567,0.0,191,6,83.6729085692177,517.43945,mp-1217368,ThFe3Co2,https://materialsproject.org/materials/mp-1217368,-52.17604371364536,-17.543074368890704,-49.00199938995023,-16.303809167239447
-4.672571363333334,-56.07085636,7.053623016470753,-0.23454687160166665,1.1e-06,1.242060642560462e-07,0.0,183,12,103.21131521717649,438.42010999999997,mp-1222892,LaNi5H6,https://materialsproject.org/materials/mp-1222892,-58.065564559594186,-12.408951452398863,-55.250434831585714,-13.940951597162426
-7.4035465006666685,-222.10639502,6.635625712262304,-0.6340263170000005,9.000000000000001e-07,2.6098074951390934e-08,0.0,139,30,401.8939448537647,1605.99524,mp-1193423,Nb4Si7Ni4,https://materialsproject.org/materials/mp-1193423,-64.73447935123488,-18.089938714041505,-63.09979158338745,-16.151228707305478
-6.0102929760000015,-120.20585952,6.160905402999148,-1.865627809375,6.00000035,0.3718053154483269,0.0,2,20,188.06722176622262,697.7639999999999,mp-1222630,Li3FeIrO5,https://materialsproject.org/materials/mp-1222630,-5.643665684033438,-65.74967539181061,-20.562883227901334,-59.07385157679133
-9.7640190625,-78.11215250000001,11.421571439594866,-0.1584269374999998,6.8e-06,6.866667171053663e-07,0.0,194,8,115.4091766490055,793.811,mp-861626,Tc3Rh,https://materialsproject.org/materials/mp-861626,-54.44268336231883,-46.54667687824032,-65.17849444903564,-36.02153598262181
-5.3907076016666675,-32.34424561,8.296697362840439,-0.5023026066666674,1.63e-05,2.0830382750385856e-06,0.0,65,6,91.19431844775112,455.6422,mp-1226750,CeGa2Ni3,https://materialsproject.org/materials/mp-1226750,-50.796646849061005,-16.412100492252637,-54.080933409316934,-14.077560796349944
-4.5330936575,-36.26474926,4.539809845029534,-1.1817215605000009,0.99999995,0.1401342823730997,0.0,194,8,83.16354850862375,227.36393856,mp-971634,NaNiO2,https://materialsproject.org/materials/mp-971634,-7.343500610569037,-56.82229531361779,-18.98902277028627,-57.854114261603385
-5.74412584875,-45.95300679,7.217498600308385,-0.8698901610714289,1.5e-07,1.3081093183638744e-08,0.0,129,8,133.6363629050829,580.8476880000002,mp-30195,HoCuP2,https://materialsproject.org/materials/mp-30195,-38.095951632177844,-16.85121861358357,-32.815631709600076,-11.11416516431128
-8.082213246666667,-48.49327948,7.415430395846165,-0.2738049822222213,0.9182405999999999,0.1962713210271914,0.0,69,6,54.522664713259495,243.48058999999998,mp-1226217,CrCoB,https://materialsproject.org/materials/mp-1226217,-65.25409796923033,-36.66163110414186,-75.62917166490163,-24.267203772957092
-5.566032786875,-89.05652459,5.400485248198182,-1.5601907043749996,0.9999998999999999,0.08551018379969412,0.0,12,16,136.2886043427602,443.24438,mp-754464,Li3Co4NiO8,https://materialsproject.org/materials/mp-754464,22.70013525732707,-70.63365106924974,-27.237743202913066,-62.51029123517066
-6.86769684625,-109.88314954,6.469866856972357,-0.3877441616666673,0.0,0.0,0.0,140,16,280.47569202054024,1092.802,mp-13020,Ti5CuSb2,https://materialsproject.org/materials/mp-13020,-49.73169512532897,-7.201017867119838,-59.66066494058445,0.19948858759252255
-7.91957609,-39.59788045,6.20299369204858,-0.656012484,1.9e-06,3.1925742592140873e-07,0.0,139,5,69.35695545360397,259.085,mp-569247,Zr(FeSi)2,https://materialsproject.org/materials/mp-569247,-46.531302752507976,-3.8381338250580317,-58.83353204072547,19.547548895276805
-4.891427776428571,-136.95997774,8.855370757184557,-0.7108763900000002,2.26e-05,5.568285252771508e-07,0.0,63,28,473.00354041444945,2522.447,mp-1213121,Dy2(Ga3Rh)3,https://materialsproject.org/materials/mp-1213121,-45.89817294199153,-7.068282601442622,-42.774790532572865,5.399856302469707
-6.0335689399999985,-36.20141364,5.873816487734139,-0.4651361897222218,1.9e-06,2.2993885049734444e-07,0.0,38,6,96.29831157270719,340.6355386,mp-1217076,Ti2AlGe3,https://materialsproject.org/materials/mp-1217076,-62.05187227967318,-30.869479065793925,-71.47859012144957,-31.36263418475161
-9.38813981875,-75.10511855,19.313077701605803,-0.15065043624999852,3.4899999999999995e-05,3.5058722566962915e-06,0.0,194,8,116.01302922132324,1349.302,mp-867345,TcIr3,https://materialsproject.org/materials/mp-867345,-54.2822411562417,-46.29885046342638,-65.01837964896829,-35.65344269171201
-7.599936303333332,-45.59961782,10.506622059068206,-0.7238699466666662,0.30068505,0.032047106725730364,0.0,227,6,109.34537956360519,691.8539999999999,mp-951,CeRh2,https://materialsproject.org/materials/mp-951,-71.64725277353628,-9.987466505000944,-74.75301939844759,-8.975228981069451
-5.407219712500001,-129.77327309999998,4.941431539954384,-1.269936526672056,1.9999997,0.037670660862656816,0.0,69,24,618.7341956616816,1841.22902,mp-1192260,Rb2U(PdS2)3,https://materialsproject.org/materials/mp-1192260,2.317340429423125,-50.57418970401347,0.42511446330556174,-47.77140184312371
-5.29356911,-26.46784555,7.840539610725665,-0.4700945590000004,0.0,0.0,0.0,71,5,100.7254744305614,475.5938,mp-1206785,Nd2GaNi2,https://materialsproject.org/materials/mp-1206785,-39.94260106577652,12.244760059174688,-36.7983158485854,20.080999195821462
-3.6321721592857146,-50.85041023,2.446974305517601,0.15558120357142866,1.5e-06,6.952554190094997e-08,0.0,11,14,251.43417341132127,370.514,mp-1075020,Mg3Si4,https://materialsproject.org/materials/mp-1075020,-56.42459485148592,-3.513969743247862,-38.2584579784201,1.4696822074576046
-2.82572168125,-22.60577345,2.8927123161922683,0.1572904574999998,2.8975827,0.2259337691081092,0.0,38,8,149.46245797143382,260.36839999999995,mp-1099274,Mg6FeNi,https://materialsproject.org/materials/mp-1099274,-49.21646415958601,-30.91799283573307,-57.34635762081884,-28.52081880911791
-4.892722122142857,-68.49810971,3.9432018045873134,-0.8396718021428567,0.0,0.0,0.7090000000000001,63,14,492.98410151882865,1170.66552,mp-568616,Nb2Br5,https://materialsproject.org/materials/mp-568616,31.70930808925281,-51.40825327919302,-20.37433984697369,-48.39251878749627
-2.1894648858450707,-310.90401379,7.9650820742487145,-0.31145419492957765,1.55e-05,7.296146530338537e-08,0.04790000000000028,194,142,2475.8001120667427,11875.63232,mp-1197586,Ho13Zn58,https://materialsproject.org/materials/mp-1197586,-54.886574112274026,-3.332814450935253,-35.08826060785017,5.204620606965845
-8.361653224,-83.61653224,12.095398743628008,-0.25067636199999865,0.40203245,0.027482355887222733,0.0,127,10,170.48437303547146,1241.8114971999996,mp-21269,U2AlCo2,https://materialsproject.org/materials/mp-21269,-54.714638552288726,-9.789992087231788,-56.8827677265034,-18.676121594760875
-6.7854849260000005,-135.70969852,7.849160222778893,-0.5048018826666663,2e-07,6.642582137845183e-09,0.0,136,20,350.889594760516,1658.6112,mp-632502,Zr2InNi2,https://materialsproject.org/materials/mp-632502,-55.016685375021105,-9.349296117517802,-57.1572678696628,-18.587597071457523
-5.483013183478262,-252.21860644,4.891547247456561,-1.510102161170435,11.999999800000001,0.3305735931333241,0.0,4,46,423.04883948640366,1246.1997800000001,mp-758487,Li4Mn2Ni5O12,https://materialsproject.org/materials/mp-758487,-11.305030278954675,-64.53389492144181,-29.534091473382908,-61.83715791329793
-5.551643583846153,-144.34273318,6.228359464162817,-0.17442031368000135,11.3667757,0.5842924759211398,0.0,66,26,226.71717628079892,850.3721000000003,mp-1194198,LaFe5H7,https://materialsproject.org/materials/mp-1194198,-50.59069390821754,-17.741568737864622,-44.74741217387445,-15.314355616952147
-4.443305278571429,-31.10313695,11.239535525046783,-0.20274819122767848,1e-07,9.718694002605036e-09,0.0,123,7,119.91389758166984,811.6500000000002,mp-1077944,HgPd5Se,https://materialsproject.org/materials/mp-1077944,-51.432892276752796,-32.930247771695505,-60.183757290905675,-29.35820696801146
-7.371040169166666,-88.45248203,5.353957617786247,-0.9079657350520828,0.0032001999999999994,0.00011016224408246512,1.4421999999999997,156,12,338.5491862096331,1091.56,mp-1027112,MoW3(SeS)4,https://materialsproject.org/materials/mp-1027112,-7.293676839418834,-82.02150224568237,-21.753453155862694,-50.8680341967286
-6.3819938725,-51.05595098,6.5208048640926215,-0.052116202499999716,15.2821093,0.9695741951721332,0.0,10,8,183.68753266161147,721.3263450000001,mp-1221638,MnCr3Te4,https://materialsproject.org/materials/mp-1221638,-27.256829546214128,-36.01981696240309,-36.4008576086126,-17.248014389920794
-2.227011203448276,-64.5833249,8.550118420002836,-0.2811412070689649,0.0010902000000000002,2.561239633799723e-05,0.0,225,29,496.05906637465654,2554.2090000000007,mp-1192910,Lu6Zn23,https://materialsproject.org/materials/mp-1192910,-46.04537320016181,-20.042475702304348,-57.65369691361132,-16.990906653850793
-9.341700825,-112.10040990000002,7.735945134559934,-0.2854167058333334,0.00034219999999999997,2.0391535862633294e-05,0.01890000000000036,124,12,195.5723684589066,911.1120400000001,mp-22312,Nb4FeSi,https://materialsproject.org/materials/mp-22312,-76.5162042178007,9.085778088850963,-65.1885945030226,8.017026425151734
-6.244733021666666,-37.46839813,8.285330921616634,-0.18530998083333355,3.8260775000000002,0.5155665584253283,0.0,187,6,86.48612731209818,431.52625,mp-1219997,PrFeNi4,https://materialsproject.org/materials/mp-1219997,-52.38143917108652,-16.450806925528408,-54.79644134577661,-15.85405212441149
-8.655870211666667,-155.80566381,6.744541671376448,-0.6279322457936508,0.00018745,7.652200850229873e-06,0.0,193,18,285.4805413988434,1159.524324,mp-1190041,Nb5Si3P,https://materialsproject.org/materials/mp-1190041,-53.58256654530353,-19.739076589256122,-47.745237285161295,-16.87835286820981
-6.9433949099999985,-83.32073892,12.74137708239246,-0.9254001466666656,3.3e-06,1.7072546615436705e-07,0.0,62,12,225.2646580251452,1728.464,mp-21153,ErGeIr,https://materialsproject.org/materials/mp-21153,-52.24066341484804,12.629911707161769,-37.7114269174996,20.13794251357213
-9.83541543,-78.68332344,16.592207521960276,-0.08045887843749888,0.0061835,0.0005137099722539153,0.0,74,8,140.27936659462742,1401.68,mp-22140,PuPd,https://materialsproject.org/materials/mp-22140,-41.794827309632495,-19.065541731487933,-55.90357779007018,-19.37882548887757
-7.4349078355555545,-267.65668208,4.440390353804142,-0.8191901405022214,2.375e-06,5.0261929708048675e-08,0.0,52,36,550.6832705310359,1472.5632,mp-1246761,Ca3(MoN2)2,https://materialsproject.org/materials/mp-1246761,-7.676773697169825,-1.0375212774201443,30.97588191733078,61.71459043437628