energy_per_atom,energy,density,formation_energy_per_atom,total_magnetization_uB,total_magnetization_T,band_gap,sgr,num_sites,cell_volume,weight,mp_id,formula,URL,tsne_cry_lin1_0,tsne_cry_lin1_1,tsne_cry_lin2_0,tsne_cry_lin2_1
-5.200249134,-104.00498268,7.5124048510135575,-0.84154550525,0.0,0.0,0.3314000000000004,220,20,483.8090276025479,2188.7888199999998,mp-1105594,La3Cu3Sb4,https://materialsproject.org/materials/mp-1105594,55.22784348379793,22.229839130936607,4.3310463753219866,-5.3073646750210655
-4.7654763440000005,-47.65476344,4.644036232518363,-0.216218214584822,2.9999998,0.1501404373672922,0.6429,5,10,232.86326188951526,651.249624,mp-1226296,CrCu(PSe3)2,https://materialsproject.org/materials/mp-1226296,24.887889142137965,-1.3567087970106948,6.232384063649594,-6.877579442875992
-5.863542019464285,-328.35835309,5.539491722148338,-1.6550674586607133,9.99926665,0.15221448637868362,1.8538000000000008,62,56,765.5782572972983,2553.9384,mp-605856,Fe2(TeO3)3,https://materialsproject.org/materials/mp-605856,-18.744470830412254,-37.37374504668829,7.6866630984588395,0.4605705705143903
-6.299413215,-88.19178501,5.304951878190733,-1.5000822371428586,2e-07,1.586877066283564e-08,1.2323,74,14,146.88049906541647,469.24159,mp-765860,Fe2CoO4,https://materialsproject.org/materials/mp-765860,-27.70725741903501,-33.22204666832129,7.892122907890678,-3.213579477049774
-4.3791409185,-87.58281837,6.478231374112089,-0.7411918229374997,3.7725e-05,8.339870555299708e-07,1.3813000000000004,62,20,527.1659681401552,2056.6232,mp-22856,Bi2S3,https://materialsproject.org/materials/mp-22856,71.30004734898381,16.750440796937276,9.329895412895873,-6.3801164919575655
-6.16063992375,-49.28511939,8.553683848237604,0.6068344737500011,3.7667007000000003,0.21661137060087454,0.0,14,8,202.65498443076046,1043.906,mp-1079128,CrBi,https://materialsproject.org/materials/mp-1079128,17.391307405588822,46.43539910743235,-8.604250342815693,-0.5045126942092143
-6.1647680891666665,-73.97721707,5.561002375071023,-0.4673887582291663,0.0483629,0.0018813108086493907,0.0,187,12,299.59130973869117,1003.30552,mp-672271,NbSe2,https://materialsproject.org/materials/mp-672271,48.17370768532429,24.515992459448924,-8.604250342815693,-0.5045126942092143
-5.588823375833332,-335.32940255,2.6819158903994147,-1.0652664091159996,0.0,0.0,1.4825,61,60,659.9279745891778,1065.8414400000001,mp-1204994,H4Pd(NO4)2,https://materialsproject.org/materials/mp-1204994,-2.2481180342819,-23.54179003009995,8.598949455824714,-0.2390022523065836
-6.610101790769232,-85.93132328,2.9181626237095983,-1.8942439064743604,0.026682499999999998,0.0011196590407880366,0.0,166,13,277.72703293224424,488.066,mvc-11744,Ca(TiS2)4,https://materialsproject.org/materials/mvc-11744,20.045194497135984,14.410134913157801,-8.604250342815693,-0.5045126942092143
-5.0224835675,-80.35973708,5.496690084299535,-0.13795307679687507,3.50358685,0.12184715338530208,0.0,111,16,335.1003856206103,1109.244,mp-505244,FeCuSe2,https://materialsproject.org/materials/mp-505244,23.528867037373015,8.360673432465491,-8.604250342815693,-0.5045126942092143
-3.2453037875,-51.9248606,6.908857604261272,-0.18838235812500012,2.35e-06,4.88842421810472e-08,0.05220000000000002,140,16,560.2429534262772,2330.9532,mp-28843,Tl2SnTe5,https://materialsproject.org/materials/mp-28843,58.264848036539675,23.84397818827221,3.728674496666419,-5.171341021491587
-3.709763888333333,-44.51716666,7.246976460561386,-0.2431569637499997,0.0029414000000000003,8.096119056619264e-05,0.6322999999999999,164,12,423.40368122404124,1847.8316,mp-1101917,SnBi4Te7,https://materialsproject.org/materials/mp-1101917,66.66763427086518,23.998451989237807,5.463714244686688,-6.9035176266500144
-3.2986278628571433,-23.09039504,4.783295135833384,-1.1661358347200002,0.0,0.0,1.1756,123,7,228.07955468866672,656.9986,mp-29889,Tl2PdCl4,https://materialsproject.org/materials/mp-29889,11.475260910967698,-9.877946496986773,8.621732044658009,-4.503222729699588
-5.711173609499999,-114.22347219,4.293897420681017,-0.8797124719375006,3.000000775,0.08372521592751009,0.5891000000000002,62,20,417.5827194025968,1079.8044,mp-9130,CrSbS3,https://materialsproject.org/materials/mp-9130,16.415100551028722,6.617314231665612,-9.123658699144679,-3.2233332695009165
-5.932943992352941,-100.86004787,8.749131922627312,0.22502951352941167,0.8335236999999999,0.02155905937282733,0.0,204,17,450.57342350969617,2374.004,mp-640956,Eu(Sb3Os)4,https://materialsproject.org/materials/mp-640956,34.57476208324114,28.83238521139041,-8.604250342815693,-0.5045126942092143
-4.069420905555557,-36.62478815,2.5440028314427394,-1.779852287284445,2.0,0.09230562297512727,0.0,225,9,252.5103974586684,386.8546,mp-27826,K2MoCl6,https://materialsproject.org/materials/mp-27826,12.079069374179197,-8.06505653721736,-11.335891905813464,-0.3360147360201731
-3.6619963311111112,-65.91593396,3.2443411895868057,-1.876949732768966,3.00000015,0.05379363079814711,0.8848,140,18,649.9318887207935,1269.8291014,mp-1105622,Cs3CoCl5,https://materialsproject.org/materials/mp-1105622,21.001964221581193,-1.5982525295499923,6.3849582750273095,-6.1689996284594155
-3.921888395357143,-109.81287507,3.660819872548789,-1.084972530642857,4.0,0.049970334167109096,0.9694,176,28,932.8786742619383,2056.6218,mp-570000,K3Mo2Br9,https://materialsproject.org/materials/mp-570000,10.743650147977943,-7.6982531952261715,6.176279778936143,-5.748302014891706
-5.186926423333333,-31.12155854,8.510154787122904,-0.5129806641666661,8.5e-07,6.7056819129344e-08,0.0,164,6,147.72479794438834,757.08,mp-1218997,SmSbPd,https://materialsproject.org/materials/mp-1218997,4.9240584144276,36.330171055760715,-8.604250342815693,-0.5045126942092143
-4.16686792625,-33.33494341,5.954625217882196,-0.4174194980468751,0.0,0.0,0.4098999999999995,62,8,220.4933073208865,790.68,mp-1179336,SnSe,https://materialsproject.org/materials/mp-1179336,70.41413125172086,24.0648695973703,5.313485058836738,-6.848960195950793
-8.62224435,-94.84468785,4.147534329955153,-3.0454376243127284,0.0,0.0,0.7186999999999999,65,11,164.03601452525524,409.7133432,mp-760401,Nb3O7F,https://materialsproject.org/materials/mp-760401,-1.0935052165357957,-45.97134654608778,6.2253132857487685,-3.1554788548502666
-3.38357836,-13.53431344,5.12252486660907,-0.4459338586250001,4e-06,3.5955634171394436e-07,0.7610000000000001,166,4,129.6493864300291,399.94976928,mp-1220883,NaSbTe2,https://materialsproject.org/materials/mp-1220883,66.79928693089968,22.803587298832003,6.8215286540609466,-7.135051387835554
-5.654060420625,-271.39490019,2.7714722158339162,-3.1561639997516666,1.9999863625,0.03632225639149523,2.1361,62,48,641.6994132079459,1071.0089024000001,mp-1176534,LiVF4,https://materialsproject.org/materials/mp-1176534,-21.782662969619608,-51.53829854707628,8.38930295261544,0.3229309956982517
-5.76656786375,-46.13254291,5.555983022843453,-0.912653965625001,3.5292939,0.4688015995694266,0.0,194,8,87.73566419094229,293.55399,mp-1097012,FeCoO2,https://materialsproject.org/materials/mp-1097012,-27.34223879363011,-33.036174592078446,-8.604250342815693,-0.5045126942092143
-3.8476746359090903,-169.29768398,4.221071944874587,-0.8429116813236361,1.00123685,0.0081759974890135,0.0,15,44,1427.1627551565614,3627.832,mp-616228,Te4WCl6,https://materialsproject.org/materials/mp-616228,16.311709149942,-5.246455609597509,-8.604250342815693,-0.5045126942092143
-5.88264607375,-235.30584295,3.184694203424657,-3.2180226470829987,3.99999975,0.09243080197577942,1.7065,14,40,504.33681392202897,967.2512896,mp-776726,LiV2F7,https://materialsproject.org/materials/mp-776726,-21.97803261410809,-51.10058945594884,8.174576643183185,0.03663058450023437
-5.354933963571427,-149.93815098,7.053400788558277,-0.6806417449999996,3.91331265,0.056497223088006025,0.0,12,28,807.2254989831359,3428.81729,mp-1194031,Pr4MnSb9,https://materialsproject.org/materials/mp-1194031,3.1327698455792414,33.55767924971622,-8.604250342815693,-0.5045126942092143
-4.439795186071429,-124.31426521,4.8518913669427235,-0.6033909626785717,3.65e-06,6.402640592389664e-08,0.7786999999999997,62,28,664.3717667114379,1941.2128,mp-19941,As2PbS4,https://materialsproject.org/materials/mp-19941,70.01776750427003,15.296848094818227,6.738613777731607,-6.9416372696092905
-3.73081361,-26.11569527,7.114760161431668,-0.24859249071428585,0.0,0.0,0.42939999999999934,166,7,244.3795576510568,1047.0708,mp-38605,Sn(BiTe2)2,https://materialsproject.org/materials/mp-38605,66.64170537085002,23.99818337187685,5.2875261005824115,-6.807758718699615
-6.400812967666668,-192.02438903,6.0542126488516175,-0.7450773793958338,3e-06,4.888442946314345e-08,0.0,2,30,715.2010303002291,2607.57442,mp-675290,Nb9IrSe20,https://materialsproject.org/materials/mp-675290,48.218218717992094,24.474791083453933,-8.604250342815693,-0.5045126942092143
-4.053491993888889,-145.92571178,5.454702055507169,-0.8527413961111113,0.0,0.0,0.6347999999999998,33,36,1288.2395341609695,4231.736,mp-17885,Ba2Ge2Te5,https://materialsproject.org/materials/mp-17885,58.206435570692946,21.41061228505153,6.820676854881714,-6.6406283254832905
-4.2414296671428575,-29.69000767,3.294365020653122,-1.960653485064828,5.0000002,0.24992005719294375,1.783,139,7,233.15586131058484,462.5609488,mp-1025252,Cs2MnCl4,https://materialsproject.org/materials/mp-1025252,17.806808274635788,-8.161459716737701,6.920963361252121,-2.253180115783357
-2.934913865625,-46.95862185,8.671418585833662,-0.277164960625,7.45e-06,1.6138236712754648e-07,0.0,140,16,537.9942313459217,2809.433,mp-174,Tl5Te3,https://materialsproject.org/materials/mp-174,58.53631470282136,23.80771004671021,5.3873552012701404,-6.03012854724051
-4.812548161666666,-57.75057794,2.122320829813696,-1.1380345892366666,0.0,0.0,1.2544,2,12,323.5452238843143,413.5204,mp-27868,VNCl4,https://materialsproject.org/materials/mp-27868,35.736381050865546,-5.8228234391886975,6.328122463713899,-6.9325238002081
-5.034524842857143,-70.4833478,4.762743884548996,-0.3942960127678573,12.5546855,0.4185151754785788,0.0,160,14,349.6005081507608,1002.7211900000001,mp-1221918,Mn2CrGa3Se8,https://materialsproject.org/materials/mp-1221918,37.07851748204675,0.5433421630646356,-8.604250342815693,-0.5045126942092143
-5.592287486666668,-134.21489968,2.9764092272779097,-3.189319586543334,2.0000001,0.06966542475832999,2.0363,14,24,334.57243376297475,599.6995283199999,mp-17999,NaVF4,https://materialsproject.org/materials/mp-17999,-21.884417117557053,-51.08928756301094,9.071025301396883,0.4064334052500799
-4.5992257875,-183.9690315,9.483217602331623,-0.5498803594999998,0.28283495,0.003462097251414184,0.0,223,40,952.0751694358884,5437.232,mp-1214689,CeIn3Pt,https://materialsproject.org/materials/mp-1214689,6.32308201626465,53.81528214586678,-8.604250342815693,-0.5045126942092143
-6.005356158125,-288.25709559,4.3093449932069285,-2.2140907597716666,5.0000002,0.10403970516555223,1.5727999999999998,2,48,560.0777712786602,1453.4848512,mp-759284,FeOF,https://materialsproject.org/materials/mp-759284,-41.149578638991926,-76.16030116979282,6.772545551147728,-1.8339218879697563
-5.119675813636364,-56.31643395,2.4436671835039614,-1.013652517551639,1.9999999,0.08112472613625614,0.0,5,11,287.3122596502187,422.811824,mp-9102,RbVP2S7,https://materialsproject.org/materials/mp-9102,24.25426996625343,-1.3077293403298231,-8.604250342815693,-0.5045126942092143
-6.016188250416668,-144.38851801,4.341098269156128,-2.224922852063333,4.9999992625,0.2096125977594824,1.3825,6,24,277.990521041046,726.7424255999998,mp-752593,FeOF,https://materialsproject.org/materials/mp-752593,-41.44842572192567,-76.63326329445005,5.812775031542902,-0.15654435833588706
-4.524731671666667,-162.89034018,3.651030809514813,-1.182894001649306,3.7000000000000006e-06,5.001541759731133e-08,0.00649999999999995,2,36,862.134952179003,1895.578,mp-866622,Ca3Sn4S11,https://materialsproject.org/materials/mp-866622,43.02207249974133,0.8712374932776616,5.351831824669069,-6.7345114284965275
-3.208860584,-32.08860584,3.4145041588035725,-1.6951903130249657,0.0,0.0,1.0328,225,10,294.87470583681704,606.3398,mp-1113761,Rb2InAgCl6,https://materialsproject.org/materials/mp-1113761,6.781502651808149,-8.447791681336696,7.7185140517035284,-3.1242585280502326
-5.198790885714286,-36.391536200000004,3.383053067229957,-1.0447536423214283,4.9999996,0.3679454722577836,1.1795,82,7,158.36672440515375,322.644045,mp-20025,Mn(GaS2)2,https://materialsproject.org/materials/mp-20025,26.156691818565,-0.5872520395050618,7.545387691642798,-4.912523688272135
-4.3426290695454535,-95.53783953,3.518438771231041,-0.484712280622565,4.0132741,0.07398352286037346,0.32030000000000003,14,22,632.180714072043,1339.498248,mp-1191175,K2Fe(PSe3)2,https://materialsproject.org/materials/mp-1191175,23.69023442194909,-0.4553760208118666,4.9446120356552195,-5.585492139873471
-5.2056398775,-41.64511902,6.320994140059952,-0.08537204562500023,14.4678952,0.8148909823984735,0.0,123,8,206.91085240277818,787.625135,mp-1221798,Mn3CdTe4,https://materialsproject.org/materials/mp-1221798,51.36237497694865,33.4948929201027,-8.604250342815693,-0.5045126942092143
-5.17404117,-31.04424702,5.8847940869894195,-0.6649344057291664,6e-06,3.984458907710367e-07,1.0586000000000002,10,6,175.4928090738915,621.9300000000002,mp-989651,HfTeSe4,https://materialsproject.org/materials/mp-989651,65.76489903056405,17.841744489040376,7.272190441758343,-6.267216634947842
-6.6408973225,-79.69076787,9.383200913650018,-0.3305103533333333,8.38030235,0.5036750963531667,0.0,164,12,193.90394146478462,1095.69218,mp-1221536,Mn2SnPd3,https://materialsproject.org/materials/mp-1221536,45.05111735604456,37.832327270473975,-8.604250342815693,-0.5045126942092143
-3.055627769375,-48.89004431,8.380227276151146,-0.29522584718750045,0.05880269999999999,0.001269733599391744,0.0,87,16,539.7120111885508,2723.7597,mp-1216727,Tl9SnTe6,https://materialsproject.org/materials/mp-1216727,58.50927884725336,23.83302657043951,4.225780530390243,-5.622150282179601
-5.202025983,-312.12155898,7.594345042442541,-0.6132306639999996,4.166666666666666e-08,3.276190665259929e-10,0.0,57,60,1482.1665824857032,6778.5726,mp-570394,PrNiSb3,https://materialsproject.org/materials/mp-570394,3.2730693721936204,34.418778116305184,-8.604250342815693,-0.5045126942092143
-3.234002191,-64.68004382,6.701062493814162,-0.15721063899999982,0.0,0.0,0.0,62,20,635.3074503046854,2563.76684,mp-23415,TlFeI3,https://materialsproject.org/materials/mp-23415,20.65188126799481,0.40245686723968704,-8.604250342815693,-0.5045126942092143
-4.807955088,-24.03977544,3.491912610054898,-1.005436797693966,0.008261399999999999,0.0009573759888658359,0.0,119,5,100.56539106029,211.47684500000003,mp-1219572,RbLiMnS2,https://materialsproject.org/materials/mp-1219572,26.14336743740144,1.5073485605197567,-8.604250342815693,-0.5045126942092143
-4.6860532785714275,-262.4189836,5.725107921906158,-1.0132633057142857,0.0,0.0,0.2134999999999998,3,56,2254.260927933792,7772.107,mp-685007,Tb5Te9,https://materialsproject.org/materials/mp-685007,56.51844585224384,21.100767736489058,3.616380789303193,-5.572911148202282
-6.2988633425,-75.58636011,4.3249052665534204,-1.8743005849950016,20.0000073,1.5761310690344534,0.8121999999999998,8,12,147.88197828538054,385.16140319999994,mp-1176721,LiFe5O5F,https://materialsproject.org/materials/mp-1176721,-23.782857767756433,-38.98654028626697,5.0505671743035565,-1.2941606495551798
-4.395469205416666,-105.49126093,4.35193235252312,-0.6646598657031243,0.00071955,1.3235980242781168e-05,0.7029000000000005,11,24,633.5520417287441,1660.41,mp-1191223,SnSb4S7,https://materialsproject.org/materials/mp-1191223,70.27979199851197,15.26879788284846,6.207659843079709,-7.032042951464889
-6.012452823333334,-108.22415082,4.3188492776783125,-2.22118742498,4.999999900000001,0.2780510908285816,1.7642000000000002,4,18,209.56696312087342,545.0568192000001,mp-753017,FeOF,https://materialsproject.org/materials/mp-753017,-41.774619678585466,-76.44804154456067,4.6701192971243675,-0.5089926977346064
-4.526154462857143,-31.68308124,4.548554844813742,-0.3511378714285713,4.999999900000001,0.25773292427840266,0.3244999999999996,121,7,226.08800509495046,619.3011222,mp-1025315,Mn(AlTe2)2,https://materialsproject.org/materials/mp-1025315,27.39066112929743,16.566088088868188,7.024940514350821,-6.234324602253139
-4.0293320119999985,-40.29332012,2.4369186028966907,-1.834880103006,2.9999999,0.1251905731468417,1.5717,225,10,279.2717716154543,409.84436928,mp-1111918,K2NaMoCl6,https://materialsproject.org/materials/mp-1111918,11.529244744520867,-8.688469179722862,7.578025146249876,-3.1168669752502596
-3.47730466875,-55.6368747,4.820912606442544,-0.7441543395258621,0.0488621,0.0007687375562083334,1.1834,15,16,740.7496534083293,2150.5603038000004,mp-606510,CsTaI6,https://materialsproject.org/materials/mp-606510,10.480088382227168,-3.9229893156931164,5.901779779434367,-5.539211653416223
-6.083706607727272,-133.84154537,2.607425210431053,-1.25682778024,2.0,0.06651355212553453,1.6946,1,22,350.42677469891737,550.25,mp-690607,K2BaNi(NO2)6,https://materialsproject.org/materials/mp-690607,-2.6971274625973893,-24.276004143350214,7.3945783348447796,-0.7793132766710841
-4.2182953823333325,-126.54886147,3.861318752214224,-1.221738952402299,2.9999998,0.03602516993134746,0.6103000000000001,185,30,970.4934648051061,2256.7278,mp-29314,RbVBr3,https://materialsproject.org/materials/mp-29314,9.959536045328301,-6.045439003028888,5.797963692207204,-5.524410958343173
-5.832355391428571,-81.65297548,2.9869371829715794,-1.4102312908928576,6.0000008000000005,0.2593709150031281,0.016799999999999926,166,14,269.5922862352036,484.9360386,mp-1247454,Mg2AlV3S8,https://materialsproject.org/materials/mp-1247454,22.270788119229397,11.167162650152669,-6.20998969112514,-3.7392402410581695
-6.428717734827586,-372.86562862,7.4999484082349825,-0.4286052765517237,0.00957075,7.494664313833757e-05,0.0,174,58,1488.2339722153667,6721.719719999999,mp-685216,Nb12TlTe16,https://materialsproject.org/materials/mp-685216,56.555247263513614,31.81142654771676,-8.604250342815693,-0.5045126942092143
-4.689612732,-46.89612732,6.66121100256854,-0.5064272006250008,2.3e-06,1.3149383180099413e-07,0.16750000000000045,12,10,203.8449150790101,817.7188,mp-1078379,FeBiS2Br,https://materialsproject.org/materials/mp-1078379,16.315752889937073,12.71349552737132,-8.604250342815693,-0.5045126942092143
-6.1194452825,-97.91112452,5.472662646879653,-1.0262812062044278,1.0062976000000001,0.0355285245057839,0.0,2,16,330.0856867546577,1087.868195,mp-1217213,Ti5CoSe10,https://materialsproject.org/materials/mp-1217213,23.07925713317964,16.029545005170164,-8.604250342815693,-0.5045126942092143
-8.474539495750001,-338.98157983,4.164502119143637,-3.1661251948749998,18.000000600000003,0.4546467623224192,1.6829,1,40,461.39814529186,1157.150484,mp-863413,Sc7V9O24,https://materialsproject.org/materials/mp-863413,-27.48246102891705,-51.22145606746112,7.786969868094188,-0.9271073893608456
-4.89430141125,-39.15441129,9.033466197510439,-0.7805750106250002,7.75e-06,4.240157064533613e-07,0.0,129,8,213.0086235314306,1158.784078,mp-644143,LaSb2Au,https://materialsproject.org/materials/mp-644143,2.9108309478167738,33.66193009184842,-8.604250342815693,-0.5045126942092143
-2.55948511,-23.03536599,4.596385397669549,-0.7455337400766283,0.0,0.0,0.0,225,9,375.28157742173937,1038.78242,mp-628606,Rb2PdI6,https://materialsproject.org/materials/mp-628606,9.085796508966764,-5.8038401179069545,5.40418665620561,-5.547557870383349
-7.353071933333332,-66.1776474,8.09308108890497,-3.194462339305556,2.9999999,0.27898578667162144,1.4018000000000002,71,9,125.31890448392141,610.7751949999998,mp-18746,BaEr2CoO5,https://materialsproject.org/materials/mp-18746,-31.649520573780432,-28.421608048117665,7.461145518345831,-2.2399223327027498
-6.879862251756758,-509.10980663,6.828427151944253,-0.4923897591427364,0.43703915,0.002947857683914079,0.0,11,74,1727.7911990248188,7104.979799999999,mp-1217489,Tl3Mo15Se19,https://materialsproject.org/materials/mp-1217489,63.68856655561838,33.3825931035587,-8.604250342815693,-0.5045126942092143