energy_per_atom,energy,density,formation_energy_per_atom,total_magnetization_uB,total_magnetization_T,band_gap,sgr,num_sites,cell_volume,weight,mp_id,formula,URL,tsne_xrd_lin1_0,tsne_xrd_lin1_1,tsne_xrd_lin2_0,tsne_xrd_lin2_1
-5.644532755,-67.73439306,4.678086196412003,-1.8090684100312504,3.15e-06,1.2001165910118927e-07,2.0474999999999994,63,12,305.88948030966145,861.7547199999998,mp-12365,KThCuS3,https://materialsproject.org/materials/mp-12365,34.3545873919521,-32.051932241722156,10.221954148228543,-39.98677764856603
-3.0229388725714283,-105.80286054,2.7115923939289104,-0.2999463476365711,0.4274134,0.00348286492924223,0.0,225,35,1430.1741668011537,2335.4159699199995,mp-645662,Ba14Na14LiN6,https://materialsproject.org/materials/mp-645662,4.5027451313483935,-15.542748106571665,-3.3161381477964795,-21.73263433349318
-3.484321533333333,-62.71778760000001,8.262814985029365,-0.11478453055555544,0.001615,2.727794432798598e-05,0.0,11,18,689.9828807251453,3433.3434800000005,mp-1214175,Bi7I2,https://materialsproject.org/materials/mp-1214175,5.476330385524583,-24.856732785328283,14.788847187139508,-15.131840676075607
-2.8210402486363635,-62.06288547,4.171106246702314,-1.330368649984326,0.0,0.0,3.4087,167,22,1194.513526384415,3000.4972552,mp-1238804,Cs4PbI6,https://materialsproject.org/materials/mp-1238804,10.465529811889084,-15.636871846875836,23.371407285077048,-14.205379597333009
-5.427297049615384,-141.10972329,6.023620087747656,-1.84979427158654,1.9999995,0.06228759367507841,1.2614,155,26,374.2017044304715,1357.42,mp-541426,Ba6(NiO3)5,https://materialsproject.org/materials/mp-541426,-13.914591700249552,3.476712213352472,0.9849365516575248,24.161325590394913
-4.3074635765,-172.29854306,3.4095578796128523,1.2324122234286676,1.00000075,0.01156000832781694,0.0,62,40,1008.1371208933288,2069.9916,mp-1197559,Ag2C4Br3N,https://materialsproject.org/materials/mp-1197559,42.88780386499075,-44.26486346404873,12.631212589522512,-59.32446390290382
-6.1116097785,-122.23219557,6.10777218160458,-2.14464059175,1.1e-05,4.3193065472387173e-07,0.0,31,20,296.79466158777274,1091.6661,mvc-9352,PrZn(SbO3)2,https://materialsproject.org/materials/mvc-9352,-7.4433502081470975,32.888895942196875,0.2410787329685737,67.1423500475776
-4.173266961666666,-75.11880531,4.554346815159462,1.167582131455556,1.6040622,0.05366171410491384,0.0,63,18,348.36465979201347,955.4568972,mp-1106104,AlI3N5,https://materialsproject.org/materials/mp-1106104,4.9251649116684675,-11.379871070339998,-8.531389613420401,-18.044072835577087
-4.2099923025,-16.83996921,0.6171030829168225,2.9715945987499994,2.5252644,0.03162251005595424,0.0,71,4,930.6533489392557,345.85699999999997,mp-1097157,Zr2ZnTc,https://materialsproject.org/materials/mp-1097157,44.44940894578142,-23.297986066023718,18.42231440028518,-60.586352473862256
-3.918724661875,-62.69959459,4.384551541956034,-0.8051483935416663,0.000417575,7.495415271563533e-06,0.16819999999999968,59,16,649.2563682047305,1714.32164,mp-23264,TiI3,https://materialsproject.org/materials/mp-23264,2.847141789513913,-23.01533888038692,-1.7682928276602672,-30.78679011313795
-3.938110355652174,-181.15307636,6.470018422864692,-0.5214791918438442,5e-08,3.956435961786861e-10,0.5645000000000002,11,46,1472.7983575521241,5738.5176,mp-30145,Rb2Bi8Se13,https://materialsproject.org/materials/mp-30145,-0.4410934062704119,-11.70150728736742,0.24817026829182384,-0.1202083207002953
-7.093426999999998,-42.560562,3.6541607879059588,-3.0307713245833328,0.0,0.0,3.236,59,6,128.01975627218076,281.71862400000003,mp-546279,ScBrO,https://materialsproject.org/materials/mp-546279,-0.8243745252291014,-2.3645966936083416,6.934807681065787,3.8821522497303182
-4.946787351111111,-89.04217232,2.555050910590886,-1.2050216293541678,1.00000005,0.03237913850531875,0.19059999999999988,7,18,359.92512133541106,553.81233856,mp-1180273,Na(SeO3)2,https://materialsproject.org/materials/mp-1180273,34.45069723149268,-18.643333727483057,52.89163712490893,-31.90653608831913
-7.12139564,-170.91349536,6.6562534516058625,-2.8217118804166668,0.0,0.0,2.2255000000000003,14,24,329.30069323137394,1319.9984,mp-13195,NdSbO4,https://materialsproject.org/materials/mp-13195,20.935851273964328,56.6063050444518,37.5266824510193,-1.736457622188213
-6.90890452675,-276.35618107,5.910437242034928,-2.6264545211249994,0.0,0.0,3.1591,217,40,693.1149219913659,2467.0376,mp-3782,Nd3Sb5O12,https://materialsproject.org/materials/mp-3782,-13.326807088361086,-23.920304627140823,-11.123077074831029,32.630336652512156
-7.9974821253125,-255.91942801,2.5979220141861505,0.17897638163000096,0.0,0.0,3.3426,63,32,520.4263839590815,814.2098,mp-1246119,Bi(C2N3)3,https://materialsproject.org/materials/mp-1246119,38.45974665764609,-35.76384025895478,25.132822667442145,-55.8726092000346
-6.6915897825,-133.83179565,5.498337136469441,-2.237174366937501,0.0,0.0,1.2421000000000002,62,20,497.722852540679,1648.0479999999998,mp-1105549,BaHfS3,https://materialsproject.org/materials/mp-1105549,0.18654085646543733,-33.930057527282834,20.851484707092446,-20.25254661639955
-4.317651782083334,-103.62364277,4.446615824253166,0.030277107916666306,0.013152100000000002,0.00029014830430630227,0.0,73,24,528.2657972502686,1414.5979088,mp-1182888,AlAs2,https://materialsproject.org/materials/mp-1182888,-12.4812092260982,23.10529070460249,-10.335348089417133,23.39148599220233
-4.364334916000001,-21.82167458,3.7641527737189353,-1.1201568737500005,0.0051361,0.00022328339246492182,0.0,123,5,268.0738653133255,607.6767600000002,mp-1207943,Tm2I2O,https://materialsproject.org/materials/mp-1207943,6.9689277477184985,-23.253893164159198,16.876541951041133,-18.172051689046008
-6.74801016326923,-350.89652849,2.4968943427219346,-1.924810238293956,7.999999799999999,0.13593139005862384,0.04710000000000003,43,52,685.8792204615557,1031.33253968,mp-769570,Na3Fe2P(CO4)4,https://materialsproject.org/materials/mp-769570,32.252044089940036,-6.301768545848758,56.32188903533074,-5.502621192120769
-5.8986921851666665,-707.84306222,4.6193145175813175,-2.3975493724166665,0.00028740416666666663,1.4749312379756496e-06,3.4218,1,120,2270.9036787599525,6317.2368,mp-1179315,SrTeO3,https://materialsproject.org/materials/mp-1179315,12.354095419150585,-21.140470143769306,28.097485884875542,-7.706096902065071
-4.964039144375,-158.84925262,2.3880058865287594,-0.7188461933562502,7.9780818,0.1668983211505897,0.0,87,32,557.0881804981602,801.14337712,mp-1203070,Na4Cu3S8N5O12,https://materialsproject.org/materials/mp-1203070,21.213319384333552,-5.551150417669902,15.598664772196722,-22.981004598206386
-7.114133101666668,-256.10879166,3.22691280302248,-2.4694064672327776,9.000000333333334,0.28042265560717466,2.6841,6,36,374.0303600314452,726.850335,mp-778202,Li2MnFe(BO3)2,https://materialsproject.org/materials/mp-778202,13.151977844103081,3.305000061907311,50.290354841564806,-5.592916703391856
-4.579599487,-45.79599487,4.013537617317581,-3.0870558952329654,0.0,0.0,5.9026,225,10,156.24220104069911,377.63878848,mp-989400,Rb2NaGaF6,https://materialsproject.org/materials/mp-989400,-25.572055937119107,11.749543175265448,-29.50634327676064,-9.512353349753358
-6.25643883625,-250.25755345,6.15877468260116,-4.255384656383,6.15e-06,1.3031831653118016e-07,7.0008,12,40,549.9802350047518,2039.8221695999998,mp-1211506,KTm2F7,https://materialsproject.org/materials/mp-1211506,2.517697976196797,-18.46775771279224,27.642563462078584,-5.922243588492508
-9.189002543636363,-101.07902798,8.137069389115712,-4.073242494659092,1.9896525,0.1326922799464881,0.0,115,11,174.7467080921087,856.3039200000002,mp-759386,Ce2Th2O7,https://materialsproject.org/materials/mp-759386,-12.994914695169713,-24.49092859271067,-11.323159527272882,31.98794610197217
-5.8224339585000005,-232.89735834,3.3012846554902584,-1.9824337322093757,0.0,0.0,3.4942,14,40,702.3720952104737,1396.3719999999996,mp-558021,K2MoSeO6,https://materialsproject.org/materials/mp-558021,46.24534916200353,-8.790875262786827,47.91963657626622,-19.557755947282494
-5.30061705125,-84.80987282,7.462235490879147,-3.1008023784743752,0.0,0.0,4.4465,8,16,263.03079329010916,1182.0244352,mp-675342,NdPb4F11,https://materialsproject.org/materials/mp-675342,1.603656730761308,-20.637693914788183,10.790241379185169,-8.301841857850969
-5.197384885,-10.39476977,7.965157881826048,-1.312444975,0.7862791,0.1534039017554328,0.0,187,2,59.733471286270074,286.52535,mp-867290,TbTe,https://materialsproject.org/materials/mp-867290,-58.23906649348404,21.87579779027441,-54.587465265513686,29.703818358351192
-5.9894289909375,-383.32345542,7.845641319681339,-1.7123100421354174,2.0023563,0.022673012968307253,0.0,14,64,1029.2231584113622,4862.828,mp-769030,Bi5BO10,https://materialsproject.org/materials/mp-769030,11.269891415291571,23.503008277714013,33.71127276453517,0.2077565890466015
-3.160699615,-31.60699615,7.0809715151459685,-0.20852939457812525,0.0671674,0.002643998057942153,0.0,160,10,296.0566585338815,1262.4627999999998,mp-1226971,Cd2Bi2(TeSe)3,https://materialsproject.org/materials/mp-1226971,-25.176676842322358,-36.3252966397529,-32.81625687247261,-21.545630456648286
-1.693609291,-16.93609291,1.363920958233647,0.28982107500000004,0.0052009,0.00014883056529699866,0.0,227,10,407.2525381775729,334.5060000000001,mp-1211157,LiCa4,https://materialsproject.org/materials/mp-1211157,-8.799239600469903,-34.24788050260633,19.690262515676164,-21.079080160309875
-6.2509285158333325,-75.01114219,5.123141717438512,-1.493638867322917,3.0000001,0.12374555042926798,0.0,63,12,282.53295057319804,871.6786,mp-867312,KNpCuS3,https://materialsproject.org/materials/mp-867312,34.65532321725603,-32.759900955991625,9.542439268278818,-38.94443112452008
-5.89499178921875,-377.27947451,7.245069533636625,-1.5382512407737492,0.0,0.0,2.6162000000000005,14,64,1117.4692029742075,4875.6108,mp-31289,Bi5NO10,https://materialsproject.org/materials/mp-31289,2.136474283061759,-17.882545122114056,27.115777830350442,-6.3189440716776
-3.73356344,-44.80276128,5.409321238130574,-0.5408939349999997,0.000364025,1.2352799447660455e-05,0.0,194,12,343.43396788770195,1118.76,mp-1102026,BaGaGe,https://materialsproject.org/materials/mp-1102026,-19.203655276960813,12.465821159223953,-14.867298541346955,11.106239808437335
-3.638179626818182,-80.03995179,5.501629288657695,-2.2157562851093187,0.0,0.0,1.8553,137,22,359.59607228580427,1191.3988384000002,mp-1013726,Cd4SF6,https://materialsproject.org/materials/mp-1013726,-12.861997670325087,-26.801353406759,-6.312750302204143,-17.384579546416358
-3.7273258078571434,-52.18256131,4.760196189958271,-0.3663089403125,6e-07,2.0258809601162915e-08,1.6903,161,14,345.15546575522524,989.4424,mp-555843,Ag3AsS3,https://materialsproject.org/materials/mp-555843,8.868263756643017,-17.50306839423686,14.487378389995982,-12.09631655200427
-3.28950989,-16.44754945,4.7883583769943625,-0.7103846930000003,5e-07,3.470467718679166e-08,0.0,187,5,167.90337379935553,484.16900000000004,mp-1218373,Sr2ZnSb2,https://materialsproject.org/materials/mp-1218373,-14.194082971019116,35.743022395492346,-7.135967574756423,24.34249699315709
-5.04517772,-40.36142176,4.65921740474026,-0.4908423411979168,2.8703624,0.20597379834339813,0.0,122,8,162.40604193039138,455.6864,mp-5058,FeAgS2,https://materialsproject.org/materials/mp-5058,27.046466973155884,62.22682066881849,-13.091149809583664,7.555641806268673
-6.820396077000001,-68.20396077,6.361046651168014,-3.00852546275,0.0,0.0,3.681,225,10,165.32646346314218,633.31805,mp-10731,Ba2PrSbO6,https://materialsproject.org/materials/mp-10731,-21.57588860317016,7.601239688655437,-33.41891589049201,48.43636110573736
-6.682863946666667,-120.29155104,3.4976230834497612,-2.2659074204861107,3.0000001,0.19687598268410775,2.4437,174,18,177.5848684355939,374.050185,mp-756744,LiCoBO3,https://materialsproject.org/materials/mp-756744,13.183021175758347,2.900357840698822,66.54935124769803,37.48692426668532
-7.50992245125,-300.39689805,3.2015739407315014,-2.9662060215000015,3.999967075,0.09834719284573143,1.8922,14,40,473.9929430754404,913.874,mp-1210737,MgCr(SiO3)2,https://materialsproject.org/materials/mp-1210737,7.567483325670625,11.828198822790887,57.489643043036956,41.49987774385816
-7.4155571160000004,-333.70007022,5.340116281246676,-2.3741391872571422,4.999995200000001,0.0873334911941079,1.2862,8,45,667.2156022456005,2145.694148,mp-1223454,KP4(WO4)8,https://materialsproject.org/materials/mp-1223454,22.316966338565464,-14.70472675405014,45.5860249018981,-4.7095514684393605
-6.4788086675,-155.49140802,4.8134410292531316,-1.87854052873512,0.000160925,3.3650077605574495e-06,0.3415999999999997,62,24,557.3331495715431,1615.553856,mp-1191492,LaPS,https://materialsproject.org/materials/mp-1191492,3.4149432782287152,-6.089364844310768,10.76912756321862,-11.05042804851754
-4.467822075,-26.80693245,2.1287867042873443,-0.8332047723333336,0.99999995,0.135849501341631,0.0,136,6,85.78658055246811,109.97713856,mp-1238787,NaO2,https://materialsproject.org/materials/mp-1238787,-20.161985022825093,13.491314593378586,-9.641013718760158,-3.4038235187226813
-7.113917514166666,-170.73402034,5.158405324936664,-2.626619516350574,0.0,0.0,3.5794999999999995,13,24,400.27168665573373,1243.4297238,mp-1213346,CsTm(MoO4)2,https://materialsproject.org/materials/mp-1213346,5.977738055690344,-18.671693362464715,31.63356155215834,-8.09560014864751
-6.566902193461538,-341.47891406,3.9052540418027872,-2.4027680543269225,0.0,0.0,3.938,88,52,776.9580641806842,1827.2491928,mp-19469,Na5Tb(MoO4)4,https://materialsproject.org/materials/mp-19469,25.861012172980036,57.01661511777685,39.209173672453325,-7.144892274913072
-5.51962323875,-132.47095773,4.490727872786963,-3.3112439909658336,7.99999855,0.2272373072163654,3.5076,11,24,410.28694814321017,1109.5716447999998,mp-1214722,Ba2Fe2ClF7,https://materialsproject.org/materials/mp-1214722,11.613465955515696,-16.889336330247115,16.736473147444702,-11.291545233252885
-4.485945581388889,-161.49404093,4.7905519186569885,-1.7640990897030653,0.0,0.0,2.3435,14,36,990.4260627008592,2857.3176304000003,mp-17213,Cs4SnO4,https://materialsproject.org/materials/mp-17213,16.084116136190033,-16.463253691589696,27.61336769583164,-7.532420716737093
-9.024470582000001,-45.12235291,8.998777495414181,-2.5427726886545714,3e-07,3.608506521416475e-08,1.3509000000000002,156,5,96.88826696080099,525.0559820000002,mp-1217271,Th2PNO,https://materialsproject.org/materials/mp-1217271,-13.870963434597902,22.622312060132433,-18.414791065446405,37.97790634640044
-6.71989535576923,-349.4345585,3.4263963366149337,-2.320287179791209,5.0,0.08821943431696834,1.9463,14,52,660.515727786645,1362.9240960000002,mp-561402,KFe2(PO4)2,https://materialsproject.org/materials/mp-561402,7.256333363313327,30.08398938715386,31.31248661088993,-3.508519883800513
-7.005317967000001,-70.05317967,8.237647044543357,-2.1451774622500013,4.999999900000001,0.4385495996986313,1.8497000000000003,225,10,132.8705412966629,659.14778,mp-1220306,NbFe(PbO3)2,https://materialsproject.org/materials/mp-1220306,-31.34217338433493,34.208533891527345,-25.81504417347391,61.52482448794702
-3.5819224322222216,-128.94920756,5.8106677088416205,-2.05097538246,5.5e-07,9.502488104733174e-09,0.7400000000000001,14,36,674.5323492396852,2360.3680768000004,mp-540925,Hg2AsF6,https://materialsproject.org/materials/mp-540925,24.132495453324385,-14.635494897550744,12.136626851052116,-20.668107287122954
-7.067169773888889,-127.20905593,7.338139590322664,-1.8037602602314815,12.10623355,0.5198610311243055,0.0,46,18,271.39335610193024,1199.3228,mp-1099927,Eu2Ag2O5,https://materialsproject.org/materials/mp-1099927,-22.18966497734744,31.053860309788323,-22.305459713403735,57.218244777259045
-4.326177883076923,-112.48062496,5.645901031746032,-0.8675729899038465,5e-08,1.3586878282355915e-09,2.1722,148,26,428.8720532550071,1458.1826199999998,mp-972032,Tl(IO3)3,https://materialsproject.org/materials/mp-972032,21.627965698426348,-16.045895265789795,48.27673882531786,-15.855511847076102
-5.004185684772729,-220.18417013,1.7096690244051005,-1.173409490743485,6.330000000000001e-05,1.698625708847635e-06,4.6065,36,44,434.29361528002136,447.14295999999996,mp-1182037,Ca3B4(H4O)3,https://materialsproject.org/materials/mp-1182037,34.57773209930411,-29.19368967452895,5.615132044606376,-49.842218690484955
-7.61672640703125,-487.47049005,2.755283548099923,-2.9776790714114583,0.0,0.0,5.1459,14,64,782.9172823402756,1299.0716,mp-556250,KSrB5O9,https://materialsproject.org/materials/mp-556250,25.33443336678919,-7.944514220993249,21.18325906605264,-45.546262645120706
-3.92032418625,-31.36259349,5.4569777726003,-0.6241558639062497,0.0,0.0,0.012599999999999945,121,8,174.86457159589625,574.6519999999999,mp-1025467,Cu2SnHgS4,https://materialsproject.org/materials/mp-1025467,-13.457737729510733,-25.212975879915515,-5.89759630132341,-17.40303681310812
-7.0031868344444455,-252.11472604,2.8780379671635097,-2.6713695588095234,1.99999995,0.04871172276067731,4.3116,15,36,478.49116478450037,829.318496,mvc-2216,CaNi(PO3)4,https://materialsproject.org/materials/mvc-2216,61.09950466028278,-22.261597767957216,62.683700071513385,-26.9121247911742
-8.459685202222222,-304.54866728,4.213619937516417,-2.6958457298065484,0.6711416,0.01528949251692329,0.0,87,36,511.5622816978412,1298.089944,mp-1210146,Nb9P2O25,https://materialsproject.org/materials/mp-1210146,20.84141505604752,-10.162125014662434,44.316345667474096,-3.7614766664136
-5.1513081965,-103.02616393,3.025844495771433,-0.7441604620327382,2.9999995,0.07690491945745337,0.9173999999999998,13,20,454.61576108910765,828.4036480000001,mp-557592,CrAg(PS3)2,https://materialsproject.org/materials/mp-557592,30.99137311182136,-45.545021839324455,1.0274653022458935,-61.592834688586606
-5.422208363333334,-65.06650036,5.137197650090501,-2.1641045149800013,0.0,0.0,2.9532000000000003,14,12,202.68050386081697,627.0312127999999,mp-753661,SbOF,https://materialsproject.org/materials/mp-753661,8.63959059063029,-18.06838354396327,18.188692112082904,-11.515861371043961
-6.453473333125,-309.76671999,3.0996184590551183,-2.426828949419644,0.999999925,0.021635195258631185,0.0,14,48,538.6622935078685,1005.485296,mp-25943,Li2CuP2O7,https://materialsproject.org/materials/mp-25943,33.87085183233622,-21.72382046748462,35.11715989700769,-56.43358835282429
-6.4140471125,-25.65618845,6.280759457326144,-1.6877451585416663,3.0000002,0.6892397630089611,1.6688000000000005,166,4,50.72573946671368,191.8631,mp-19378,CrAgO2,https://materialsproject.org/materials/mp-19378,-33.48017091101272,26.61749029731936,-32.84798948644855,37.985894615454775
-4.528830465555554,-81.51894838,5.36243875382169,-1.3000176022222223,1.65e-06,2.8982809225630546e-08,0.4131999999999998,36,18,663.4693940475038,2142.5657,mp-1189739,Ba2YGaTe5,https://materialsproject.org/materials/mp-1189739,9.597127146514028,-16.71449531581739,18.935237206884988,-14.08307882431244
-7.766475231499999,-155.32950463,4.410095278007806,-0.5864858749280003,7.5075e-05,2.5518955298485875e-06,1.5638,15,20,342.85451836338746,910.5604,mp-989627,SrTcN3,https://materialsproject.org/materials/mp-989627,21.108759083164216,-12.039947406181321,36.58313284357745,-2.2341484538805214
-4.485896823333333,-26.91538094,1.9204539042399795,-0.9273019218333332,1.0005201,0.09483664029067893,0.1122,15,6,122.94959011526608,142.1942,mp-21325,KO2,https://materialsproject.org/materials/mp-21325,10.099467459072653,6.095917995824284,24.731917067896877,-25.148371671706492
-3.694055533,-36.94055533,5.525669126939546,-0.4735952434827588,0.0,0.0,0.7604000000000002,63,10,423.3725984116608,1408.8298075999999,mp-1080614,Cs2Sb2Pt,https://materialsproject.org/materials/mp-1080614,8.260976211867368,1.932489440098496,-7.587660218501033,-11.743721481764402
-8.281644873636365,-364.39237444,6.460242023383649,-3.658426307613638,0.0,0.0,2.0717,64,44,733.0184375315848,2851.77066,mp-559427,BaSr4U3O14,https://materialsproject.org/materials/mp-559427,-10.18051599943657,-28.975036343495496,0.6380901648153348,-29.99008444708309