energy_per_atom,energy,density,formation_energy_per_atom,total_magnetization_uB,total_magnetization_T,band_gap,sgr,num_sites,cell_volume,weight,mp_id,formula,URL,tsne_cry_lin1_0,tsne_cry_lin1_1,tsne_cry_lin2_0,tsne_cry_lin2_1
-6.626195751025642,-258.42163429,4.2257018060253575,-1.2846299619871793,6.999999799999999,0.11728616680289382,0.1921999999999997,1,39,695.550492448118,1770.021,mp-1216477,V8Ga3(MoS6)4,https://materialsproject.org/materials/mp-1216477,19.73810007521975,12.682623065546393,-8.604250342815693,-0.5045126942092143
-4.042556997857143,-56.59579797,4.723316255325144,-0.795838307767857,1.5e-07,5.712624617970289e-09,1.4471000000000005,227,14,306.0081543577884,870.4241543999998,mp-1104860,Al2ZnSe4,https://materialsproject.org/materials/mp-1104860,51.07301387984373,6.998679536055563,7.6730808759293225,-4.69349724247679
-7.2292908975,-28.91716359,10.927683805901072,-0.31428160875,0.0,0.0,0.0,225,4,88.40422865439794,581.771,mp-976252,Nd2IrRu,https://materialsproject.org/materials/mp-976252,14.449436959154582,50.93886164100365,-8.604250342815693,-0.5045126942092143
-6.017820331666666,-216.64153194,4.330219810521396,-2.226554933313333,4.99999975,0.13939156338995753,1.2594,6,36,418.0333409868359,1090.1136384000001,mp-759080,FeOF,https://materialsproject.org/materials/mp-759080,-41.44025225418355,-76.66073572792438,5.750575593870387,0.04110470501403582
-6.258681898571429,-87.62154658,4.390234148054252,-1.2771713932738098,0.0,0.0,0.8113000000000001,3,14,286.96540579131215,758.6966,mp-1246366,ZrCrAgS4,https://materialsproject.org/materials/mp-1246366,17.79916063828536,4.36557676382458,5.268535604566205,-5.987610847335065
-5.949950091428571,-41.64965064,6.397554306514387,-0.6009328676190476,1.0745252,0.07342494824804457,0.0,12,7,170.5494737053649,657.0754999999998,mp-1025219,Ti2VTe4,https://materialsproject.org/materials/mp-1025219,54.32352846232623,32.60450180019005,-8.604250342815693,-0.5045126942092143
-5.540714586666668,-199.46572512,6.0356384761480655,-0.20813305333333354,0.0,0.0,1.9586,64,36,1444.8840570353393,5251.787280000001,mp-1207889,WI2,https://materialsproject.org/materials/mp-1207889,42.433190265765745,-9.050932345131717,8.532691735096346,-3.3621655764193954
-6.353515965333332,-95.30273948,7.691399732926848,-0.3650123983333335,7.56e-05,2.404844000251317e-06,0.0,147,15,366.3635964384548,1696.94828,mp-1220468,Nb6SnTe8,https://materialsproject.org/materials/mp-1220468,56.53268873560084,31.810034421831798,-8.604250342815693,-0.5045126942092143
-5.205477832857143,-72.87668966,6.860082657502068,-1.4812472705357145,1.9e-06,4.765138327587886e-08,1.0812999999999997,82,14,464.6816429161682,1919.71065,mp-35907,La5TlTe8,https://materialsproject.org/materials/mp-35907,56.49880355318128,22.513866791317398,6.843390547007465,-3.2317909456574005
-6.155120507,-123.10241014,5.189887258619129,-0.921335738584822,7.00159385,0.15186663661120958,0.3782999999999999,14,20,537.2939709460369,1679.271048,mp-20742,EuPSe3,https://materialsproject.org/materials/mp-20742,-15.576299157029883,11.701319357652748,4.991225154888603,-4.582238856462013
-1.91450141,-5.74350423,5.088507425480853,-0.4775196416666665,0.0,0.0,1.8236,166,3,104.1707925950971,319.21794,mp-570964,ZnI2,https://materialsproject.org/materials/mp-570964,16.558439871321994,-11.685616027578813,7.248159104068001,-2.475487203138076
-5.863721524,-703.64658288,4.693793141596462,-2.0126990233263897,0.0002924125,1.114086648532057e-06,2.2186999999999992,92,120,3058.8233148618096,8646.279040000001,mp-1196663,La4InSbS9,https://materialsproject.org/materials/mp-1196663,46.61081433673945,0.7523619143391861,7.374437521877378,-2.195829813794417
-6.397888243586958,-588.60571841,5.2603646113538325,-1.6343934722010878,55.99999515,0.6565287908020945,0.04959999999999986,194,92,994.0578081028257,3149.0416,mp-566548,Ba(Fe2O3)9,https://materialsproject.org/materials/mp-566548,-27.58811908718132,-33.365629575097486,7.184178912211316,-3.8173860213444
-5.2846225125,-84.5539602,5.822347739213675,-0.7335124677083336,1.0785368,0.028951298335716087,0.0,2,16,434.1545439875129,1522.276,mp-1222772,Li(TiTe2)5,https://materialsproject.org/materials/mp-1222772,54.9925840411884,33.185659238256804,-8.604250342815693,-0.5045126942092143
-5.8192915066666675,-453.90473752,2.9466676980003266,-3.4583691219520514,3.9999998666666663,0.03916247522107237,2.1571,20,78,1190.3297039631552,2112.2695728,mp-1212044,KCaV2F9,https://materialsproject.org/materials/mp-1212044,-22.856805415667548,-50.997627851919326,7.359358684882864,0.7872005635270722
-3.2438907350000004,-19.46334441,6.062236989800656,0.11075087202777743,0.00014890000000000001,1.0340584512342744e-05,0.0,97,6,167.8135546944042,612.6477692799998,mp-1220736,NaInSn4,https://materialsproject.org/materials/mp-1220736,33.611245672362145,13.94717270582342,-8.604250342815693,-0.5045126942092143
-8.1365050476,-203.41262619,6.415762858234992,-3.199739829516667,11.999885800000001,0.4545149181343927,1.804499999999999,65,25,307.68505234226143,1188.7912800000001,mp-1227678,BaLa4TiCr4O15,https://materialsproject.org/materials/mp-1227678,-3.1397038925722605,-35.63565777553269,5.869660889998594,-3.43304547837242
-5.107139526071427,-142.99990673,6.6139455751421306,-1.5908437766964283,5.9999999999999995e-05,1.0089773137519266e-06,1.5275000000000003,62,28,693.0224067708839,2760.316,mp-1232254,Lu2MgSe4,https://materialsproject.org/materials/mp-1232254,52.0828285198857,6.591410644306502,7.665603037905917,-6.111747548178236
-4.109111592045455,-180.80091005,4.126549328521493,-0.49145235932528397,0.0003009,2.29958135194103e-06,1.474,2,44,1524.9332610491342,3789.56,mp-645663,Te2Mo3Se7Br10,https://materialsproject.org/materials/mp-645663,67.41154227674967,17.147118186527464,9.165994944034694,-6.2497008943234365
-3.767598022,-18.83799011,3.0021301729634207,-0.4866084524375005,1.426599,0.1178822849152788,0.0,221,5,141.03626479939413,254.983,mp-866820,CaSnS3,https://materialsproject.org/materials/mp-866820,26.02579810898988,-1.3918770782084668,-1.7575526574612028,-2.41239890571823
-5.717130884285713,-40.01991619,7.188151860748796,-0.5346144583035704,1.0,0.10546301410322148,0.0,166,7,110.50380905246391,478.34958499999993,mp-19807,Co3(SnS)2,https://materialsproject.org/materials/mp-19807,35.862255911918105,32.713100247323034,-8.604250342815693,-0.5045126942092143
-6.1340830475,-49.07266438,9.628943956362194,-0.4100427847916661,8.410162,0.7389882450808367,0.0,166,8,132.6307601618193,769.0840900000002,mp-1221820,Mn2InSnPd4,https://materialsproject.org/materials/mp-1221820,44.614827932117,37.849095712272714,-8.604250342815693,-0.5045126942092143
-4.009913693333334,-48.11896432,3.778694394994689,-1.2789804109195402,10.0000001,0.2865122864919312,1.1275,139,12,406.7561999449732,925.60749,mp-28002,Rb3Mn2Br7,https://materialsproject.org/materials/mp-28002,17.452730946463348,-8.07177005803646,7.272909741718001,-2.191930445663424
-4.92530693,-137.90859404,7.592094935963494,-0.6550697185714286,3.875e-05,5.570390282256367e-07,0.0,11,28,810.7062289247048,3706.602800000001,mp-641945,Tb2Sb5,https://materialsproject.org/materials/mp-641945,3.614639310569344,33.574718116729656,-8.604250342815693,-0.5045126942092143
-5.779278663333333,-34.67567198,9.015447606208044,-0.7423564458333326,1e-05,6.941598057111737e-07,0.0,12,6,167.88734635276074,911.49894,mp-1222889,LaSbPt,https://materialsproject.org/materials/mp-1222889,5.167292618017523,36.10372922499259,-8.604250342815693,-0.5045126942092143
-4.6358257323076915,-482.12587616,4.052367304535879,-0.7991678507443916,0.0059406375,2.477766840941982e-05,0.9515000000000002,4,104,2794.1520998390906,6818.82830848,mp-680191,Na2Ti2Se9,https://materialsproject.org/materials/mp-680191,65.63867904160479,14.34764253552202,6.213960687461535,-6.260430814449598
-6.337503334,-95.06255001,8.074939557977041,-0.35640993433333296,0.17142290000000002,0.005435741058568177,0.0,147,15,367.52552385677,1787.2186800000002,mp-1220488,Nb6BiTe8,https://materialsproject.org/materials/mp-1220488,56.550413648323314,31.78810558578459,-8.604250342815693,-0.5045126942092143
-8.646542717777779,-1089.46438244,2.489255303877389,0.2312699148412685,0.0,0.0,0.14360000000000014,223,126,1511.1063185622993,2265.246,mp-28979,BaC20,https://materialsproject.org/materials/mp-28979,59.717526255323065,37.377638219833656,-4.637690149842858,-1.2294019636168398
-3.153969513125,-50.46351221,8.561995452243528,-0.329405263125,0.0,0.0,0.10989999999999966,140,16,545.9624083504242,2815.0664,mp-20740,Tl4Te3Pb,https://materialsproject.org/materials/mp-20740,58.49904353314898,23.79920848672345,5.333157204912912,-5.9945354977509435
-5.021810985357143,-140.61070759,3.890919472075757,-1.6202648349445816,12.99999995,0.2569196659289921,1.7147,122,28,589.6895471693686,1381.7408,mp-1193332,Rb5(FeO2)3,https://materialsproject.org/materials/mp-1193332,-32.84316103530218,-30.629296550336477,7.031145172292107,-1.3567434576136839
-5.46068063375,-43.68544507,7.927362661682682,-0.5278369837499994,0.5220020000000001,0.033287739435697496,0.0,63,8,182.75332667624372,872.4588,mp-1025558,CeNiSn2,https://materialsproject.org/materials/mp-1025558,0.6865185141117764,52.2355465834385,-8.604250342815693,-0.5045126942092143
-4.333150214255318,-203.65806007,4.230657502628191,-0.7282969342486709,0.0002841,2.85318445503943e-06,0.5070000000000006,1,47,1160.4296371502744,2956.498,mp-767137,Li3Sb17S27,https://materialsproject.org/materials/mp-767137,70.18625613061013,15.263216475920537,5.082007172123285,-6.66507853359346
-4.418293771935483,-136.96710693,4.422318170956109,0.2687150776728112,0.0038033,4.993414302729185e-05,0.0,1,31,887.6472461988733,2363.96643,mp-673683,Sn16P15,https://materialsproject.org/materials/mp-673683,38.130111044826975,28.685585639588194,-8.604250342815693,-0.5045126942092143
-6.420614557894738,-121.99167659999998,7.136233804017104,-0.6998802354276317,1e-07,2.6421117727813563e-09,0.0,12,19,441.0890141975877,1895.5979100000002,mp-505133,Ta4Co2PdSe12,https://materialsproject.org/materials/mp-505133,48.85308240231514,25.100643078519955,-8.604250342815693,-0.5045126942092143
-6.0883883742857146,-85.23743724,5.90753404024516,-1.104918286577382,0.5840276,0.02251638136148604,0.0,12,14,302.2819417601737,1075.3982999999996,mp-8244,Ti5TlSe8,https://materialsproject.org/materials/mp-8244,23.018168933583933,15.697285857969902,-8.604250342815693,-0.5045126942092143
-5.997478500000001,-167.929398,2.7877277118518737,-0.9918992837499994,2.000025475,0.040898313201741684,0.003699999999999815,62,28,569.9116811357113,956.7728,mp-1238856,Li(CrS2)2,https://materialsproject.org/materials/mp-1238856,18.510554577863754,4.032546585828582,-6.416149127809392,-3.2888728318091207
-3.3686138660000005,-50.52920799,5.017046859071272,-0.4280155575416672,0.0008635,1.835440728819363e-05,0.15419999999999945,12,15,548.2762136142878,1656.5268199999998,mp-1208893,Sn7(SI3)2,https://materialsproject.org/materials/mp-1208893,72.18876141852127,15.880741481605172,8.363034563999081,-6.4838982548163555
-7.011373116666667,-21.03411935,7.544315672835371,-0.5115819988888894,0.0,0.0,0.9640000000000004,216,3,50.91284923343129,231.312,mp-961673,TiFeTe,https://materialsproject.org/materials/mp-961673,32.24490052902628,48.834796699946644,-8.604250342815693,-0.5045126942092143
-4.4145289530000005,-88.29057906,2.662877803824959,-0.2398740774319997,4.999999875,0.13325956241880155,0.3774000000000002,62,20,437.26935124483805,701.21498,mp-1190482,MnNCl3,https://materialsproject.org/materials/mp-1190482,6.860089356322051,-8.606756960735607,5.5795828163483545,-3.5549847215425334
-3.658219307777778,-32.92397377,4.101747368089732,-1.1663068802681995,2.0040712,0.06858420122207147,0.0,225,9,340.53871237776025,841.1749037999999,mp-1207229,Cs2MoBr6,https://materialsproject.org/materials/mp-1207229,10.370682130806523,-7.408642000774139,4.203529272497547,-5.1603122782075115
-5.701008197058822,-96.91713935,8.057443502784434,-0.3270478033823532,3.63e-05,1.0214415793385223e-06,0.0,204,17,414.1622583230614,2009.642,mp-1189354,Nd(Sb3Ru)4,https://materialsproject.org/materials/mp-1189354,34.482905029449995,28.75660580716744,-8.604250342815693,-0.5045126942092143
-6.023515714166668,-72.28218857,4.351182773988703,-2.2322503158133333,4.99999945,0.4201990843030314,1.9274,26,12,138.6731185997553,363.3712128,mp-752975,FeOF,https://materialsproject.org/materials/mp-752975,-41.52021442402468,-76.63682067444772,5.729974095511516,0.19857617654360907
-5.53991862,-22.15967448,5.8735847763893965,-0.3611698817968749,3.0,0.4522261675804816,0.0,160,4,77.31130311351774,273.4621,mp-568587,CrCuSe2,https://materialsproject.org/materials/mp-568587,25.58670615408701,6.984545392646276,-8.604250342815693,-0.5045126942092143
-4.423223890625,-70.77158225,5.4809175966829615,-0.18705854929687504,2.73396675,0.09152734872633116,0.0,31,16,348.1126246297386,1149.0103900000001,mp-1213845,CoCu2GeSe4,https://materialsproject.org/materials/mp-1213845,31.222969880363344,1.4740445542927672,-8.604250342815693,-0.5045126942092143
-6.870099045,-219.84316944,3.0636964557886786,-2.5204317952083333,1.999999675,0.07699432843668809,2.0372000000000003,62,32,302.7252296474597,558.5284,mp-770346,Li2VBO4,https://materialsproject.org/materials/mp-770346,-21.710769109815274,-54.51250285296097,8.624929803010136,1.2269251205361476
-3.9234771228571432,-27.46433986,5.508531950693499,-0.1854800327678571,1.1e-06,7.571768333388095e-08,0.0,121,7,169.30617374131162,561.6419999999998,mvc-13133,Cu2SnSe4,https://materialsproject.org/materials/mvc-13133,31.852262532601447,1.504602840055206,-8.604250342815693,-0.5045126942092143
-6.352365305454545,-209.62805508,2.9944781136218825,-1.7379759470126277,0.022899700000000002,0.0004047805046253431,0.0,8,33,659.3069182499268,1188.93930784,mp-675056,Na3(TiS2)10,https://materialsproject.org/materials/mp-675056,19.910099530213817,14.386802383056054,-8.604250342815693,-0.5045126942092143
-6.552980905,-262.1192362,6.062924079840807,-2.1290262274375005,3.0003792999999996,0.0436097038241833,0.2809000000000008,58,40,801.8081215460343,2927.5444,mp-1212952,Dy3CrS6,https://materialsproject.org/materials/mp-1212952,25.74840294118748,5.633434504801737,-3.5062387886925985,-1.7034906264801062
-5.870992021578948,-223.09769682,2.3043421744765173,-1.1882671638631577,2.0000001,0.03983202563988352,1.9317,4,38,585.160567058573,812.0316,mp-1223825,K3Ni(NO2)5,https://materialsproject.org/materials/mp-1223825,-2.7063496454687757,-24.248019114832587,8.372613896331718,-0.7491662105465888
-4.303473934545455,-189.35285312,4.288501059088204,-0.5829242479474434,0.4582122,0.004697778462127393,0.0,1,44,1136.7148752176015,2935.675,mp-767208,Sb17S27,https://materialsproject.org/materials/mp-767208,70.20947129279874,15.31917311241304,4.1807621900740815,-6.073953761806809
-8.843459648125,-2122.43031555,1.6454968917238917,0.38201393312499854,5.3669583333333335e-05,2.1501762762458528e-07,1.3501,205,240,2908.9187123532383,2882.5679999999998,mp-1196583,C,https://materialsproject.org/materials/mp-1196583,59.7902984243201,37.030976471820715,5.247013525549488,-5.872870580446937
-4.603560846666666,-55.24273016,9.252518579655478,-0.44537664596354176,0.0,0.0,0.5086000000000004,164,12,298.4320692451633,1662.8626,mp-541487,TlPt2Se3,https://materialsproject.org/materials/mp-541487,64.6558514796714,15.645008395099287,5.641217471986872,-6.110179579549151
-6.009509408571428,-84.13313172,5.584227069149003,-0.7492179269196433,1e-07,3.803614165862105e-09,0.0,6,14,306.39450439417135,1030.3741400000001,mp-1220747,Nb3Fe(Se4S)2,https://materialsproject.org/materials/mp-1220747,49.147023673567155,24.90159453434344,-8.604250342815693,-0.5045126942092143
-4.1823362225,-33.45868978,5.8340206597860185,-0.43288779429687496,0.0,0.0,0.5616000000000003,62,8,225.05148416724262,790.68,mp-691,SnSe,https://materialsproject.org/materials/mp-691,69.89413024726936,17.506508951472565,7.592380144974723,-6.243029955033419
-5.871344209999998,-82.19881894,5.230006760573629,-0.5634723399107132,11.9924265,0.4732221684400649,0.13119999999999976,216,14,295.338055847784,930.1919386,mp-1229004,AlCr4CuSe8,https://materialsproject.org/materials/mp-1229004,13.542263904159027,2.083191896580008,-8.604250342815693,-0.5045126942092143
-3.82542536,-30.60340288,7.435518813265644,-0.2883225456250007,0.00011009999999999999,4.769464856005457e-06,1.0620999999999992,123,8,269.02651978726607,1204.64,mp-1224448,GeTe4Pb3,https://materialsproject.org/materials/mp-1224448,66.79241511898535,22.900645224668192,7.812586905083323,-6.927885208595297
-5.853338118,-117.06676236,2.7814042664375545,-3.1887146913330002,3.99999985,0.16145188013116296,1.771,74,20,288.73158556133365,483.6256448,mp-756996,LiV2F7,https://materialsproject.org/materials/mp-756996,-21.904197217749104,-51.03562228697156,8.460194483271717,-1.0591894400204167
-4.316950423636364,-94.97290932,3.3890222267495633,-0.8384362713695143,4.99999985,0.08829347163001687,0.7799,165,22,659.9618413336775,1346.92729,mp-1209516,Rb2Mn(TeS3)2,https://materialsproject.org/materials/mp-1209516,25.746280314327212,0.007185619676732808,-6.497872536773574,-3.2168823318469624
-4.911386268292683,-201.366837,8.408687011604409,-0.3261231101219516,4e-07,5.461659725036251e-09,0.0,204,41,853.5181874577396,4322.0708,mp-569213,Dy4Ni12Sn25,https://materialsproject.org/materials/mp-569213,2.305110125905219,54.756028360796954,-8.604250342815693,-0.5045126942092143
-6.464561988888889,-58.181057900000006,3.7148666716656917,-1.5170003192708337,3e-06,1.8198919796753824e-07,0.0,156,9,192.111370939254,429.781,mp-1217140,Ti3(SeS2)2,https://materialsproject.org/materials/mp-1217140,22.747469570881314,15.74452825672086,-8.604250342815693,-0.5045126942092143
-4.967781445,-69.54894023,7.115789305771751,-1.2357363714285714,0.0,0.0,1.2920000000000007,122,14,464.57775959509763,1990.82188,mp-675458,La2Te4Pb,https://materialsproject.org/materials/mp-675458,56.50274119537842,22.632784032373284,-1.5634104801689168,-2.3479769130352883
-4.051738014,-40.51738014,3.0668802624075115,-1.9230816789973797,3.0000001,0.10524083591248004,1.6671000000000002,225,10,332.21130543053334,613.5672038,mp-1113042,Cs2KMoCl6,https://materialsproject.org/materials/mp-1113042,11.465687794920981,-8.671116920614027,7.780056913452237,-2.6875175634730843
-8.12484870875,-64.99878967,3.7448020084008062,-3.1282187871725,0.0,0.0,1.6869999999999998,38,8,127.62090885629136,287.80716639999997,mp-752415,NbO2F,https://materialsproject.org/materials/mp-752415,-1.1716348762857232,-45.900222050776456,6.789565387442317,-3.152997095912647
-6.132112648125,-98.11380237,3.4407512491965413,-3.2173987127675003,1.99999995,0.11186196192596876,1.6508,62,16,208.3651007108357,431.74683839999994,mp-759097,VF3,https://materialsproject.org/materials/mp-759097,-21.92758667668791,-50.94283359605186,8.218292761807831,-0.9089451677142844
-4.085023686,-40.85023686,3.0696518804064388,-1.8523750350249657,3.0000001,0.13283881778517045,1.5379999999999998,225,10,263.19261241565033,486.5346,mp-1114423,Rb2LiMoCl6,https://materialsproject.org/materials/mp-1114423,11.495380367429945,-8.628762059627759,7.620393164794918,-3.310257558050692
-6.010675501666667,-72.12810602,4.309906668588771,-2.2194101033133333,4.999999525,0.4162130061656007,1.2657000000000005,6,12,140.0011952147728,363.3712128,mp-759283,FeOF,https://materialsproject.org/materials/mp-759283,-41.417838980442866,-76.66904565007357,5.393894890303779,-0.35578606203483293
-4.665357361666667,-55.98428834,6.510115747904698,-0.4115311477777777,0.0,0.0,0.0,12,12,284.5358301684434,1115.518,mp-541754,TiCu2Te3,https://materialsproject.org/materials/mp-541754,53.97960432484769,21.55849758617448,-8.604250342815693,-0.5045126942092143
-8.836713693333332,-530.2028216,1.7356403154622129,0.38875988791666605,0.0,0.0,1.0093,202,60,689.4597712458659,720.6419999999999,mp-667273,C,https://materialsproject.org/materials/mp-667273,59.853046619893895,37.137684156865504,4.484301685720271,-5.7920428348557165