energy_per_atom,energy,density,formation_energy_per_atom,total_magnetization_uB,total_magnetization_T,band_gap,sgr,num_sites,cell_volume,weight,mp_id,formula,URL,tsne_cry_lin1_0,tsne_cry_lin1_1,tsne_cry_lin2_0,tsne_cry_lin2_1
-6.940899218999999,-69.40899219,7.024455278526807,-0.6521031261562505,4.11e-05,2.3797002334537794e-06,0.0,11,10,201.278318764138,851.45276,mp-1220396,NbMoSe3,https://materialsproject.org/materials/mp-1220396,48.84626442683003,24.11113211635779,-8.604250342815693,-0.5045126942092143
-5.17062627609375,-330.92008167,4.8345895427822985,-0.5623469206640621,2.5e-08,1.567198732395537e-10,0.0849000000000002,114,64,1859.0598198650127,5412.5744399999985,mp-567252,Nb3Se12I,https://materialsproject.org/materials/mp-567252,51.506829207285506,24.675115351697727,-5.702438455588012,-2.6689835949794563
-6.5546121300000015,-45.88228491,5.460395331417646,-0.4988043263392856,10.944423599999999,0.8834090108082993,0.0,12,7,144.38048511190564,474.77024500000005,mp-1025180,Mn(CrSe2)2,https://materialsproject.org/materials/mp-1025180,23.882982478795967,17.086116817334652,-8.604250342815693,-0.5045126942092143
-5.0260752533333335,-60.31290304,11.589198683751034,-0.33193523500000016,8.45e-06,3.267666517766016e-07,0.0,198,12,301.3674951000032,2103.2976,mp-1227441,BiSbPt,https://materialsproject.org/materials/mp-1227441,49.54507615825956,29.855906078765173,-8.604250342815693,-0.5045126942092143
-4.00992647625,-32.07941181,7.141255885071763,-0.5335705612500004,0.00570735,0.00025922538583797385,0.0,63,8,256.5868553523626,1103.46842,mp-1025537,TmTe3,https://materialsproject.org/materials/mp-1025537,57.74143811926451,28.94758490393467,-8.604250342815693,-0.5045126942092143
-6.169546769999998,-43.18682739,6.045049102068021,-0.9035115282440478,1.0897370000000002,0.09826154708935668,0.0,12,7,129.24552848232614,470.507195,mp-1025347,Ti2CoSe4,https://materialsproject.org/materials/mp-1025347,22.72117030361005,15.818558529139507,-8.604250342815693,-0.5045126942092143
-5.071317094545455,-111.56897608,6.819335758845768,-0.7272700597727273,4e-07,7.0294661961033285e-09,0.0,8,22,663.1550360976163,2723.37882,mp-1223212,La6CuSb15,https://materialsproject.org/materials/mp-1223212,2.978900017677152,33.076077534978374,-8.604250342815693,-0.5045126942092143
-4.998566222222221,-179.948384,5.282799273659223,-0.6076248332638888,0.0,0.0,0.25929999999999964,15,36,1284.7539637311681,4087.2856,mp-558408,Nb4Te9I4O,https://materialsproject.org/materials/mp-558408,56.66320785093673,26.991317950091812,4.1490279644437935,-5.005811901073487
-5.9935924371428575,-41.95514706,4.227932992959509,-0.8242252787500013,9.3075884,0.7739495639815746,0.008199999999999541,65,7,140.15285121668163,356.84609,mp-21139,Mn2SnS4,https://materialsproject.org/materials/mp-21139,21.507304105797292,16.483667260536386,-11.335792770281644,-0.3345387335055149
-5.2194169775,-20.87766791,6.112508138018242,-0.3583229134635415,2.9999999,0.4049828108548384,0.3380000000000001,160,4,86.33006689462782,317.7843,mp-3532,CrAgSe2,https://materialsproject.org/materials/mp-3532,25.55928769850254,7.016836873563293,-8.604250342815693,-0.5045126942092143
-5.834392,-70.012704,7.8394966984202785,-0.3611894183333331,0.0,0.0,0.0,11,12,288.5518729450636,1362.2693599999998,mp-9391,TaNi2Te3,https://materialsproject.org/materials/mp-9391,52.07577876507418,27.779368266056853,-8.604250342815693,-0.5045126942092143
-4.96352479,-14.89057437,4.0659056898565655,-0.8511131566666664,2.9999992000000004,0.4062002850215956,1.0943,164,3,86.07129606659065,210.7495,mp-971787,VBr2,https://materialsproject.org/materials/mp-971787,16.919873389192745,-6.727019986662003,7.785921605911711,-1.4252753733975785
-2.7115848625,-10.84633945,5.480091833911827,0.09759089249999996,0.0,0.0,0.0,166,4,115.41793466464635,380.90094,mp-23306,CuI,https://materialsproject.org/materials/mp-23306,16.722876360695437,-11.353571779094796,7.291017617679619,-2.901279938078705
-5.93695688375,-47.49565507,6.652989806098683,-0.09244834857421846,8.017825,0.5464147882599564,0.0,25,8,171.0060816300497,685.14,mp-1224990,Fe4Te3Se,https://materialsproject.org/materials/mp-1224990,54.94445036973536,35.29703418717733,-8.604250342815693,-0.5045126942092143
-3.6868474091666665,-44.24216891,6.566434194965328,-0.16953384916666714,0.0018159000000000003,5.271722517619162e-05,0.5087000000000002,164,12,401.4364593311088,1587.44,mp-1209139,Sb4Te7Pb,https://materialsproject.org/materials/mp-1209139,67.1017178097843,25.696385457119842,3.1390651248633032,-5.124051977599549
-4.162731477692308,-270.57754605,5.7750565024691705,-0.4413577382307695,2.3199999999999998e-05,1.4549700742475642e-07,0.0,8,65,1858.2808506436718,6462.767,mp-1120806,Ba(SnSe)32,https://materialsproject.org/materials/mp-1120806,69.93123522998368,17.54387526714452,6.760983569874492,-6.237963755388856
-2.692231038333333,-48.46015869,4.739769735386452,-0.759802929,0.0,0.0,0.8659999999999999,128,18,725.0023363202843,2069.41484,mp-28247,K2PtI6,https://materialsproject.org/materials/mp-28247,9.854466889151599,-6.776174513505257,6.169595070177812,-5.119590610297582
-6.342025011428571,-44.39417508,6.17805123139261,-0.5454194120535709,4.926345599999999,0.4510475931497102,0.0,8,7,127.28579330952878,473.56800000000004,mp-1216659,V2FeSe4,https://materialsproject.org/materials/mp-1216659,49.92861829325203,26.749590626870628,-8.604250342815693,-0.5045126942092143
-5.620633495,-22.48253398,10.438095194186648,-0.87785218375,0.0,0.0,0.0,225,4,78.59569178569137,494.05,mp-21014,DySnPd2,https://materialsproject.org/materials/mp-21014,29.129301957840468,41.26694568311228,-8.604250342815693,-0.5045126942092143
-4.07149549625,-32.57196397,6.890230296063768,-0.5633231737499997,5.05e-06,2.2391746027893357e-07,0.0,63,8,262.8335772838498,1090.6,mp-1025482,DyTe3,https://materialsproject.org/materials/mp-1025482,57.765697005473754,28.942884361367287,-8.604250342815693,-0.5045126942092143
-4.169926232857144,-58.37896726,4.795467274387753,-0.5904509824107146,4.9999205,0.15611168688743982,1.0438999999999998,81,14,373.25454952429436,1077.9210449999998,mp-1221886,MnCd(GaSe2)4,https://materialsproject.org/materials/mp-1221886,39.4162065439139,2.043963130350672,6.3229281183966055,-5.630392570154461
-5.9939266983333335,-143.85424076,6.907423431997637,-1.8476234516927088,4.00000005,0.08452675344753988,0.0,186,24,551.497103244047,2294.0888,mp-17271,Sm4FeSe6O,https://materialsproject.org/materials/mp-17271,46.44954037713401,1.7501955986612625,6.199428006702952,-3.3685057717190587
-4.341153375,-34.729227,7.540213987196405,-0.8647974600000001,2.34e-05,1.1221940375221864e-06,0.0,63,8,243.01066175688462,1103.46842,mp-1087512,TmTe3,https://materialsproject.org/materials/mp-1087512,-9.811206354893056,24.151503505424785,-8.604250342815693,-0.5045126942092143
-3.636377815,-21.81826689,8.883338008228591,0.00992385166666665,1e-06,5.713883364174392e-08,0.0,122,6,203.9604946371461,1091.1216,mp-1227413,Bi2Te,https://materialsproject.org/materials/mp-1227413,4.492276513789252,32.01140557380157,-8.604250342815693,-0.5045126942092143
-6.4606254675,-25.84250187,9.553158993851165,-0.7323246412500009,4.31e-05,6.835091645945896e-06,0.0,225,4,73.4869724819632,422.774,mp-977568,ZrSnPd2,https://materialsproject.org/materials/mp-977568,29.217947307438678,41.323007069152005,-8.604250342815693,-0.5045126942092143
-4.40731893875,-35.25855151,7.405753628734419,-0.905992145,0.00014595,6.92476306696105e-06,0.0,63,8,245.62728531036026,1095.4606399999998,mp-1078508,HoTe3,https://materialsproject.org/materials/mp-1078508,-9.838355218568807,24.135680653496,-8.604250342815693,-0.5045126942092143
-3.832829936875,-61.32527899,4.8338892609022865,0.04975073062500002,6.5e-07,1.3765676748875019e-08,0.0,60,16,550.2920227138757,1601.92,mp-628781,GeTe,https://materialsproject.org/materials/mp-628781,68.70343519999824,27.079683396939195,3.2174467266161413,-5.211627238827972
-6.112159161428571,-42.78511413,6.379674448317359,-0.18647743285714166,10.0006008,0.6719323996912853,0.0,12,7,173.45145068352008,666.3883,mp-1078012,Cr3Te4,https://materialsproject.org/materials/mp-1078012,53.972961746047744,33.868539929088136,-8.604250342815693,-0.5045126942092143
-5.03307441875,-161.0583814,2.912516349947797,-1.17779115015625,5.000003700000001,0.0809111936727508,1.0991,33,32,720.1768301493042,1263.16018,mp-1195603,Li2MnSnS4,https://materialsproject.org/materials/mp-1195603,24.91513651316198,0.3104030197187678,7.387357822303429,-5.344932332082489
-6.605651425,-105.6904228,7.167324976816027,-0.7385679478710934,1.5e-07,4.6268110418287145e-09,0.0,63,16,377.8217221494799,1630.77832,mp-541070,Ta2NiSe5,https://materialsproject.org/materials/mp-541070,49.73494525033836,25.157323407545338,-8.604250342815693,-0.5045126942092143
-6.197275359583332,-148.73460863,6.187714461238196,-1.9808913046093743,3.9999998999999997,0.07887003242304035,0.04389999999999983,186,24,591.0515881975757,2202.45256,mp-556875,La4FeSe6O,https://materialsproject.org/materials/mp-556875,46.452301648080365,1.7461994068997229,6.426548096645881,-1.0484293200906556
-6.077284195,-85.08197873,4.990775441848287,-1.1672817961845243,1.1156964,0.043712189711809235,0.0,12,14,297.4547419801061,894.0047692799999,mp-977244,NaTi5Se8,https://materialsproject.org/materials/mp-977244,22.980202858262512,15.649020377741609,-8.604250342815693,-0.5045126942092143
-6.604958213333332,-158.51899712,6.424729486212086,-1.9066995726060416,9.0,0.1835988563455921,0.0,186,24,571.2812434714024,2210.32289,mp-582774,Ce4MnSe6O,https://materialsproject.org/materials/mp-582774,46.4934340301773,1.9281617133388889,4.092614333423323,-2.9458075746977563
-6.354018295714285,-44.47812807,5.7868420648845404,-0.8951492639583337,2.3339689999999997,0.20279567481248725,0.0028000000000005802,12,7,134.12626244764223,467.41899999999987,mp-5090,Ti2FeSe4,https://materialsproject.org/materials/mp-5090,22.650754240076324,15.829843540621958,-8.604250342815693,-0.5045126942092143
-4.941527056666667,-29.64916234,3.9613666505620038,-0.1425504559999998,4.427830200000001,0.28522675159967104,0.0,129,6,180.9164801803796,431.59269000000006,mp-4233,KMnSb,https://materialsproject.org/materials/mp-4233,23.998476081096225,22.30957197805252,-8.604250342815693,-0.5045126942092143
-7.159609705714287,-100.23453588,6.525663050696579,-0.510320159196428,0.0,0.0,0.0,148,14,307.2181291307705,1207.32,mp-21021,Mo3Se4,https://materialsproject.org/materials/mp-21021,62.99935655107684,32.65612594868246,-8.604250342815693,-0.5045126942092143
-6.272179085,-12.54435817,4.8970350596213,0.11738041,4.0000001,0.7654637892779264,0.0,216,2,60.8993670355316,179.59609999999995,mp-1008926,CrTe,https://materialsproject.org/materials/mp-1008926,25.34938824589428,15.380025015945911,-11.955385205300471,0.3708511175193873
-3.892518045416667,-93.42043309,9.4099649954593,-0.1283792054166669,0.0,0.0,0.0,61,24,613.2357403023017,3475.0925520000005,mp-1462,Sn2Au,https://materialsproject.org/materials/mp-1462,37.31371569577429,31.695068942750325,-8.604250342815693,-0.5045126942092143
-6.008081773461538,-156.21012611,8.372695493400263,-0.639051291057693,0.0,0.0,0.6803000000000003,55,26,626.2511600911073,3157.65552,mp-4425,Ta2Pt3Se8,https://materialsproject.org/materials/mp-4425,50.72040469729434,25.149396499006013,5.121899608693413,-6.559590479425688
-4.870481194166667,-58.44577433,6.521759967651426,-0.5082558791666667,0.0,0.0,0.0,12,12,306.10650821854665,1202.232,mp-30019,ZrCu2Te3,https://materialsproject.org/materials/mp-30019,54.368084996747754,21.22116833705081,-5.1336513541209445,-1.8556130284249903
-4.384877785,-35.07902228,7.5051396866555224,-0.8862136387499997,4.065e-05,1.946293786413768e-06,0.0,63,8,243.40504825710738,1100.118,mp-1078991,ErTe3,https://materialsproject.org/materials/mp-1078991,-9.839400123061552,24.14433303474944,-8.604250342815693,-0.5045126942092143
-6.104116132857143,-42.72881293,6.603614502794928,-0.3959926006250001,4.2738651,0.41397563922427055,0.0,8,7,120.31601858968077,478.4715,mp-1216826,V(FeSe2)2,https://materialsproject.org/materials/mp-1216826,21.54658007643579,15.589537157811314,-8.604250342815693,-0.5045126942092143
-5.810982648571428,-162.70751416,5.766987767972919,-0.5840343929241071,2.3678455,0.043436386039666784,0.0,1,28,635.2974394143607,2206.3634,mp-1220702,Nb5V(FeSe10)2,https://materialsproject.org/materials/mp-1220702,49.213128268800745,25.01312942786907,-8.604250342815693,-0.5045126942092143
-4.5226733075,-217.08831876,5.92728937079017,-1.1439281342083334,0.0,0.0,0.4398999999999997,14,48,1672.6437783969727,5970.4972,mp-669359,KNd3Te8,https://materialsproject.org/materials/mp-669359,56.4883689248836,21.37847636114096,3.651231382717605,-5.2759026290293685
-6.9583581671428565,-48.70850717,6.4428298066358565,-0.946729118720238,0.97034,0.07984461241638045,0.0,12,7,141.6301597462023,549.5197599999998,mp-1025291,Ti(NbSe2)2,https://materialsproject.org/materials/mp-1025291,48.66329553839118,23.861637803562274,-8.604250342815693,-0.5045126942092143
-6.868621885,-13.73724377,4.813229522510232,-1.3784324849999994,6e-07,1.6907462718200194e-07,0.0,225,2,41.35711537609212,119.87751200000001,mp-2052,ScAs,https://materialsproject.org/materials/mp-2052,4.918930732411128,32.873633771699446,-8.604250342815693,-0.5045126942092143
-4.126355475,-16.5054219,8.449157444247989,-0.6558125637500005,0.00012429999999999999,2.249407998907157e-05,0.0,216,4,64.39917755840432,327.676,mp-1222607,Li2SnPt,https://materialsproject.org/materials/mp-1222607,32.52525610784625,36.57806166584197,-8.604250342815693,-0.5045126942092143
-6.0759168675,-48.60733494,6.095533991230388,-0.2345434417578129,4.2913574,0.28763872757137404,0.0,99,8,173.8700401161855,638.2449999999999,mp-1225166,Fe4Te3S,https://materialsproject.org/materials/mp-1225166,54.93354916266928,35.41711527194134,-8.604250342815693,-0.5045126942092143
-4.5480266375000005,-54.57631965,5.444929092235046,-0.5047603691666668,8.5e-07,2.2271452507665534e-08,0.1192000000000002,63,12,444.78262265410143,1458.4479999999999,mp-605,ZrTe5,https://materialsproject.org/materials/mp-605,56.94648873474153,28.65280325485757,-6.134400696105354,0.6743347691112832
-4.762530825,-19.0501233,4.6109038833621865,0.5366014650000004,4.00000005,0.3639153535881391,0.0,186,4,128.09643564997788,355.69194,mp-1187728,VI,https://materialsproject.org/materials/mp-1187728,25.19865912932948,15.501363508496294,-8.604250342815693,-0.5045126942092143
-4.6058864,-13.8176592,9.279276537922339,-0.3763052528645836,0.0,0.0,0.0,156,3,71.87473500289616,401.644,mp-1217257,TePtSe,https://materialsproject.org/materials/mp-1217257,50.776195053758975,25.989501675975642,-8.604250342815693,-0.5045126942092143
-4.453194775,-89.0638955,5.710171415309443,-0.8323697784375007,6.25e-07,1.483464002059201e-08,1.2068000000000003,62,20,490.9988023126383,1688.4199999999996,mp-1188095,SnPbS3,https://materialsproject.org/materials/mp-1188095,70.71619747104245,17.650785906630045,7.2085645405279335,-4.6664753920667685
-6.2340133876923085,-81.04217404,5.541833866702428,-1.0059875742628213,2.309708,0.10220061317624347,0.0,12,13,263.37891526424096,878.9929999999998,mp-1208241,Ti4FeSe8,https://materialsproject.org/materials/mp-1208241,22.920148744273128,15.966190811099253,-8.604250342815693,-0.5045126942092143
-3.35926554,-6.71853108,8.941673415372223,0.1610644925,0.002705,0.0005043425244746658,0.0,65,2,62.505625998145426,336.5804,mp-1227305,BiTe,https://materialsproject.org/materials/mp-1227305,57.466986744643116,27.486862689583845,-8.604250342815693,-0.5045126942092143
-6.147554452142857,-86.06576233,5.201044425832109,-0.639265376363916,14.999999300000002,0.5603489307387655,0.0035000000000002807,12,14,311.96805033620535,977.1283,mp-28818,RbCr5Se8,https://materialsproject.org/materials/mp-28818,23.96911944767091,17.127208768333347,-8.604250342815693,-0.5045126942092143
-3.142806348333333,-18.85683809,6.423053405474413,-0.6652832717816093,0.0,0.0,9.999999999976694e-05,194,6,212.01071654984173,820.0687379999998,mp-7025,RbTeAu,https://materialsproject.org/materials/mp-7025,54.9002225703341,25.32745767908133,-8.604250342815693,-0.5045126942092143
-4.6604344922916665,-223.70085563,7.449005047270418,-0.3266138115885422,7.5e-08,8.812796655701149e-10,0.5940999999999996,135,48,991.801912706718,4449.12,mp-571383,PdSe,https://materialsproject.org/materials/mp-571383,51.11831476160307,24.75258402157939,-8.604250342815693,-0.5045126942092143
-6.100606236071428,-170.81697461,3.6305959483894235,-0.8436178262499995,4.972452375,0.10192231942650082,0.0,62,28,568.5632193496853,1243.10436,mp-621925,Mn2GeS4,https://materialsproject.org/materials/mp-621925,26.356120686316856,0.419269321376574,-6.350407336050098,-3.657984154065149
-6.1486132157142865,-43.04029251,2.9194019699006497,-1.552554878202382,1.9999999,0.1638743517502986,0.0,8,7,142.2317045392702,250.05826928,mp-1220884,NaTiVS4,https://materialsproject.org/materials/mp-1220884,20.053785577289073,13.856574853117698,-8.604250342815693,-0.5045126942092143
-5.814176238214286,-162.79693467,8.949809814627098,-0.8492796317857148,2.1774913,0.04100709279876775,0.0,59,28,618.8350092608313,3335.336,mp-662558,Ce3Sb5Pd6,https://materialsproject.org/materials/mp-662558,5.672409918600178,35.7059658477855,-8.604250342815693,-0.5045126942092143
-5.895143085,-82.53200319,5.631629706158023,-0.5812373582812498,2.7239611,0.09974219469138897,0.0,11,14,318.2727149282751,1079.4049599999996,mp-28019,NbCrSe5,https://materialsproject.org/materials/mp-28019,49.0231977765507,25.079126514508182,-8.604250342815693,-0.5045126942092143
-4.5686630025,-18.27465201,4.6083322706609335,-0.4535100050862066,4.0000701,0.3270220410834367,0.0,119,4,142.55025711947476,395.60584500000004,mp-10287,RbMnTe2,https://materialsproject.org/materials/mp-10287,26.592552613789874,16.514476998627178,-8.604250342815693,-0.5045126942092143
-4.774019368333334,-114.57646484,7.398671210751551,-1.2341918885416672,0.000428925,1.0886096268796256e-05,0.0,129,24,459.18386252916224,2045.93228,mp-669434,BiTeIO3,https://materialsproject.org/materials/mp-669434,58.98427924411651,24.289806132621216,-7.325159006482638,-3.165840298149512
-5.740578672857143,-160.73620284,5.380807100782441,-0.5221172556250002,24.458702600000002,0.4731726330625569,0.0,115,28,602.4086864624086,1952.0438,mp-1226330,Cr8Ga3CuSe16,https://materialsproject.org/materials/mp-1226330,13.5835364433497,2.081830580238064,-8.604250342815693,-0.5045126942092143
-6.297195453333333,-94.4579318,7.8876308870188465,-0.4181884379999995,0.39469770000000004,0.012256891791197544,0.0,147,15,375.2854018572447,1782.62158,mp-1220423,Nb6TlTe8,https://materialsproject.org/materials/mp-1220423,56.59975059883523,31.79231357857986,-8.604250342815693,-0.5045126942092143
-4.2774225121428575,-239.53566068,3.8453503041698673,-0.5299415535535716,4.016379,0.02754875997472612,0.16620000000000013,4,56,1699.0652595648771,3934.5664,mp-1200819,K2FeGe3Se8,https://materialsproject.org/materials/mp-1200819,24.94714231735634,0.7153686308828293,4.636856591734546,-5.927627920287482
-3.70902067625,-29.67216541,4.2906110571732805,-0.684338028796875,3.65e-06,1.7405914354585842e-07,0.0,108,8,244.38438310846803,631.4566,mp-571016,KSnSe2,https://materialsproject.org/materials/mp-571016,68.40322221804175,15.235135216363595,-8.604250342815693,-0.5045126942092143
-3.839689307368421,-72.95409684,5.821972272628377,-0.11277511500000065,0.0099484,0.00019172871820686893,0.0,160,19,604.7049136282141,2120.14,mp-1219061,Sn2Ge5(SbTe5)2,https://materialsproject.org/materials/mp-1219061,67.19785817055586,25.93597701461452,-8.604250342815693,-0.5045126942092143
-6.66090075,-39.9654045,9.055781677099473,0.0019255466666680359,7.3782212,0.7198927588820002,0.0,160,6,119.44316248521591,651.3855900000001,mp-1221535,Mn2Sb2PtRh,https://materialsproject.org/materials/mp-1221535,48.604097464678524,42.24068645913136,-8.604250342815693,-0.5045126942092143