energy_per_atom,energy,density,formation_energy_per_atom,total_magnetization_uB,total_magnetization_T,band_gap,sgr,num_sites,cell_volume,weight,mp_id,formula,URL,tsne_cry_lin1_0,tsne_cry_lin1_1,tsne_cry_lin2_0,tsne_cry_lin2_1
-4.051702742261905,-340.34303035,4.442061316918441,-1.7498365038942858,0.0,0.0,0.9351,62,84,1900.545612464278,5084.0961536,mp-29074,Te7As2F12,https://materialsproject.org/materials/mp-29074,47.56004612329458,-18.460106456312364,8.750308384269987,-4.73052886504962
-5.20448315409091,-114.49862939,4.620526476252345,-0.510685604758523,5e-07,9.043413734679588e-09,0.7515000000000001,2,22,644.3399093789554,1792.90552,mp-541106,Nb2Se9,https://materialsproject.org/materials/mp-541106,51.62065442237629,24.57779005578461,5.400754588363613,-5.763271136846697
-5.9391361,-83.1479054,4.204179896624717,-1.7866956337500004,2.0000023000000002,0.07796050636159067,0.0,74,14,298.9738963644257,756.947,mp-1247137,LuMgVS4,https://materialsproject.org/materials/mp-1247137,23.15438676563405,10.535392514357387,-8.604250342815693,-0.5045126942092143
-3.26314263625,-26.10514109,5.6157187086587514,-0.2871137262499999,0.0,0.0,1.0392,12,8,286.0072315584517,967.2378199999999,mp-1206891,RhI3,https://materialsproject.org/materials/mp-1206891,9.532596977745698,-5.7348535388799915,5.739068680118805,-5.4990700246491615
-3.2537840850000004,-32.53784085,4.231861543078025,-0.917417427068966,1.9999997,0.07736988101884194,0.4791000000000001,194,10,301.25580835808324,767.7464,mp-27409,RbNiBr3,https://materialsproject.org/materials/mp-27409,19.922252502355896,-1.6764653826479798,5.205714082797543,-5.621941531590184
-6.741225356785713,-188.75430999,6.534863534542352,-0.481085378839285,0.0004125,8.542685368348614e-06,0.0,194,28,562.738941140492,2214.59544,mp-570420,Nb2CrSe4,https://materialsproject.org/materials/mp-570420,48.10322183347184,23.04793223063405,-8.604250342815693,-0.5045126942092143
-5.215236176666667,-15.64570853,6.491898516732827,-0.2711714325000004,3.45e-05,4.921983702710025e-06,0.0,216,3,81.68764037799104,319.35887,mp-961707,LaNiSb,https://materialsproject.org/materials/mp-961707,2.9114333460376467,33.75435465219107,-8.604250342815693,-0.5045126942092143
-5.2419233617500005,-209.67693447,7.634605943086142,-0.7445689332500003,0.0255636375,0.0002804057635763112,0.0,57,40,1062.4613540304717,4884.84376,mp-1211524,LaSb3Pd,https://materialsproject.org/materials/mp-1211524,4.393188227709424,34.760071980774164,-8.604250342815693,-0.5045126942092143
-5.898260865,-23.59304346,2.6723334804673216,-2.1059241707812504,0.0,0.0,1.4856999999999996,166,4,72.09699630487434,116.02691200000001,mp-1001786,LiScS2,https://materialsproject.org/materials/mp-1001786,55.849738799667044,3.8614700666376267,7.246763212315849,-3.6654307558386128
-6.173198959285713,-86.42478543,3.1305765356518345,-1.5568405037500008,6.0000013,0.24106134269428525,0.0,166,14,290.0689218939625,546.8603499999998,mp-1247094,YMg2V3S8,https://materialsproject.org/materials/mp-1247094,22.79504606549875,10.875644855687773,-8.604250342815693,-0.5045126942092143
-2.762125883125,-44.19401413,4.587719418899426,-0.8014771282112068,8.56e-05,1.3773161910287776e-06,0.0,63,16,724.2984225619009,2001.0839,mp-1173429,Rb2PtI5,https://materialsproject.org/materials/mp-1173429,9.912566649897178,-6.895819935023358,5.267075598164607,-5.704851178831774
-6.077928615,-72.93514338,10.568843022943403,-0.3717555050000006,1.575e-06,6.702732883287983e-08,0.4529999999999994,14,12,273.8457929980571,1742.9479999999999,mp-1247,Sb2Ir,https://materialsproject.org/materials/mp-1247,34.69448998202752,28.932587621151196,-8.604250342815693,-0.5045126942092143
-3.622444915714286,-25.35711441,6.424150554422151,0.01285496499999945,7.340000000000001e-05,4.003738671440197e-06,0.0,166,7,213.65239455006184,826.56,mp-1224370,Ge(SbTe2)2,https://materialsproject.org/materials/mp-1224370,57.827811616918325,28.89766103268977,-8.604250342815693,-0.5045126942092143
-4.7282997325,-18.91319893,8.748709874050123,-0.65988623375,2e-07,3.6278992803090335e-08,0.0,225,4,64.24690363271037,338.491,mp-7243,LiSnPd2,https://materialsproject.org/materials/mp-7243,38.34120755599734,32.83494036009577,-8.604250342815693,-0.5045126942092143
-5.67259720051282,-221.23129082,3.3937985475935983,-1.5354380622275638,11.000002499999999,0.15218410725310688,0.07299999999999995,148,39,842.3661573288325,1721.6223000000002,mp-558774,Sr6V9(S11O)2,https://materialsproject.org/materials/mp-558774,23.486030938449478,0.39594059966059336,-6.580841363439182,-3.2628406143543263
-2.91859604125,-23.34876833,5.305613565033333,-0.5541193719612068,1.3e-06,4.837615580887621e-08,1.1515,121,8,313.17668696502295,1000.6356,mp-1080691,Rb2SnHgTe4,https://materialsproject.org/materials/mp-1080691,64.76311292597697,17.230029914294402,7.522228604924321,-6.4117868856287075
-4.586029575,-18.3441183,4.110012425694508,-0.5424472045312507,0.0,0.0,0.5793999999999997,63,4,84.60643043132409,209.41,mp-12910,GeS,https://materialsproject.org/materials/mp-12910,46.43400647694785,20.288639254608224,-1.875655165888596,-2.4293845102270657
-3.9129949821428576,-54.78192975,5.851808539694363,0.2143512378571424,9.826428571428572e-05,2.3674535778524987e-06,0.0,2,14,483.7173413902297,1704.64,mp-1179618,Sb,https://materialsproject.org/materials/mp-1179618,37.1914635332648,28.23829136193829,-8.604250342815693,-0.5045126942092143
-6.486104246749999,-259.44416987,6.69554334133757,-2.0860220931875006,3.000045375,0.04581350771184622,0.3361000000000001,58,40,763.1531586879048,3077.1484,mp-1210964,Lu3CrS6,https://materialsproject.org/materials/mp-1210964,25.645501482018318,5.700998037534621,4.11295832122623,-5.902591613246039
-3.954143725,-86.99116195,5.590002461239166,-0.6834763950626961,0.4918483,0.00846554514190303,0.0,12,22,677.101338471491,2279.3792000000008,mp-581778,Rb2CeCu3Te5,https://materialsproject.org/materials/mp-581778,55.71649076154396,20.668602555304282,5.137989493420633,-6.222605522967883
-6.115261925714287,-85.61366696,4.692903317730798,-1.8347394307142864,2.0000003,0.16468577305130835,1.4553999999999996,227,14,141.53094471662158,399.9852,mp-608016,Mg(FeO2)2,https://materialsproject.org/materials/mp-608016,-25.61667477848805,-33.065419804884016,5.6482644912079545,-5.001770902220228
-6.4966427435,-129.93285487,9.441700258493675,-0.3579175014999997,12.591594699999998,0.4465057651766528,0.0,166,20,328.6480750490707,1868.66827,mp-1222087,Mn3Sn2Pd5,https://materialsproject.org/materials/mp-1222087,44.945214413934174,37.771299162817336,-8.604250342815693,-0.5045126942092143
-6.594011156428572,-92.31615619,5.002865436323886,-1.2155283413392866,0.0,0.0,0.0,176,14,304.99309916967684,918.882,mp-9227,Ti3Se4,https://materialsproject.org/materials/mp-9227,23.09028537535722,15.092524096362153,-8.604250342815693,-0.5045126942092143
-5.119077565,-143.33417182,6.276778686245239,-1.6164076870535713,0.000270175,4.38845886553657e-06,1.6031999999999995,62,28,717.4812494320454,2712.05368,mp-1232081,Tm2MgSe4,https://materialsproject.org/materials/mp-1232081,52.13346561802146,6.687319977516989,8.228591071304379,-6.157796803344072
-6.620156487142857,-46.34109541,5.57789870355078,-0.4961408834821423,9.999998699999999,0.8296882077718198,0.0,12,7,140.46316614320696,471.8283,mp-27840,Cr3Se4,https://materialsproject.org/materials/mp-27840,23.897667148803983,17.096038972199427,-8.604250342815693,-0.5045126942092143
-4.970012873333333,-14.91003862,7.2253101723851465,-0.0551258300000003,1.3886104,0.22638206731938906,0.0,164,3,71.48514781702406,311.045,mp-1224800,FeTe2,https://materialsproject.org/materials/mp-1224800,54.387156796145256,33.80769263067036,-8.604250342815693,-0.5045126942092143
-5.652719426428571,-79.13807197,5.520074728061283,-0.5067663806249995,11.9266185,0.4349333942439175,0.0,216,14,319.5744138208412,1062.3506,mp-1226322,Cr4InAgSe8,https://materialsproject.org/materials/mp-1226322,13.737762281220494,2.2825710369710257,-8.604250342815693,-0.5045126942092143
-5.894373041000001,-117.88746082,7.118567272793295,-0.5053062304999998,2.411877875,0.05416261937451559,0.0,57,20,518.959040448088,2224.7262800000008,mp-19861,LaCrSb3,https://materialsproject.org/materials/mp-19861,3.1884441204919316,34.44066475911776,-8.604250342815693,-0.5045126942092143
-5.142703721428573,-35.99892605,3.416274464216716,-0.988666478035715,4.999996599999999,0.3715584538335268,0.6006999999999998,6,7,156.8266947980295,322.644045,mp-1221975,Mn(GaS2)2,https://materialsproject.org/materials/mp-1221975,26.147613006300837,-0.5344558117387616,5.886382866279558,-6.1156723213956345
-4.916363531666667,-58.99636238,8.576466644078751,-0.4199892095833331,2e-07,8.831786790119398e-09,0.0,5,12,263.91182326995784,1363.07,mp-1219006,Sn7Pd5,https://materialsproject.org/materials/mp-1219006,37.745200247808974,32.217020540461284,-8.604250342815693,-0.5045126942092143
-6.691077065000001,-40.14646239,3.1501872259511647,0.02058977583333288,0.0,0.0,2.2909,15,6,117.69770485580013,223.2828,mp-10497,SrC2,https://materialsproject.org/materials/mp-10497,30.252459838387193,-13.185483773630068,3.2713227455377085,-4.160592855855754
-4.974096056097562,-407.8758766,8.096756370251343,-0.3620013802439024,0.0007296000000000001,4.881265234204347e-06,0.0,12,82,1741.9265805263135,8493.60045,mp-1220833,Pr9Ni24Sn49,https://materialsproject.org/materials/mp-1220833,2.2933504008547825,54.77124237234675,-8.604250342815693,-0.5045126942092143
-6.001561002000001,-90.02341503,6.6972722672545135,-0.6547020906666661,12.4403818,0.34507565688415376,0.0,121,15,420.14269161050873,1694.5160150000004,mp-1223066,La4Mn3Sb8,https://materialsproject.org/materials/mp-1223066,2.8413089466586414,33.6723886852777,-8.604250342815693,-0.5045126942092143
-4.012637193,-40.12637193,2.229948508191191,-1.8409920043560002,2.9999999,0.11022569167828157,1.6199,225,10,317.1873328254325,425.9529,mp-1111174,K3MoCl6,https://materialsproject.org/materials/mp-1111174,11.597187272039127,-8.948553695071839,7.759667108121564,-2.721695466907049
-4.727464164642857,-397.10698983,5.1913272744245855,-0.43497084797619,0.0,0.0,1.8469,201,84,3274.8110318603,10238.01032,mp-569225,Mo6PbI14,https://materialsproject.org/materials/mp-569225,42.38216583693979,-9.041273845840834,9.048026101111605,-4.590348220875106
-4.972784873,-49.72784873,7.259012265109121,-0.257831831,6.999294,0.36187314936545295,0.0,12,10,225.4111027060791,985.38,mp-1224764,GdCu5Te4,https://materialsproject.org/materials/mp-1224764,54.835421417109025,20.66491579989364,2.1613644510370134,-4.673301163095535
-5.765605571,-57.65605571,6.307676942334943,-0.7213055516666664,0.3600893,0.016655788603645444,0.0,148,10,251.9546883050132,957.068,mp-1217180,Ti2Te3,https://materialsproject.org/materials/mp-1217180,55.0390467781534,33.145749247045806,-8.604250342815693,-0.5045126942092143
-6.157075936428571,-86.19906311,2.8778116587631266,-1.7465400080357143,1.99999875,0.08128861730339823,0.0,74,14,286.7328262030118,496.924824,mp-1246974,MgScVS4,https://materialsproject.org/materials/mp-1246974,22.954520568140925,10.748592984308353,-8.604250342815693,-0.5045126942092143
-6.039396201000001,-362.36377206,2.664430917501272,-1.1409858489013327,0.0,0.0,1.9481,33,60,838.6647895523507,1345.68615424,mp-558335,Na2Pd(NO2)4,https://materialsproject.org/materials/mp-558335,-2.020505177367956,-23.528650911275392,8.261009500097755,0.3933594496910151
-7.3553120275,-29.42124811,7.0040457346079465,-0.3605510525000009,8e-07,1.1649221210665309e-07,0.0,225,4,80.0332627344389,337.5751,mp-865641,Y2NiRu,https://materialsproject.org/materials/mp-865641,15.77140785844526,52.2929045268964,-8.604250342815693,-0.5045126942092143
-4.223002140714286,-413.85420979,6.614217031599767,-0.7094688355038272,0.00348905,1.5522266900168553e-05,1.3338,146,98,2619.5667782428,10434.19202,mp-1227984,Bi19(S9I)3,https://materialsproject.org/materials/mp-1227984,71.35608920771621,16.773788586981798,9.163134441943267,-6.381744917228423
-6.235794870357143,-174.60225637,4.2911001616805855,-1.2542843650595241,2.999820675,0.05953798733571738,0.5613999999999999,1,28,587.189893662073,1517.3932,mp-1247411,ZrCrAgS4,https://materialsproject.org/materials/mp-1247411,17.805444429203888,4.364538597098556,5.616198459288846,-6.0508495266837095
-6.623633047857143,-92.73086267,6.808447613783777,-0.7314124345535719,5.45e-05,2.1435053848645627e-06,0.0,12,14,296.3120758125061,1214.9218999999996,mp-1104829,Nb5SnSe8,https://materialsproject.org/materials/mp-1104829,48.62838526054605,24.134509444029263,-8.604250342815693,-0.5045126942092143
-6.387580583333333,-153.30193400000002,6.653626467168013,-1.8352859625260407,5.9999998,0.126656070071564,0.0,186,24,552.0808143268308,2212.1368,mp-579188,Ce4FeSe6O,https://materialsproject.org/materials/mp-579188,46.43377962732147,3.0717088785981637,-5.640328071493437,-3.8054671503457738
-3.900071001,-39.00071001,2.9705551620509176,-1.5565918872226667,2.9999999,0.1264227615844539,0.8697000000000001,225,10,276.54982943017654,494.7228,mp-1112458,K2AgMoCl6,https://materialsproject.org/materials/mp-1112458,9.557980309670317,-7.44185628693094,7.178367454271503,-5.863036491875991
-6.254637648571429,-87.56492708,4.396881315436416,-1.27312714327381,3.00000025,0.12201865486702125,0.4882999999999997,10,14,286.53157395725987,758.6966,mp-1247190,ZrCrAgS4,https://materialsproject.org/materials/mp-1247190,17.85372268309757,4.367612556083096,5.800093379006976,-6.1058714292934635
-5.42782299423077,-141.12339785,8.963507143347377,-0.794516556346154,0.00337165,6.805288555304587e-05,0.0,12,26,577.3954648810952,3116.7519999999995,mp-1192386,Nd3(SnPd)5,https://materialsproject.org/materials/mp-1192386,3.7302782558146133,48.99239557741214,-8.604250342815693,-0.5045126942092143
-3.4598779244444438,-62.27780264,3.252639594271136,-1.8228021994356325,2.0000002,0.03596773586852743,0.1120000000000001,140,18,648.0288879213961,1269.3495114,mp-1189297,Cs3NiCl5,https://materialsproject.org/materials/mp-1189297,22.07740592635737,-1.0212831321257776,-5.553315812431854,-3.058553970489312
-4.44563837,-35.56510696,4.593964776257913,-0.3957857806640624,0.0,0.0,1.1316000000000002,26,8,185.28851629284054,512.61,mp-1224376,Ge2SeS,https://materialsproject.org/materials/mp-1224376,50.90746755736794,7.3892564842885236,7.123886734438174,-6.099421983525167
-4.342668058571428,-121.59470564,3.336667150626184,-1.7929884105686205,3.9996267999999997,0.051480792334520936,1.0437,194,28,905.4233176984261,1819.3467114,mp-541742,Cs3Mo2Cl9,https://materialsproject.org/materials/mp-541742,11.467916621444653,-8.483052779694109,7.2476301236584435,-5.016819416801979
-4.4949579075,-17.97983163,10.086755187361755,-0.2272896575000001,2.6e-06,3.7328093160059e-07,0.0,164,4,81.1736304844973,493.079969,mp-1206638,NiSn2Au,https://materialsproject.org/materials/mp-1206638,44.3024766542099,41.819102440571314,-8.604250342815693,-0.5045126942092143
-6.505090839285714,-91.07127175,7.332314538154237,-0.2821814450000001,1e-06,3.2028354752761966e-08,0.20949999999999933,1,14,363.86710658482076,1606.6999999999996,mp-1217418,Te4Mo2Ru,https://materialsproject.org/materials/mp-1217418,58.079755557654856,32.305450191011666,-8.604250342815693,-0.5045126942092143
-3.903198883,-39.03198883,3.4560501725625694,-1.5784801396916326,3.0,0.12386539694518126,0.847,225,10,282.2595751511796,587.4618,mp-1113717,Rb2AgMoCl6,https://materialsproject.org/materials/mp-1113717,9.425934588492183,-7.381578754770746,7.1598816653849875,-5.945428355891273
-4.951601179333333,-74.27401769,8.013981588466114,-0.27469563933333346,7.599999999999998e-06,2.4662235666028287e-07,0.0,152,15,359.13569828325905,1733.2365,mp-1208852,Sn4Rh,https://materialsproject.org/materials/mp-1208852,34.14300662733082,36.10043235104409,-8.604250342815693,-0.5045126942092143
-3.59637729,-147.45146889,7.875291169802653,-0.3139405634146342,0.003997,3.39493846296356e-05,0.4828999999999999,1,41,1372.080743262093,6507.2456,mp-675170,Yb3(Bi7Te12)2,https://materialsproject.org/materials/mp-675170,65.61309006604012,24.082295096854963,1.0490021422273077,-0.29888021543174736
-3.7034054528571434,-25.92383817,6.668356160498588,-0.19971618285714296,0.0,0.0,0.2789000000000001,166,7,239.33593882985843,961.12,mp-31507,Sb2Te4Pb,https://materialsproject.org/materials/mp-31507,67.02954700737656,25.435787402899514,4.237353584877699,-6.1340078785963925
-5.7039924504999995,-228.15969802,9.318560895723113,-0.5170109467500005,1.4800000000000002e-05,1.8255961751716748e-07,0.0,223,40,944.7881244474223,5301.932360000002,mp-30516,Th3Sn13Rh4,https://materialsproject.org/materials/mp-30516,0.33459867029736745,49.82813597240344,-8.604250342815693,-0.5045126942092143
-5.944152948157894,-225.87781203,2.519188550136339,-1.1872152615010527,0.0,0.0,1.7050999999999998,14,38,527.877607181141,800.8382771199998,mp-560120,Na2Pd(NO3)4,https://materialsproject.org/materials/mp-560120,-2.1454065478653352,-23.519009575714488,8.13121270902441,-0.3508076470141452
-3.659236363333333,-32.93312727,6.030222375157067,-0.12181718370370358,0.004908699999999999,0.00020369878964540162,0.0,156,9,280.8377401193614,1019.8580000000001,mp-1223718,InGe2SbTe5,https://materialsproject.org/materials/mp-1223718,67.15107819951328,25.94029354248494,-8.604250342815693,-0.5045126942092143
-5.6570535325,-22.62821413,8.658113162175018,-0.2388348667968749,0.0,0.0,0.0,194,4,69.75994818327261,363.731,mp-900,RhSe,https://materialsproject.org/materials/mp-900,22.237629327133035,15.159912736375398,-8.604250342815693,-0.5045126942092143
-6.016800025,-24.0672001,9.209365437094151,-0.6028839758333344,7.8e-06,1.2035411613511074e-06,0.0,123,4,75.52853873640552,418.88199999999995,mp-1215354,ZrInPd2,https://materialsproject.org/materials/mp-1215354,30.567130067777644,40.74272964126927,-8.604250342815693,-0.5045126942092143
-5.899160898571429,-41.29412629,6.38626707396973,-0.7190119585714295,0.2528812,0.01733059786636966,0.0,12,7,170.05148392955968,654.001,mp-15669,Ti3Te4,https://materialsproject.org/materials/mp-15669,55.184861592513045,32.798131521359814,-8.604250342815693,-0.5045126942092143
-4.330150762142857,-121.24422134,3.0683567842512667,-1.7545120250267487,3.9999998999999997,0.05612609095768694,0.9479,194,28,830.5630613038053,1534.7207999999996,mp-29458,Rb3Mo2Cl9,https://materialsproject.org/materials/mp-29458,11.446186914039032,-8.451827509559854,7.249949472012467,-5.018572920996417
-5.21734805,-31.304088300000004,8.087025901993153,-0.13830582500000035,0.11223980000000001,0.010337300067865663,0.0,6,6,126.53689944875687,616.25,mp-1224691,Fe2SbTe3,https://materialsproject.org/materials/mp-1224691,43.85852795789965,23.630345960391928,-5.700076527345304,-2.4571945860897193
-5.746528527647059,-97.69098497,8.027404638140759,-0.3630683716176477,0.0002435,6.8444498531301334e-06,0.0,204,17,414.608161797037,2004.30547,mp-1188603,La(Sb3Ru)4,https://materialsproject.org/materials/mp-1188603,34.48290804999169,28.75872278206433,-8.604250342815693,-0.5045126942092143
-6.985800581891892,-516.94924306,6.541071214295259,-0.4651566075211143,0.02642885,0.00018408064289868948,0.0,11,74,1673.1989030143536,6590.94,mp-1219414,Sn3Mo15Se19,https://materialsproject.org/materials/mp-1219414,63.48047581477547,33.48529100079926,-8.604250342815693,-0.5045126942092143
-5.9235513029166675,-142.16523127,8.093881757344532,-0.27363620041666675,0.004107875,7.351493526041791e-05,0.0,31,24,651.2070119900493,3174.14552,mp-1192146,NbTe4Os,https://materialsproject.org/materials/mp-1192146,54.86116185047722,30.91845797607572,-8.604250342815693,-0.5045126942092143
-4.215163407142858,-59.012287699999995,7.364079471132864,-0.4718347685714284,0.0,0.0,0.7786999999999997,148,14,334.7975919457149,1484.74442,mp-1216875,Tm(CuTe)3,https://materialsproject.org/materials/mp-1216875,55.36453320585273,20.22362365091014,6.248367031825037,-6.1530580754623045
-7.0103496886666665,-105.15524533,7.274165638218111,-0.7024235879166667,4e-06,1.4793779747775802e-07,0.0,148,15,315.10715912373496,1380.36,mp-1103921,Yb(Mo3Se4)2,https://materialsproject.org/materials/mp-1103921,63.55522219294701,33.919964238611065,-8.604250342815693,-0.5045126942092143