energy_per_atom,energy,density,formation_energy_per_atom,total_magnetization_uB,total_magnetization_T,band_gap,sgr,num_sites,cell_volume,weight,mp_id,formula,URL,tsne_xrd_lin1_0,tsne_xrd_lin1_1,tsne_xrd_lin2_0,tsne_xrd_lin2_1
-8.32769414725,-333.10776589,6.352911582411107,-2.6474971950000006,20.9326313,0.3667098524025247,2.7177,217,40,665.2404876281716,2545.085600000001,mp-505046,Gd3Sb5O12,https://materialsproject.org/materials/mp-505046,29.286456230837704,63.79772829478936,-9.921723786864773,33.146013916803234
-5.961548941304348,-137.11562565,4.393297930923616,-2.095843025298913,0.0,0.0,2.0096000000000007,143,23,548.7865531271228,1451.92782,mp-1223466,La6Mg(GeS7)2,https://materialsproject.org/materials/mp-1223466,10.307387522293805,-3.7689399144896414,12.613644631943886,4.7064515955958885
-6.2908509962500005,-150.98042391,4.856909723802554,-2.015240203411459,4.999999900000001,0.11250498608372232,0.4442999999999993,173,24,517.9354686913986,1514.9091672,mp-867965,Sm3MnAlS7,https://materialsproject.org/materials/mp-867965,7.1026578547341535,-4.778777308677342,11.482606335592205,3.6638947758353613
-5.338286025306123,-261.57601524,6.355861907165897,-2.010216470178572,0.0033531999999999998,5.0368416398397204e-05,0.0,12,49,775.8514718082481,2969.6409999999996,mp-1228371,Ba8Ca4Cu8Hg4O25,https://materialsproject.org/materials/mp-1228371,0.5453319842616446,49.52802305064827,4.870428965110454,46.944566408080185
-5.757119900714287,-80.59967861,5.512541066167941,-1.9107173985714283,1.5e-06,7.471993223629598e-08,0.0,162,14,233.95493860402507,776.6672,mvc-485,BaMg(SbO2)4,https://materialsproject.org/materials/mvc-485,-19.80446919898927,11.373027786350242,-16.342322442441393,45.56149736190565
-8.049750365769231,-418.58701902,6.986267900837753,-3.7399701604751288,1.9025e-05,2.9372368429723697e-07,4.7387,14,52,754.8542870433887,3175.8448000000008,mp-1199026,Tb4BClO7,https://materialsproject.org/materials/mp-1199026,3.908931835560343,38.67366263895513,6.6792482838225675,34.68005037490787
-6.011422746428572,-84.15991845,5.6447689796571305,-2.1702941917857146,0.0,0.0,0.0,162,14,229.52565771010617,780.2402,mvc-609,BaCa(SnO2)4,https://materialsproject.org/materials/mvc-609,-22.483638050759033,11.144255601011105,-13.702283272030526,46.78275278071978
-5.28638948475,-211.45557939,5.7757857677409215,-1.5328537301874996,0.0,0.0,2.972700000000001,148,40,597.4259172987518,2078.0024,mp-560198,ZnTe6O13,https://materialsproject.org/materials/mp-560198,4.643428143190409,19.30541915151035,32.35241359544961,-6.545035897783683
-6.8292117092857145,-95.60896393,3.4458592753346586,-2.966389853678044,0.0,0.0,4.0897,164,14,214.9250723690331,446.00068789999995,mp-8564,CsK2Sc(PO4)2,https://materialsproject.org/materials/mp-8564,-12.922568874366446,19.867249733868565,-6.013857165897684,28.296050562222995
-7.6939029283333324,-92.32683514,5.96504872698475,-3.642373834687501,0.0,0.0,2.9156999999999997,139,12,147.9272973793629,531.3898172,mp-1218238,SrLa2Al2O7,https://materialsproject.org/materials/mp-1218238,-6.92410047102012,18.90935327099217,-9.341133160547766,44.88577408802474
-6.871813771666668,-41.23088263,7.073996538978354,-3.519037787336668,0.0,0.0,5.1804,129,6,101.5866920945035,432.76544,mp-29731,HoClO,https://materialsproject.org/materials/mp-29731,-6.232955328438357,11.663392514649544,-11.434743343878386,42.35374373992425
-5.9269914775,-23.70796591,10.562797637553071,-1.5419094943749991,1.7899999999999998e-05,4.470827815393145e-06,0.0,166,4,46.659761467569396,296.8058000000001,mp-1178276,GaPtO2,https://materialsproject.org/materials/mp-1178276,-28.66950963958293,7.348568221159158,-46.690036927418326,10.977337955115743
-5.551625946666666,-99.92926704,6.597796447187522,-0.6659520473611111,0.00835925,0.000274691738749756,0.0,72,18,354.6493294389478,1409.1232,mp-17488,Tl2Fe3S4,https://materialsproject.org/materials/mp-17488,-6.481246836094238,21.785702676054047,-10.928971217204902,45.401858774782106
-6.288001781304348,-144.62404097,7.388989611837264,-1.9514167021739135,8.4161047,0.2521306237352743,0.0,139,23,389.01196472438636,1731.0074,mvc-248,Ba2Ca3Tl2(WO3)4,https://materialsproject.org/materials/mvc-248,-6.1419165071770525,19.094085172878703,6.878406601373972,25.998404428654627
-9.526058798333333,-57.15635279,8.783043846215504,-4.1365013075000014,0.9985987,0.14145747943246947,0.0,123,6,82.27019156770466,435.14948,mp-1226494,CePaO4,https://materialsproject.org/materials/mp-1226494,28.19510863131436,64.27328854137964,-11.451114789204205,35.38595437740818
-6.366778745555554,-114.60201742,5.798453731797529,-2.8636006187500005,0.0,0.0,2.7573000000000003,140,18,323.386294020172,1129.236,mp-754370,Ba3GeO5,https://materialsproject.org/materials/mp-754370,0.31581137040673324,28.520054554477987,-14.279147560150511,41.97240850555133
-6.967518522000001,-139.35037044,7.9322776132686545,-2.955804801916668,0.0,0.0,2.5935,62,20,269.41286254098094,1286.9662,mp-769263,TbInO3,https://materialsproject.org/materials/mp-769263,-14.90917343484035,38.337642053203176,-8.580703278255278,60.446214523950154
-5.6185507806060615,-185.41217576,8.94675119375324,-1.5300204919696976,3.9135214,0.08513300098315654,0.0,197,33,535.7315184204779,2886.4462,mp-1209935,Ni(Bi3O5)4,https://materialsproject.org/materials/mp-1209935,4.712684439080495,13.828823674828186,6.838265568312875,21.111433590412744
-4.594064336000001,-45.94064336,3.3092627478979324,-1.7353349671973797,4.0,0.15948061990572612,0.0,186,10,292.30046332773895,582.5211038,mp-610955,CsCrCl3,https://materialsproject.org/materials/mp-610955,-2.84015011400302,10.807175145001269,-1.6692972556030847,18.40523993108565
-5.116983345,-71.63776683,4.76656689831999,-0.5939212050676191,7.55e-06,3.0089431510240694e-07,0.34450000000000003,176,14,292.42223803025195,839.3962,mp-1245417,Sr3InN3,https://materialsproject.org/materials/mp-1245417,-4.431183099288805,20.251930753796625,-14.99400474376246,20.28315640286195
-7.758882505666668,-232.76647517,4.730595419743424,-3.566660338583333,0.0,0.0,3.7014999999999993,55,30,371.8940561288832,1059.4633888,mp-768382,La2Al4O9,https://materialsproject.org/materials/mp-768382,-0.6017100460871383,13.887856902865538,6.5055767253135794,31.304184249755988
-5.0494699475,-282.77031706,6.248036236147097,-1.5284377459821437,0.0,0.0,1.9309,14,56,799.0278290586277,3006.4664,mp-30941,Cd2(TeO3)3,https://materialsproject.org/materials/mp-30941,8.291538068051862,22.244947935926913,0.4384561457242455,37.35080462156273
-5.031713580714286,-140.88798026,4.29332107526045,-1.8839934358928576,2.0000006,0.058417031935261175,2.2099,62,28,398.99556285894073,1031.6024,mp-756841,BaLi2NiO3,https://materialsproject.org/materials/mp-756841,7.792057423876374,18.260914364823858,22.346886702883356,36.974848519458526
-6.541335885,-104.66137416,7.056219326479582,-2.02521111484375,5e-08,2.2628652830657958e-09,2.5259,12,16,257.5068180101827,1094.2378,mp-23637,VBiPbO5,https://materialsproject.org/materials/mp-23637,9.215799676071418,20.833778116497506,27.81074146714232,-3.1711033033685725
-8.30600326875,-132.8960523,5.240979138064522,-3.2796616934375,3.289999999999999e-05,1.6361302457281064e-06,3.9408,40,16,234.34487078171813,739.63728,mp-1223327,La2CO5,https://materialsproject.org/materials/mp-1223327,2.125273106162906,9.308201183926732,7.181238083663746,24.072575915062014
-2.4474739563888885,-88.10906243,4.108041041933868,-0.34816310546296275,0.00030365,2.4764848506032245e-06,0.0,225,36,1428.9434346128858,3535.092,mp-642322,Sr11In7,https://materialsproject.org/materials/mp-642322,1.209352896101288,5.995042227897942,2.9596846316579883,18.498121435589887
-7.564738379375,-242.07162814,4.171462789131134,-2.377404814101607,8.999999725,0.2982689206633743,0.8309000000000002,14,32,351.65105206031234,883.387408,mp-770541,Mn2PO5,https://materialsproject.org/materials/mp-770541,-3.0758367668391253,39.06041058812174,1.8144677847064077,50.15528041564597
-3.7752533833333337,-90.6060812,2.057374718217261,-1.0195071842083336,2.7125e-06,5.619591915670781e-08,2.0084,122,24,562.5257344295053,696.95815424,mp-12180,NaS2,https://materialsproject.org/materials/mp-12180,0.7792863536275408,24.904818971202477,2.728242635787049,18.412750874270834
-6.031225314285713,-84.43715440000001,8.825676027254648,0.2717863446942864,2.95e-06,1.271470891612351e-07,0.0,176,14,270.39149150677366,1437.1162899999995,mp-1246503,Mn(PbN)3,https://materialsproject.org/materials/mp-1246503,-4.290179919010074,19.748901270481575,18.72305421014996,57.928612094652316
-6.781708115000002,-135.6341623,7.393712276304995,-2.2376864800000007,9.16756725,0.42950519017045735,0.0,31,20,248.75001509503448,1107.58374,mp-1223018,LaFe2PbO6,https://materialsproject.org/materials/mp-1223018,-28.677990795136107,46.80903410371475,-13.291416834033035,64.17809807080319
-6.2687098475,-25.07483939,5.686109802470701,-1.1855829417525,6.1e-06,7.483817858998277e-07,0.0,166,4,94.99134860309073,325.2746400000001,mp-29404,La2CCl,https://materialsproject.org/materials/mp-29404,-2.056011689222641,25.71311028058139,-19.85893967732781,42.654121254408295
-7.080159599886364,-623.05404479,6.8955652626756025,-2.364267843409092,0.0,0.0,2.6135999999999995,213,88,1214.1482035973438,5041.879760000002,mp-1210326,Nb3Zn2Bi3O14,https://materialsproject.org/materials/mp-1210326,18.47560718039805,59.69811759316792,-5.65379420824425,36.641781693247474
-6.322518318823531,-214.96562284,5.804912494173945,-2.2856012286029417,0.0,0.0,3.3018,15,34,553.9268152039334,1936.4174,mp-2980,Pr2Te4O11,https://materialsproject.org/materials/mp-2980,6.487491072905517,17.549704389214877,35.50759716785564,-3.3038850680456795
-8.693052352777778,-469.42482705,6.6880455729829835,-3.72175591044753,0.46893320000000005,0.008237771858179792,0.0,31,54,663.4048600626363,2671.9528,mp-1178188,Ho5Ti5O17,https://materialsproject.org/materials/mp-1178188,3.4734909900546067,37.74030039180739,7.652071236962723,34.41689803997141
-8.148493018,-40.74246509,7.4945595875271955,-3.7616580272500015,0.0,0.0,1.5564,115,5,81.05965054999325,365.8489,mp-1217673,Tb2O3,https://materialsproject.org/materials/mp-1217673,24.42067496327235,61.8277105034874,-12.303408376952284,37.320063319445204
-8.496300711818181,-93.45930783,3.6376101760300315,-3.6567132687500012,0.0,0.0,4.5301,5,11,137.87354722638642,302.028562,mp-1207607,YScSi2O7,https://materialsproject.org/materials/mp-1207607,2.420149201055699,27.14452272732409,-5.682773320638702,28.912649836225327
-9.0556066275,-144.88970604,6.2611889777528695,-3.938170773593749,0.0,0.0,3.6948,63,16,284.4647141639837,1072.59588,mp-757094,La2HfO5,https://materialsproject.org/materials/mp-757094,0.5545102203382016,13.43135105272916,6.959346340009037,33.351429795027855
-8.332204933333333,-199.97291840000003,7.027962517026737,-0.5695763661111108,7.006647999999999,0.3333451932338889,0.0,139,24,244.95907332082814,1036.7496,mp-865177,GdNiB4,https://materialsproject.org/materials/mp-865177,-3.107852422859801,6.8990292029459965,5.877051209234887,25.09790091770988
-9.215771758999999,-184.31543518,7.762939927854421,-3.1933972604420005,4.999999900000001,0.2419914215541697,3.0309,62,20,240.79499315783883,1125.70498,mp-754657,HfMnO3,https://materialsproject.org/materials/mp-754657,-24.35690403227606,50.549922109805756,-6.9202756059961095,66.86624996740125
-7.256602554230769,-188.67166641,6.210526482873416,-3.2174914161369235,0.0,0.0,3.5961,176,26,429.35696671088084,1605.82362,mp-23117,La3W(ClO2)3,https://materialsproject.org/materials/mp-23117,0.18174242150826891,11.705149592461762,8.205758026692767,29.58278184230641
-5.957365640625,-95.31785025,4.006398518685645,-2.2458739340300005,0.0,0.0,4.1388,122,16,187.56793439506592,452.54695999999996,mp-23884,SrGe(HO2)2,https://materialsproject.org/materials/mp-23884,-14.832751976627153,0.9270213085729428,11.174781006837993,33.95059297289925
-8.1915533740625,-262.12970797,5.9438944793266,-2.394115194771251,13.00000035,0.3966099613408736,0.0,55,32,381.99455608727584,1367.3483600000004,mp-542392,EuMn2O5,https://materialsproject.org/materials/mp-542392,-2.9496813284102177,27.534886837643636,0.34730123430980225,49.50627506225304
-3.746220085625,-59.93952137,4.963918499600672,-0.9955942156250002,0.99942315,0.016549761543417925,0.0,193,16,703.7770359856306,2103.83,mp-9909,Ba5Sb3,https://materialsproject.org/materials/mp-9909,2.8499622708964125,23.31416026090589,3.032867122370534,24.981670670439982
-5.007532029375,-80.12051247,5.272927306494066,-1.5737683662499995,4.075e-06,1.744444693457431e-07,1.1372999999999998,1,16,272.23742963187055,864.4712,mvc-16287,ZnSnO2,https://materialsproject.org/materials/mvc-16287,18.000962162817302,33.125195116522626,22.296651685446125,39.178192725787326
-5.466859313,-54.66859313,4.141339404569353,-0.7747810460593335,0.0,0.0,1.854,161,10,136.22689996603012,339.7462,mp-552185,AgNO3,https://materialsproject.org/materials/mp-552185,-1.751550246135242,-21.57070619859576,13.32459209586805,-15.640790858714139
-7.75604011875,-248.1932838,6.302505048213264,-2.666497760708749,6.999999275,0.22192437684301636,1.0936999999999997,55,32,367.59569236698775,1395.1937599999999,mp-18525,TbMn2O5,https://materialsproject.org/materials/mp-18525,-2.0658339894292057,27.35478215875477,1.2018412778282417,49.768683396454705
-7.026838150333332,-210.80514451,7.469398956413035,-3.0195285882499987,1.3333333333333334e-07,3.580929651283457e-09,1.9883,185,30,433.9306979825832,1951.8972,mp-768149,DyInO3,https://materialsproject.org/materials/mp-768149,10.225899702574793,57.214193381913155,-1.1618858464785828,68.73425855376809
-5.636236492272728,-123.99720283,5.846233543029612,-1.8277253532954556,1.00000005,0.03611383307059967,0.0,40,22,322.7036391423796,1136.1376,mp-557735,BaCuTe2O7,https://materialsproject.org/materials/mp-557735,-0.9873623115933252,23.565250971160122,7.80397453937618,27.248600982750148
-6.6169784838888885,-119.10561271,3.4190886560512044,-2.3277240741944447,1.9999965,0.10531026983329536,0.14349999999999996,46,18,221.32778496141967,455.71907712,mp-1076048,Na2V2O5,https://materialsproject.org/materials/mp-1076048,-5.1980714837055215,51.70515097655798,56.62736213023923,30.049284314533026
-7.096475599166666,-85.15770719,6.606526852342813,-1.7334436756944445,0.0,0.0,2.3008,88,12,180.0019516612595,716.1456000000002,mp-7094,ReAgO4,https://materialsproject.org/materials/mp-7094,1.081985858066742,-17.394501328700855,-10.006396385802512,31.2645483838058
-3.897194889285714,-109.12145690000001,3.976184911589393,-1.2814298249014775,5.9998582,0.06851567532853367,1.3066,194,28,1020.5363335279532,2443.6891114,mp-23451,Cs3Cr2Br9,https://materialsproject.org/materials/mp-23451,1.3866933008362834,19.572422875165955,-1.5452780092543434,-3.7156367855258585
-3.0776780725,-24.62142458,3.922248171175263,-1.519736677348391,0.0,0.0,2.2017,129,8,263.9079463441904,623.3593038,mp-567558,CsAgCl2,https://materialsproject.org/materials/mp-567558,4.735489619654125,-3.0136473860426785,1.5625644676218582,21.8427629911271
-6.741521315999999,-33.70760658,8.358633766214801,-0.7880727009999987,1.5e-06,2.0210060587752567e-07,0.0,107,5,86.49700520657126,435.39885,mp-1068588,TbSi3Ir,https://materialsproject.org/materials/mp-1068588,-47.20035769424551,29.59588426192907,-26.32584402901575,33.441061546286356
-8.997431436875,-143.95890299,3.925403953813321,-3.3944991848437507,1.9999995,0.12320963454497255,0.0,63,16,189.174521977657,447.19599999999997,mp-8057,Ti3O5,https://materialsproject.org/materials/mp-8057,17.539237935883342,3.2571025284808406,63.02600035160305,33.612102457144516
-5.760241247333333,-86.40361871,7.7724504300835395,-2.113351879333333,0.0022037,0.00011769920550357642,0.0,139,15,218.20081477533355,1021.328,mp-1208481,Sr2YbCu2(BiO4)2,https://materialsproject.org/materials/mp-1208481,-5.281565304076991,20.344497160597673,-10.472628783531416,44.957401969202955
-5.638059381363636,-124.03730639,6.769069166516839,-1.8130105850245453,0.0,0.0,2.1998999999999995,63,22,426.08029849893603,1736.8859999999993,mp-557563,MoPb3Cl2O5,https://materialsproject.org/materials/mp-557563,8.248733937993213,6.143262013279452,6.42740117636735,25.470587498649806
-7.663094622000001,-229.89283866,5.3481478749970845,-3.2816379952499997,2.5e-06,5.6568328783353076e-08,3.4284,176,30,515.0437101117459,1658.81672,mp-540949,Ba3SrNb2O9,https://materialsproject.org/materials/mp-540949,-19.180201387715552,5.528543716231189,-11.54475896720139,28.841315465576372
-4.774019368333334,-114.57646484,7.398671210751551,-1.2341918885416672,0.000428925,1.0886096268796256e-05,0.0,129,24,459.18386252916224,2045.93228,mp-669434,BiTeIO3,https://materialsproject.org/materials/mp-669434,22.037401854395934,59.68348153756753,-14.662991147537436,39.0811917878485
-7.678671247037037,-829.29649468,4.885984796214514,-2.529299593912037,0.9999999944444444,0.008649508546340988,0.07820000000000005,174,108,1347.3672689467335,3964.5054,mp-1198371,NdCO4,https://materialsproject.org/materials/mp-1198371,-13.221558496814554,-17.919381607297574,-3.0421866196294185,-17.444336734749545
-7.304766995714287,-306.80021382,4.069450454193983,-2.6447998351309527,3e-07,5.717518837529797e-09,2.3239,189,42,611.4924202468247,1498.57248,mp-541626,K3Nb3Ge2O13,https://materialsproject.org/materials/mp-541626,17.006518761352357,58.764770697605584,53.60388961548985,21.217783955078712
-7.452518533888887,-134.14533361,6.631580664198982,-2.783803432638889,7.99999745,0.3780776704356251,0.9231999999999996,46,18,246.59612495810424,984.814,mp-1076463,Sm2Fe2O5,https://materialsproject.org/materials/mp-1076463,-21.972983379291808,44.22353069594479,-8.990766348346288,62.33485872920014
-5.936204645416668,-142.46891149,4.989182574709858,-1.942343250911459,2.0000003,0.04599952521125735,0.2632000000000003,173,24,506.70377431710267,1522.4198772,mp-1192334,Sm3AlNiS7,https://materialsproject.org/materials/mp-1192334,7.251508527241341,-4.933696975987486,12.279740599339519,3.687132195555213
-7.702278913400002,-385.11394567,4.305076956950737,-2.8533388145700007,0.0,0.0,2.8442000000000003,146,50,619.7869317930769,1606.84595424,mp-1221192,Na4LiNb5O15,https://materialsproject.org/materials/mp-1221192,-10.835792197059817,50.91817883564697,51.296443826736244,16.036108820914972
-5.849288165,-233.97152659999998,6.506768375212351,-0.4676227155,4.25e-07,4.343955190366472e-09,0.0,62,40,1140.1999586280306,4467.83656,mp-28754,Nb3GeTe6,https://materialsproject.org/materials/mp-28754,-3.5524235051408684,4.247161264300699,-4.524452864666479,-2.364118771944611
-9.886370630454543,-435.00030774,5.3528529710884785,-3.6497926514772736,14.000000425,0.2724170477502581,3.2104,62,44,598.923280008487,1930.6672,mp-13775,Gd2Si2O7,https://materialsproject.org/materials/mp-13775,8.302818977580657,13.134539319638419,23.54589851853456,35.21660593425332
-8.910325969,-89.10325969,6.1896070438010655,-3.0645216778093336,0.0,0.0,1.3118999999999996,24,10,124.89869036971193,465.55594,mp-1222738,LaTiNO2,https://materialsproject.org/materials/mp-1222738,-28.317279739465302,46.246597566464494,-13.400985697272205,64.71646382068593
-5.65570146375,-45.24561171,7.802227185665637,-0.6232558756249995,0.69524225,0.04261297044478316,0.0,129,8,190.1392493775816,893.39039,mp-1078695,NdCoSb2,https://materialsproject.org/materials/mp-1078695,-52.667585337080325,32.22853814867988,-42.96831014981709,32.551656312882265
-9.3209388975,-111.85126677,9.093105288779693,-3.764408949166666,0.0,0.0,4.0139000000000005,13,12,149.69908427015946,819.7516,mp-5985,HoTaO4,https://materialsproject.org/materials/mp-5985,20.964768969431447,53.32589882901434,-3.5904861125748893,35.27981744841268
-6.8976989634375,-220.72636683,6.797024974587227,-1.899309074771249,6.999999925,0.20930126357146212,0.4890000000000008,55,32,389.7656953514258,1595.4139599999999,mp-504697,Mn2BiO5,https://materialsproject.org/materials/mp-504697,2.278475852953461,12.135158025522385,0.2426905464659629,49.15582816454258