energy_per_atom,energy,density,formation_energy_per_atom,total_magnetization_uB,total_magnetization_T,band_gap,sgr,num_sites,cell_volume,weight,mp_id,formula,URL,tsne_xrd_lin1_0,tsne_xrd_lin1_1,tsne_xrd_lin2_0,tsne_xrd_lin2_1
-7.597882977,-75.97882977,5.951107951945107,-0.2930130856666665,3.06e-05,3.2602731790993715e-06,0.0,131,10,109.38174884438331,392.00680000000006,mp-1079430,Sm(BC)2,https://materialsproject.org/materials/mp-1079430,-20.057690843555147,72.08745072325107,-54.656117973873826,11.648253677996044
-4.419221833428571,-154.67276417,3.6359290584323847,-1.5784610183047618,1.0,0.010335199967972292,0.052999999999999936,225,35,1127.6090263056765,2469.0214,mp-866664,K8Zr6BBr20,https://materialsproject.org/materials/mp-866664,-10.602863338781328,24.436929376178565,-24.333168247272827,8.818318213685215
-7.706641973000001,-77.06641973,11.404328085414672,-1.0477145295000014,1.175e-05,7.956904585985954e-07,0.0,129,10,172.09614567799733,1181.93,mp-1087538,Sm(SiIr)2,https://materialsproject.org/materials/mp-1087538,-46.87295850364495,27.89584224361135,-28.352373449265073,34.028296829736426
-7.352371064285713,-102.9331949,6.572536498873116,-1.8738956076785729,1.99999905,0.10303774719808904,1.1666,32,14,226.20951163604371,895.3539999999999,mvc-15895,W2O5,https://materialsproject.org/materials/mvc-15895,14.789819009021391,11.693773112513375,48.955942034012175,19.33559899422897
-8.8190008585,-176.38001717,7.783289993941562,-2.916098366416667,6.999994125,0.2986684990676145,2.5205999999999995,62,20,273.14023807317915,1280.2648,mp-1212778,GdInO3,https://materialsproject.org/materials/mp-1212778,-22.268942953213482,31.385917633612603,-22.301981157395577,57.06652391162159
-7.031200675625,-112.49921081,11.205241608180092,-0.4371205006249994,3.55e-06,1.2003168399509676e-07,0.0,62,16,344.67507715943515,2325.85168,mp-623836,ThNi,https://materialsproject.org/materials/mp-623836,-38.265225817190846,4.157676842075853,-28.522183180238294,13.785832180126102
-4.2002501718181815,-92.40550378,3.092309478018452,-1.8011931386094362,2.9293245,0.061952313003420974,2.5167,63,22,551.04540585855,1026.1745676,mp-542535,Cs2CrH2Cl5O,https://materialsproject.org/materials/mp-542535,0.1146754792736267,14.553083144711454,41.743529546021115,14.135755783078187
-6.78405027,-135.6810054,5.516518198314687,-2.4640333397500003,9.000001199999998,0.4672127510997599,0.0,31,20,224.4942944965118,745.7981,mvc-9383,PrMg(FeO3)2,https://materialsproject.org/materials/mvc-9383,-8.16535660880809,46.75824162972943,-0.5967372444433497,64.47796105093016
-8.060088344772728,-354.64388717,5.913376831695148,-2.6590282294318204,11.99999475,0.22185251384231827,0.0,92,44,630.3679578148651,2244.8152,mp-22828,Eu2Ge2O7,https://materialsproject.org/materials/mp-22828,2.0195809551262944,17.552015923635054,6.36255072817567,35.808991444062116
-5.60936445875,-44.87491567,5.531883541955128,-1.7022836345312509,0.0,0.0,0.9338000000000006,194,8,188.19190983187858,626.9384239999998,mp-13312,ScTlS2,https://materialsproject.org/materials/mp-13312,-3.3023720844075486,15.864046547160426,-15.224073116299165,42.38869670687663
-5.9719710858695665,-274.71066995,7.209135753796237,-2.5440256414310154,0.0,0.0,2.7910000000000004,36,46,707.9619040899623,3073.576322,mp-1229224,AlB2Pb6(OF)7,https://materialsproject.org/materials/mp-1229224,10.87405265495785,20.261645352503333,33.528946197662876,-0.9854599242303336
-3.2247159266666667,-38.69659112,4.834447399749061,-0.6051876716666668,0.0,0.0,0.015300000000000313,62,12,540.4516586234571,1573.4560000000001,mp-1981,Ba2Sn,https://materialsproject.org/materials/mp-1981,9.450738321564467,18.50722398847163,30.16360980060991,4.526468793819912
-3.6593504216666655,-21.95610253,4.929999355294856,-0.8270074000000001,0.0051081,0.0002527920913702664,0.0,139,6,235.4904694289584,699.1512,mp-2768,Ba2As,https://materialsproject.org/materials/mp-2768,-23.49873950897567,49.66387416537842,3.904994844523441,46.379670383334826
-3.79507176,-15.18028704,4.091729385300156,-0.4501278009049998,0.0,0.0,0.4531000000000001,156,4,75.66115887595713,186.43644,mp-979137,SrGaSiH,https://materialsproject.org/materials/mp-979137,-54.08944073011861,25.612825938114643,-50.2368143394876,30.682646464421783
-6.4708227166666665,-155.2997452,7.143147636087772,-0.3757509211899984,2.225e-05,5.479780111237959e-07,0.0,64,24,473.1995370720687,2035.5644,mp-1247287,Ba2IrN3,https://materialsproject.org/materials/mp-1247287,-8.459204462582786,35.14719669057295,-3.070491771748282,44.67971729235264
-6.493765795333331,-194.81297386,7.259060532895682,-0.6660210935555558,3.65e-05,9.919724473225121e-07,0.0,127,30,428.81570485811136,1874.5715,mp-1208405,Tb5(SiB4)2,https://materialsproject.org/materials/mp-1208405,-5.753711346622831,24.990150247890895,20.35500669420692,51.272036434922406
-8.200436739,-164.00873478,6.526485445093048,-3.2321274417500008,2.0000003,0.09417744200241784,1.0340999999999996,62,20,247.4916768363747,972.7268,mp-541129,NdVO3,https://materialsproject.org/materials/mp-541129,-20.757157605970352,44.68155614867123,-7.0381244629186055,62.914875229595786
-6.03030962,-120.60619240000001,8.500617051258326,-1.5253908494419997,3.980340575,0.19317407876621487,0.0,62,20,240.13132183245256,1229.27818,mp-770870,MnTlO3,https://materialsproject.org/materials/mp-770870,-24.25974766228077,50.09617961848394,-7.157651612936429,66.3928117738241
-4.020400781666667,-48.24480938,3.0832512518311908,-1.7957605089583335,0.0,0.0,4.251,139,12,172.50199801596702,320.2978,mp-28592,Li7Br3O2,https://materialsproject.org/materials/mp-28592,-23.57102951186697,34.028807005311656,-19.1802963788042,59.072945506781174
-6.553990591500001,-131.07981183,7.865062579292442,-2.041708985875,20.0000008,0.9346089503165446,1.5656,6,20,249.38912118860287,1181.21947,mp-1222983,LaFe4(BiO4)3,https://materialsproject.org/materials/mp-1222983,-18.73842231584925,52.20768077368653,9.212144832505308,63.66104991271306
-5.605785429090909,-61.66363972,3.5858105640310747,-1.7842801815134082,5.000000099999999,0.3251003582353055,3.6292,166,11,179.237960070254,387.05104499999993,mp-19137,K2Mn(SeO3)2,https://materialsproject.org/materials/mp-19137,-12.67731665779219,11.606519423403801,2.1169906604083497,50.84610085978996
-4.728258671428572,-66.19562140000001,4.729249111807309,-2.1112282426662556,0.0,0.0,1.6482,14,14,413.24359717902144,1176.9262076,mp-754272,Cs2Ba2O3,https://materialsproject.org/materials/mp-754272,9.198647426856162,-17.456952118405255,16.260704651471872,-14.007985334174526
-8.850764493157895,-168.16452537,5.691973392886684,-3.6860322134210537,0.0,0.0,3.4356,148,19,265.26386220563177,909.2679,mp-19005,Y6WO12,https://materialsproject.org/materials/mp-19005,17.56883520084335,60.77789758308182,-5.1979380035779785,37.48592980201365
-7.995062299999999,-159.901246,6.434290159865874,-2.9925060646919985,8.00000105,0.37190651896993016,0.0,26,20,250.68807794892047,971.3712199999999,mp-1222975,LaPrMn2O6,https://materialsproject.org/materials/mp-1222975,-21.59683965482705,44.72962406117004,-7.828707306295006,63.215459255320866
-9.003113968292682,-738.2553454,4.34885666204408,-3.0537551735060973,0.8245085999999999,0.007969392812175008,0.0,63,82,1205.7225508137622,3157.71832,mp-1470,Nb12O29,https://materialsproject.org/materials/mp-1470,19.425491725923237,-8.461349650379766,47.714869657745005,2.339965927303006
-7.857612899999999,-23.5728387,5.8490451834724855,-0.11893198833333213,2.46e-05,6.001485486952473e-06,0.0,139,3,47.76983865548735,168.2634,mp-2297,NdC2,https://materialsproject.org/materials/mp-2297,-8.336389522128242,-26.30179576577708,-3.8269209075034794,-19.130053926682464
-6.081009356428572,-85.13413099,6.528325590734936,-0.2284698188771423,0.73509455,0.026059389207945444,0.0,176,14,328.74291224921,1292.4362,mp-1029626,Ba3IrN3,https://materialsproject.org/materials/mp-1029626,-3.8258804894839686,18.11593356029223,5.827210998464463,27.5049799722544
-7.641567658571428,-106.98194722,5.872748045955054,-3.6383658957142853,0.0,0.0,3.5992,227,14,255.7999213255036,904.6752,mp-754942,SrSm2O4,https://materialsproject.org/materials/mp-754942,-21.029484349770573,-5.615380036348107,-17.45793741704897,54.382262257061775
-4.3623901975,-34.89912158,4.70604322824128,-1.1045950530729174,2e-07,1.1924307658770506e-08,0.6100000000000003,121,8,195.46736139415108,553.9634,mp-7394,BaAg2GeS4,https://materialsproject.org/materials/mp-7394,4.2602834105433045,19.002521396322496,0.8831181814704827,25.411663848881087
-6.916327367857143,-96.82858315,6.761390118824936,-2.1634403584107145,1.9999958999999998,0.12799285150627307,0.0,164,14,182.10455888086426,741.49413856,mp-1221401,Na2(WO3)3,https://materialsproject.org/materials/mp-1221401,-10.370558063842326,51.164532880205634,10.476144969631024,35.51956553234852
-6.3680313138888875,-229.2491273,5.238119391668082,-0.8285864922222225,0.11459665,0.001825100905273218,0.0,62,36,731.7495585913513,2308.281504,mp-1212379,Ho2Sc3Si4,https://materialsproject.org/materials/mp-1212379,-2.7355361551320745,23.230015842083787,19.836051034232852,34.284100845895765
-6.684663546428572,-93.58528965,3.047640513650208,-2.4465249381428587,2.0000001,0.10745187246094268,1.8096,164,14,216.9169338486684,398.1146,mp-18761,K3V3O8,https://materialsproject.org/materials/mp-18761,-21.79032643073996,25.01446289580709,-6.1555720259963485,22.30770642570351
-7.55740838,-75.5740838,5.650163789658609,-0.5841842417499991,7.122330900000001,0.5044252150965737,0.0,123,10,164.5518565607629,559.9055000000002,mp-1222755,LaY(MnSi)4,https://materialsproject.org/materials/mp-1222755,-60.07473080341134,15.703172565833556,-60.21198587012418,24.861053587804502
-6.984341513055557,-251.43629447,6.874536436944537,-3.6527226655095153,0.0,0.0,2.7258000000000004,176,36,628.5249439449068,2602.0572384,mp-1194932,Sm2SeOF2,https://materialsproject.org/materials/mp-1194932,-0.6739080922141318,15.505647767919092,15.738311278687119,51.299528348079654
-4.646964761666667,-27.88178857,7.928553928734123,-0.1820232283333336,0.00032915,2.9152268405005464e-05,0.0,58,6,131.58274226198432,628.26639,mp-9945,CoTe2,https://materialsproject.org/materials/mp-9945,-22.356213517005717,41.02714020085885,-24.586157658884158,35.739588910279934
-6.02701795875,-144.64843101,5.5366382243681755,-4.046443057418333,1.655e-05,6.28290270866996e-07,7.3269,63,24,306.9835407760005,1023.55726976,mp-1210003,NaLiHo2F8,https://materialsproject.org/materials/mp-1210003,0.13449077289499295,-8.156267082215447,47.18181720872251,1.6677618502677933
-5.5690395566666675,-33.41423734,7.390473373662872,-0.5963433324999995,0.135803,0.012540275570571757,0.0,187,6,126.20591544430988,561.6980000000002,mp-1226816,Ce2CuGe3,https://materialsproject.org/materials/mp-1226816,-54.904039720256,21.415382686296894,-50.3440346861255,27.021515600918153
-3.8291497633333336,-11.48744929,8.187822488115552,0.2652333370833333,0.0116486,0.0018692932850834327,0.0,166,3,72.62292118252577,358.0907,mp-1215848,Yb2C,https://materialsproject.org/materials/mp-1215848,28.67760153504198,61.80775515651452,-14.949653463021395,40.58456985419288
-6.454737105,-64.54737105,2.0880276183256723,-1.8061129689,1.0,0.08828022894225804,0.6513,167,10,132.0121720592992,165.99733856,mp-1120755,NaCO3,https://materialsproject.org/materials/mp-1120755,-15.359657095799198,22.842844906332846,-1.0080270231348962,9.56693726730359
-4.8619346425,-38.89547714,3.9102510293117927,-0.22231297982142809,0.00159285,0.00011523380149218738,0.9213000000000005,122,8,161.09142311190917,379.33941200000004,mp-1009086,BeSnP2,https://materialsproject.org/materials/mp-1009086,-10.401161704723934,-6.260933876523207,-12.277191928428097,-9.058566849242562
-7.078049025625,-339.74635323,7.812930343055731,-2.398646297552084,5.000009099999999,0.09235278360884697,2.0332,4,48,630.9547762153849,2968.678,mp-1217452,Ti3Fe(BiO3)5,https://materialsproject.org/materials/mp-1217452,-11.348251782477815,33.48039662574965,-2.3469088966454272,43.64318353866121
-7.491754795892858,-419.53826857,6.6256287244229926,-3.216681931116073,5.0010752,0.07891978566639545,0.8319000000000001,5,56,738.5075088725075,2946.67963,mp-766206,SrLi4La15(CoO8)4,https://materialsproject.org/materials/mp-766206,-7.4411323756864975,19.880315963321664,-24.376723947885914,38.220120993377634
-8.6608721125,-34.64348845,11.071138288366406,-3.1167204815625014,0.9859254999999999,0.2745411588866949,0.0,139,4,41.85179258553476,279.03407999999996,mp-861975,PaO3,https://materialsproject.org/materials/mp-861975,26.937667350877952,60.080965871782674,-12.073504792495994,38.00398728890746
-8.132642297954545,-357.83626111,3.7767582329404696,-3.52654084443182,0.0,0.0,4.7096,14,44,610.2852712952192,1388.0432,mp-17468,SrZrSi2O7,https://materialsproject.org/materials/mp-17468,6.991120768584027,19.797981880013374,30.617590199589724,0.364133457545582
-8.0113793535,-160.22758707,7.780920221848296,-3.0663681779420005,4.0000008000000005,0.2021071530600234,0.4485999999999999,62,20,230.65125458298905,1080.78098,mp-19319,ErMnO3,https://materialsproject.org/materials/mp-19319,-9.481974993026473,44.641722572522696,-3.0528635340906076,63.48450997714329
-5.639014948333332,-101.50226907,5.242394351539091,-2.04351041875,0.0,0.0,1.5166999999999993,55,18,231.87958876677712,732.054,mvc-3800,Mg2Sn2O5,https://materialsproject.org/materials/mvc-3800,4.5742433827936235,8.577283405486536,9.932524282212492,20.809291068145214
-7.774652934605262,-590.87362303,6.943584153843343,-2.7914247359868414,6.000000099999999,0.0629504368063924,0.8328000000000002,55,76,1110.784822920626,4644.7736,mp-16386,Sm4Mo4O11,https://materialsproject.org/materials/mp-16386,10.445349754737151,27.261990373014125,2.0126902647722447,34.33805211533145
-8.801503841282052,-343.25864981,5.94464109552617,-3.455488778397436,0.0,0.0,3.0289,189,39,565.9287426963717,2025.99468,mp-6169,Ba3Ta6(Si2O13)2,https://materialsproject.org/materials/mp-6169,-3.1608294786883606,13.469905392199696,8.156420287314099,32.19409489061461
-5.967522517857143,-167.0906305,3.82716865888137,-1.0892918987992612,5.0000012,0.10567481638532396,0.0,62,28,551.4117728409768,1270.88,mp-1238882,Rb(CrS2)2,https://materialsproject.org/materials/mp-1238882,4.691275760666981,10.930771058621966,10.256417734788004,20.39847599685458
-7.416448809183673,-726.8119833,6.936554862475313,-3.0528644606122453,7.565e-05,6.621697752134873e-07,0.013199999999999434,2,98,1331.4259168049437,5561.75356,mp-774931,LiLa14(Cu3O14)2,https://materialsproject.org/materials/mp-774931,-8.088482023687602,20.51956532212084,-8.169017221007397,56.78723176650671
-3.5139925130000003,-35.13992513,2.97587629432068,-1.5018094818500003,0.0,0.0,3.0712,225,10,331.0888781829479,593.3492198399998,mp-1113373,Na3ScBr6,https://materialsproject.org/materials/mp-1113373,-21.66824509994863,-20.068303615197607,-17.837098120048193,-11.920052158934428
-7.0797343365000005,-141.59468673,7.124413413907865,-0.9761297320000004,4.55e-06,1.5595790113742475e-07,0.0,72,20,340.0019769977663,1458.7520000000002,mp-1188214,Ce2Si5Rh3,https://materialsproject.org/materials/mp-1188214,-45.19758389767322,23.222995152022254,-32.61543998206824,19.58089593060529
-6.82509468,-204.7528404,4.379782023079992,-2.6181059937857145,2.5e-07,7.693216222452836e-09,2.4752,43,30,378.7123757989222,998.879048,mvc-8687,CaSn2(PO5)2,https://materialsproject.org/materials/mvc-8687,4.381295587680956,6.430139375262799,9.209489477107024,12.93376622248432
-4.953017101,-49.53017101,4.260794030231716,-3.4129585394053787,0.0,0.0,6.6989,225,10,167.49324816833231,429.77263088000007,mp-1112569,Cs2NaAlF6,https://materialsproject.org/materials/mp-1112569,-24.00143209592037,6.36994977422155,-28.249992383243733,-8.305565811475198
-5.9159821657142855,-41.41187516,4.208680024101087,-1.2442779451785722,1.865586,0.14605929149002914,0.0,87,7,148.8550290843001,377.277,mp-27660,Ba(FeS2)2,https://materialsproject.org/materials/mp-27660,-2.8194544981353697,11.748214539093913,0.7808227814603427,44.44075823358409
-6.522863408333333,-39.13718045,5.815447822386608,-1.4895374086805555,0.024235299999999998,0.0020080881508880944,0.0,123,6,140.6510744349069,492.5804,mp-1070806,BaTi2Sb2O,https://materialsproject.org/materials/mp-1070806,-25.777696795027214,28.362286273172174,-23.19681731249105,58.170078978546044
-6.7979980596428575,-190.34394567,4.737896529348906,-1.871752065267857,7.99995705,0.24092707179380765,0.9083000000000006,85,28,386.9719452622834,1104.1192,mvc-10542,MgMo4O9,https://materialsproject.org/materials/mvc-10542,1.079323262828998,21.802149174865736,-5.823255967889128,59.07551876938396
-6.8393401625,-355.64568845,5.103497633496244,-2.407934804134616,0.0,0.0,4.7451,88,52,777.7743288653273,2390.4101928000005,mp-18944,Na5Y(WO4)4,https://materialsproject.org/materials/mp-18944,25.65313195568073,57.25373144477231,39.19989545564884,-7.069182823446073
-3.323321606666666,-29.90989446,6.30773899012214,-0.27353572638888857,0.0001485,7.755999310971925e-06,0.0,189,9,223.134189333527,847.5996,mp-1095154,SmMgAg,https://materialsproject.org/materials/mp-1095154,-37.840569241368,14.133854164603058,-2.8859595030433702,20.417910255937112
-5.6928122275,-22.77124891,5.438374354928434,-1.5749059093749995,0.0,0.0,1.4316000000000004,31,4,82.26363363612899,269.4188,mp-545552,SnO,https://materialsproject.org/materials/mp-545552,-7.174802285859845,-19.5319893217938,0.9799313250782812,21.10116206045909
-9.663601178518515,-521.83446364,8.422165607560919,-3.4452481224537017,0.0,0.0,3.2269000000000005,188,54,683.4155961141315,3466.2475200000003,mp-15492,DyTa7O19,https://materialsproject.org/materials/mp-15492,12.038489732429454,54.41176211806609,1.8805222750126815,38.94823920154942
-7.46580244,-52.26061708,5.802904813778034,-3.570886891785715,0.0,0.0,3.220399999999999,107,7,90.85601347594093,317.50460860000004,mp-1218184,SrLaAlO4,https://materialsproject.org/materials/mp-1218184,-7.335318916741484,19.25182897213617,-24.43197989142476,38.00024970115083
-3.309873110714286,-92.67644709999999,2.957491793557593,-0.3222437797285715,0.0,0.0,3.4102,62,28,364.6912067285937,649.5308000000001,mp-1192424,SrGaH5,https://materialsproject.org/materials/mp-1192424,5.413616267338562,23.50507691143235,5.009125006970319,15.06587887072654
-8.811112853684211,-502.23343266,5.25614581224151,-2.6881216727813078,5.0000422,0.06937947595186514,0.0,6,57,839.8854973300697,2658.5106,mp-760837,Rb3Nb20O34,https://materialsproject.org/materials/mp-760837,20.685679462750315,24.307637089252587,32.29086696990873,40.78919228771736
-10.634530316666668,-63.8071819,8.54246848079434,-3.122450672500001,6.6454688,1.0526262968212956,0.0,129,6,73.57475684684766,378.4976,mp-21149,GdO2,https://materialsproject.org/materials/mp-21149,-15.508590168079257,28.069176300713444,-23.73039095563265,42.134097541515615
-7.748928126,-38.74464063,5.208065809947062,-0.4306428859999997,1.0689256999999999,0.15686734822021256,0.0,139,5,79.41314420236097,249.06905,mp-4740,Y(CrSi)2,https://materialsproject.org/materials/mp-4740,-61.15332233484935,13.990238860751665,-57.708904141085135,20.55751433127948
-6.489949465,-233.63818074,5.709900413801115,-2.3146556163888885,0.0,0.0,1.3565999999999998,14,36,571.5290018468003,1965.2496,mp-4599,Ce(TeO3)2,https://materialsproject.org/materials/mp-4599,9.944188190690909,19.28534708140349,27.20359727207993,-5.489347569680632
-7.397308932222222,-266.30312156,5.689625657159564,-2.783195042222223,0.0,0.0,4.0029,88,36,469.1003093272834,1607.3125,mp-17019,Ca2YAs(WO6)2,https://materialsproject.org/materials/mp-17019,25.603225126725146,57.61470084891501,-6.725874181817868,34.05259197446464
-6.0023300609523815,-252.09786256,7.45963496970515,-1.8708931627380951,29.3106159,0.5601237060316845,0.0,38,42,609.8435266064163,2739.5984,mp-1218820,Sr4Fe6Bi7PbO24,https://materialsproject.org/materials/mp-1218820,-12.123673913764222,33.019072274440774,8.415428699202945,54.52793892904066