energy_per_atom,energy,density,formation_energy_per_atom,total_magnetization_uB,total_magnetization_T,band_gap,sgr,num_sites,cell_volume,weight,mp_id,formula,URL,tsne_xrd_lin1_0,tsne_xrd_lin1_1,tsne_xrd_lin2_0,tsne_xrd_lin2_1
-4.248627424666667,-63.72941137,4.893373604778018,-2.494368037622046,1.9756943,0.09097969035012067,4.864999999999998,166,15,253.07702471144364,745.7821845,mp-505492,CsNiF3,https://materialsproject.org/materials/mp-505492,1.5565077007084176,-7.9080619481121115,9.751571691965195,-11.200211869805868
-4.4514101219999995,-22.25705061,7.58428729200745,-0.0703958954375004,0.025081400000000004,0.0027715542246937656,0.0,119,5,105.46438441729407,481.6943,mp-1216642,TlFeCuSe2,https://materialsproject.org/materials/mp-1216642,-15.032680343974304,31.89152229874411,-13.119934798459685,51.59074154028306
-3.717171313636364,-40.88888445,5.228133079416983,-1.5416939822727271,0.0,0.0,2.1541,12,11,454.3096617012889,1430.3737,mp-754198,Ba(LaI4)2,https://materialsproject.org/materials/mp-754198,17.351999192595134,32.513382297039705,31.963116873529195,37.559030067916325
-3.997372491875,-63.95795987,4.9821959806115235,-0.5261582755729171,0.00032685,9.726299613304256e-06,1.3979999999999997,9,16,391.63209261009837,1175.0328,mp-1205392,AgSbS2,https://materialsproject.org/materials/mp-1205392,7.3069451457960914,17.6343168921558,3.1035706946897013,25.892524308147653
-7.3553886535714295,-102.97544115,6.94792990012014,-2.98172891,1.8291874,0.11068385169611436,0.0,12,14,192.59781905022396,805.85648,mp-1223008,La4CuNiO8,https://materialsproject.org/materials/mp-1223008,-22.470990612780838,38.48806428777244,-14.222329196547234,59.10595670001924
-1.97410278,-15.79282224,3.338287396790048,0.6795472294832763,4.5e-07,3.8781230727942704e-08,0.0,167,8,135.22853837315716,271.8585438,mp-1006815,CsH3,https://materialsproject.org/materials/mp-1006815,-1.4785242639689182,-21.83752942978944,13.878666921738331,-15.879838564441235
-5.08647160625,-40.69177285,5.698119822517923,-0.4526117437500004,2.375e-05,3.654633511473226e-06,0.0,194,8,75.73510106536449,259.884092,mp-864894,Be3Rh,https://materialsproject.org/materials/mp-864894,-25.839700698669844,42.16227551089943,-24.90324308263724,43.9161124551351
-7.25614569375,-174.14749665,8.12622980958851,-2.3874241488888885,0.0,0.0,3.1791,12,24,315.0163131777119,1541.6048,mp-17335,ErAg(WO4)2,https://materialsproject.org/materials/mp-17335,21.248920808796946,32.10539942063869,29.33646442926276,37.88469129371756
-6.377733134117648,-216.84292656,5.683668271112005,-2.3240030936029417,0.0,0.0,3.3419,15,34,563.4033770919498,1928.40868,mp-31249,La2Te4O11,https://materialsproject.org/materials/mp-31249,6.567696054308441,17.722741443829687,35.47353260560459,-3.2429095753998025
-4.386566448333333,-52.63879738,4.8156004772774414,-0.3956807716666664,1.875e-06,6.654988661065588e-08,0.16549999999999976,198,12,328.34573522850474,952.21,mp-1227766,BaSiGe,https://materialsproject.org/materials/mp-1227766,17.223451541302474,59.69470349296177,-15.204480122814774,41.59954639028361
-6.415383995000001,-64.15383995,5.8579415758258735,-2.474822818437501,2.5e-06,1.247132960022609e-07,0.8991000000000002,63,10,233.61712716558347,824.1392999999998,mp-1078537,PrLuS3,https://materialsproject.org/materials/mp-1078537,8.262191734459787,-7.1626557653949865,13.911652174098625,5.075513751829254
-4.695694733333333,-28.1741684,12.053294024533312,-0.14053346833333316,3.3e-06,2.689045610965206e-07,0.0,97,6,143.01882271027276,1038.1255,mp-1219917,PdRhPb4,https://materialsproject.org/materials/mp-1219917,-37.658811151655634,39.89723476637822,-49.94909253674289,32.697982322225755
-4.01529919,-32.12239352,5.4299386208843865,-1.8891050552975008,1e-07,6.485748312085159e-09,0.0,129,8,179.6872806618813,587.5748063999998,mp-1078903,SrZnSbF,https://materialsproject.org/materials/mp-1078903,-8.661527275115303,-23.88466710216321,-5.048581691922439,-20.224791009328374
-3.53484238,-35.34842379999999,6.501333785575402,0.0015451859999998873,2.375e-05,8.651036393740341e-07,0.0,15,10,319.9432134496235,1252.64,mp-1078904,Sb2Te3,https://materialsproject.org/materials/mp-1078904,2.1227044261190047,28.45639578506281,-14.679226915077136,29.102128142524442
-3.64004877125,-145.60195085,5.407807482615037,-1.122002478562501,7.41e-05,6.256586495877408e-07,0.0,140,40,1380.2513562558343,4495.0064,mp-605809,Ba11In6O3,https://materialsproject.org/materials/mp-605809,-11.196058488660626,-24.11168579952773,33.02454637443043,-5.526959742541479
-6.706887815625,-107.31020505,3.1933030063371786,-3.1040740716041064,0.0,0.0,5.429500000000001,15,16,170.50092118949289,327.88214616,mp-8678,NaAlPO4F,https://materialsproject.org/materials/mp-8678,22.148164933196586,22.060005214713932,52.29029140741022,40.05303058028511
-4.6739973125,-56.08796775,6.023362468800736,-0.2478992041666661,0.000545175,1.826380882655017e-05,0.0,62,12,347.87402905488784,1261.8621544000002,mp-1101848,Nd2Al,https://materialsproject.org/materials/mp-1101848,18.126102969012898,33.13787527663635,11.378676562112934,39.13635560870463
-5.608236535263157,-106.55649417,7.465477658981513,-0.15862680684210548,0.0080949,0.00018507129325712537,0.0,204,19,509.74133949734716,2291.70317,mp-1210632,Nd12Co6Pb,https://materialsproject.org/materials/mp-1210632,-10.335541024934091,21.663004935803126,-11.436309485396487,48.57579353023985
-6.5881965475,-105.41114476,3.9663046327480114,-2.3548602300172314,6.0,0.3606140796404113,2.8682,5,16,193.90365652135304,463.15139400000004,mp-644003,BaCo2P2H2O9,https://materialsproject.org/materials/mp-644003,12.529889927396738,15.049371810549154,57.819250824169394,37.154096632745905
-6.145377472222222,-110.61679450000001,5.363323693179768,-2.46143742375,5.2e-06,2.4616075251341293e-07,1.4125000000000003,55,18,246.18521108074836,795.1460000000002,mvc-3803,Ca2Sn2O5,https://materialsproject.org/materials/mvc-3803,0.5328880693239108,8.227620881247761,6.793743760720563,26.13119190602819
-7.140972400454545,-157.10139281,6.551650524809125,-3.2308729825,0.0,0.0,3.0638000000000005,167,22,417.5872192673859,1647.5888,mp-756014,Ba4HfO6,https://materialsproject.org/materials/mp-756014,-11.249852173975945,14.817958937190198,-14.184077295274856,26.482172499838363
-5.220827427272726,-114.8582034,3.0623815353666437,-1.354507974269968,0.0,0.0,1.6981000000000002,64,22,477.46489593092065,880.5451999999998,mp-554602,Rb2PdN2(ClO2)2,https://materialsproject.org/materials/mp-554602,3.1894289846054686,-1.8035014104608649,9.990480004632118,12.918262430182939
-6.0114932462500015,-144.27583791,6.719161532553063,-2.0244923445833334,5.2e-06,1.8210054625518624e-07,0.0,15,24,332.7894290464518,1346.5903999999996,mp-756897,DyTe3O8,https://materialsproject.org/materials/mp-756897,9.771533515507363,25.60736314766014,34.684630102303004,-0.041409736688767664
-6.406459167777778,-115.31626502,5.673803528917753,-0.21261406957629625,1e-07,3.440279971492137e-09,0.8529,15,18,338.7533825482531,1157.4676,mp-1246226,Ti(SnN)4,https://materialsproject.org/materials/mp-1246226,1.5056106141866032,27.03251566271924,-1.4624298763083392,27.021348008528353
-5.3365387949230785,-693.75004334,7.8497261234770495,-1.68861173129,5.5e-07,2.582679059435251e-09,2.1162,13,130,2481.816546849392,11732.082,mp-560085,Bi24Cl10O31,https://materialsproject.org/materials/mp-560085,1.5196229181611538,24.59083418874857,0.02852340811970188,25.939676046083154
-6.635136420714286,-371.56763956,5.886109397085407,-1.97382207875,3.9007488875,0.03912893115148476,0.0,29,56,1161.7894703134555,4118.1928,mp-21707,Er2CrS4,https://materialsproject.org/materials/mp-21707,0.948304443083436,16.361962510249132,10.196252068861968,11.014036444256368
-6.010360452857142,-42.07252317,5.372147884337279,-2.3661087635714284,2.0044864,0.2534628460927624,0.0,139,7,92.16504391639928,298.170795,mp-18724,Sr2CoO4,https://materialsproject.org/materials/mp-18724,-23.14993542680215,40.331337740351636,-14.25885063152724,57.72573611956078
-3.99745670125,-63.95930722,4.924522494894587,-0.5262424849479173,4.75e-07,1.3971276334873468e-08,1.3671000000000002,15,16,396.2186871322797,1175.0328,mp-3922,AgSbS2,https://materialsproject.org/materials/mp-3922,7.316459525039706,17.59931082302401,3.115597376783531,25.817335067809445
-3.316337995,-6.63267599,3.4418267009764394,-1.54784428,1e-07,2.7814580671185582e-08,4.9246,225,2,41.899120861572726,86.845,mp-23259,LiBr,https://materialsproject.org/materials/mp-23259,30.77995248654869,64.01659015237938,-14.288946619685138,33.357670911606704
-7.957906314000001,-318.31625256,4.988433513082941,-3.6871182567500007,0.0,0.0,4.4785,14,40,569.5811930175979,1711.0816688,mp-771698,LaAlO3,https://materialsproject.org/materials/mp-771698,30.252506103784903,25.53018734572589,34.498298123535946,36.70384272228311
-9.956249238571427,-69.69374467,7.235614396516778,-3.47281343309524,13.9439595,1.7029939619500027,0.0,139,7,95.42242123564259,415.7926,mp-1025200,Eu2TiO4,https://materialsproject.org/materials/mp-1025200,-23.939373686566988,39.3872341262359,-14.421470773691972,59.482702578248045
-7.3396815,-176.152356,8.053020277502938,-2.4929632906250005,4.5e-07,1.5061651734200725e-08,3.3402000000000003,15,24,348.1908385747284,1688.601,mp-1209958,NdTl(WO4)2,https://materialsproject.org/materials/mp-1209958,26.87925135877582,52.64866736918865,39.46679730617985,-0.4613493204949196
-4.747938016,-94.95876032,3.823436008870501,-1.0668639661562502,0.000467025,1.0233894349353439e-05,0.0,12,20,531.834648141404,1224.5636479999996,mp-1232150,MgScSe3,https://materialsproject.org/materials/mp-1232150,4.411710407088794,-8.360326848121407,9.436071451294506,-3.0111978980326186
-8.655664502499999,-173.11329005,6.429525076650402,-3.587370802583334,0.999999575,0.04698312203949508,0.0,62,20,248.04779490357188,960.4288,mp-3119,NdTiO3,https://materialsproject.org/materials/mp-3119,-20.695813389702447,44.734289303731394,-6.831523668661177,63.02737315192299
-5.5752008696875,-178.40642783,5.428116495019529,-1.4935883001562509,2.99999985,0.0724934936728072,2.0432,60,32,482.2804199142069,1576.52078,mp-765473,CoTe2O5,https://materialsproject.org/materials/mp-765473,18.814993669857774,-10.062425766992543,33.16610607908841,-1.9708857182878077
-5.5407365945,-110.81473189,6.599747185619734,-1.75026395275,0.0035639000000000005,0.00012116006261224656,0.0,139,20,342.8020797236477,1362.4534,mvc-10727,BaTl(SbO3)2,https://materialsproject.org/materials/mvc-10727,2.9156932627666032,19.84604117206484,5.9141178120062605,22.424061839047994
-6.851269075499999,-137.02538151,6.038240561311135,-3.0441677197233745,0.0,0.0,3.7369,12,20,335.20205102291317,1218.8997499999996,mp-555909,Tb5Se2Cl3O10,https://materialsproject.org/materials/mp-555909,12.340832789614947,24.22455505213405,1.4275793848814349,37.25454810758036
-6.108224055625,-97.73158489,7.874911045297389,-0.8136599524999992,3.49625595,0.14446884475667965,0.0,141,16,282.03723350437684,1337.5284,mp-1208055,TlTcO2,https://materialsproject.org/materials/mp-1208055,-29.58828560500093,21.625969226684283,-25.386450263035933,43.44585504351971
-5.712641167999999,-28.56320584,6.3693008352819644,-0.6152733089999991,3.3e-05,3.604445415555167e-06,0.0,44,5,106.6971733944916,409.2565,mp-1225291,Dy2Si3,https://materialsproject.org/materials/mp-1225291,-36.41622629589709,26.896366539912144,-27.517325401262745,27.555840977978917
-6.7424571775,-26.96982871,7.723391236866657,-2.5791962912500006,0.0,0.0,2.7834000000000003,166,4,79.09270307597146,367.870839,mp-996952,LaAuO2,https://materialsproject.org/materials/mp-996952,27.751720751956228,64.31347608642197,-11.295578229830694,37.632058991571284
-5.856342587916667,-281.10444422,5.229933405451586,-1.3767035319629173,1.0000001833333334,0.017734656907336138,0.3826999999999998,176,48,657.1351771861682,2069.67324,mp-733590,TlCuHCO4,https://materialsproject.org/materials/mp-733590,-1.7060607939549155,14.700268508721404,7.21345188742864,32.557528189804394
-8.165388066,-81.65388066,8.104081627068922,-0.5758031542499993,2.55e-05,1.8763650144350758e-06,0.0,63,10,158.3799790627331,772.9563999999998,mp-1205506,NdSiRu2C,https://materialsproject.org/materials/mp-1205506,-34.47163858818951,20.333493011909923,-27.43703536927737,37.572766761404296
-3.908544253333333,-23.45126552,2.4901667849635856,-1.74325010896,0.0,0.0,3.8464,129,6,102.07822120001178,153.07788,mp-23859,CaHCl,https://materialsproject.org/materials/mp-23859,-25.22198214777546,43.419224658844,-50.87458899545854,34.53416103791997
-7.365719115500001,-294.62876462,6.219710281374298,-2.3133679997187517,4.00161725,0.08468567034189536,0.03350000000000008,14,40,550.684743218252,2062.6432,mp-1197213,PuTeSO7,https://materialsproject.org/materials/mp-1197213,19.804430776501423,-3.236199029880147,48.249989784689646,1.2057016501403246
-6.592140412000001,-32.96070206,8.456601459034665,-0.4434972250000008,4.582924299999999,0.6446990491516742,0.0,139,5,82.84438562491572,421.90032,mp-3065,Ho(FeGe)2,https://materialsproject.org/materials/mp-3065,-46.26691180491379,24.904173660822764,-30.71315563992095,35.116632835715855
-7.339221542000001,-73.39221542,5.999242916359652,-2.8884857717500005,0.0,0.0,2.8816999999999995,11,10,144.9419830318724,523.6505400000001,mp-1079050,LaAsO3,https://materialsproject.org/materials/mp-1079050,10.130323180218124,41.26271404472396,-19.535918214408586,17.453619117406017
-8.43158549125,-674.5268392999999,6.65709531223012,-3.89975704334375,0.00017309999999999998,1.5339691253611706e-06,3.7596,2,80,1315.0972720230652,5272.22045,mp-867976,Sm27Y5O48,https://materialsproject.org/materials/mp-867976,22.72688018936252,57.01235670007833,-1.5625107540285157,37.6851925352407
-7.238899676666668,-130.30019418,5.747976247497427,-0.03986043179851922,1.75740455,0.07868872223896382,0.0,15,18,260.27753246639594,900.9538699999999,mp-1246109,Mn3(InN2)2,https://materialsproject.org/materials/mp-1246109,-0.7499473459510421,27.878475612029114,-2.7995726808044625,44.844273055551156
-7.031573520666669,-210.94720562,7.729814914198028,-3.031870499583333,0.0,0.0,1.9574000000000005,185,30,425.4457022475865,1980.4512,mp-772217,ErInO3,https://materialsproject.org/materials/mp-772217,9.97007480142931,57.24885431593136,-0.9512627040514056,68.9274113918988
-7.8959708475,-189.50330034,5.657427594342309,-3.570810619270835,0.0,0.0,5.107,113,24,269.3442964741982,917.651328,mp-1208884,Sm2Be2SiO7,https://materialsproject.org/materials/mp-1208884,-2.655034956054375,12.623854708706048,6.371659202235023,30.78078429106723
-6.669281726,-33.34640863,6.02097045977646,-2.8595465047500004,1.0000001,0.19514000664741546,0.0,221,5,59.7215616530293,216.5452,mp-975521,NdMgO3,https://materialsproject.org/materials/mp-975521,-29.684272670945468,53.14483049919625,-18.296974425196176,64.84952412271484
-4.0405320675,-48.48638481,4.243917792100501,-0.3603088076302079,0.0,0.0,0.5793999999999997,9,12,236.52340493356775,604.4939999999998,mp-1120816,Cu2SeS3,https://materialsproject.org/materials/mp-1120816,-10.530494261657195,9.644006603914711,2.20445353522767,18.84127689353772
-6.811618718421053,-258.8415113,7.435947246743605,-0.6226778801754375,1.55e-06,4.6501030227075746e-08,0.02149999999999963,128,38,388.46021925229684,1739.5373599999998,mp-505720,Ho4NiB14,https://materialsproject.org/materials/mp-505720,0.8879167943667898,7.279427154666475,-20.807393674607265,15.741902531720743
-5.1941703200000005,-31.16502192,5.944811760753697,-0.6012155716666664,3.935e-05,3.7730111195955674e-06,0.13860000000000028,109,6,121.54415512281355,435.1340772,mp-1225273,DyAlSi,https://materialsproject.org/materials/mp-1225273,-47.54638558940694,20.870340508021282,-29.311667574804677,27.53787659556625
-7.481235847500002,-209.47460373,4.229595714052575,-1.901713085583216,0.0,0.0,1.8507,14,28,472.64191588368556,1203.8766771199996,mp-679669,NaZr2SN2Cl,https://materialsproject.org/materials/mp-679669,-14.647766797367627,36.923844116933644,-10.13214649486403,62.03524268146518
-7.1410981866666665,-171.38635648,6.866210639458402,-2.8024847233333325,0.0,0.0,3.5753000000000004,14,24,297.8077036928475,1231.41364,mp-756550,TmAsO4,https://materialsproject.org/materials/mp-756550,9.177007378557402,17.25358198638892,22.480957797202603,36.82893166301928
-7.612079571875,-243.5865463,6.258480396136553,-3.2319850756250004,0.0,0.0,2.0844,57,32,532.2427292168933,2005.9936,mp-17750,Pr2SiTeO4,https://materialsproject.org/materials/mp-17750,-1.4145197012728101,30.05205494251299,2.5958195985116044,28.608066426066593
-4.9437010006666675,-74.15551501,10.689091843220677,-0.4749951553333337,0.0001544,4.6636983668969335e-06,0.0,115,15,385.8284690226371,2483.6248,mp-1217660,Tb4Ni3Bi8,https://materialsproject.org/materials/mp-1217660,-44.192605258254346,27.131260053551497,-25.28844583045984,31.243510863759127
-7.4687652646875,-239.00048847,6.569074451026863,-2.6056756234012504,8.000000575,0.2575325676407035,1.0702000000000005,55,32,362.0222705643897,1432.1561800000004,mp-1213032,ErMnFeO5,https://materialsproject.org/materials/mp-1213032,-2.069980376087856,27.364042431866217,1.1316560325602203,49.685064563716104
-6.964851965454545,-76.61337162,3.049157425391268,-3.0000187877759745,0.0,0.0,5.3203,12,11,121.20019776819073,222.553324,mp-5427,Mg2P2O7,https://materialsproject.org/materials/mp-5427,2.1701838317524262,27.5210279122645,-6.003833703750463,28.25653829865944
-7.053694877142857,-98.75172828,4.201121441900283,-2.7087896120561226,2.8656886000000004,0.1600037244354974,0.0,164,14,208.72589485158684,528.07119328,mp-1214445,BaNaY2(PO4)2,https://materialsproject.org/materials/mp-1214445,-16.726702449879912,17.22715385699091,1.657552715051999,27.608968959269408
-8.679398998333333,-260.38196995,6.589487367462363,-3.934460696583332,1.6666666666666667e-08,4.25607011998411e-10,3.0795000000000003,185,30,456.3703308457711,1811.00622,mp-768889,YHoO3,https://materialsproject.org/materials/mp-768889,10.560501017604274,56.34403543656278,-7.741351804698943,41.89198840974661
-7.17169268,-200.80739504,6.104435329480571,-2.7382980416666665,0.0,0.0,3.0136000000000003,62,28,336.2081243730497,1235.9605544,mp-559276,AlBPbO4,https://materialsproject.org/materials/mp-559276,-0.6541601987237284,14.345994002385266,6.903847485920787,32.19037339258602
-7.261449685,-43.56869811,4.692907521250531,-3.1538449779166675,0.0,0.0,3.6598,166,6,130.78586065823185,369.6185,mp-754031,YBrO,https://materialsproject.org/materials/mp-754031,-14.09519796147264,33.691145494466404,-14.324663704381877,53.6634068591046
-4.950847031428571,-34.65592922,4.171487818646666,-2.120169631071428,3e-07,2.617801159825854e-08,0.0,139,7,133.55557654350218,335.5088,mp-545481,Ca2Cu(BrO)2,https://materialsproject.org/materials/mp-545481,-34.786275471721304,26.15814072418482,-27.294870815094022,29.44255133539771
-8.325910304666667,-249.77730914,8.211685611466143,-3.9533600529166657,1.6333333333333333e-06,4.178851751303033e-08,3.0531,185,30,455.50724444608704,2252.57112,mp-768145,DyHoO3,https://materialsproject.org/materials/mp-768145,10.529095076012617,56.477532637212676,-7.786886341361419,41.96357515401064
-5.402724323125,-86.44358917,3.7470743472409733,-1.8734231738362064,0.0,0.0,3.8842,57,16,341.0320557643134,769.5527999999998,mp-30299,RbAsO2,https://materialsproject.org/materials/mp-30299,2.496240029740892,22.060298840263087,10.966950821479573,-2.3643575009341697
-6.4929211521739125,-149.3371865,5.748375580358903,-2.327626900869565,13.6761703,0.4583996946439334,0.0,139,23,347.6943295971422,1203.6318,mvc-149,Ba2Ca3Tl2Cr4O12,https://materialsproject.org/materials/mvc-149,17.29188896947569,52.55614919139729,4.107332610284679,47.64482906440338
-6.065052219999999,-145.56125328,5.887009117024576,-2.107854191770833,11.0147639,0.377577195870674,0.0,164,24,339.97490671820077,1205.292575,mp-22557,Ba5Co5O14,https://materialsproject.org/materials/mp-22557,-16.41221550420745,19.85476290854781,-14.002645842755252,45.01322034614581