energy_per_atom,energy,density,formation_energy_per_atom,total_magnetization_uB,total_magnetization_T,band_gap,sgr,num_sites,cell_volume,weight,mp_id,formula,URL,tsne_xrd_lin1_0,tsne_xrd_lin1_1,tsne_xrd_lin2_0,tsne_xrd_lin2_1
-7.853128915757576,-259.15325422,5.4048120812589975,-2.3710042889393943,0.0,0.0,3.8759,157,33,483.6292552873023,1574.1426,mp-768770,Mg(ReO4)2,https://materialsproject.org/materials/mp-768770,-4.758472115979723,-34.19485741044749,23.020058978926805,-18.832024243487268
-3.9439470671428567,-138.03814735,6.884500245075821,-0.4255992366428578,0.0,0.0,0.5462999999999996,148,35,1167.658497647666,4841.0456,mp-557619,Bi14Te13S8,https://materialsproject.org/materials/mp-557619,-22.28127764302333,-35.514051462235926,-7.659277110058339,-22.448326563940487
-4.141290605,-33.13032484,3.684993329932444,-1.0433310355416667,1.655e-05,1.1958155947731093e-06,0.9551,63,8,161.29140047087142,357.9306,mp-997088,KAgO2,https://materialsproject.org/materials/mp-997088,2.821582711992791,-25.244868017083935,-6.420006712762129,-33.10121344976774
-2.685634007,-26.85634007,3.568442535667565,-1.0850482188689656,0.0,0.0,1.7559,225,10,464.6151179455421,998.4422586,mp-1114509,KRb2AlI6,https://materialsproject.org/materials/mp-1114509,-21.557011657812094,-44.570654176298135,-14.860692485078006,-28.70197722228604
-7.24895798,-159.47707556,3.2231701367194217,-2.5492230693993507,1.99999995,0.08983941910120348,1.1651999999999998,4,22,259.4421156726281,503.587124,mp-752517,LiV2PO7,https://materialsproject.org/materials/mp-752517,51.30768235776915,-34.66156659926938,66.48337516928149,-21.603993605821444
-3.833550128,-19.16775064,4.040214583414579,-0.9477607140000004,0.0,0.0,1.0810000000000004,164,5,138.00656362360178,335.7802,mp-8280,Ba(MgAs)2,https://materialsproject.org/materials/mp-8280,-2.5802065386762973,-28.67820991307062,-1.4900275409466188,-20.964390637931174
-10.779220681666667,-64.67532409,7.3974487414965475,-4.202429389980002,7.00000035,0.945185350325792,3.1402,129,6,86.30948147759756,384.4956064,mp-754349,GdOF,https://materialsproject.org/materials/mp-754349,-11.383237287434858,-24.32657105923234,-10.705044112006416,32.886402841359754
-3.078000873,-30.78000873,4.726948620931703,-0.3214372595999997,2.8e-06,1.1140169972879374e-07,0.008300000000000196,8,10,292.9163688041376,833.826,mp-1223689,K2Cd3SnAs4,https://materialsproject.org/materials/mp-1223689,-2.6909070382140974,-8.528530773922508,15.717658663406098,-22.296161486374327
-3.3309613408333334,-79.94307218,3.848153448884209,-0.6163419382968751,8.205e-05,1.3496742436324528e-06,1.2213,14,24,708.4791156827633,1641.83815424,mp-1190500,Na2TeSe3,https://materialsproject.org/materials/mp-1190500,24.495082467677864,-22.80601874088387,9.037049301572896,-41.38831270191913
-6.471038908461537,-84.12350581,5.307818662625448,-2.7109784469230767,0.0,0.0,3.9108,166,13,215.80843601819316,689.8194,mp-9783,Ba3(AsO4)2,https://materialsproject.org/materials/mp-9783,-13.969439013956563,3.4187852833613466,-10.083056510588618,27.489606340779705
-6.2757725490104175,-1204.94832941,7.740100647186022,-1.8808411701041667,1.0005927625,0.0037646832455399725,1.2473999999999998,15,192,3097.464542055221,14437.8944,mp-647265,V2Bi7O15,https://materialsproject.org/materials/mp-647265,11.545503369660642,23.4002060158777,33.720840314831435,0.14827338358657485
-5.206629147575757,-171.81876187,8.221433380549588,-1.4735208196590903,0.0,0.0,1.4151000000000007,38,33,631.0991574480339,3124.6116799999995,mp-1227670,Bi10Te2I4O17,https://materialsproject.org/materials/mp-1227670,22.397691584828614,59.53232171028782,-14.460601222543035,39.08517903751545
-5.923304926666666,-266.5487217,4.632162258077371,-2.008420379527778,3.229999999999999e-05,3.324834963824013e-07,1.4437999999999995,1,45,1132.1653442934698,3158.23564,mp-1223580,La12Sn5S28,https://materialsproject.org/materials/mp-1223580,8.394757796583429,15.684899668820414,32.322102036335174,2.4831984870995023
-6.089340304074074,-164.41218821,2.624745677964288,-1.699226669647408,3.0000016,0.09132376496464356,1.8278,2,27,382.83805948778513,605.136355,mp-601334,K2Cr4Co(HO4)4,https://materialsproject.org/materials/mp-601334,32.15841730281294,-15.0325999290011,45.857213669885304,-20.10793746447052
-7.694693059,-153.89386118,2.4753742110533112,0.21211363854800144,1.5425e-05,4.227941610086539e-07,2.8186,64,20,425.1807751740776,633.8191999999998,mp-1245838,Pd(CN)2,https://materialsproject.org/materials/mp-1245838,6.65361434307192,-26.56454072684984,44.75046515102147,-34.09907889566237
-5.469467570625,-350.04592452,7.283726548731535,-1.680399425468751,8.75e-08,1.1818174345810475e-09,0.0,61,64,862.8495719903353,3784.7712,mvc-7468,ZnSnBiO5,https://materialsproject.org/materials/mvc-7468,-7.963070529186434,39.21569426181535,-5.843545015905992,31.794860526032785
-5.655111372857142,-79.17155922,6.889408980662483,-1.8620151703571437,2.05e-05,9.381344683026649e-07,0.0,123,14,254.66320224831142,1056.5719386,mp-1255282,Ba2AlBi3O8,https://materialsproject.org/materials/mp-1255282,-19.491811211436907,6.4783242943486234,-16.839859674419866,37.454988955320296
-5.0320893496875,-161.02685919,2.809495144720052,-2.95139849480625,4.999999775,0.14963144748288634,3.5827,62,32,389.42563358747424,658.8760639999999,mp-775764,Li2FeF5,https://materialsproject.org/materials/mp-775764,10.285782332693623,-33.95508679707241,36.330363689537116,-45.05285707564011
-5.67958965125,-227.18358605,5.403458972403915,-1.0798562649760008,0.0,0.0,2.7867,62,40,654.9108756512447,2131.1056,mp-5915,TlNO3,https://materialsproject.org/materials/mp-5915,7.284572973260418,15.835220276252016,30.779662253354612,1.0373849813739096
-6.0839544158333325,-146.01490598,3.7894962110439265,-1.3143319743055573,0.001936075,4.476849793386256e-05,0.0,10,24,503.99599039187126,1150.1632,mp-647004,TiBrO,https://materialsproject.org/materials/mp-647004,6.6417468502947665,-21.330395417594726,11.131396757085406,-11.656222710055443
-7.1261404045454535,-156.7750889,6.249712817911403,-3.0964921506363634,0.0,0.0,3.4197,167,22,378.3094573897657,1423.83009856,mp-8961,Ba3NaTaO6,https://materialsproject.org/materials/mp-8961,-18.537817039952785,4.6179813623496635,-17.48884699287317,44.96845308734903
-2.72555083,-98.11982988,5.314457275339075,-0.8378381480277777,1.7075e-05,1.9699483446258518e-07,1.5522,60,36,1010.1440300925816,3232.9064,mp-1211986,K2Hg3S4,https://materialsproject.org/materials/mp-1211986,28.88551840524961,-28.298203095116893,3.752923098740025,-45.115182895439695
-6.0016173266666675,-108.02911188,4.988237666291669,-1.7985254360488514,3.99999995,0.15811952268691692,0.4517000000000002,46,18,294.8165901046743,885.6252000000002,mp-1099822,Rb2Mo2O5,https://materialsproject.org/materials/mp-1099822,-20.97073250745246,29.97873365522001,-21.923632283290733,54.869944454496974
-6.157690458888888,-110.83842826,6.902232030061692,-1.6707578882710723,4.00000015,0.15661348084975105,0.0,46,18,297.65164904974137,1237.2252,mp-1075937,Rb2W2O5,https://materialsproject.org/materials/mp-1075937,-22.799773432766404,20.440588017190194,-17.489066355576227,47.529336319471454
-8.29632661011905,-696.89143525,4.2243925271359615,-0.7581337771933322,1.999999675,0.0199536449471992,0.0,205,84,1168.1136864580722,2971.668,mp-1247099,Sr(CrN2)2,https://materialsproject.org/materials/mp-1247099,1.9722485065426645,28.152742963724197,-6.511301043016213,29.954363200791263
-5.8247110775,-675.66648499,4.650575922323045,-2.3485776571120685,0.0,0.0,1.7836,15,116,2232.7875066431548,6253.2392,mp-706599,Sr6Te6O17,https://materialsproject.org/materials/mp-706599,12.2458487339289,-21.18075692347513,28.149201824599032,-7.579035451933159
-3.769038805,-37.69038805,4.858152997036388,-0.5161176954827589,4.4e-06,1.4367792724753767e-07,0.9630999999999998,63,10,356.8946600330458,1044.1482076,mp-8857,Cs2As2Pd,https://materialsproject.org/materials/mp-8857,20.657641624680952,-9.671070485083696,41.99413128395342,-1.1027433978557557
-4.2540571966666665,-12.76217159,5.0956471171031525,-0.6089752522222222,0.1091021,0.012933620600836757,0.0,164,3,98.30835304849012,301.67593999999997,mp-1207060,TiI2,https://materialsproject.org/materials/mp-1207060,-17.704127810294,20.746513240222274,-20.52552541777465,-7.914853082722733
-7.11962289,-313.26340716,3.3583006809479823,-2.1688671887500006,6.000000475,0.11476274733726433,0.0,62,44,609.2952268347617,1232.2484,mp-1244794,CaCr3O7,https://materialsproject.org/materials/mp-1244794,27.936032647890862,-27.099401537600283,56.72708023152524,-9.649413100468998
-4.153507608571428,-29.07455326,4.742723254922577,-1.123217266785714,0.8212708000000001,0.03250103358866616,0.0,107,7,294.48734523783236,841.09554,mp-1228023,BaBi2(IO)2,https://materialsproject.org/materials/mp-1228023,5.571084775409084,27.39789123575847,-15.705508910875054,41.06678057142622
-5.52496442828125,-353.59772341,6.935271983190387,-1.7211526862500008,0.000673125,8.601160726084442e-06,1.3321999999999998,61,64,912.0446181454404,3809.1712,mvc-16190,ZnBiSbO5,https://materialsproject.org/materials/mvc-16190,6.393810545738987,29.316851967521288,33.6751917232728,-5.681017339932586
-6.3445110620000005,-31.72255531,4.802659140995615,-2.12032647085,0.0277165,0.005104001416499542,0.0,221,5,63.285618460932824,183.0365,mp-1040469,KMoO3,https://materialsproject.org/materials/mp-1040469,-11.421611137074757,49.69096466632379,1.5244504224155202,42.51423240251789
-7.526050456599999,-376.30252283,5.429900231288003,-3.23152232585,1.0,0.014822372565476425,0.0,87,50,786.248269032435,2571.00228,mp-1228343,Ba5Ca2Nb3O15,https://materialsproject.org/materials/mp-1228343,-23.10710044878788,13.2444262013685,-29.174423603723067,49.408731723836574
-6.938823985588236,-235.92001551,2.6660355315421804,-2.6132528560147072,4.0006266,0.08710774187843415,0.5151,20,34,535.2401580136492,859.341,mp-1202728,K2ZrSi3O11,https://materialsproject.org/materials/mp-1202728,28.60736395023517,-21.43407504630743,25.64615365386661,-31.50895637195653
-6.849697585370372,-369.88366961,4.055854844235682,-2.4161003358884483,4.0000003,0.06815812021021804,0.1341000000000001,90,54,683.942902807194,1670.5256960000004,mp-1195143,BaTiCu4P4O17,https://materialsproject.org/materials/mp-1195143,3.819517986692492,24.46447318765668,22.86707459673693,-3.0354506588293138
-4.028603918,-40.28603918,7.000621831665274,-0.4872558442187504,0.00032460000000000003,1.2128728162268546e-05,0.5248999999999997,160,10,311.8966287777139,1314.9165999999998,mp-1227434,Bi4(TeS)3,https://materialsproject.org/materials/mp-1227434,-22.88963386398179,-35.770970716883504,-32.71826793339442,-22.46176227518996
-5.008014117777779,-360.57701648,4.730536575272642,-1.7627156373515325,0.0,0.0,2.6609000000000003,61,72,1687.752874082273,4808.0632304,mp-504924,Cs2Te2O5,https://materialsproject.org/materials/mp-504924,6.1100630769902695,-33.720406105061834,20.112623074188093,-20.93018343470956
-7.304674057045455,-321.40565851,3.235423406114364,-2.8058350476359752,5.000000425,0.11210608581666423,3.8838,14,44,519.7784615464141,1012.745476,mvc-1233,MgMnP2O7,https://materialsproject.org/materials/mvc-1233,6.793296933590003,31.706106287789364,31.081662290553666,-3.3689941513665724
-3.8856501113636366,-85.48430245,6.1116857201723835,-0.6198374912157134,0.0,0.0,0.6092999999999997,8,22,763.2294965486739,2809.0991556999998,mp-650619,Cs3Bi7Se12,https://materialsproject.org/materials/mp-650619,-0.3283032116591892,-11.83548196599523,0.3605895367711779,-0.2376528799849124
-4.7185825700000015,-33.03007799,4.675328378535125,-0.5502133977678574,4.999999900000001,0.3215507528965111,0.2509999999999999,121,7,181.2165643292581,510.22404500000005,mp-1078002,Mn(GaSe2)2,https://materialsproject.org/materials/mp-1078002,-13.406000595835009,-26.87698883107848,-16.257909666578787,-38.09597813754113
-4.887174377083333,-117.29218505,2.3377160187090085,-1.4551672162916671,2.999999925,0.08047163078424316,0.7781,15,24,434.46607335898597,611.64373424,mp-776508,Na2CoO3,https://materialsproject.org/materials/mp-776508,63.954573709836005,-32.07390678738695,67.08281624923103,-38.71954475204411
-4.550200526999999,-91.00401054,4.1715704136474505,-1.06510258825,0.0,0.0,1.0162000000000002,13,20,396.6345602363131,996.4168,mp-1181480,Dy(BrO2)3,https://materialsproject.org/materials/mp-1181480,33.96062246436787,-6.073713948684395,43.44300302277021,-5.529085518381407
-5.73369635625,-45.86957085,2.289835056037264,-2.2794627223750004,0.0,0.0,3.6312,121,8,168.41109249271804,232.234,mp-19052,K3VO4,https://materialsproject.org/materials/mp-19052,27.50294733695477,62.8138600910223,-11.12816907472503,32.59593113622889
-6.246946381081082,-231.13701609999998,7.572082867101742,-1.8574749454054056,0.0,0.0,2.7983,5,37,605.614153268506,2761.6096,mp-558215,Bi10(MoO8)3,https://materialsproject.org/materials/mp-558215,-10.13163010162357,-29.320480298874564,-0.7108614993029034,-29.69343161235467
-6.5737156345833325,-157.76917523,3.668409671139587,-2.6970768890732764,2.15e-06,4.461716051523237e-08,3.2844,64,24,561.5830091305138,1240.6312,mp-756073,Rb2ZrO3,https://materialsproject.org/materials/mp-756073,9.907296706043725,26.819360063841916,35.635255116827146,-1.240965273975384
-7.309264030740741,-592.05038649,4.553829514211294,-1.2107622100766668,0.7969354000000001,0.00707157326184576,0.0,174,81,1313.3621652845068,3601.7385,mp-1214762,Ba6Si6CN14,https://materialsproject.org/materials/mp-1214762,5.5542418328163015,-23.983402431102697,20.571208234777746,-19.931732507171446
-4.68967734,-75.03483744,1.1704182872228102,-0.6402959951862499,3.9399999999999995e-05,2.999381986614635e-06,2.5777,82,16,153.08825420969853,107.90308928,mp-505381,NaLi3(H2N)4,https://materialsproject.org/materials/mp-505381,-18.34926281032511,14.7496480096977,-9.47985181044867,-3.1477744068396727
-3.3854277625000004,-40.62513315,6.3258591563109245,-0.4164932336979171,0.00021185,5.6680100069141585e-06,1.5602999999999998,62,12,435.587378825205,1659.37948,mp-23020,BiSeI,https://materialsproject.org/materials/mp-23020,4.7270673861786205,21.92270951507354,-0.4621931172682302,-2.165378611018877
-6.6589437500000015,-66.5894375,4.085588390556709,-0.6793449829520001,0.00040199999999999996,2.7213539928001002e-05,1.0927999999999995,36,10,172.15452495206245,423.5688,mp-1245985,Si2TeN2,https://materialsproject.org/materials/mp-1245985,5.820667444597985,-26.77621096218164,17.73050451351509,-17.14329057220062
-6.15780943,-80.05152259,4.238991412549584,-2.5326874879741395,0.0,0.0,3.6651000000000007,164,13,264.5310960866292,675.2897810000002,mp-557359,Cs2Al2Sb2O7,https://materialsproject.org/materials/mp-557359,-7.783553945075934,-33.29411382006302,18.281723386222264,-16.479883000843706
-4.148761438571428,-29.04133007,4.882129956070792,-2.4955795938819705,0.9999998999999999,0.08452922717346918,0.0,139,7,137.87022544565542,405.3505166,mp-1025265,Cs2CuF4,https://materialsproject.org/materials/mp-1025265,-0.9304464410517737,-16.605984428616267,-1.7158736516787283,-24.679880998305226
-5.908359597083334,-425.40189099,3.9442517277942537,-2.6934059153575007,0.0001149125,6.420811475624758e-07,2.4565,57,72,2085.714123924592,4954.16328,mp-772534,LaSCl,https://materialsproject.org/materials/mp-772534,4.828619363188708,-30.113418127222058,19.61425276748081,-20.210816567992488
-5.060045727142857,-141.68128036,2.9637749061618286,-1.8129225239776785,0.0,0.0,3.5517,15,28,477.5811552428965,852.3997385600002,mp-17839,K3Na(SeO4)2,https://materialsproject.org/materials/mp-17839,-17.204891065463045,15.830960327619154,17.266648214973735,-22.47504788222835
-8.301608166363637,-91.31768983,4.845641414214809,-2.53045204,0.8774919,0.046531823809212704,0.0,147,11,219.77104275830655,641.3168499999998,mp-754632,Pr(ReO4)2,https://materialsproject.org/materials/mp-754632,7.6969415296435235,-30.505900577264015,20.202729411068578,-20.992821170708076
-5.7690475663461545,-299.99047345,5.011735288795374,-1.796571599226155,1.1e-06,1.3074895639152812e-08,2.6931,73,52,980.4645179291313,2959.176812800001,mp-759450,Sb5O7F,https://materialsproject.org/materials/mp-759450,27.43413976257267,58.730335133841116,33.63066545951113,-5.027163316588287
-2.885494006875,-92.33580822,6.7623106640765425,-0.3755546415234372,0.0,0.0,1.6295000000000002,14,32,878.7502852805627,3578.5864,mp-554950,Hg3SbAsS3,https://materialsproject.org/materials/mp-554950,8.482231947610108,16.216525988230714,9.348469611113318,-1.3990693340103093
-6.5499017395833325,-157.19764175,3.984361643502392,-2.670173539802084,0.0,0.0,5.7626,11,24,320.1158491797011,768.09835856,mp-7719,NaTm(SO4)2,https://materialsproject.org/materials/mp-7719,27.587413173319803,-20.920369347229684,45.28429265211407,-29.072956698880123
-2.8438900175,-34.12668021,7.153428079197452,-0.14723653166666692,0.0,0.0,0.8134999999999999,15,12,327.7000833056951,1411.6976,mp-28899,Hg2As3Br,https://materialsproject.org/materials/mp-28899,5.676557049235294,-6.091366021958708,18.02450528086386,-15.344676985145586
-4.026900258571429,-84.56490543,3.9619909798026733,-1.2419015551150798,3.9999801,0.05895131849444705,0.0,87,21,790.7546152464906,1886.7142399999998,mp-1190669,K4Ti4I12O,https://materialsproject.org/materials/mp-1190669,-9.622261887962038,5.565325577044566,-0.41692271975464107,-0.8009650409436164
-5.114883761612903,-317.12279322,2.6914717757910784,-1.4054133456099995,6.99999985,0.09443338283355716,2.0964,59,62,863.8730204507617,1400.20186,mp-735051,GdH18(IO3)3,https://materialsproject.org/materials/mp-735051,5.819807558357246,-26.837369744526853,16.96035290058315,-21.151889856885536
-3.33943,-30.05487,3.8022755262563375,-1.6679257011111108,0.0,0.0,3.8627,162,9,427.5118837455299,978.90982,mp-757074,BaCa2I6,https://materialsproject.org/materials/mp-757074,0.9742255877331312,-29.408495511228733,17.206645433285278,-20.74446919521427
-6.021004466111112,-216.75616078,2.3254711270709696,-2.239120033666984,5.5e-07,1.6252966989827392e-08,6.0672000000000015,14,36,394.37326298143824,552.292728,mp-24170,CaPH3O4,https://materialsproject.org/materials/mp-24170,30.752876378728576,-44.96550272533143,35.32420535815668,-54.38779518849396
-8.645744590851065,-812.69999154,6.491844730356629,-3.3944056708244683,3.075e-05,2.2370629965545808e-07,1.5893000000000002,31,94,1601.9329464934315,6262.72536,mp-1229229,Ba4U8As2O33,https://materialsproject.org/materials/mp-1229229,22.661381368333373,-8.266346239162067,47.3888022203858,4.171954071199162
-4.483380056153846,-58.28394073,5.260262654606216,-0.7246111267369227,0.006829399999999999,0.00044648374407289836,0.0,139,13,178.26017411447862,564.69334,mp-1103808,La4H9,https://materialsproject.org/materials/mp-1103808,-12.454594052826176,-25.74913855650998,-11.626652706434527,31.45447302525843
-6.46658564875,-206.93074076,5.994781472239008,-1.721322373203125,30.830813800000005,0.5710643247330169,0.0,107,32,629.1835883530433,2271.442,mp-684784,SrNd7Fe8(AsO)8,https://materialsproject.org/materials/mp-684784,-16.954688304378053,22.37098963475782,-21.121835043701612,44.640852702911396
-5.125830860378788,-676.60967357,4.656854894682178,-2.7870895578290416,0.0028811,1.0671945478643402e-05,2.2503,62,132,3146.242274514498,8823.396127999997,mp-1204134,Ba9In4(SF)10,https://materialsproject.org/materials/mp-1204134,7.943784210050029,-18.395453882768862,16.253447363387707,-12.654071056952295
-6.609001941875,-422.97612428,2.6958794204915164,-1.799059173984376,3.999594525,0.04834699808034326,0.0009000000000000119,62,64,964.1039880256031,1565.2195088,mp-1195111,BaAl2C2O11,https://materialsproject.org/materials/mp-1195111,43.030960077264965,-34.66137466714907,46.71875376968818,-34.76204393454947
-3.8005886071052633,-288.84473414,4.587131123612954,-0.5568641203513538,0.0,0.0,1.2258,220,76,1709.591044318444,4722.634096000002,mp-560328,Ag15P4S16Cl3,https://materialsproject.org/materials/mp-560328,4.918736706701001,19.015408574930504,2.403075198397945,-29.329959901133776