energy_per_atom,energy,density,formation_energy_per_atom,total_magnetization_uB,total_magnetization_T,band_gap,sgr,num_sites,cell_volume,weight,mp_id,formula,URL,tsne_cry_lin1_0,tsne_cry_lin1_1,tsne_cry_lin2_0,tsne_cry_lin2_1
-5.352604039310345,-155.22551714,8.585756561560741,-0.54991434862069,0.0007714999999999999,1.3033908659547452e-05,0.0,216,29,689.8246110880742,3566.713,mp-1225803,Dy5(Sn3Rh)6,https://materialsproject.org/materials/mp-1225803,0.8835781887601528,49.8044479066066,-8.604250342815693,-0.5045126942092143
-5.096890500714286,-71.35646701,6.066896671909994,-1.6075850178571431,1.91e-05,4.909264647977473e-07,1.2594000000000003,122,14,453.4133991892132,1656.57788,mp-36031,Ca(LaTe2)2,https://materialsproject.org/materials/mp-36031,56.46772941794613,22.504126806643338,6.743605670385512,-2.8500038890375
-7.206314657954545,-317.07784495,2.8574761409744687,-2.7597660491850644,1.999999825,0.03798435465049805,2.0646,14,44,613.624417740435,1055.932496,mp-16812,KVP2O7,https://materialsproject.org/materials/mp-16812,-15.335653492160445,-48.56139681025819,7.446595018338902,-0.6194619896315156
-4.844229844166667,-58.13075813,10.037960097778274,-0.4020330941666668,1.25e-06,4.953438508716528e-08,0.0,198,12,294.0902756754758,1777.776,mp-1219487,SbTePt,https://materialsproject.org/materials/mp-1219487,51.63058516654671,30.41865035223868,-8.604250342815693,-0.5045126942092143
-8.188351957,-163.76703914,6.181051517871269,-3.1796240908460005,6.00000135,0.2713027576424882,1.1643999999999997,14,20,257.73569342221407,959.3737699999999,mp-560369,La2MnVO6,https://materialsproject.org/materials/mp-560369,-14.873062774449048,-30.393519644512644,-11.331214260800676,-0.2886568493052701
-5.890232960394738,-447.65770499,5.431198041243366,-1.6551205696052635,13.999999925,0.1533588377142139,1.7774,14,76,1063.889817982487,3479.7112,mp-561343,Fe3(TeO3)4,https://materialsproject.org/materials/mp-561343,-18.756851894716565,-37.37305570583696,7.9043039710356675,0.3969795446683902
-8.2814027975,-66.25122238,1.887885163121484,0.94407078375,4.725e-06,6.515495014869657e-07,0.0,65,8,84.5146161951996,96.0856,mp-579909,C,https://materialsproject.org/materials/mp-579909,59.98242109333321,37.22028124315335,2.8854715951806686,-4.9955007233039534
-6.0005577175,-72.00669261,4.344165783105635,-2.2092923191466665,5.000000025,0.41952149308839337,1.7286,14,12,138.8971128157968,363.3712128,mp-754053,FeOF,https://materialsproject.org/materials/mp-754053,-41.210479555948254,-76.26029124356829,7.921720348990156,-0.15664173990575309
-6.995952727916666,-167.90286547,2.5829892772653213,-1.8794954036458336,9.00000045,0.3203486256537636,1.6898,159,24,327.4138853672779,509.2964,mp-1176733,LiFe2C2O7,https://materialsproject.org/materials/mp-1176733,-20.181482767220505,-79.84404249481983,7.7894201042782285,-2.802163450485732
-1.9656715580000002,-78.62686232,4.224737687626939,-0.1219411400000002,0.0,0.0,1.8301,31,40,1997.386188941875,5081.74304,mp-567269,TeI4,https://materialsproject.org/materials/mp-567269,66.68313100670267,-10.414911339396877,9.83513750228146,-4.610862902140223
-3.2086447627777783,-57.75560573,5.832847074714509,-0.7247364861111111,0.0,0.0,1.1813999999999998,14,18,569.5140607152142,2000.488,mp-28983,Pd(PbBr3)2,https://materialsproject.org/materials/mp-28983,61.566090821485794,-4.030315204889163,8.74878806015295,-6.245892544675392
-8.075089894125,-646.00719153,3.7090996705720993,-3.1135332857655014,0.7217026999999999,0.00652080570471352,0.0,47,80,1289.8360100273421,2881.0706672,mp-685445,Nb20(O13F7)3,https://materialsproject.org/materials/mp-685445,-1.1920225093233654,-45.918018179422724,8.05405276879851,-1.6904562841091957
-7.0453843964864875,-260.67922267,3.8519047563649713,-1.4009406808445948,54.02152420000001,0.8208837885140451,0.0,166,37,766.942106724805,1779.0535949999999,mp-1100884,Y6Mn11S20,https://materialsproject.org/materials/mp-1100884,27.951108732445718,7.2013778655722005,-8.604250342815693,-0.5045126942092143
-8.767230471578948,-499.73213688,4.283013949518422,-2.986430675196317,1.8000000000000001e-06,2.518331691100737e-08,1.8705,5,57,832.9846566573,2148.5101032,mp-557934,Nb15MoO40F,https://materialsproject.org/materials/mp-557934,-0.3069350052095716,-47.03231419962634,7.5290800259984465,-0.19317489631443532
-6.90046740875,-110.40747854,6.935722730454877,-2.2972557613020825,0.0,0.0,1.7449000000000003,63,16,261.36090631776113,1091.6496,mp-755121,TiBi2O5,https://materialsproject.org/materials/mp-755121,9.996760765939538,-30.834049525406904,8.32874476894199,-0.9907042921140142
-4.747971978333333,-28.48783187,7.98270978958442,-1.127007963333334,1.555e-05,1.036800148428847e-06,0.0,129,6,174.78846573076083,840.2606400000001,mp-1018732,HoTe2,https://materialsproject.org/materials/mp-1018732,-9.904082777905494,24.421153554367553,-8.604250342815693,-0.5045126942092143
-6.566621747999999,-32.83310874,8.181332550117785,-0.5462544160000007,6.917973,0.774503299439619,0.0,139,5,104.09575465353392,512.8708,mp-570308,Eu(NiSb)2,https://materialsproject.org/materials/mp-570308,1.932802270483384,35.66964008092357,-8.604250342815693,-0.5045126942092143
-8.2304196985,-164.60839397,4.786491513604251,-3.4601672510583343,1.9e-06,9.234086216505675e-08,1.6796999999999995,123,20,239.7933325366175,691.20250928,mp-40286,NaLiLa2Ti4O12,https://materialsproject.org/materials/mp-40286,5.763832075314504,-40.6847174530395,5.778779772566337,-2.3423733150963018
-8.666077518888889,-155.98939534,4.764578897989439,-3.000248459907408,2.99999785,0.17369924519313445,1.6006999999999998,102,18,201.2799147317292,577.53176,mp-1216808,TiNbCrO6,https://materialsproject.org/materials/mp-1216808,-1.8913200832962116,-41.19528398341289,5.892216034921625,-1.6174931477690977
-9.79705086,-39.18820344,6.747552870604628,-0.38622794187500104,6e-07,1.6926012445190388e-07,0.0,166,4,41.31179086733304,167.86928,mp-1220365,NbVC2,https://materialsproject.org/materials/mp-1220365,3.3082790921919467,23.06380927308927,-8.604250342815693,-0.5045126942092143
-6.381098313529412,-216.95734266,3.9595740310656073,-1.7495709437316174,5.999999900000001,0.15057494558696666,1.7984999999999998,11,34,464.3826182196153,1107.3255800000004,mp-1199860,V2Co2Se2O11,https://materialsproject.org/materials/mp-1199860,-13.03406189593412,-41.420134622127634,9.014813731546637,-0.12489376908199196
-6.66367783875,-159.92826813,3.0150173877587902,-2.832359438958333,1.99999985,0.0954345138115484,2.1491,2,24,244.2316397507459,443.4479544,mp-756574,Li3Al2VO6,https://materialsproject.org/materials/mp-756574,-22.36586887250329,-54.3282057245541,8.134681823071853,2.465042287318373
-5.5217911725,-44.17432938,4.20574626189188,-2.1335014651562507,2.25e-06,1.4996347853700713e-07,1.9214,141,8,174.85354430337838,442.86199999999997,mp-34477,LiSmS2,https://materialsproject.org/materials/mp-34477,53.21160147376688,8.946543429145223,7.684691981804442,-4.2285007080701345
-4.268654561428572,-59.76116386,7.20860578650855,-0.5039992914285715,0.0,0.0,0.6574999999999998,148,14,337.4072518755957,1464.7267,mp-1217851,Tb(CuTe)3,https://materialsproject.org/materials/mp-1217851,55.423458502975905,20.235834801260246,6.229711930494838,-6.263512558071808
-4.534111636428571,-63.47756291,6.5439772808466925,-0.5066107292857142,0.0,0.0,0.7270999999999992,148,14,336.14047654107986,1324.6877,mp-1216225,Y(CuTe)3,https://materialsproject.org/materials/mp-1216225,55.38222896996568,20.26807698118063,6.121915285991322,-6.0371268222538585
-8.1804997003125,-261.77599041,6.840533212268043,-3.46297856328125,1.00000015,0.026324013241007048,1.7037000000000004,14,32,442.7161775817268,1823.754,mp-1200746,Dy2VO5,https://materialsproject.org/materials/mp-1200746,-4.5939212189695136,-42.2004732603656,7.660591799012532,-2.1204479828606524
-4.2998083996875,-275.18773758,6.6146859247807495,-0.7776611833789064,0.0005093,3.6790166696654304e-06,0.0,11,64,1613.3156551324942,6426.5736,mp-651005,In3Bi7(Pb2S9)2,https://materialsproject.org/materials/mp-651005,72.28389167007458,21.027547048012124,5.990299469241522,-7.00576728469953
-6.669132852142857,-186.73571986,7.32735320774312,-1.911937631339286,6.971881625,0.1096102825843246,0.0,62,28,741.2695061876287,3270.952,mp-645692,Eu(LuSe2)2,https://materialsproject.org/materials/mp-645692,-14.478820665339088,11.531649231498056,3.9660422843012255,-5.916364815826743
-4.34964056125,-34.79712449,6.2573384555054865,-0.6363007931250002,5.2e-06,2.979137200639253e-07,0.0,63,8,203.4184152522644,766.53294,mp-1079607,LiLaSn2,https://materialsproject.org/materials/mp-1079607,-0.41851119945179854,45.78570168907676,-8.139285401661992,2.2241420292485623
-3.486219833611111,-125.50391401,3.2185024147492425,-0.4631713033333338,0.0005445000000000001,7.303125150690477e-06,0.9622,7,36,868.8935404672342,1684.1133456,mp-1221463,Na10NbGaAs6,https://materialsproject.org/materials/mp-1221463,35.482809513047194,18.74551441839713,6.426372599731054,-5.7059532950452505
-5.472517037692309,-142.28544298,4.505967908745609,-1.3439179998369228,15.000015300000001,0.24203289257733834,2.0941,64,26,722.261953877727,1959.89923,mp-1193915,Mn3Sb2(IO)4,https://materialsproject.org/materials/mp-1193915,16.392561673150645,-8.872274508755842,5.977705163560307,-2.537295569270268
-7.355897220833333,-88.27076665,6.385728049864308,-2.9545351538541667,10.000000199999999,0.7015485282903684,1.0099999999999998,139,12,166.11915691764398,638.82374,mp-1227917,BaLa2Fe2O7,https://materialsproject.org/materials/mp-1227917,-20.93939863308329,-33.10872233921419,6.598274731942067,-4.285318469899649
-7.41864880125,-415.44433287,4.65352268229029,-2.3166665530357142,38.00000055,0.6878008204793243,1.3832999999999998,2,56,643.8702231532397,1804.3928,mp-530877,Ti3Fe9O16,https://materialsproject.org/materials/mp-530877,-24.818179947097477,-37.706704649485324,6.973159368909161,-0.7936570770735664
-4.9999026075,-39.99922086,3.371491401988536,-2.7658359177675003,1.0,0.0920791592807634,0.0,148,8,126.5657165377094,256.97391919999995,mp-9928,CaRhF6,https://materialsproject.org/materials/mp-9928,-12.743410378193069,-28.910486962914433,7.6763600740141475,-2.9242325685679345
-3.912251736,-39.12251736,3.883917367461012,-1.6117614758640464,3.0000001,0.11984518769926375,0.8081999999999998,225,10,291.72798803418567,682.3371038,mp-1113480,Cs2AgMoCl6,https://materialsproject.org/materials/mp-1113480,9.431240874138435,-7.285175956782442,7.148437811005491,-6.016911440976938
-6.006097005277778,-216.21949219,4.277130594475596,-2.214831606924444,4.999999716666667,0.137682598690191,0.3927999999999998,6,36,423.22211459656893,1090.1136384000001,mp-759475,FeOF,https://materialsproject.org/materials/mp-759475,-42.26382824581178,-76.83290986075646,2.3818806538735093,-1.5606110927592176
-3.9450080671428567,-55.23011294,6.411163151246108,-0.7600895566428569,6.709999999999999e-05,1.8173392361809205e-06,0.0,99,14,430.2926667021603,1661.31384,mp-1211557,KLa2Ag3Te8,https://materialsproject.org/materials/mp-1211557,-9.60554448895708,22.958776696030704,-8.604250342815693,-0.5045126942092143
-8.1154168295,-324.61667318,4.002415358091047,-2.9364480439453344,1.99998685,0.05763655854808372,1.5022000000000002,14,40,404.39569747598273,974.71936,mp-1195787,Ti2VHO6,https://materialsproject.org/materials/mp-1195787,-17.611425735408908,-48.90698197304111,5.689387175667774,-1.5051396379691069
-4.047082525,-40.47082525,5.487111047868216,-1.5712916454759995,2.17e-05,1.038553381880615e-06,0.0,63,10,243.50525449794964,804.6425528,mp-1208906,Sn2IF2,https://materialsproject.org/materials/mp-1208906,35.51974617635749,-6.637036548619774,2.402329962333611,-4.751282473802302
-5.402435119,-216.09740476,8.093435816016676,-0.5607586974999996,6.75e-07,8.341222161257338e-09,0.0,57,40,943.086464956595,4596.58556,mp-569163,SmCoSb3,https://materialsproject.org/materials/mp-569163,3.994260633816005,34.67420200920402,-8.604250342815693,-0.5045126942092143
-6.3434566271875,-202.99061207,2.697778646651426,-1.945572378906251,2.999999975,0.0954167039370304,2.5608000000000004,14,32,366.4158641384272,595.29398,mp-757730,Li2CoCO4,https://materialsproject.org/materials/mp-757730,-4.169021371283031,-80.08772582137674,7.299320800340687,0.12353093036494595
-6.9077598009459455,-511.17422527,6.426205953324303,-0.4890784569805746,0.02100815,0.00014426629753399258,0.0,11,74,1697.0723241439118,6567.588000000001,mp-1228853,In3Mo15Se19,https://materialsproject.org/materials/mp-1228853,63.63868072568001,33.65731529383634,-8.604250342815693,-0.5045126942092143
-6.008374658611111,-216.30148771,4.322965120184453,-2.2171092602577778,4.166666458333333,0.1159650265941523,0.5257999999999998,6,36,418.7348739289402,1090.1136384000001,mp-759961,FeOF,https://materialsproject.org/materials/mp-759961,-41.817684195434005,-76.97600003601447,4.079089696787574,-0.4635488139407172
-6.510799610595237,-546.90716729,2.5443920404830305,-2.2150271136255095,3.999964375,0.05075828665001779,2.0013,14,84,918.3888383703926,1407.2184960000002,mp-758721,LiV2P2H5O11,https://materialsproject.org/materials/mp-758721,-16.5602609855159,-50.50126698195618,9.185751293548511,1.390155607735183
-3.856507625,-38.56507625,6.6559454925698205,-0.2618150315781243,0.0015860999999999998,5.7831574569315895e-05,0.3218000000000005,160,10,319.6266446731746,1281.1608,mp-1227440,Bi2Sb2(TeSe)3,https://materialsproject.org/materials/mp-1227440,67.69174058929664,25.557848341451482,3.9261879985249264,-5.879383089492976
-4.890657639,-48.90657639,3.0259731435310875,-2.098010106556,6.999999799999999,0.2905139694723862,0.7999,225,10,280.8073264953926,511.7106,mp-1112163,K2GdCuCl6,https://materialsproject.org/materials/mp-1112163,13.106315335053337,-12.380399942861915,9.008366881703934,-1.03314093919541
-6.68573464,-267.4293856,5.438349855027879,-1.7212542086875005,26.983988300000004,0.33795801508670475,0.0,26,40,930.5095113353453,3047.466,mp-1201125,Eu4Lu(SnS4)3,https://materialsproject.org/materials/mp-1201125,-15.118510472419686,12.670475691790935,-8.604250342815693,-0.5045126942092143
-8.833868508085107,-415.19181988,4.17676275452112,-3.0285390789095747,0.0,0.0,1.7069999999999999,12,47,692.8399886987147,1742.7041399999998,mp-772535,LiNb13O33,https://materialsproject.org/materials/mp-772535,-0.2563532232678619,-47.07393276771236,6.290282181151813,-0.6042534658658335
-5.7440498575,-229.7619943,4.020916618078728,-1.0155651585208332,26.8438726,0.37110959576122415,0.0,8,40,842.9860979073821,2041.2509,mp-676500,Cr9In7S24,https://materialsproject.org/materials/mp-676500,18.345708999041378,7.744487805385562,-5.623812822528525,-3.7356105612894392
-3.869320749,-38.69320749,3.182862545981267,-1.4917048010249658,3.0000002,0.13362239642811474,0.0,194,10,261.6492263503204,501.51999000000006,mp-27707,RbCoCl3,https://materialsproject.org/materials/mp-27707,20.180600175084482,-1.5365386573864364,-6.608759060038217,-3.491476284708636
-5.18646012875,-41.49168103,3.73677838152617,0.026572183392857163,4.65e-06,3.6828993050862225e-07,0.0,166,8,147.1433148268871,331.12257200000005,mp-7542,GeP3,https://materialsproject.org/materials/mp-7542,38.342715697079676,28.491070510669683,-8.604250342815693,-0.5045126942092143
-6.004474541666667,-324.24162525,4.3553920646648345,-2.2132091433133336,4.444649666666667,0.08308642931831585,0.0,6,54,623.4259376849957,1635.1704576,mp-765134,FeOF,https://materialsproject.org/materials/mp-765134,-43.06560755405743,-76.69519697659123,-6.124580353291093,-3.0143375827537766
-7.758844962,-155.17689924,7.772105223961586,-2.98950344625,2.9999999,0.15502542771659195,1.3251,14,20,225.5255390502025,1055.5658,mp-1225428,Dy2VFeO6,https://materialsproject.org/materials/mp-1225428,-14.228254512293036,-29.51165204128131,8.106649708956274,-2.3663625276782883
-5.775856465294117,-392.75823964,5.203030716772981,-1.6279806203676472,9.996813625,0.11435049615723612,2.2242999999999995,14,68,1018.8282291732312,3192.3336,mp-30995,Fe2Te4O11,https://materialsproject.org/materials/mp-30995,-18.73067223382889,-37.42809402927299,7.942005460670508,1.4149363185724646
-6.850194796875,-109.60311675,4.005935749979738,-2.41069270375,2.000000075,0.1563986470928614,0.02470000000000017,227,16,149.03025603114764,359.5252,mp-1176523,LiVO2,https://materialsproject.org/materials/mp-1176523,-29.65719195788969,-51.017363723098796,6.501583655641137,0.8781316103270177
-8.4857969525,-203.65912686,7.3419737759203745,-2.7378054899999995,4.999999625,0.21413470509649796,2.2707,33,24,272.1199231402736,1203.16192,mp-39933,TaFeO4,https://materialsproject.org/materials/mp-39933,-3.9604830649601177,-38.7663376105695,6.8585236331218296,-2.669124734460273
-8.11664427875,-324.66577115,6.545756467324632,-3.10389805875,9.9999979,0.2380432105643181,0.0,25,40,489.57759801585365,1929.88882,mp-1076218,La3SmV2Cr2O12,https://materialsproject.org/materials/mp-1076218,-26.86510192472186,10.800932448415361,-8.604250342815693,-0.5045126942092143
-5.57782376,-11.15564752,7.102797368006125,-1.0508548837500005,1.4099999999999999e-05,2.6964561999870208e-06,0.0,123,2,60.94010104591449,260.66547,mp-10177,LaSb,https://materialsproject.org/materials/mp-10177,0.435783619260666,32.3629138819464,-8.604250342815693,-0.5045126942092143
-6.4688804510714295,-181.12865263,5.344445234001373,-1.2864119672023813,3.00000815,0.060288623352238835,0.6589999999999998,1,28,579.915203802852,1866.4572,mp-1246990,HfCrAgS4,https://materialsproject.org/materials/mp-1246990,17.723583952251925,4.352804112804067,5.075054253240245,-5.8771199635182425
-3.967697657250001,-158.70790629,3.898649705698308,-0.8416105229630002,0.0,0.0,1.3980000000000001,62,40,1437.5793960004248,3375.1802,mp-557702,K2RuI5NO,https://materialsproject.org/materials/mp-557702,7.7375672302855945,-9.982393628232755,6.918202232478249,-4.36987007062323
-6.118372462142857,-85.65721447,5.001384046625511,-0.5870927395178579,15.000001300000001,0.5756450461878071,0.058800000000000185,12,14,303.67843499455154,914.65026928,mp-1103969,NaCr5Se8,https://materialsproject.org/materials/mp-1103969,23.973012606920328,17.139160632517278,-8.604250342815693,-0.5045126942092143
-4.071581785833334,-97.71796286,4.014343972284552,-0.3902500503645842,0.0,0.0,0.0,42,24,1196.5052318661951,2892.5448,mp-581693,BiS,https://materialsproject.org/materials/mp-581693,39.1557855828726,28.47571284253535,-8.604250342815693,-0.5045126942092143
-4.787327406666667,-114.89585776,8.450319214746742,-0.3883484600000002,0.0,0.0,0.00969999999999871,142,24,540.5331836621857,2750.72,mp-1573,Sn2Pd,https://materialsproject.org/materials/mp-1573,37.63619341264533,32.21917560711576,-8.604250342815693,-0.5045126942092143
-6.530368372000001,-261.21473488,6.316778370831843,-2.1178235059375,3.000000325,0.04456065018393551,0.23260000000000056,58,40,784.598024511193,2984.6524,mp-18420,Er3CrS6,https://materialsproject.org/materials/mp-18420,25.77132305264353,5.6633973646871665,-3.4537800922273236,-1.749852688331376
-6.8352386975,-136.70477395,10.458930297957961,-0.8029949514999999,5e-08,1.3633964859101127e-09,0.793400000000001,220,20,427.3908908009328,2691.928,mp-1207448,Zr3Sb4Pt3,https://materialsproject.org/materials/mp-1207448,24.482269794807927,29.01613670448345,-5.784803001288807,-3.4957228462713825
-5.9497794838888876,-107.09603071,7.154756233880678,-1.0648875219444445,4.5e-07,1.0117039956339917e-08,0.0,193,18,518.3659618113363,2233.4808199999998,mp-9435,La3ZrSb5,https://materialsproject.org/materials/mp-9435,1.1665054220142494,33.81166685625164,-8.604250342815693,-0.5045126942092143
-4.243750507142857,-59.4125071,7.319369402628437,-0.4861527949999999,0.0,0.0,0.6860999999999997,148,14,335.02597117694734,1476.73664,mp-1224142,Ho(CuTe)3,https://materialsproject.org/materials/mp-1224142,55.43775417154534,20.204048241440265,6.26970962879288,-6.264547236271121
-4.548144155,-45.48144155,3.7102270665170134,-0.9138815505754307,5.00000275,0.16961774871198165,1.1227,72,10,343.5392602128107,767.5872899999998,mp-8717,Rb2MnSe2,https://materialsproject.org/materials/mp-8717,24.930963159923305,1.6350566671850486,-5.298563443742223,-3.4645423364089503