energy_per_atom,energy,density,formation_energy_per_atom,total_magnetization_uB,total_magnetization_T,band_gap,sgr,num_sites,cell_volume,weight,mp_id,formula,URL,tsne_xrd_lin1_0,tsne_xrd_lin1_1,tsne_xrd_lin2_0,tsne_xrd_lin2_1
-7.997768309583333,-383.89287886,5.248288662852003,-3.3198911700520832,0.00012795,2.2448344232395216e-06,2.8012,165,48,664.2528162487598,2099.43304,mp-761057,Sr5Nb4O15,https://materialsproject.org/materials/mp-761057,-15.794681095261176,19.905137846865145,-14.028658492148972,46.59544665629586
-8.30588408375,-332.23536335,6.9617646981766335,-3.8834953260000007,0.0,0.0,3.7823,206,40,665.4177038878554,2789.7456,mp-218,Sm2O3,https://materialsproject.org/materials/mp-218,28.507380129841184,62.79808336202397,-8.349570426542082,33.597649670763225
-6.8482902339999985,-68.48290234,6.936357066478621,-2.9673726665,0.0027831,0.00014738611996405795,0.0,12,10,220.06432950687923,919.24654,mp-553121,Sm2IO2,https://materialsproject.org/materials/mp-553121,0.9594045866112452,27.16084427400905,0.6707314162160214,35.12109240022077
-5.842789635,-105.17021343,7.9884769950916645,-1.7473187515277786,0.0,0.0,2.2928,4,18,321.87631397134095,1548.4739999999995,mp-559144,GePb3O5,https://materialsproject.org/materials/mp-559144,23.169269568986174,55.872776768434285,36.63368123713207,-0.38504952497448747
-8.351285590909091,-91.8641415,4.644876398533001,-3.2016720580681834,0.0,0.0,1.4009,119,11,158.60626513981,443.65502999999995,mp-867708,LiLaNb2O7,https://materialsproject.org/materials/mp-867708,-0.6633871570096955,9.919530641869404,3.6984828125864806,46.74112656438502
-8.551082258,-85.51082258,7.236746622532816,-0.6210396307499991,2e-06,1.5337598720997247e-07,0.0,63,10,151.96726664396587,662.2841,mp-1205712,YSiRu2C,https://materialsproject.org/materials/mp-1205712,-34.85566660600053,21.042692815500047,-27.727940493059588,37.20661902140456
-8.100566542272729,-356.42492786,6.275105059520183,-3.400927997159092,1.000052875,0.017626822404092697,0.3857999999999997,62,44,661.190129114167,2498.608840000001,mp-1203257,La3MoO7,https://materialsproject.org/materials/mp-1203257,22.0626429822002,56.246447569417704,-1.2921774852300691,35.64425059038436
-8.871599070526315,-168.56038234,5.739498191611961,-3.9037312502631583,4.6e-06,1.914259437135409e-07,1.4855999999999998,8,19,280.04928127191187,967.9642,mp-755046,Ce3Y4O12,https://materialsproject.org/materials/mp-755046,23.822283841240658,63.344364442036316,-8.059287795425014,36.93175605327938
-10.178871128928572,-285.00839161,7.549915521587669,-3.3520771943154752,20.99999965,0.6865349429827127,3.1839,173,28,356.47909643397924,1620.7912,mp-561177,Gd3BWO9,https://materialsproject.org/materials/mp-561177,3.5530806662977468,18.22137820985428,2.7974541346534663,37.18380498309677
-5.131288545,-41.05030836,7.767745055195693,-0.506455359687501,3.79440145,0.2907341638579161,0.0,129,8,152.09839698441894,711.4928,mp-1022732,FeBiAsO,https://materialsproject.org/materials/mp-1022732,-17.186926571201447,23.736515038012094,-16.932122589861688,41.902736321327545
-5.223382,-20.893528,5.336167767887671,-1.9178295896425,0.0,0.0,1.1005000000000005,166,4,95.73910980636603,307.65910319999995,mp-1018096,Ba2NF,https://materialsproject.org/materials/mp-1018096,-29.721306460200967,-23.78177251727002,-56.62513757029493,12.572413606853225
-7.593017420000002,-106.30224388,6.728583011020043,-3.2600420878571432,1.9999997999999999,0.12601299173378247,0.15639999999999965,65,14,184.9660649558074,749.491275,mp-19206,LiLa4CoO8,https://materialsproject.org/materials/mp-19206,-7.546448451770568,19.896820400865018,-9.890928745456208,45.38096643935605
-7.470596222307693,-194.23550178,6.2937065244123644,-3.1364673086369232,0.00483465,0.00013259391601261062,0.0,176,26,424.9314444208517,1610.5576199999998,mp-1211321,La3Re(ClO2)3,https://materialsproject.org/materials/mp-1211321,0.09358560690447744,11.866887220351545,8.080800135132144,29.71906233145962
-5.64269883,-28.21349415,8.428403471888027,-1.5475517412500004,8e-07,1.0155842025881632e-07,0.9262000000000006,8,5,91.80185940553169,465.959,mp-673244,Bi2O3,https://materialsproject.org/materials/mp-673244,7.3681548455267665,-14.109082261552873,13.158765149133467,-10.240594908213412
-9.098473101333331,-136.47709652,7.870063541329798,-3.9454836975,2.0000231,0.11525383931220935,0.0,139,15,202.23533457202993,958.48691,mp-1226847,Ce4UO10,https://materialsproject.org/materials/mp-1226847,26.191341124551894,64.78466058323285,-11.448461051575064,35.515915714805075
-3.1443151785714285,-22.01020625,3.1993031631568503,-1.4942330885899016,0.0,0.0,0.5863,139,7,268.69148737512114,517.6786,mp-30004,Rb4Br2O,https://materialsproject.org/materials/mp-30004,-25.401307452675148,44.59604900447934,1.5790712389346924,17.329605552978858
-5.716842321333332,-85.75263482,6.5854205102048216,-2.0383891576666664,1.7e-06,8.84440948577879e-08,0.0,139,15,224.00489422394662,888.3660000000001,mp-555855,Sr2CaCu2(BiO4)2,https://materialsproject.org/materials/mp-555855,-5.32608723378516,20.221087084041574,-23.090564770448605,37.238676705010384
-6.7730851275,-352.20042663,5.386922420931777,-2.412445902211538,5.5e-07,8.217394288316312e-09,4.803999999999999,88,52,780.0204541750354,2530.4491928,mp-19463,Na5Tb(WO4)4,https://materialsproject.org/materials/mp-19463,25.63550855924553,57.302010177897365,39.327466562907546,-7.120007250422816
-9.192495843055557,-330.92985035,6.892259734380506,-3.6506990415740734,0.0,0.0,3.0493,33,36,452.03246151318115,1876.21312,mp-1220116,NdTaTiO6,https://materialsproject.org/materials/mp-1220116,5.353168917692324,22.76515127823617,3.3728653357249763,37.291356384513286
-8.77344035225,-350.93761409,6.8539817515983605,-4.048478753500001,0.0,0.0,4.0595,5,40,592.7723639325271,2446.70608,mp-766256,YTmO3,https://materialsproject.org/materials/mp-766256,18.05402928892405,59.484002774313005,-4.338219084635537,37.19460437991512
-5.887194751,-117.74389502,4.9740320582167215,-1.9673360962500008,0.605951,0.02718191706529885,0.0,2,20,259.7974302560355,778.2055799999999,mp-562466,SrCoO3,https://materialsproject.org/materials/mp-562466,8.84415659308881,5.0994322451502905,14.302571121637108,4.844203819424852
-5.78676704875,-92.58827278,5.810785888117308,-1.9838048398437504,0.0,0.0,0.8460000000000001,63,16,218.79915411338814,765.6519999999999,mvc-8236,ZnSn2O5,https://materialsproject.org/materials/mvc-8236,-4.64323588460049,15.140230315125224,10.176531566846084,27.347420723146467
-3.385812555,-6.77162511,4.344016908683368,-0.12034930874999986,7.499999999999999e-06,1.4009837309462854e-06,0.0,221,2,62.38865153356223,163.21047000000004,mp-1104,LaMg,https://materialsproject.org/materials/mp-1104,-33.56403158203002,47.44194558683898,-56.0733895207105,52.45169360788364
-7.53947648875,-120.63162382,4.17689119543802,-2.479118357552084,9.99999925,0.6118543390262438,1.9336,36,16,190.47121439151817,479.108,mp-753157,TiFe2O5,https://materialsproject.org/materials/mp-753157,17.874502559835886,3.4309539477908912,62.91187406450357,33.6445844000594
-6.9111026525,-248.79969549,7.779468732282245,-2.6569896484722224,2.000000175,0.050094004305867856,0.30969999999999986,33,36,465.28785046338317,2179.8296800000003,mp-3120,Tm2Cu2O5,https://materialsproject.org/materials/mp-3120,2.952760600128073,39.19004637886531,3.6299948913060094,47.4474804399792
-7.516773880416667,-180.40257313,4.407220904527978,-3.5809723515625014,0.0,0.0,4.2159,35,24,324.72171877464376,861.8408316,mp-1218016,SrSmAl3O7,https://materialsproject.org/materials/mp-1218016,-2.304770106819622,15.136010577059329,6.823197591182822,30.91320516994823
-8.6073189275,-68.85855142,7.706117084237222,-2.132665071835937,6.9981732999999995,0.5993325307142168,1.1985,129,8,136.07999023615022,631.5107999999999,mp-505262,GdCuSeO,https://materialsproject.org/materials/mp-505262,-19.160883847900493,25.978068946969806,-23.331489142094888,45.27806627938674
-2.6978105275,-10.79124211,8.51031924143419,0.6573599510350001,0.00021280000000000002,6.0459407805354405e-05,0.0,225,4,41.01900884614801,210.22382000000002,mp-973786,H3Pb,https://materialsproject.org/materials/mp-973786,27.89895187062993,64.34894636885204,-12.672937699381556,33.79266141159639
-6.022117135,-313.15009102,10.433383703357695,-0.9252648621153838,0.0015121,1.678723591962869e-05,0.0,62,52,1049.7327509398158,6595.608,mp-1210622,Nd3(Ge3Pt2)2,https://materialsproject.org/materials/mp-1210622,-43.13788951859242,25.74513752803512,-25.998730879912955,31.155500824674238
-6.760107901666667,-81.12129482,7.032159304232569,-2.2756103386197917,3.1339662,0.136693903533946,0.0,8,12,267.1914704721464,1131.51991,mp-1225627,Er4US7,https://materialsproject.org/materials/mp-1225627,36.628248961127795,29.391707055585947,17.27485941828811,13.414484512308315
-7.590655216666666,-45.5439313,8.210135760143038,-3.2644221491666663,0.9988787,0.13904739141757974,0.0,11,6,83.71963652860337,413.9316,mp-1206244,LuO2,https://materialsproject.org/materials/mp-1206244,0.6002182151769493,14.05394518887866,6.371465980127518,33.0311628598502
-8.145493937857143,-114.03691513,8.319502328626205,-0.28585106285714296,0.92780965,0.06144187397392128,0.0,72,14,175.98346304175814,881.6985300000001,mp-1207962,Tm2MnC4,https://materialsproject.org/materials/mp-1207962,-2.8775516982223075,26.603938238584814,-0.5360735085600664,49.832529153599644
-7.394227777666668,-221.82683333,5.4989334995068875,-2.5740086014523818,4.0,0.12257543278924485,1.8924000000000003,70,30,380.30670607861816,1259.399048,mvc-9143,CaP2(WO5)2,https://materialsproject.org/materials/mvc-9143,1.1281504471535932,11.945624239596969,5.7167590180417935,30.963254544750196
-5.6996816612500005,-136.79235987,5.321498705602575,-1.8239594288281258,0.0,0.0,1.6883999999999997,173,24,535.3361984889743,1715.5820000000006,mp-558042,Sm3CuSnS7,https://materialsproject.org/materials/mp-558042,8.616471657810294,-5.319184479822998,13.529177919895554,3.9203552011140745
-4.4450780157142855,-62.23109222,5.2764922618231385,-0.9412991386904764,0.0015963,8.022237450876938e-05,0.0,162,14,231.8976932601694,736.8729999999998,mvc-545,BaCa(AgO2)4,https://materialsproject.org/materials/mvc-545,-17.027903397063035,17.529651843106297,-8.766624396314745,-0.6837069400491503
-7.865995626,-39.32997813,8.209740922627184,-3.6555813643124986,0.0,0.0,3.0733,164,5,80.61894349300259,398.5818,mp-12671,Er2SO2,https://materialsproject.org/materials/mp-12671,-16.19077331543134,29.14012264748045,-23.58212238427373,42.599849217743525
-6.288757727777778,-113.19763909999999,5.239825256770642,-2.0414991567013896,3.0605792000000003,0.08836982322338935,0.0,140,18,403.62407592672895,1273.6343900000004,mp-22288,BaCe2CoS5,https://materialsproject.org/materials/mp-22288,-8.25656086905893,8.717100883516853,-0.28810108865571954,20.209955234031906
-6.399268693076923,-83.19049301,7.354537226503076,-2.0900550624038465,6.2650068,0.3710197952416916,0.0,123,13,196.78948666381686,871.5818,mp-1214867,Ba2GdCu2HgO7,https://materialsproject.org/materials/mp-1214867,-18.973114001012195,36.490272886990574,-13.820955102769652,54.405895598458784
-7.462583396666666,-44.77550038,4.4744864185442035,-3.48003329067,1.5e-06,1.6780111793077164e-07,5.0908,129,6,104.17747732796141,280.7165,mp-27985,YClO,https://materialsproject.org/materials/mp-27985,-6.045739748352353,15.772516743869085,-19.253670219420048,51.42880150325837
-5.871229999500001,-234.84919998,8.534675795411562,-2.7238457407500007,1.9999999875,0.0379990693711735,0.0,206,40,613.3868482875366,3152.6256,mp-2814,Yb2O3,https://materialsproject.org/materials/mp-2814,18.23582051641171,60.15705062633214,-5.848917980896593,36.70562149012717
-5.363023747857143,-75.08233247,4.533980534004106,-0.8001315631628566,1e-07,4.247238269710577e-09,0.5667000000000004,176,14,274.3915936073406,749.2062000000002,mp-7191,Sr3GaN3,https://materialsproject.org/materials/mp-7191,-4.605063427923344,22.602203468260484,-12.436591857392605,43.925727568490665
-7.074455737142857,-49.52119016,5.322923356127558,-3.6056671539200016,0.0,0.0,3.6754,107,7,120.60575902693293,386.6065152,mp-1228342,Ba2ScO3F,https://materialsproject.org/materials/mp-1228342,-9.658524329953222,-16.703863867495013,-16.034366647371844,8.574281862572496
-9.664091963333332,-57.98455178,8.962856726398805,-3.0600795229616664,4.99999985,0.5322642099281858,0.0,129,6,109.47631087679312,590.9048,mp-27981,PuClO,https://materialsproject.org/materials/mp-27981,-6.996828868665768,10.696593995392131,-3.2095052118075094,23.927944568376684
-3.9730453221428568,-55.62263451,5.7682719023662905,-0.619082141190476,1.5e-07,7.742632429727065e-09,0.3597,70,14,225.7771800159673,784.29,mp-755449,Cd(AgO2)2,https://materialsproject.org/materials/mp-755449,-3.1586216456315666,16.208407669348258,0.07646625295128144,16.98041369104584
-5.54617098375,-44.36936787,3.3379988939570087,-1.747122553211207,5.0,0.33793011996440325,2.0204,15,8,172.4330576656988,346.62319999999994,mp-768845,RbFeO2,https://materialsproject.org/materials/mp-768845,5.491061148910909,8.613206765395285,51.24136517058671,30.255637874129828
-7.662339030416668,-183.89613673,3.840242779496364,-3.580617914687501,0.0,0.0,4.1804999999999986,35,24,319.5179021490808,738.9325316000001,mp-1217784,SrYAl3O7,https://materialsproject.org/materials/mp-1217784,-2.522358162847945,15.240936470877562,6.353664724111303,56.361844749588
-7.067809748703703,-763.32345286,5.875654535905737,-3.0747187208333333,15.000002800000003,0.13111935758469434,2.3348000000000004,127,108,1333.2204141319146,4717.46968,mp-554531,Li11La12Fe3O28,https://materialsproject.org/materials/mp-554531,-2.7681979029698587,33.89317459251769,2.7284912180282475,47.78449917958496
-7.17405974125,-57.39247793,8.321244512748278,-0.83142660625,2.72e-05,2.287958004477867e-06,0.0,63,8,138.5473689609805,694.28451,mp-1206216,ThCoSi2,https://materialsproject.org/materials/mp-1206216,-37.15639419117243,9.137071271224233,-22.45363798471355,22.55086278019887
-7.654955490909091,-84.2045104,9.901365478636247,-0.5009115586363645,5.5258235,0.3618447223625112,0.0010000000000012221,71,11,177.9722102073817,1061.20233,mp-9903,U3(SiNi)4,https://materialsproject.org/materials/mp-9903,-9.191165636142967,42.02166456036557,-5.949731060526812,52.57686676318716
-7.847135438125,-376.66250103,5.6181448972694055,-2.4367716572916662,7.000000125,0.10124837285742007,2.9426,60,48,805.7260829224022,2726.034,mp-1212617,GdTl(MoO4)2,https://materialsproject.org/materials/mp-1212617,11.595658703858517,11.379365450090434,35.54796360889085,4.124587283205872
-6.778325939,-67.78325939,6.9814376385271215,-2.8939785762500003,0.0,0.0,2.1283000000000003,148,10,170.7687296423058,717.9664,mp-1228392,Ba2CePbO6,https://materialsproject.org/materials/mp-1228392,-19.34986945810596,-51.42603936954714,-12.819125390278508,28.37432169881384
-4.2684840170000005,-42.68484017,3.93490288154484,-2.3742286183140004,0.00855715,0.0007401523445054724,0.0,221,10,134.7365594513385,319.2790192,mp-5566,KCuF3,https://materialsproject.org/materials/mp-5566,-28.270865387387786,31.852502155818037,-26.699778398093876,9.587756399409297
-3.6425392185714287,-50.99554906,4.422468006085516,-1.5676560003571431,3.495e-05,6.667293243594275e-07,2.1083,63,14,610.9069286734788,1627.01164,mp-772082,CaLaI5,https://materialsproject.org/materials/mp-772082,8.111477236086493,1.3636397037325112,10.913011776930043,-2.447216792022406
-9.344458596666668,-112.13350316,7.553475712963581,-3.7298403570833343,0.0,0.0,3.3902,36,12,168.76985171797324,767.7019,mp-3998,LaTaO4,https://materialsproject.org/materials/mp-3998,8.20328170657516,19.16368250205229,39.29824315242123,1.11749974522725
-6.0095530597826095,-276.43944075,6.983938960481324,-2.2555510477717404,0.0,0.0,1.6816999999999998,8,46,771.3996914083043,3244.3731999999995,mp-757343,Ca4Bi6O13,https://materialsproject.org/materials/mp-757343,2.853686946876648,21.979207811516662,-0.475327502461449,26.786067585034505
-6.9566395925,-27.82655837,4.471220400146722,-3.0061646157112074,0.0,0.0,3.3017000000000003,166,4,60.321097600560705,162.42251199999995,mp-8145,RbScO2,https://materialsproject.org/materials/mp-8145,-33.75128556668467,28.241204960823087,-10.18414016127515,49.437219986335286
-7.189823821428571,-201.315067,7.010301014414193,-2.8916409421428577,2.00000025,0.06081486852755326,1.3358999999999996,138,28,383.26371532112097,1618.0251999999996,mp-505093,Pr2NiO4,https://materialsproject.org/materials/mp-505093,-23.64468470485839,38.64646230015379,-40.54651134817639,26.613025478073247
-6.794236306666666,-20.38270892,2.193301172540574,0.0235110125000008,0.0,0.0,1.3527,139,3,48.52938459759426,64.0994,mp-2482,CaC2,https://materialsproject.org/materials/mp-2482,-8.327087814723905,-26.317257054826122,-22.974110377363232,40.740474633576206
-8.81829264,-194.00243808,5.629836547757143,-3.797170448143941,0.0,0.0,2.9431000000000003,36,22,286.4237167246688,971.08148,mp-8154,La2Ti2O7,https://materialsproject.org/materials/mp-8154,12.158824858452268,33.07392013706413,26.11544591993145,43.219197162066116
-7.023571492391305,-323.08428865,8.286282920997055,-2.2624260494746378,5e-08,9.033070517804241e-10,1.5023,5,46,645.0777036219,3219.01276,mp-1217348,TiNbBi5WO15,https://materialsproject.org/materials/mp-1217348,22.319846848357415,56.65635159106089,-1.1157860570656166,36.08151502086814
-4.093361294,-40.93361294,2.3475564902826993,-2.393457076324966,0.0,0.0,4.022,225,10,330.8321160124477,467.707812,mp-1114410,KRb2ScCl6,https://materialsproject.org/materials/mp-1114410,-20.314760682935216,-22.88664537127747,-16.395931158663373,-20.609430970269827
-6.6612422150000015,-93.25739101,2.8631920642210082,-2.7121618685000004,0.0,0.0,3.7354,63,14,206.4739976904326,356.0137385600001,mp-558066,NaCaVO4,https://materialsproject.org/materials/mp-558066,-4.299781950730267,25.874681764898725,15.601665667061567,57.76242371482209
-8.443200825789475,-160.42081569,5.32358789755923,-3.5661638613157907,0.00020980000000000003,9.189143086646784e-06,2.7148,148,19,266.0773443430228,853.0279,mp-754359,Y6TeO12,https://materialsproject.org/materials/mp-754359,17.515818145661825,60.77815125738498,-5.364086977202703,37.588194741497816
-7.914202727083333,-189.94086545,6.2070306672885165,-3.6075267001041667,0.0,0.0,5.1119,113,24,258.48617753569533,966.211328,mp-1213057,Dy2Be2SiO7,https://materialsproject.org/materials/mp-1213057,-2.0690345714510654,12.89783750340124,8.085127632667032,30.74842475627305
-7.20745266125,-172.97886387,3.888037489605432,-3.1208158505208337,3.00000025,0.10173183306998716,3.1023,113,24,343.6701785088525,804.6799900000002,mp-1208846,Sr2CoSi2O7,https://materialsproject.org/materials/mp-1208846,-11.284000364291234,35.548362892791225,-6.7524985009166265,44.828291694559134
-4.789829596190477,-201.17284304,4.8149169573619375,-0.9321252157142862,0.00067165,4.768483549217962e-06,1.0464000000000002,64,42,1641.4972440815966,4759.703160000001,mp-1207511,Zr6FeI14,https://materialsproject.org/materials/mp-1207511,2.4840261368431142,-9.48566901458319,3.2837141567896895,3.69815464615106
-6.941335811666666,-41.64801487,8.505314468468915,-0.7956665258333331,1.8e-05,1.7700433804746226e-06,0.0,187,6,118.51300833645416,607.02602,mp-1217306,Th2Si3Ni,https://materialsproject.org/materials/mp-1217306,-58.26175197596354,21.91076926945632,-55.076026731539905,29.766774197063395
-8.164811217777778,-146.96660192,7.139178827290977,-2.36644153375,18.00075045,0.898698481715388,0.0,46,18,233.4285814064829,1003.58278,mp-1076123,Eu2Co2O5,https://materialsproject.org/materials/mp-1076123,-19.70041301547854,42.88430662958544,-7.941635665608548,65.95699289326312
-8.7248884705,-174.49776941,7.159024691456606,-3.82955897825,6.6e-06,2.855377002570774e-07,4.3692,26,20,269.3753834594999,1161.3488,mp-1218419,SrCaHf2O6,https://materialsproject.org/materials/mp-1218419,-28.417911675185035,33.84203822115769,-23.755696185961682,58.984741197609814
-4.6675295975,-56.01035517,6.293362171306588,-2.057386049375,0.0,0.0,2.1932,166,12,253.46668388599662,960.6264,mp-28688,SrHgO2,https://materialsproject.org/materials/mp-28688,30.668933803093893,63.20883493803936,-13.05910925305372,32.09054310994945