energy_per_atom,energy,density,formation_energy_per_atom,total_magnetization_uB,total_magnetization_T,band_gap,sgr,num_sites,cell_volume,weight,mp_id,formula,URL,tsne_xrd_lin1_0,tsne_xrd_lin1_1,tsne_xrd_lin2_0,tsne_xrd_lin2_1
-6.170802927272727,-135.7576644,4.068074870701198,-1.83030373222,7.9999991999999995,0.4101410991212144,1.5006000000000002,64,22,227.3181328498647,556.8957800000002,mp-554979,Li2Mn2NiO6,https://materialsproject.org/materials/mp-554979,6.2513705659506495,-57.923001224016275,-6.086302458044478,-62.38789239256925
-6.918854718550725,-477.40097558,4.022948689784641,-2.0522410420173918,69.0000007,1.0815797928866553,0.4996,1,69,743.4777191225995,1801.2059,mp-690161,Li9Mn20O40,https://materialsproject.org/materials/mp-690161,-1.3351806356887386,-70.39894967323066,-16.239874709508605,-65.82820084857683
-6.01971951,-96.31551216,3.940805205171945,-2.04822092637,7.9999997,0.6674324488486673,0.9272,1,16,139.688315791487,331.5094850000001,mp-1174382,Li5Mn2CoO8,https://materialsproject.org/materials/mp-1174382,20.745456591815337,-73.16830096771605,-11.033755232441,-78.2407506159515
-5.704587579375,-91.27340127,4.859370187368434,-1.87467874375,10.0000004,0.7506675544869749,0.8232000000000004,12,16,155.24935331309163,454.31878499999993,mp-1177495,Li4Co3SbO8,https://materialsproject.org/materials/mp-1177495,2.2327969394706906,-62.887989165487745,-10.567641510527368,-62.116634797046615
-6.763098102380952,-142.02506015,3.895173424740205,-2.2005738702380957,5.999999900000001,0.30763543392581605,1.6002999999999998,1,21,227.29627266153423,533.1753,mp-1176543,LiVFeO4,https://materialsproject.org/materials/mp-1176543,5.199169505761757,-64.98299135095276,-7.5696995420534,-65.83524801867121
-3.285244044375,-52.56390471,2.6287915802440036,-1.3130192568200003,0.00012695,2.566821964320456e-06,3.7419,62,16,576.3872771238863,912.476,mp-22872,SbCl3,https://materialsproject.org/materials/mp-22872,37.51026650138074,-35.558809926738476,15.224774996271089,-57.73718271875707
-4.849706436666667,-58.19647724,3.938328358267628,-1.9657760539483335,1.00001335,0.11183915216705152,0.0,164,12,104.20519226501976,247.14520640000003,mp-758524,Li2NiO2F,https://materialsproject.org/materials/mp-758524,21.363724847140308,-70.41157928358695,-11.560069203216068,-74.21814089680258
-4.5841732291304345,-105.43598427,4.577560286467175,-1.1452806725000004,4.9999986,0.2437135256445813,0.0,2,23,239.09344954488103,659.1020464,mp-765679,Na5(NiO2)6,https://materialsproject.org/materials/mp-765679,4.996375382649132,-56.58566240097775,-5.017870655040059,-59.181659296247226
-7.173376751428571,-100.42727452,3.9327437016734303,-2.565221242449524,4.999999400000001,0.3929042210501685,0.8939999999999997,12,14,148.3066705534815,351.24264500000004,mp-1222689,Li2Ti2MnNiO8,https://materialsproject.org/materials/mp-1222689,-1.0379133932304947,-67.30828130076955,-16.74209898251302,-65.64760060004764
-6.889739278214287,-385.82539958,3.965296282583162,-2.1593671867857145,12.0,0.23603547619994095,0.10189999999999966,1,56,592.4904998274633,1414.842,mp-777653,Li2Cr3FeO8,https://materialsproject.org/materials/mp-777653,-1.120734751416822,-67.38034099188144,-16.736564131706753,-65.73205965675545
-12.0914883475,-48.36595339,16.035173267537196,-0.3372097118749995,4.36e-05,7.618575589663074e-06,0.0,225,4,66.69451764356305,644.0427599999999,mp-977353,Ta2ReMo,https://materialsproject.org/materials/mp-977353,-39.77415696321908,-61.263915077205404,-50.56818268684373,-39.20622398028336
-7.311189283846152,-95.04546069,3.9726541603036587,-2.2411529815384617,9.999999699999998,0.773861755342543,0.0,166,13,150.5962058789064,360.2846,mvc-9128,MgCr4O8,https://materialsproject.org/materials/mvc-9128,4.608531814720968,-66.27966268619942,-7.297223013273874,-65.16118392555197
-6.504616112083332,-156.11078669,4.466825580705729,-0.3568392487499992,3.5125e-06,9.262316154654279e-08,0.0,227,24,441.9510393525736,1188.841792,mp-867501,Sc2Ni,https://materialsproject.org/materials/mp-867501,-51.63560387806083,-40.552964121901454,-72.35345934975021,-4.914149307028762
-7.30223042875,-116.83568686,9.919660279694432,-0.35661077249999984,1.915815225,0.08880802205121636,0.0,139,16,251.4078594333497,1501.85,mp-1178762,VSnRh2,https://materialsproject.org/materials/mp-1178762,-46.494850717246116,-65.20471951028269,-53.463358505496295,-36.59498645728185
-7.2315830878571425,-404.96865292,3.8201634808885694,-2.4246343764971434,8.0000002,0.15336261224694045,0.9618000000000002,19,56,607.9220948660547,1398.55898,mp-775492,Li2MnV3O8,https://materialsproject.org/materials/mp-775492,5.492319533979541,-64.47594175573053,-7.052466525351343,-65.86924757661329
-7.404751004166666,-88.85701205,5.044140252287511,-2.2900977553333326,0.0,0.0,3.6111,88,12,179.87204677422955,546.38873856,mp-5558,NaReO4,https://materialsproject.org/materials/mp-5558,-1.4213354039953308,-17.432454079791395,-2.4918211894638644,-49.589744960467186
-5.035188357692308,-65.45744865,4.5586316283587225,-1.3534375200000004,0.0,0.0,1.1748000000000005,12,13,128.47010315436938,352.6854,mvc-15503,Mg2Ni3O8,https://materialsproject.org/materials/mvc-15503,18.02922434586282,-49.435239948863824,3.5084622218905617,-39.78161302342519
-6.56183152375,-104.98930438,4.171064545720493,-2.2149366456249986,12.999999,1.0266409845828877,0.4741,166,16,147.5713834381598,370.680695,mp-1177445,Li4Cr3CoO8,https://materialsproject.org/materials/mp-1177445,0.788000161046702,-68.85317906585077,-11.932186524194075,-66.191470860927
-7.7123232425,-30.84929297,11.624325224734605,-0.16881942500000058,5.7700000000000007e-05,1.0056477766071366e-05,0.0,225,4,66.86630776884694,468.08638,mp-865857,YbNbRu2,https://materialsproject.org/materials/mp-865857,-39.81267443086524,-61.2335198399207,-48.538261612253024,-39.62128432914381
-5.870042475416668,-140.88101941,4.076890269361887,-1.9226436386216657,17.9999999,0.9768070019209982,0.9291,5,24,214.75395275435778,527.2554749999998,mp-1174985,Li7Mn2(CoO4)3,https://materialsproject.org/materials/mp-1174985,-2.465671468848975,-75.87640815568885,-18.781497476854703,-75.8453271380945
-2.401577165,-4.80315433,3.9039279660856807,-0.08407535999999992,7.699999999999999e-06,2.243694168442605e-06,0.0,187,2,39.994888791371004,94.028,mp-1094850,MgGa,https://materialsproject.org/materials/mp-1094850,-73.05552088367939,4.93592625637286,-69.40958740199918,13.970396814875338
-5.839183211666668,-140.14039708,4.029190180948818,-1.8917843748716683,18.0000002,0.9653782629361392,0.2829000000000001,8,24,217.29634516409672,527.2554749999998,mp-1175129,Li7Mn2(CoO4)3,https://materialsproject.org/materials/mp-1175129,4.712009617880208,-70.80544121852782,-22.58467723438056,-73.92996575971645
-6.768579717083332,-162.44591321,3.9821755372511185,-2.3189284028283317,6.0000002666666665,0.3041793942139928,0.6873999999999998,2,24,229.87879216406208,551.277435,mp-756928,Li2MnVO4,https://materialsproject.org/materials/mp-756928,5.133007078492872,-77.84655418024731,-28.7046286199463,-75.9820716923567
-6.247750799166668,-599.78407672,3.599082028620683,-2.232475783675833,35.0005711,0.48288447921395206,0.9846999999999996,1,96,844.7132600740574,1830.846635,mp-777576,Li32Mn3Cr13O48,https://materialsproject.org/materials/mp-777576,-10.973782842750595,-68.74540235427418,2.7697011300999312,-81.38803526783293
-5.485306115,-10.97061223,5.2225390142711685,-0.26939145249999985,3.2e-06,1.0809923413251304e-06,0.0,221,2,34.49886354095305,108.501912,mp-1169,ScCu,https://materialsproject.org/materials/mp-1169,-45.107712748542326,-64.16615628696887,-49.027098456220884,-37.53204863601423
-5.697996945,-34.18798167,7.793585017562691,-0.11596144499999995,5e-08,6.263542916732086e-09,0.0,63,6,93.03093255278624,436.63199999999995,mp-1072655,ZrCu2,https://materialsproject.org/materials/mp-1072655,-57.66282882904983,-34.70564342599484,-62.94740693606306,-29.62637769679161
-4.6399535996428565,-129.91870079,4.287940936098978,-1.001014278142858,1.000000075,0.036812148738999406,0.0,7,28,316.5820536378535,817.49667712,mp-1176434,Na(NiO2)2,https://materialsproject.org/materials/mp-1176434,9.622366991666743,-53.125107471947906,-1.7085433506318746,-60.6101141236284
-3.648592935,-43.78311522,4.930054515679127,-0.5361035299999996,0.045657425,0.0017172587856495586,0.0,194,12,309.85113760650813,919.932,mp-1102705,SrGaGe,https://materialsproject.org/materials/mp-1102705,-53.57051077580271,26.150398912319275,-49.46938519734397,31.783919013509717
-5.897373509166666,-141.53696422,5.2036786690692916,-1.7039813083333328,0.0,0.0,1.0866999999999996,62,24,392.5261437239634,1230.0704,mvc-5746,SbO2,https://materialsproject.org/materials/mvc-5746,29.03110706159204,-28.25618168905743,6.885664175902461,-42.25724977508154
-6.359101660454545,-139.90023653,3.2720443353639137,-2.698638963852727,3.00000035,0.15329746332862007,0.8773,2,22,228.06769034171245,449.40081280000004,mp-765943,Li3V2(O2F)2,https://materialsproject.org/materials/mp-765943,12.064001259570453,-61.99104566809949,-0.6644659951317661,-75.38798902379656
-5.56951481375,-89.11223702,4.51539303105284,-1.6703154706250007,4.000000475,0.3237882381696498,0.0,227,16,143.97145767072246,391.49197999999996,mp-849273,LiCoO2,https://materialsproject.org/materials/mp-849273,17.758555577400692,-66.7831571296676,-17.136799842105148,-68.87467877499795
-4.577671773571429,-64.08740483,4.775890331432273,-1.513693301607143,0.0,0.0,2.5686,66,14,306.48774948077687,881.492,mp-1104569,Yb(GaS2)2,https://materialsproject.org/materials/mp-1104569,3.1649958379025542,-3.9559436907814263,-1.7827185424427836,-11.10971068507802
-8.9135777225,-35.65431089,8.487638429090714,0.11584077500000055,0.028468200000000003,0.005025901774678485,0.0,221,4,66.01208332994287,337.41254,mp-999437,Nb3Ni,https://materialsproject.org/materials/mp-999437,-50.61451949058071,-41.12443142851103,-64.77851855521651,-25.60822470612824
-5.017969033125,-80.28750453,3.9155937987426688,-2.584800915516876,8.999999800000001,0.6638709356754943,1.9491,8,16,157.9924274219074,372.5502106,mp-759351,Li4Co3OF8,https://materialsproject.org/materials/mp-759351,20.94696351101557,-28.184390693119038,21.984505735707174,-34.821673339348905
-6.001600255833334,-144.03840614,3.3758946321196235,0.0566583775300001,0.0,0.0,2.8236,148,24,442.3536652637693,899.31,mp-6814,AgCNO,https://materialsproject.org/materials/mp-6814,24.60184571676345,-24.89370505226577,14.514098803414006,-41.29627540778711
-7.5737214425,-424.12840078,3.827367219278651,-2.9356567732142858,1.999999525,0.03902324138378892,2.7066,212,56,597.2882616337788,1376.6864,mp-775326,Li2Ti3NiO8,https://materialsproject.org/materials/mp-775326,1.309453936949846,-67.28198556215393,-13.160127277033466,-65.8611769907384
-3.10739774875,-24.85918199,2.4955135946548457,1.1326812612500006,1.0001603000000001,0.015559923096014344,0.0,123,8,749.0996483220657,1125.772,mp-1206150,Sr2(SbPt)3,https://materialsproject.org/materials/mp-1206150,41.101530135741136,-40.300458968363856,34.40421066106445,-63.07081921182346
-5.912051329444443,-212.83384786,2.5972284991619605,-2.4611037361111108,0.0,0.0,1.1446,12,36,378.8780149913843,592.5984,mp-867601,Li7Cu(SiO4)2,https://materialsproject.org/materials/mp-867601,27.214560561935677,-43.26591598101082,29.600541674374146,-54.00030999686342
-4.479332208571429,-31.35532546,3.343488568544809,-2.53684105068,1.0000001,0.15294725231038833,0.0,65,7,76.19663486543467,153.4216128,mp-752843,Li2CuF4,https://materialsproject.org/materials/mp-752843,7.075445381884978,-61.96953350740146,-9.125740889642689,-62.913233543940365
-5.7719706240625,-184.70305997,4.161610161168351,-1.8366216606849992,23.2457081,0.9390599852027148,0.0,6,32,288.48741523464537,723.001465,mp-1100610,Li9Mn2Co5O16,https://materialsproject.org/materials/mp-1100610,-2.2153304851623483,-75.82947399653088,-19.580580957160205,-76.06051374165244
-5.4876023181818185,-120.727251,4.343279860051654,-1.4983888166781816,5.00000065,0.270037583512974,0.7635999999999998,64,22,215.7860053400343,564.4064900000001,mp-755899,Li2Mn(NiO3)2,https://materialsproject.org/materials/mp-755899,9.156923499551556,-64.4520790248948,-2.5427597124875505,-67.6869425626966
-3.267019609166667,-39.20423531,2.9604160730782643,1.1787791123908342,8.175501400000002,0.4199547671994258,0.0,139,12,226.87639313904359,404.4762,mp-1101883,Cu3N4Cl4O,https://materialsproject.org/materials/mp-1101883,19.788092680679068,-47.99616293378024,4.939302887693343,-61.76448111727165
-7.03178537375,-168.76284897,2.8586748946541536,-2.5371113557738094,1e-07,4.0477865371905464e-09,1.3015,15,24,287.91203946857445,495.65044799999987,mp-26896,LiV(PO4)2,https://materialsproject.org/materials/mp-26896,57.298364644039005,-36.1693172125285,41.1076170898378,-53.28123729401456
-5.525435535,-44.20348428,3.6599415824782127,-1.1705860565300004,4.9999975,0.7227304371004191,1.005,36,8,80.62521202430031,177.70347999999996,mp-24200,FeHO2,https://materialsproject.org/materials/mp-24200,9.74160951647647,-64.44086739974422,-1.9949251446200018,-70.32356041427076
-4.331616540681818,-190.59112779,1.6814424213042605,-0.4264953061724341,1.05e-06,2.2033403955422296e-08,5.727,88,44,555.3734700251014,562.3646838000002,mp-1204501,CsY(BH4)4,https://materialsproject.org/materials/mp-1204501,26.88600368372449,-40.26901467465397,4.655177657640845,-62.94756681301664
-5.3276596325,-106.55319265,4.052464340852433,-1.5948613738749997,5.839562,0.3797310076630378,0.0,166,20,179.21800542495575,437.37278,mp-1174181,Li3Co2O5,https://materialsproject.org/materials/mp-1174181,16.342487928416492,-71.28576892941805,-22.175949585000016,-71.94635192076666
-5.858415705833332,-70.30098847,3.3545318191798135,-2.3387595260416667,0.0,0.0,3.568,36,12,133.17867041322248,269.0404,mp-15349,Li2GeO3,https://materialsproject.org/materials/mp-15349,34.67457124248007,-18.102110187211462,49.77094785034955,-13.40185337492121
-7.78551713625,-62.28413709,6.39277399709784,-1.1608708285116671,4.45e-06,4.4454713744505423e-07,0.0,194,8,116.65936830894691,449.1174,mp-1025517,Ti2InN,https://materialsproject.org/materials/mp-1025517,-71.21482633622242,2.006214419271656,-56.991226626838376,-30.068249110482807
-1.45016911,-2.90033822,4.032130627122223,-0.011588217499999942,6.3e-06,1.9872076903091738e-06,0.0,187,2,36.946620338261226,89.714,mp-1094782,MgZn,https://materialsproject.org/materials/mp-1094782,-46.4031910375701,-31.56016332784253,-57.03599897233312,-28.497540104219514
-6.7755265442647055,-460.73580501,3.777598014487389,-2.455530770539216,8.000038,0.1459154011441308,0.6277999999999997,19,68,638.9521620328908,1453.5668,mp-759911,Li5TiV3O8,https://materialsproject.org/materials/mp-759911,2.1802786065766497,-60.648908256021684,-11.505818995339167,-62.00573353637206
-5.8384487374999985,-140.1227697,4.021386950683273,-1.8910499007050003,15.9999997,0.8564520983177122,0.0,10,24,217.71799407228957,527.2554749999998,mp-1174917,Li7Mn2(CoO4)3,https://materialsproject.org/materials/mp-1174917,-1.7933898006290367,-76.28652348680387,-20.811706526844088,-76.80750748959527
-5.3398689843749985,-256.31371125,3.33064700364706,-1.0708058294366662,0.461888675,0.011241076025989912,0.0,19,48,478.85812031840135,960.47568,mp-766274,Cu2H3NO6,https://materialsproject.org/materials/mp-766274,32.31553312686867,-41.52701376007217,-4.591542948170094,-60.13144890876811
-5.3593059675,-64.31167161,3.7869808792777286,-1.7374417652083345,2.99999995,0.3299875938296056,0.0,12,12,105.95002475465529,241.62679,mp-1173889,Li2CoO3,https://materialsproject.org/materials/mp-1173889,16.301025913017536,-79.02478423337391,-14.45724887123368,-76.13051845340445
-5.796972298125,-185.50311354,4.156746324202128,-1.8616233347474989,26.0000002,1.04909793567618,0.8022999999999998,2,32,288.82497630887747,723.001465,mp-1175417,Li9Mn2Co5O16,https://materialsproject.org/materials/mp-1175417,-2.1692087022398434,-76.27584002773045,-20.09301695000845,-77.12355285854252
-6.4102538475,-25.64101539,10.748607810051515,-0.8277567499999998,1.98e-05,3.4098707898428507e-06,0.0,225,4,67.67132736642975,438.034,mp-862666,DyGaRh2,https://materialsproject.org/materials/mp-862666,-40.98893966348759,-62.01824260104353,-48.028496766409226,-39.376902652146846
-5.70076441375,-91.21223062,3.938892386926707,-1.8694161281850008,9.9999999,0.8239558169800754,0.0,10,16,141.440407554048,335.504635,mp-1174004,Li5Mn(CoO4)2,https://materialsproject.org/materials/mp-1174004,14.658930831657633,-73.57476404240158,-14.02421958956614,-77.0955632836027
-5.8984568675,-117.96913735,3.950615223893459,-1.9414181319709995,7.0000000999999985,0.4520087023449644,0.1229,8,20,180.47983180435585,429.38248,mp-1174066,Li3MnCoO5,https://materialsproject.org/materials/mp-1174066,-2.3193305746793214,-75.64786150669323,-19.40688878483344,-75.09983916957896
-6.141894554583334,-147.40546931,3.3440147250847327,-2.627472695198333,1.99999995,0.10131653165194814,1.7042000000000006,8,24,230.05257466260662,463.28281280000004,mp-763174,Li2VO2F,https://materialsproject.org/materials/mp-763174,12.069050661422846,-61.96371245613604,-0.5943667510393288,-75.41172375278364
-6.3802084954166665,-153.12500389,3.844097626962117,-2.1525090624916663,18.0,0.9424544557819444,0.6454,2,24,222.58175407747208,515.270025,mp-1175349,Li7Mn5O12,https://materialsproject.org/materials/mp-1175349,3.5368376995654534,-78.2414791323357,-28.55528408842521,-78.13282048872203
-7.55788309857143,-105.81036338,3.806174664101341,-2.9198184292857143,1.9999997,0.1552286751208537,1.7281999999999995,166,14,150.1534818277187,344.1716,mp-756409,Li2Ti3NiO8,https://materialsproject.org/materials/mp-756409,0.6250861073180662,-66.63969186860606,-14.882376304005735,-65.46141419657214
-6.6792745465217385,-153.62331457,4.0149315306607365,-2.1085249726417383,23.0000003,1.1649436279012757,0.0,2,23,230.09138540719846,556.3260700000002,mp-756143,Li5Mn6O12,https://materialsproject.org/materials/mp-756143,5.405074041918489,-78.21989455537758,-29.19792596575066,-76.24875982650777
-5.947194435833333,-142.73266646,3.544514499436,-2.419240281608333,3.99999995,0.2076183559791209,1.0913000000000004,2,24,224.52859858028881,479.2689928,mp-753352,Li2MnO2F,https://materialsproject.org/materials/mp-753352,-5.930890798053587,-65.6314713931177,-21.347191316019167,-59.55611258306872
-6.646621125454545,-146.22566476,5.658884141601781,-1.802836407135455,0.0,0.0,1.588,141,22,282.694545379676,963.3833599999999,mp-625502,H2W2O7,https://materialsproject.org/materials/mp-625502,-8.461858750674967,-8.14877158678438,1.6114276585695666,-64.61171661607922
-3.4993443766666665,-20.99606626,2.569215942150176,0.20258804777777806,1.89840845,0.17740457581429275,0.0,189,6,124.7102840472066,192.954,mp-1094319,Mg2Ti,https://materialsproject.org/materials/mp-1094319,-70.66597579093579,5.550166390877483,-67.76690001968211,14.709438962633671
-5.221231999545455,-114.86710399,4.926124250930566,-1.5473822856818191,2.0000001,0.09992835805554133,0.6426000000000003,64,22,233.24841080217624,691.9504,mp-774781,Li2Ni2SnO6,https://materialsproject.org/materials/mp-774781,3.732515429831528,-57.79327763906373,-27.916343482672637,-74.95812545092578
-7.86180178309859,-558.1879266,3.5175525615852683,-3.0488219028568064,6.768225599999999,0.09030759355721137,0.0,12,71,873.4297574624948,1850.20346208,mp-685431,Na11Ti20O40,https://materialsproject.org/materials/mp-685431,10.54489255485548,-53.776687858180374,-4.56120615589642,-58.59373265002632
-5.7987861878125,-185.56115801,4.169982460000133,-1.863437224435,25.999999399999997,1.0524384975128258,0.9182,1,32,287.90820348190516,723.001465,mp-1175870,Li9Mn2Co5O16,https://materialsproject.org/materials/mp-1175870,-2.2922790115738056,-76.10775058663856,-19.73277248754594,-77.19652903322026
-6.421259111875,-205.48029158,3.9248197329076446,-2.135534403335,25.9999979,1.0187090246338983,0.0,12,32,297.4408317644085,703.025715,mp-1100495,Li9Mn7O16,https://materialsproject.org/materials/mp-1100495,2.1873296388903003,-78.31048922977124,-28.829992039043713,-78.86006848710883