energy_per_atom,energy,density,formation_energy_per_atom,total_magnetization_uB,total_magnetization_T,band_gap,sgr,num_sites,cell_volume,weight,mp_id,formula,URL,tsne_xrd_lin1_0,tsne_xrd_lin1_1,tsne_xrd_lin2_0,tsne_xrd_lin2_1
-5.863161379166668,-140.71587309999998,4.1055132852351734,-1.915762542371668,18.0000005,0.9836649976359458,0.8554999999999997,1,24,213.2567207710524,527.2554749999998,mp-1174936,Li7Mn2(CoO4)3,https://materialsproject.org/materials/mp-1174936,13.579420798147087,-72.29209463345256,-10.992136608094194,-78.8071103817592
-5.8669276175,-140.80626282,4.078363672230172,-1.919528780705,18.0000001,0.977160034356864,0.7115,1,24,214.67636793961498,527.2554749999998,mp-1174920,Li7Mn2(CoO4)3,https://materialsproject.org/materials/mp-1174920,16.886622542884645,-71.2632555553253,-9.15736122787343,-78.36081238689661
-6.20770513,-148.98492312,3.960153261925509,-2.0734392291183323,15.999943,0.8563860202197648,0.6408999999999998,1,24,217.7340214304441,519.265175,mp-1175194,Li7Mn4CoO12,https://materialsproject.org/materials/mp-1175194,13.839588541212898,-81.21059649399419,-16.493050456437665,-85.1467432896588
-5.902056862999999,-118.04113726,4.00286766782721,-1.9450181274710008,7.000000200000001,0.4579871598473774,0.5781000000000001,12,20,178.12389274388505,429.38248,mp-1174074,Li3MnCoO5,https://materialsproject.org/materials/mp-1174074,18.18730458702016,-71.85130827686638,-11.131746067322183,-77.03839435322341
-5.7450191545,-114.90038309,4.302914592340842,-1.920214369375,15.974415300000002,1.05464725842584,0.0,166,20,176.52050875080272,457.4133186000001,mp-1222628,Li5Al(Co2O5)2,https://materialsproject.org/materials/mp-1222628,20.11252426009377,-70.06442710792876,-10.783115871470931,-73.97376984779858
-6.909365655,-110.54985048,4.059863340380225,-2.4273950893750005,7.0000000999999985,0.5499249375637578,1.79,10,16,148.34470852463605,362.689,mp-776615,Li4VCr3O8,https://materialsproject.org/materials/mp-776615,2.348325783530814,-67.52164612097128,-11.718323421802909,-65.9825421437578
-6.397622844375,-102.36196551,4.226031490035343,-2.1520865825,9.999999800000001,0.8006489280545572,0.0,12,16,145.55773612032206,370.4409,mp-754279,Li4Cr3NiO8,https://materialsproject.org/materials/mp-754279,15.624857408356231,-69.07877217114836,-11.17068545694316,-70.80814378668337
-6.193518432916666,-148.64444239,3.9555984324424176,-2.0592525320349995,16.0001832,0.8554138767884315,0.4567000000000001,1,24,217.98473983809373,519.265175,mp-1175252,Li7Mn4CoO12,https://materialsproject.org/materials/mp-1175252,2.0573446607136496,-77.86894918531976,-28.030903691165427,-79.24821312766163
-5.77754984375,-184.881595,4.192398490569845,-1.8422008803724996,21.405830399999996,0.871131656034254,0.0,12,32,286.36880804870907,723.001465,mp-1100741,Li9Mn2Co5O16,https://materialsproject.org/materials/mp-1100741,2.005663606465555,-72.86840960379381,-22.195501040994124,-73.87387335247763
-5.5633344383333325,-66.76001326,3.8170173629509017,-1.8596641477083324,1.99999995,0.2275532406176012,0.0,12,12,102.42934312495687,235.4504,mp-849695,Li2FeO3,https://materialsproject.org/materials/mp-849695,20.322939805753485,-71.73616226148012,-13.003100066290168,-75.89851762627305
-5.8682310850000015,-140.83754604,4.1198465872877605,-1.920832248205001,15.999999800000003,0.8774214766581888,0.7964000000000002,1,24,212.5147822233921,527.2554749999998,mp-1174939,Li7Mn2(CoO4)3,https://materialsproject.org/materials/mp-1174939,21.890201916904307,-75.3120473059727,-11.451686676994484,-79.79373301368051
-5.790676476875,-185.30164726,4.180178001929912,-1.8553275134975,22.0000008,0.8927022549906782,0.5976000000000004,2,32,287.20598932758634,723.001465,mp-1175707,Li9Mn2Co5O16,https://materialsproject.org/materials/mp-1175707,10.951534867435921,-79.9017355847789,-14.214637040139275,-84.48704895824929
-6.10782997,-122.15659939999999,3.9227459550580495,-2.0386709960190004,13.7121644,0.8874420053285876,0.0,8,20,180.0708678765077,425.38732999999996,mp-1174282,Li6Mn3CoO10,https://materialsproject.org/materials/mp-1174282,16.81239474984665,-75.84088568441558,-14.708384464771346,-78.58603747731915
-6.212028764583334,-149.08869035,4.0374679909729805,-2.0777628637016665,14.000009699999998,0.763970464196904,0.7546999999999997,1,24,213.56456500157609,519.265175,mp-1175195,Li7Mn4CoO12,https://materialsproject.org/materials/mp-1175195,18.282754661170546,-76.16813505243654,-11.094549858224482,-81.63663837084712
-5.421085876666668,-81.31628815,4.5079290220669535,-1.466984850064,8.4890993,0.6809832833364927,0.048599999999999983,166,15,145.27891583207312,394.394245,mp-756390,Li3MnCu3O8,https://materialsproject.org/materials/mp-756390,5.902057118762548,-70.12777018994062,-7.9939810582445885,-68.15580676338641
-6.1919572075,-148.60697298,3.936522057844631,-2.0576913066183327,16.0005414,0.8513075929942178,0.5568999999999997,1,24,219.04109326191517,519.265175,mp-1175256,Li7Mn4CoO12,https://materialsproject.org/materials/mp-1175256,10.841670085152717,-81.71031824825559,-17.1857099702031,-86.0655599829047
-6.504101522916668,-156.09843655,4.029431052347572,-2.273396238541668,7.0000006333333324,0.3573236102253429,1.1676000000000002,2,24,228.30414351119651,553.9983,mp-756969,Li2VFeO4,https://materialsproject.org/materials/mp-756969,3.293766412349108,-64.85301431538343,-10.530148480889906,-64.60495206965632
-6.385321988392858,-357.57803135,4.054163025069925,-1.9363106634614289,17.00000115,0.3318940288493569,0.0,212,56,596.9348566545418,1457.40098,mp-773804,Li2MnFe3O8,https://materialsproject.org/materials/mp-773804,2.3717647641458433,-67.14752611283896,-9.18455316853016,-66.18558596344074
-6.618202032857143,-92.65482846,4.255983615128083,-2.11154968949143,10.0000001,0.7935277784348966,0.0,166,14,146.86398139818206,376.41433500000005,mp-753967,Li2Mn3GaO8,https://materialsproject.org/materials/mp-753967,13.787024676152365,-67.90364470961894,-12.820152701895521,-68.63541538796791
-6.392361471851853,-172.59375974,3.6089907697588406,-1.872624399102223,14.9999994,0.6124730687704979,0.0,166,27,285.4182061374205,620.32367,mp-758809,Li5Mn6O16,https://materialsproject.org/materials/mp-758809,8.300260744331734,-70.5383031596063,-6.830650403152496,-68.86065529126479
-6.189896288333332,-148.55751092,3.9751456182500338,-2.055630387451666,15.9999885,0.8596305727441376,0.5061,1,24,216.91283238562764,519.265175,mp-1175253,Li7Mn4CoO12,https://materialsproject.org/materials/mp-1175253,13.474762449019849,-81.74802145479744,-13.545680793547616,-88.26217649143314
-5.7594512021875,-184.30243847,4.113477007481382,-1.8241022388099992,25.4297562,1.0154076485576349,0.0,8,32,291.8631018056389,723.001465,mp-1100616,Li9Mn2Co5O16,https://materialsproject.org/materials/mp-1100616,4.207441520228904,-75.18572907772455,-23.42577383419248,-77.0485688739584
-5.8021273353125,-185.66807473,4.2200202473699,-1.8667783719349995,21.9999997,0.9012107620376691,0.7704,1,32,284.49440719104194,723.001465,mp-1175975,Li9Mn2Co5O16,https://materialsproject.org/materials/mp-1175975,16.303221925882035,-74.14229562060873,-8.55327342285218,-79.30798680055194
-5.783708568125,-185.07867418,4.183517798560344,-1.8483596047474995,17.999999300000002,0.7309762539522858,0.35139999999999993,2,32,286.9767063075102,723.001465,mp-1175676,Li9Mn2Co5O16,https://materialsproject.org/materials/mp-1175676,3.904169389786632,-72.96268937794669,-22.067153605755163,-77.13391420185366
-5.774412043125,-184.78118538,4.109325135017715,-1.8390630797475,25.3686246,1.0119442480539849,0.0,8,32,292.15798681369563,723.001465,mp-1176281,Li9Mn2Co5O16,https://materialsproject.org/materials/mp-1176281,5.5479733505675615,-69.54823913670842,-22.18519086922824,-76.77417988425175
-6.1912642233333335,-148.59034136,3.925493007108736,-2.056998322451666,16.0000392,0.8488958189061444,0.03309999999999968,12,24,219.65651031308724,519.265175,mp-1175281,Li7Mn4CoO12,https://materialsproject.org/materials/mp-1175281,12.44385939241716,-82.84874202671821,-18.40042594251447,-84.21834817813627
-5.82040328625,-93.12645258,4.308234738904577,-1.9002159731250003,16.8637875,1.318108671651179,0.05790000000000006,166,16,149.101266126631,386.8402,mp-753104,Li4Fe3CuO8,https://materialsproject.org/materials/mp-753104,2.2400840329340213,-66.53987166474319,-12.694244317253895,-65.06158910000414
-5.9060032274999985,-118.12006455,3.9993319935334255,-1.9489644919710003,7.0000061,0.457583012183974,0.2915000000000001,2,20,178.2813660593541,429.38248,mp-1174139,Li3MnCoO5,https://materialsproject.org/materials/mp-1174139,21.84551853469639,-75.5611601521119,-12.261273789709065,-78.5833304735484
-5.8706182775,-140.89483866,4.091660592673623,-1.923219440705001,18.0000005,0.9803459464359862,0.5836000000000001,2,24,213.97872097674286,527.2554749999998,mp-1174656,Li7Mn2(CoO4)3,https://materialsproject.org/materials/mp-1174656,16.50203104472615,-73.06597981252638,-9.937115959238893,-79.80348986586606
-6.2273053586666665,-93.40958038,4.2063944097813435,-1.854992472858666,10.0000063,0.7928947581424792,0.008199999999999985,12,15,146.981323749984,372.325735,mp-863332,Li3Mn3NiO8,https://materialsproject.org/materials/mp-863332,4.156605355262801,-76.89038617681406,-27.64022651936752,-76.55164211272339
-5.417977955625,-86.68764729,3.9620921088020133,-1.7267799681250002,10.0000001,0.8190556403244775,0.2568000000000001,2,16,142.28660808053846,339.49978500000003,mp-1174128,Li5Co3O8,https://materialsproject.org/materials/mp-1174128,17.874357941905128,-79.77761050342119,-14.175661893613766,-84.49520975505237
-6.9659814944,-348.29907472,4.053183532603281,-1.8144519960872003,24.9999992,0.4948996931171701,0.0,59,50,588.7084070625226,1436.96905856,mp-760061,NaMn8O16,https://materialsproject.org/materials/mp-760061,14.32279732049503,-68.43423324255396,-10.581383385722027,-70.01733976737606
-5.7655916653125,-184.49893329,4.173994151556145,-1.8302427019349992,22.0002447,0.8913915385820057,0.0,2,32,287.63149037046384,723.001465,mp-1175741,Li9Mn2Co5O16,https://materialsproject.org/materials/mp-1175741,12.9416416457349,-77.78733194393283,-14.267246234536758,-84.26153969357087
-6.4173679840625,-205.35577549,3.920488375969436,-2.1316432755225003,25.9999972,1.0175847691958069,0.0,12,32,297.76944450007323,703.025715,mp-1100500,Li9Mn7O16,https://materialsproject.org/materials/mp-1100500,10.765971866751073,-82.58946268705175,-18.852179547878748,-86.31137500871013
-5.643786021,-112.87572042,4.47346735693948,-1.7200448513750004,19.9042289,1.285092635772592,0.0,166,20,180.5046316439267,486.27678,mp-1222680,Li5Fe(Co2O5)2,https://materialsproject.org/materials/mp-1222680,2.1023998420612786,-71.52942437845617,-19.561389080058294,-72.33191851569299
-6.563541405454545,-216.59686638,4.250266788446249,-2.049192450227272,5.000000033333333,0.18223965035390385,0.0,2,33,319.7455885045219,818.4113849999999,mp-759210,Li2Cr2CoO6,https://materialsproject.org/materials/mp-759210,-2.4753426284364357,-75.9899586311058,-7.1152694810869415,-68.47113260344221
-5.814759705416668,-139.55423293,4.003199959271487,-1.867360868621668,18.0,0.9591510964661007,0.1009000000000002,1,24,218.7071116104265,527.2554749999998,mp-1175066,Li7Mn2(CoO4)3,https://materialsproject.org/materials/mp-1175066,12.728633371925746,-83.73786352915296,-16.900583317093847,-86.95602527381122
-6.262201885,-75.14642262,4.163054030917105,-1.989268413701667,11.9999995,1.2274951703278456,0.605,2,12,113.93020096880088,285.628685,mp-1173959,Li3Mn2CoO6,https://materialsproject.org/materials/mp-1173959,5.099244141562792,-77.85733757132279,-29.247619370884127,-76.17485051223173
-5.867390909166668,-140.81738182,4.094722025847571,-1.9199920723716664,17.999999399999997,0.9810793939494056,0.6478000000000002,2,24,213.81873904127042,527.2554749999998,mp-1174516,Li7Mn2(CoO4)3,https://materialsproject.org/materials/mp-1174516,14.075526656094695,-74.39129646522588,-10.39968029542557,-79.24035961904278
-6.1923736883333325,-148.61696852,3.9578340449717406,-2.0581077874516662,16.0001291,0.8558944429103537,0.1842999999999999,12,24,217.86160950719915,519.265175,mp-1175277,Li7Mn4CoO12,https://materialsproject.org/materials/mp-1175277,12.504190137350696,-78.859646760682,-18.483644137944697,-83.53739266826041
-7.193888917857144,-402.85777939999997,3.5004839865878017,-2.8428846621428585,9.9999996,0.2213240576212002,1.7645,5,56,526.561117289076,1110.0123,mp-863437,Li9V5(Si5O16)2,https://materialsproject.org/materials/mp-863437,25.57686706831749,-70.29900774205902,-14.595940969904143,-72.24187481215641
-6.186040917083332,-148.46498201,3.9731137279731334,-2.0517750162016664,15.9995902,0.859169785240251,0.4188000000000001,1,24,217.02376378735332,519.265175,mp-1175254,Li7Mn4CoO12,https://materialsproject.org/materials/mp-1175254,13.8842912765716,-80.95753628236447,-13.20928439536244,-86.65754706593563
-5.869342997083333,-140.86423193,4.119587480506627,-1.9219441602883325,16.000000099999998,0.8773663100213548,0.8933999999999997,1,24,212.52814861539767,527.2554749999998,mp-1174884,Li7Mn2(CoO4)3,https://materialsproject.org/materials/mp-1174884,21.873713409038825,-75.26697346687358,-11.239090465683748,-79.41418602737798
-6.113087298636364,-134.48792057,3.9273448974005496,-2.0156561811363645,7.99891565,0.43090004336863896,0.7194000000000003,64,22,216.33759970544014,511.66058,mp-752511,Li2Co2SiO6,https://materialsproject.org/materials/mp-752511,9.196127025889881,-64.52713642163064,-2.5572015710083718,-67.72176320475425
-6.650394386,-66.50394386,4.106059663956874,-1.8754078002499996,3.9999998,0.4335667771393888,0.4847999999999999,8,10,107.51805538928323,265.862795,mp-763359,LiCr2CoO6,https://materialsproject.org/materials/mp-763359,6.8087076568765985,-68.46195266248822,-6.533673896650591,-68.17717280868281
-5.788198065,-162.06954582,4.087213197616768,-1.847684870157858,10.000000199999999,0.4588665070875783,0.0,8,28,253.97506302234257,625.12847,mp-1174850,Li4MnCo2O7,https://materialsproject.org/materials/mp-1174850,11.95167950487933,-72.96101441880147,-13.79727919173664,-81.16271135373219
-5.499804293125,-175.99373738,4.230566761630123,-1.7046056278124997,25.9999999,1.0560579538175503,0.5402,2,32,286.9214533405183,730.991765,mp-1175476,Li9Co7O16,https://materialsproject.org/materials/mp-1175476,15.098567824108038,-79.08541697467469,-13.40993454778544,-84.7679107214765
-5.613579203571428,-78.59010885,3.979642191731561,-1.6893231457142852,5.0000002,0.4071658345782601,0.0,12,14,143.1120227805151,342.981785,mp-1177928,Li2MgCo3O8,https://materialsproject.org/materials/mp-1177928,7.100731338592778,-68.24490552565341,-6.394657221916276,-68.49983201816043
-6.683939388666668,-100.25909083,4.232531679568178,-2.228681304666667,14.000000199999997,1.0161498141997949,0.8922000000000003,12,15,160.56383307527602,409.25958,mp-772060,Li3NbFe3O8,https://materialsproject.org/materials/mp-772060,2.2487408790840933,-60.527819503584965,-10.328393100367649,-61.37171047364468
-5.7815761340625,-185.01043629,4.1754171440339665,-1.8462271706849995,23.3971401,0.9483132210792498,0.0,1,32,287.53346484796805,723.001465,mp-1176319,Li9Mn2Co5O16,https://materialsproject.org/materials/mp-1176319,1.8167391835743991,-73.17615757290339,-21.843123433709987,-76.63972056963217
-6.5932106009375,-210.98273923,4.293946747473941,-2.3841485784374994,8.99999955,0.3554974784528058,3.1431000000000004,2,32,295.0416924620531,762.941,mp-768748,Li4Cr3GaO8,https://materialsproject.org/materials/mp-768748,13.707096835219344,-67.85400697376029,-12.932372398663464,-68.63790723324765
-5.77422703125,-184.775265,4.154329692411048,-1.838878067872499,21.9999999,0.8871821561099265,0.0,6,32,288.9929898445103,723.001465,mp-1100595,Li9Mn2Co5O16,https://materialsproject.org/materials/mp-1100595,16.738674880003806,-76.20393899589928,-13.925949956899593,-80.87540482161468
-5.8687862499999985,-140.85087,4.0684065467623185,-1.921387413205,17.9999998,0.9747743296712852,0.9403,1,24,215.20177254360146,527.2554749999998,mp-1174940,Li7Mn2(CoO4)3,https://materialsproject.org/materials/mp-1174940,13.305204903081224,-72.2997804678849,-11.326085790715391,-79.44854253151532
-5.864334775,-140.7440346,4.0993394941408345,-1.9169359382049995,18.000000399999998,0.9821857758718482,0.8243999999999998,1,24,213.57789505910213,527.2554749999998,mp-1174953,Li7Mn2(CoO4)3,https://materialsproject.org/materials/mp-1174953,13.608818268962185,-72.25189600135161,-11.112221116379464,-78.8356478173786
-5.868497854166668,-140.8439485,4.0736766171028025,-1.921099017371668,18.000000399999998,0.976037050490423,0.8043,2,24,214.92336839292838,527.2554749999998,mp-1174514,Li7Mn2(CoO4)3,https://materialsproject.org/materials/mp-1174514,13.353045605294025,-72.33889559679614,-12.016906815560587,-79.96877437080977
-6.90930264625,-110.54884234,4.058682881258409,-2.427332080625,6.9999991999999995,0.5497649689091261,1.8945,12,16,148.38785426168292,362.689,mp-776618,Li4VCr3O8,https://materialsproject.org/materials/mp-776618,2.219334986394831,-67.4976735788715,-11.7615992393895,-66.00563126569006
-5.7931058553125,-185.37938737,4.173902974229343,-1.857756891934999,24.000000600000003,0.9723950997854622,0.8466,1,32,287.6377735712373,723.001465,mp-1175779,Li9Mn2Co5O16,https://materialsproject.org/materials/mp-1175779,1.9431501203897197,-73.27848207275198,-22.106724714038915,-76.7204533119178
-5.4998934159375,-175.99658931,4.236412280242252,-1.7046947506249994,23.9999991,0.976169639610568,0.0,2,32,286.525551198618,730.991765,mp-1175472,Li9Co7O16,https://materialsproject.org/materials/mp-1175472,16.245751545068472,-75.29496491644069,-9.404648819357176,-81.02969741186996
-7.318303162666668,-109.77454744,3.7860484703480535,-2.676704305777778,6.0000002,0.4561488016411394,1.4976000000000005,166,15,153.2929401866146,349.5097,mp-756307,Li3TiV3O8,https://materialsproject.org/materials/mp-756307,3.986523594756788,-64.50975748140546,-9.811836496288226,-65.51298624188694
-6.414686143928571,-179.61121203,3.903396229757116,-2.1538294106521425,10.999988499999999,0.494698366713689,0.8633000000000002,2,28,259.1368540955897,609.14787,mp-1174288,Li4Mn3O7,https://materialsproject.org/materials/mp-1174288,2.321043876728774,-78.33579277167438,-28.61844255953027,-79.03670271976391
-6.516675365999999,-65.16675366,4.198537891855607,-1.770749730442,8.0,0.8674653696097927,0.3344999999999998,12,10,107.47693388891804,271.746685,mp-1176665,LiMn2CoO6,https://materialsproject.org/materials/mp-1176665,12.589010855535284,-71.0470533170899,-6.089871435899912,-69.85938447120223
-5.7605105490625,-184.33633757,4.147656387899617,-1.825161585685,22.0,0.8857570357181546,0.0,8,32,289.4579604309185,723.001465,mp-1100644,Li9Mn2Co5O16,https://materialsproject.org/materials/mp-1100644,16.459736645898214,-76.75557549653443,-12.587162931481485,-83.01756084727343
-5.7920057271875,-185.34418327,4.141256387332836,-1.8566567638099996,26.0000015,1.0451885694804273,0.6783000000000001,2,32,289.9052959584853,723.001465,mp-1175404,Li9Mn2Co5O16,https://materialsproject.org/materials/mp-1175404,1.8392159859724344,-73.11727964142739,-20.96342800451353,-76.55791268491404
-5.841946216666668,-140.2067092,4.053626678291842,-1.8945473798716663,16.000000699999998,0.8633183859149377,0.0,8,24,215.986416553826,527.2554749999998,mp-1175111,Li7Mn2(CoO4)3,https://materialsproject.org/materials/mp-1175111,4.512445887696769,-70.52269475029095,-22.10197519351068,-73.35582734360025
-5.789479666875,-185.26334934,4.176519909020122,-1.854130703497499,20.0000003,0.8108372982773937,0.1391,10,32,287.45754474120696,723.001465,mp-1100721,Li9Mn2Co5O16,https://materialsproject.org/materials/mp-1100721,21.576056746966287,-75.12959884230825,-13.416945652773965,-78.71421179137788
-5.827820761666668,-139.86769828,4.031398748962906,-1.8804219248716683,16.0020348,0.8586935606821796,0.0,6,24,217.17730118274133,527.2554749999998,mp-1175116,Li7Mn2(CoO4)3,https://materialsproject.org/materials/mp-1175116,1.7096733030674018,-73.30979609835036,-21.171592062762784,-76.48870723199481