energy_per_atom,energy,density,formation_energy_per_atom,total_magnetization_uB,total_magnetization_T,band_gap,sgr,num_sites,cell_volume,weight,mp_id,formula,URL,tsne_cry_lin1_0,tsne_cry_lin1_1,tsne_cry_lin2_0,tsne_cry_lin2_1
-6.568819704000001,-65.68819704,3.3588771375587343,-2.0042500419610008,2.9999997000000005,0.3824703586932543,1.4956,8,10,91.41150425594087,184.90382,mp-625381,V2H3O5,https://materialsproject.org/materials/mp-625381,-12.186416045816095,-30.56692332961713,-8.604250342815693,-0.5045126942092143
-6.148741094117646,-104.5285986,3.3145239293545514,-3.1281963486376467,8.0000002,0.4271329376783198,1.0275,1,17,218.27518387613858,435.6888352,mp-776414,LiV4OF11,https://materialsproject.org/materials/mp-776414,-32.07260011658419,-63.903591818602116,5.515626122990497,1.2969238803682557
-5.366010939166666,-450.74491889,9.249080295877796,0.016204311547619726,0.005413225,3.161083663604742e-05,0.0,57,84,1995.7103794747159,11115.96,mp-1209264,Sn17Os4,https://materialsproject.org/materials/mp-1209264,34.254440683425415,36.259130628891135,-8.604250342815693,-0.5045126942092143
-6.5858670725,-158.06080974,2.9454080814751773,-2.124847901166666,1.99999995,0.06987205094079435,2.1651,11,24,333.5830084931405,591.6982771200002,mp-771012,Na2VAsCO7,https://materialsproject.org/materials/mp-771012,-16.835010236294888,-49.412131046439846,8.987693817685235,1.2696215119783336
-6.406459167777778,-115.31626502,5.673803528917753,-0.21261406957629625,1e-07,3.440279971492137e-09,0.8529,15,18,338.7533825482531,1157.4676,mp-1246226,Ti(SnN)4,https://materialsproject.org/materials/mp-1246226,32.78599247209006,-6.593743092682617,6.878308356809553,-3.886069442229601
-4.51007718375,-36.08061747,6.792444796455055,-0.974178559375,0.0,0.0,0.0,63,8,260.68169005317526,1066.32,mp-9399,SmTe3,https://materialsproject.org/materials/mp-9399,-9.994527725103769,24.055889998044965,-8.604250342815693,-0.5045126942092143
-6.911102926964285,-387.02176391,4.802417993192969,-1.9641418561309527,50.00000655,0.917727163306246,0.9842,58,56,634.9417760098057,1836.3048,mp-759782,TiFe11O16,https://materialsproject.org/materials/mp-759782,-25.439547969767087,-37.26172901312003,5.5172281938638585,-2.3091839687493234
-6.001031934444446,-324.05572446,4.338731295999153,-2.209766536091112,4.9508325499999986,0.09219477248717703,0.0,6,54,625.8198991035175,1635.1704576,mp-759531,FeOF,https://materialsproject.org/materials/mp-759531,-42.8351631592496,-76.82570756868127,-8.604250342815693,-0.5045126942092143
-5.341503368620691,-154.90359769,8.749359971279727,-0.5453710408620696,9.109999999999999e-05,1.5579987331078674e-06,0.0,216,29,681.4416971073896,3590.508,mp-1225985,Er5(Sn3Rh)6,https://materialsproject.org/materials/mp-1225985,0.8580242198005397,49.85427052058529,-8.604250342815693,-0.5045126942092143
-8.187612162999999,-163.75224326,6.387397908984825,-3.2155856892500014,1.999998875,0.09345168672177312,1.2383000000000006,62,20,249.41354460182262,959.3894,mp-1209329,PrVO3,https://materialsproject.org/materials/mp-1209329,-13.657793129553216,-28.968200468589398,7.694184575285213,-3.0094637926913617
-7.8999166141999995,-789.99166142,4.72216815202579,-3.335609757853333,0.00014380000000000003,1.3416408912472985e-06,1.7094000000000005,1,100,1249.1081072641375,3552.15889568,mp-677709,Na3Sr7Ti7Nb3O30,https://materialsproject.org/materials/mp-677709,4.088081342782127,-39.168873561535634,7.185465640769851,-0.17641804636007213
-4.6171142564285725,-387.83759754,2.3199194537271115,-0.6133174925755273,0.0009282,9.506990584173182e-06,0.9991,15,84,1137.826194957853,1589.64352,mp-866716,RbLiH12Se3N4,https://materialsproject.org/materials/mp-866716,46.335339483810024,-16.087255904466883,8.111940806921798,-5.6503049413134
-4.858931817,-194.35727268,6.983560517139522,-2.389558545333,0.0,0.0,1.7787000000000002,14,40,618.5034737998377,2601.1772895999998,mp-14276,RhPb2F7,https://materialsproject.org/materials/mp-14276,7.419471729833356,-14.477202983594847,8.665526052440036,-0.8441292400061438
-8.174858282999999,-163.49716566,5.618128426314124,-3.61991800275,0.0,0.0,1.7592,65,20,255.5374020548389,864.5638,mp-1218423,Sr4HfTi3O12,https://materialsproject.org/materials/mp-1218423,3.793991857349316,-39.02686667256752,6.773442011917977,-0.5445056537325048
-7.280669904027778,-524.20823309,1.3417256595737659,-0.05044196273444376,0.0,0.0,2.4663,14,72,743.4401377456592,600.70416,mp-603334,HC2,https://materialsproject.org/materials/mp-603334,46.005709894580015,-26.229148594917454,5.316133142311107,-2.0704427369456617
-6.029576544666668,-90.44364817,2.9523214978549825,-1.230504432833334,11.0003465,0.4696383356943335,0.0,160,15,272.97335180712145,485.3274,mp-755947,Li3(CrS2)4,https://materialsproject.org/materials/mp-755947,15.465398880837489,7.735500059252697,-4.579734289781413,-2.8739080155225216
-6.887759707857143,-96.42863591,7.107353825468332,-0.5428304728571435,1e-07,3.3866356217169173e-09,0.0,176,14,344.11924028164117,1472.88148,mp-28968,Nb3Te3As,https://materialsproject.org/materials/mp-28968,57.1781718957366,32.32471877286117,-8.604250342815693,-0.5045126942092143
-5.65045855,-22.6018342,5.013362239540538,-0.8019049236979168,3.0,0.4712395259313498,0.6317000000000004,160,4,74.19198177101208,223.9943,mp-4182,CrAgS2,https://materialsproject.org/materials/mp-4182,15.931950081428988,6.572501044275023,3.3319111560205923,-0.7596567561593309
-4.103589135,-147.72920886,2.464787514632846,-1.8760689373388888,0.99999995,0.011770840513080978,2.7581,62,36,990.079185671172,1469.604,mp-559914,K2MoCl5O,https://materialsproject.org/materials/mp-559914,14.627193038702007,-8.124648356691043,6.454522499335737,-0.34152262214640194
-7.334933523333333,-44.00960114,3.9395892761362985,-1.5087287496822224,0.0,0.0,0.5597000000000001,59,6,119.51875657571104,283.5554,mp-27849,TiBrN,https://materialsproject.org/materials/mp-27849,36.33847618300839,5.752140221236358,5.559344260628184,-6.348275291180866
-6.639628965263157,-504.61180136,4.8515618225666985,-1.7104190265789467,13.224023425,0.15731720508580418,0.0,62,76,979.6361781582617,2862.18232,mp-1213876,Co4(MoO4)3,https://materialsproject.org/materials/mp-1213876,-10.700387846094674,-37.066737585212046,-11.331291535119384,-0.2895241671073115
-5.7314180275,-114.62836055,7.35183508517381,-1.7187152877500005,2.00000065,0.10993334638516918,2.9140999999999995,14,20,212.02062783204724,938.6956,mvc-5021,Zn2NiWO6,https://materialsproject.org/materials/mvc-5021,-11.117594504548793,-46.712066792757966,8.015009707395398,0.9136212896511744
-3.5041950796428574,-196.23492446,3.825318844375209,-0.28204535521428553,2.125e-07,1.5328656968933853e-09,0.7579000000000002,14,56,1615.5940922860775,3721.78092608,mp-30039,Na2Al2Sb3,https://materialsproject.org/materials/mp-30039,34.9709683693457,20.422984329699933,5.985273648089604,-6.108346297220689
-8.756652463333333,-26.26995739,10.250010025162203,-0.6674579066666659,6.989923200000001,1.0606218558428708,0.0,216,3,76.80495859976506,474.094,mp-568926,GdSbPt,https://materialsproject.org/materials/mp-568926,25.238040272217606,30.400466693349575,-8.604250342815693,-0.5045126942092143
-6.445970028181819,-70.90567031,8.776470318152976,-0.3500805390909095,0.1554096,0.007617450818530248,0.0028000000000005802,121,11,237.76373327829987,1256.656,mp-20752,Ce(Sn3Ru2)2,https://materialsproject.org/materials/mp-20752,2.435266250979483,50.31688640055606,-8.604250342815693,-0.5045126942092143
-7.978712849,-159.57425698,4.752380079697559,-2.438681894250001,4.99999995,0.27622135510848145,1.5377,2,20,210.95517128721096,603.7432,mp-1101715,VCrO3,https://materialsproject.org/materials/mp-1101715,-26.327104594451452,-50.716046791240046,7.447385740576791,1.5656049596221484
-3.713786831428572,-155.97904692,8.353211452441059,-0.9475640380952384,0.07955905,0.0007472089591933003,0.0,139,42,1240.8661734253317,6242.08,mp-17402,Yb11Sb10,https://materialsproject.org/materials/mp-17402,1.0766876815342523,36.38431879849134,-8.604250342815693,-0.5045126942092143
-6.324176475769232,-164.42858837,4.654001121506321,-1.7512148103846157,6.0000031,0.24137637879869855,2.5737,64,26,289.6904208728479,811.9168,mp-542151,V2Ni3O8,https://materialsproject.org/materials/mp-542151,-8.241024024319808,-37.687282918425744,4.575210084892667,-6.110792332914977
-3.2943930089999998,-32.94393009,4.341413578709029,-1.1229833290689657,0.0,0.0,1.7520999999999998,225,10,414.9285512254193,1084.8142699999999,mp-1112410,Rb2YCuI6,https://materialsproject.org/materials/mp-1112410,48.39257823295028,-13.550920398337016,8.81386977053647,0.3200864924627437
-4.521062551071429,-126.58975143,5.564731284472563,-1.1437476305357153,0.0002513,4.503518902515622e-06,1.0617,62,28,650.3062473454537,2179.28,mp-1194386,Yb(SbS2)2,https://materialsproject.org/materials/mp-1194386,-14.352063155940984,12.219735749701906,-6.219611555932495,-3.7463982169747614
-8.67169488,-112.73203344,2.019464376843748,-0.009105985769229856,0.0014227,0.00013347543990630524,0.0,191,13,124.21939169902254,151.0694,mp-1021323,LiC12,https://materialsproject.org/materials/mp-1021323,60.110557543323935,37.40068938535527,-6.0859733119302595,0.5657716797731542
-6.571979920652174,-604.6221527,3.902123684342627,-2.174823349342204,4.999999875,0.031746422266713516,2.7574,14,92,1835.4925766591807,4313.2494228,mp-1199975,Cs3FeMo4O15,https://materialsproject.org/materials/mp-1199975,-7.4129481721019514,-41.85155025747349,8.719941706221201,1.0784558283353642
-3.6595891804545455,-161.02192394,3.6189417335762215,-1.2404202510617872,5.000000475,0.049274377559415404,1.4227,62,44,1182.5685535695798,2577.26352,mp-1209552,Rb2FeH2Br5O,https://materialsproject.org/materials/mp-1209552,21.487956245373038,-2.914258695924865,7.823670907004045,-4.697409151577986
-4.122944307,-82.45888614,4.815297465082251,-0.916851353,0.0,0.0,2.3223,15,20,946.4079248713033,2744.43152,mp-569059,HfI4,https://materialsproject.org/materials/mp-569059,40.866868054282854,-10.257587407413602,7.897370302769571,-4.8721280825710345
-5.587867863392856,-312.92060035,4.439636796051726,-0.9046004410714285,5.0000001875,0.07392150462244804,0.9011,14,56,788.2729977636363,2107.536,mp-1197402,FeTeO5,https://materialsproject.org/materials/mp-1197402,-18.6028581201303,-37.14432709714075,4.1600990763786365,-0.538550631572647
-6.534184618035715,-365.91433861,6.72472112963656,-0.5816929241071429,34.697911299999994,0.2551289153113738,0.0,19,56,1584.9701131258005,6418.687999999999,mp-1212398,Li2Eu5Sn7,https://materialsproject.org/materials/mp-1212398,-0.4657412121829885,46.20597673610215,-8.604250342815693,-0.5045126942092143
-6.744842725714285,-94.42779816,5.666940729392246,-1.1046894523214286,5.0000002,0.2181465797007692,0.3348999999999993,160,14,267.1154701281157,911.588045,mp-1247384,Mg2MnW3S8,https://materialsproject.org/materials/mp-1247384,24.521791557774392,10.094432745476444,-8.604250342815693,-0.5045126942092143
-5.0807414925,-20.32296597,4.021699915204804,-0.5691863092968745,3.9999972,0.513655431975415,0.0,156,4,90.75388588723928,219.799045,mp-10231,LiMnSe2,https://materialsproject.org/materials/mp-10231,25.3578761553827,1.4390764465967787,-8.604250342815693,-0.5045126942092143
-5.4458918533333325,-32.67535112,8.218973037839355,-0.09935683833333424,0.303323,0.02907273714318752,0.0,10,6,121.589717252868,601.8181950000002,mp-1224950,FeCoSb4,https://materialsproject.org/materials/mp-1224950,43.98342427629972,23.451596505483018,-8.604250342815693,-0.5045126942092143
-5.9096551464,-295.48275732,6.06354675724963,-2.45915967205,5.2e-06,8.361178167016872e-08,1.1934999999999998,87,50,724.7918368295202,2646.616,mp-1228258,Ba5Li2(TeO5)3,https://materialsproject.org/materials/mp-1228258,0.7246278749408895,-28.68055793898212,6.828681782982321,-2.5399331748351925
-2.821143504375,-45.13829607,4.643445515589239,-0.7305903278749999,0.0,0.0,1.5181999999999998,140,16,651.5931160484408,1822.0813,mp-23534,KSn2I5,https://materialsproject.org/materials/mp-23534,64.31320345825303,-11.63978945904992,9.132085806539347,-4.25970141040276
-6.708966093802817,-476.33659266,2.9346230695914985,-2.073062528952464,0.0555114,0.0004313631000574527,0.0,8,71,1499.7422151530948,2650.4514480000003,mp-684978,Sc29S42,https://materialsproject.org/materials/mp-684978,56.50501745010701,3.7862010762791143,3.8112012133212483,-4.10007245577801
-6.0047550380555546,-216.17118137,4.351505513822787,-2.2134896397022223,4.999998275,0.14007671764417964,0.22239999999999996,6,36,415.9885007268225,1090.1136384000001,mp-758902,FeOF,https://materialsproject.org/materials/mp-758902,-42.27563400094401,-76.94163853514398,2.414244065890267,-1.0264610643017973
-6.3845816018918935,-236.22951927,4.281871721491735,-1.805964543783784,32.0000267,0.7853772145660957,1.5281,2,37,474.8423776101981,1224.4301999999998,mp-510450,Fe7(AsO4)6,https://materialsproject.org/materials/mp-510450,-18.141464437342318,-35.42949639576607,7.498921804544609,-2.8295863344693206
-6.224895588125,-298.79498823,3.3326689572561388,-1.96450463474,3.9999998999999997,0.061859667638830114,1.7774,11,48,753.5808015814598,1512.4217400000002,mp-554900,KMnO2,https://materialsproject.org/materials/mp-554900,-33.97032305550225,-27.136518675898518,4.833402043299457,0.3712210446027535
-7.417878919444443,-267.0436411,5.089208009351675,-2.5780600888657403,20.00031125,0.5647676511997611,1.6092999999999995,15,36,412.7094076363998,1264.8688,mp-1227638,BaTi2Fe4O11,https://materialsproject.org/materials/mp-1227638,-3.815876426563953,-38.4780933921101,7.8545884466680524,-1.134304365232186
-3.2997837425,-13.19913497,8.616230715232032,0.025267893333333458,8.909999999999998e-05,8.319910729609446e-06,0.0,129,4,124.80628758907514,647.5968,mp-23313,InBi,https://materialsproject.org/materials/mp-23313,4.287543025297907,33.41535791557269,-8.604250342815693,-0.5045126942092143
-5.4212227806666675,-81.31834171,2.6324530494686496,-2.219924268166667,0.9999998999999999,0.09125087538794363,1.7052,148,15,127.71454035489715,202.4659,mp-1176805,Li8VO6,https://materialsproject.org/materials/mp-1176805,-25.347487683370193,-51.95123920388299,6.6044694830925454,1.1927566386002135
-6.505389188461539,-84.57005945,8.03954411184275,-0.5838387749519229,0.9810465,0.03417434124098298,0.0,216,13,334.55449441647005,1619.7545199999995,mp-1104454,Ta4Ga(TeSe)4,https://materialsproject.org/materials/mp-1104454,55.33466966463854,27.054175901413018,-8.604250342815693,-0.5045126942092143
-8.151760891333334,-244.55282674,2.3120380867512442,0.35326915371466705,6.85e-06,1.481186427477424e-07,2.3798,53,30,538.9621604080669,750.4196,mp-1247310,Pt(C4N3)2,https://materialsproject.org/materials/mp-1247310,44.14299263203856,-18.966396351644548,9.405203310131249,-2.5100081717294787
-4.7902460630000006,-47.90246063,3.863444606668329,-0.7514173104375004,5e-08,2.4626790668817407e-09,1.3837,12,10,236.61355085370784,550.51,mp-541785,GePdS3,https://materialsproject.org/materials/mp-541785,63.70977768946015,2.7165976723692067,8.316871820649892,-5.054172591457734
-7.57966199,-30.31864796,9.99671149729473,-0.7817742933333331,7.149596000000001,1.0344455804750103,0.0,225,4,80.5473545001496,484.908,mp-624070,GdInPd2,https://materialsproject.org/materials/mp-624070,30.585186424347267,40.78216287178749,-8.604250342815693,-0.5045126942092143
-7.3047274287500015,-292.18909715,4.512149324495747,-0.6841706430589994,0.0051159,0.00011776047975825305,1.3671999999999995,100,40,506.29065109391837,1375.7334,mp-1247016,Si6Sb3N11,https://materialsproject.org/materials/mp-1247016,33.016098485834114,-7.083880661330204,8.265663793620737,-2.1786473062055003
-5.845079922142857,-81.83111891,9.399230261714274,-0.8648491903571431,1.05e-06,3.950019153459346e-08,0.0,148,14,309.79009305488967,1753.52,mp-1104311,Sm3Pd4,https://materialsproject.org/materials/mp-1104311,14.004957769449414,53.025827852550705,-8.604250342815693,-0.5045126942092143
-6.3786204062500005,-306.17377949999997,3.150027905586229,-2.3950116038779776,0.0,0.0,1.2752,62,48,756.0602887683012,1434.239696,mp-1224154,K2P2PdO7,https://materialsproject.org/materials/mp-1224154,-10.114003444402853,-25.765915204801594,7.1257426339640855,-1.7372747943849116
-5.858901116964287,-328.09846255,4.007711392293919,-1.7211107824371428,5.999359225,0.09679912558144912,2.0013,13,56,722.288766370867,1743.2441199999998,mp-746371,KCo2As2HO8,https://materialsproject.org/materials/mp-746371,-12.232694793672788,-37.34409995580415,8.50434951860075,-0.11464610350390372
-6.2302712025,-99.68433924,5.083377615463356,-2.325925332539062,2.9998373,0.14429644618043486,1.0065,129,16,242.28107570732988,741.6906,mp-505311,Sr2CrCuSO3,https://materialsproject.org/materials/mp-505311,23.205596409062032,-5.5487102080099415,5.524724635769697,-3.5431850567742407
-4.1490222871428575,-29.04315601,6.598560951982839,0.2424273157142857,4.7e-06,1.986565055766323e-07,0.0,12,7,275.72268158065066,1095.652,mp-1077948,Te4Pt3,https://materialsproject.org/materials/mp-1077948,51.003846053512824,25.93242265398705,-8.604250342815693,-0.5045126942092143
-6.468227107000001,-129.36454214,5.514133284576976,-0.5198459161562496,6.0000028,0.17029640288911466,0.0,163,20,410.6042175903711,1363.4888,mp-1189023,Cr2Se3,https://materialsproject.org/materials/mp-1189023,23.994012496762732,17.148672122494187,-8.604250342815693,-0.5045126942092143
-4.2680937531578955,-324.37512524,4.7861954039263495,-0.5660638362499997,0.0,0.0,0.4605000000000001,14,76,3058.444858319183,8815.39932,mp-560687,Nb3Te8I7O,https://materialsproject.org/materials/mp-560687,66.32350223604095,17.466621782988625,8.719954855066229,-6.289897782070375
-3.93892174,-39.3892174,3.1951573012909167,-2.1067972355560003,0.0,0.0,2.2995,225,10,272.0108693826244,523.39481,mp-1112215,K2TmCuCl6,https://materialsproject.org/materials/mp-1112215,13.141331587711687,-12.390788068149648,9.326343506458418,-0.14299066062640414
-6.0362414793333325,-90.54362219,3.15756524318217,-1.3858356394999995,0.9983146999999999,0.045983778531815005,0.0,160,15,253.0114868474529,481.10900000000004,mp-1177739,Li3(VS2)4,https://materialsproject.org/materials/mp-1177739,19.542693521067203,13.319747009746669,-8.604250342815693,-0.5045126942092143
-4.5309217339285714,-126.86580855,4.004965117448518,-1.681630220211478,3.99998595,0.05178886312287475,0.7314000000000003,194,28,900.1181439342843,2170.9467114,mp-568614,Cs3W2Cl9,https://materialsproject.org/materials/mp-568614,11.35355373349072,-8.616960931964186,6.181573250497439,-4.250945667491587
-6.692007031875,-107.07211251,2.926635463910241,-2.70864270875,1.99999995,0.13183239703611302,2.1915,31,16,176.80122251005818,311.6052772,mp-755737,Li2AlVO4,https://materialsproject.org/materials/mp-755737,-21.744481752677398,-54.731338718858574,8.184013085289369,1.418497099760654
-6.0054662216666665,-216.19678398,8.390940404719261,0.0745272722488895,5.8825e-05,1.05302606893982e-06,0.0,62,36,651.0288590823128,3289.7416000000007,mp-1246540,Te3(Rh2N)2,https://materialsproject.org/materials/mp-1246540,52.807101971292134,25.622599509975114,-8.604250342815693,-0.5045126942092143
-7.829875491875,-125.27800787,3.5625004826904783,-1.4782738197316665,2.5e-08,1.5597638467413255e-09,0.6458000000000004,62,16,186.79213518295543,400.7416,mp-1029702,MgTiN2,https://materialsproject.org/materials/mp-1029702,35.739214799863,-9.667553294466869,5.365807120699674,-5.667904567674128
-5.442485567894738,-206.81445158,5.526696871654136,-1.3556638962828949,5.5100000000000004e-05,1.0352518336907329e-06,1.7515,14,38,620.2732012352745,2064.4272,mp-1201497,Bi2Pd(SeO3)4,https://materialsproject.org/materials/mp-1201497,-3.0012591271506763,-33.749534864502394,7.393661021730244,1.3420368869171957
-3.70049376,-18.5024688,4.710059592929071,-0.8624526175754312,0.0021704,0.00016482769938652988,0.8909999999999998,71,5,153.4571087050593,435.2756,mp-1069771,Rb2PdSe2,https://materialsproject.org/materials/mp-1069771,65.96884089876727,13.408325313687408,7.0460147329467055,-6.141741569896929