energy_per_atom,energy,density,formation_energy_per_atom,total_magnetization_uB,total_magnetization_T,band_gap,sgr,num_sites,cell_volume,weight,mp_id,formula,URL,tsne_xrd_lin1_0,tsne_xrd_lin1_1,tsne_xrd_lin2_0,tsne_xrd_lin2_1
-6.381439703333334,-38.28863822,3.7289423349014683,-0.2313987122933329,1.7730813,0.25236787587328463,0.0,186,6,81.87890097228404,183.86902856,mp-1245558,NaMnN,https://materialsproject.org/materials/mp-1245558,-70.05790668474435,5.35439699583366,-66.11213175249895,15.075788605617314
-5.8516965957142855,-327.69500936,2.401136249821227,-2.1164739188728565,1.75e-07,4.725837530573395e-09,4.9893,14,56,431.5555331735016,624.0284687999998,mp-626470,Al(HO)3,https://materialsproject.org/materials/mp-626470,23.85388540947597,-41.656648781309,1.691174049196946,-70.71915589092781
-6.57905193375,-105.26483094,4.181231650120451,-2.274625528125,4.0000002,0.3193855552489767,0.7262000000000004,166,16,145.9560730124819,367.516895,mp-771356,Li4V3CoO8,https://materialsproject.org/materials/mp-771356,3.68506796743284,-70.40863593764533,-10.241401898867077,-69.21529457099061
-3.9052789575,-31.24223166,3.0310914831250395,-1.2648271155650002,1.9999996,0.20966946047520685,0.0,148,8,111.16604597859224,202.91871919999997,mp-1078960,AsNF6,https://materialsproject.org/materials/mp-1078960,20.491626004458226,-70.68517616944995,35.724898181802295,-48.62467965122893
-7.597116573571428,-106.35963203,3.4204050061791107,-3.2458502952380948,0.0,0.0,2.4953000000000003,74,14,141.55354979182488,291.5742772,mp-1222338,LiTiAlO4,https://materialsproject.org/materials/mp-1222338,19.7397619153267,-68.87718753139791,-15.924568507086315,-70.01450427868117
-6.142269476666668,-147.41446744,3.3311391818682328,-2.6278476172816667,1.9999999,0.10092642756253374,1.6931000000000005,1,24,230.9417755351665,463.28281280000004,mp-759139,Li2VO2F,https://materialsproject.org/materials/mp-759139,12.059388560628898,-61.96104667957392,-0.5975979023967998,-75.40272617214247
-5.8292331683333325,-139.90159604,4.072265790132222,-1.8818343315383323,16.821308300000002,0.9118074272063332,0.0,1,24,214.9978280918683,527.2554749999998,mp-1175050,Li7Mn2(CoO4)3,https://materialsproject.org/materials/mp-1175050,16.19129838064282,-75.27681228140294,-11.585588868303676,-81.17774233491211
-5.80961695,-139.43080680000003,4.0432987597691765,-1.8622181132049995,16.000004099999998,0.8611189874768383,0.0,8,24,216.5381170945741,527.2554749999998,mp-1175096,Li7Mn2(CoO4)3,https://materialsproject.org/materials/mp-1175096,16.569613461417028,-76.84207615766574,-13.249060500818475,-81.71862848482805
-6.747619161428572,-94.46666826,3.915532951187025,-2.268698676190476,13.999998399999999,1.0768109740970992,0.0,166,14,151.51859712995432,357.2792,mp-850231,Li2TiFe3O8,https://materialsproject.org/materials/mp-850231,-0.23651099371252346,-66.12724230272336,-16.619442224890395,-65.17289980979237
-6.0808003175000005,-121.61600635,3.8623187496631934,-2.011641343519,13.9999997,0.8921131177607846,0.18839999999999968,1,20,182.88813388277734,425.38732999999996,mp-1174809,Li6Mn3CoO10,https://materialsproject.org/materials/mp-1174809,2.1698235100146186,-78.07837417619028,-27.944126173035695,-79.45166296431148
-7.138599510454545,-157.04918923,3.8178834397319137,-2.628565530227272,13.999999800000003,0.706597662277175,0.06979999999999986,2,22,230.90495935015088,530.8928,mp-753168,Li4Ti3(FeO4)3,https://materialsproject.org/materials/mp-753168,3.7369468627671116,-64.06401991190894,-8.18356260355564,-65.442878310577
-8.886516552,-177.73033104,4.155816485281323,-3.1918164959166675,6.225e-06,3.157984469882646e-07,0.0,63,20,229.72422410892983,574.9287999999998,mvc-379,Ti2O3,https://materialsproject.org/materials/mvc-379,-8.406077523149445,-0.5608133665472086,6.385915775354683,-38.84840634020684
-6.351805993636364,-139.73973186,3.3096639830935426,-2.691343297034545,3.0000007,0.15505998705065294,0.8997999999999999,11,22,225.4753346787229,449.40081280000004,mp-764397,Li3V2(O2F)2,https://materialsproject.org/materials/mp-764397,12.076791006621773,-62.00508743221664,-0.6171576742884385,-75.33880879580472
-6.357422920416668,-152.57815009,3.867070025783673,-2.129723487491667,17.9999998,0.9480865705811786,0.3759999999999999,2,24,221.2595031766669,515.270025,mp-1175340,Li7Mn5O12,https://materialsproject.org/materials/mp-1175340,2.2307103444204643,-78.1504279290839,-28.572239443817782,-78.99814986256472
-6.734856457857143,-94.28799041,4.070163078660035,-2.03954411857143,7.0000003,0.5604217072268924,0.6141000000000001,12,14,145.566197476197,356.798695,mp-763336,Li2Cr3CoO8,https://materialsproject.org/materials/mp-763336,6.265569836902072,-67.38717160596181,-6.596511945621054,-68.33727872554711
-6.181215038333334,-148.34916092,3.9199008212328894,-2.046949137451666,18.0000001,0.953644978416238,0.2058,6,24,219.9698753931058,519.265175,mp-1175307,Li7Mn4CoO12,https://materialsproject.org/materials/mp-1175307,-1.1860687352506172,-76.78329692351333,-24.52478375160002,-77.47266024802775
-5.787726146875,-185.20723669999998,4.16719951168172,-1.8523771834975,24.6324301,0.9964160452042848,0.0,1,32,288.1004749698651,723.001465,mp-1175946,Li9Mn2Co5O16,https://materialsproject.org/materials/mp-1175946,-2.3357841504077985,-76.03098892971249,-19.50752375760232,-76.41883595123372
-5.459610901538461,-70.97494172,4.39919018341767,-1.2256467723076925,1.9995880000000001,0.16666192749886374,0.0,166,13,139.82394431740846,370.429185,mp-779166,LiCo3NiO8,https://materialsproject.org/materials/mp-779166,8.445691194334891,-66.7407490733202,-4.4946060339533,-68.75566385092225
-5.7722607496875,-184.71234399,4.177652628119393,-1.8369117863099989,23.1304654,0.9380065184996907,0.0,8,32,287.3796041654477,723.001465,mp-1100675,Li9Mn2Co5O16,https://materialsproject.org/materials/mp-1100675,-2.247950640746732,-75.86055542704082,-19.575647613450066,-76.13551316807096
-3.5885917766666666,-21.53155066,4.234871784754242,-0.043896771500000036,0.30995555,0.02665087261358172,0.0,227,6,135.5393539524671,345.66593856,mp-1077399,NaAs2,https://materialsproject.org/materials/mp-1077399,-21.739965828192855,1.1542960386509182,-42.82217742483114,-18.97128613660804
-8.1309998025,-65.04799842,4.621886561069411,-0.6620404584374997,0.000552,5.693473342437367e-05,0.0,156,8,112.98979318130915,314.49185719999997,mp-1217102,Ti3Nb(AlC)2,https://materialsproject.org/materials/mp-1217102,-70.93249026270199,1.6953716754855368,-56.96801540818578,-29.920814142565643
-4.536385894074074,-122.48241914,3.9762701817935766,-0.8965323932592597,0.0,0.0,1.0099,1,27,316.8855253113962,758.80327712,mp-777331,Na4Ni7O16,https://materialsproject.org/materials/mp-777331,9.723371194130547,-53.39537733854288,-3.4308540154308087,-59.71371619137517
-7.344703830999999,-73.44703831,3.7461154772859047,-2.3988958492499988,4.0000001,0.4111815794312945,0.3416999999999999,12,10,113.3714703857119,255.7619,mp-1222527,LiV3O6,https://materialsproject.org/materials/mp-1222527,5.358543131102273,-65.06159734989784,-7.334685529241637,-65.56183188615591
-7.01671222,-28.06684888,4.195926712183443,-0.15684090999999967,1.9214321,0.3317009380143579,0.0,225,4,67.50808207996722,170.5825386,mp-999027,Ti3Al,https://materialsproject.org/materials/mp-999027,-40.852517104796135,-61.91456974840935,-49.26539833707543,-39.81711869514498
-7.082941197407408,-191.23941233,4.062365142944864,-2.1344349701777765,24.0000014,0.9671572100694052,1.2546,8,27,289.19555987909314,707.4919249999998,mp-774662,Li3Mn5Cr3O16,https://materialsproject.org/materials/mp-774662,17.430066251010047,-66.90775170340088,-15.4594260621752,-68.92581929977229
-5.298883674090909,-116.57544083,4.889680343450289,-1.6143113443181818,3.0000004000000002,0.14748346688191938,0.0,64,22,237.0584291139358,698.0504,mp-771754,Li2Ni2SbO6,https://materialsproject.org/materials/mp-771754,3.75011991071291,-57.67842840149582,-7.239591038229902,-61.509594246346424
-5.757031675,-184.22501359999998,4.0858208721312765,-1.8216827116225,26.0000009,1.031197485625278,0.2117,1,32,293.8386669857708,723.001465,mp-1176301,Li9Mn2Co5O16,https://materialsproject.org/materials/mp-1176301,0.21878535374520425,-80.12975877620639,-27.07908886729931,-78.41851093575087
-7.255580087083334,-174.13392209,3.85249405344371,-2.7535877422916664,2.3332107000000004,0.11901336047170928,0.0,2,24,228.47341271649088,530.0643,mp-763993,Li2TiVO4,https://materialsproject.org/materials/mp-763993,3.4892107762719466,-64.24080155664012,-10.362041459544779,-65.09054857810821
-5.79736494625,-185.51567828,4.171180282186493,-1.8620159828724996,26.0000001,1.052740837482862,0.7488999999999999,10,32,287.8255259636884,723.001465,mp-1100696,Li9Mn2Co5O16,https://materialsproject.org/materials/mp-1100696,-2.3068014141047453,-75.70481626213719,-19.60015050237113,-75.71782140685727
-6.13326486375,-147.19835673,3.310874326792028,-2.6188430043649995,2.00000005,0.10031245310675564,1.1164,1,24,232.35529992489955,463.28281280000004,mp-763345,Li2VO2F,https://materialsproject.org/materials/mp-763345,12.068403811737426,-61.98344433888486,-0.6228458549231912,-75.3827003252785
-5.705252815833332,-68.46303379,4.658815544275606,-1.142311241666666,1.00000005,0.08989326690754068,0.5127,87,12,129.6433621357834,363.72798,mvc-14149,CoO2,https://materialsproject.org/materials/mvc-14149,0.3858290153552065,-64.21263452181684,1.027764729699407,-43.76239791112474
-5.8320676945454535,-64.15274464,4.3531936434196385,-1.6626047375000004,4.999999400000001,0.5445916027194363,0.11469999999999958,12,11,106.99819200183191,280.501595,mp-759337,Li2Fe2CoO6,https://materialsproject.org/materials/mp-759337,7.7974263623172035,-66.62354911947156,-5.893382287474855,-68.66871555237815
-6.974376785192307,-362.66759283,4.05148469233145,-1.9256928916415383,13.000012925,0.26054297717757186,0.0,198,52,581.4894506590637,1418.75352,mp-1195443,LiMn4O8,https://materialsproject.org/materials/mp-1195443,15.623414445691758,-68.87779694078634,-9.57912006222647,-70.02959884925247
-5.8949380235,-117.89876047,3.952270074725056,-1.937899287971,6.73013055,0.4347645445263486,0.0,1,20,180.40426328446705,429.38248,mp-1174268,Li3MnCoO5,https://materialsproject.org/materials/mp-1174268,7.0563584626921925,-71.94358612869613,-21.161732143929655,-75.48503295373095
-9.812949786666666,-29.43884936,11.36477394764791,0.1717359983333336,0.0011231,0.0002121930793225318,0.0,42,3,61.68287951638187,422.15929000000006,mp-1215196,ZrUNb,https://materialsproject.org/materials/mp-1215196,-71.15065955819972,6.62137346872958,-70.09262378184914,13.766888178685218
-7.26595124625,-174.38282991,3.8400799190774473,-2.763958901458333,3.0000017666666667,0.15253220733134673,0.4878,2,24,229.2120170435755,530.0643,mp-757075,Li2TiVO4,https://materialsproject.org/materials/mp-757075,4.116645737299184,-64.74497615334882,-9.9506610822086,-65.30584823713214
-5.367080928333333,-64.40497114,3.807492495508148,-1.7452167260416676,2.99999995,0.3317749223377768,0.17020000000000013,2,12,105.3792537682555,241.62679,mp-1173887,Li2CoO3,https://materialsproject.org/materials/mp-1173887,21.881195151634987,-81.15891284375425,-14.584919057701349,-76.21007709421586
-5.832661272916668,-139.98387055,4.024823062601887,-1.885262436121668,18.0000003,0.9643319237591628,0.30909999999999993,8,24,217.5321217040656,527.2554749999998,mp-1175152,Li7Mn2(CoO4)3,https://materialsproject.org/materials/mp-1175152,4.711897590027308,-70.77305772609158,-22.769326514434514,-74.24875074399169
-2.2341463425,-8.93658537,1.8501921605967229,1.0760231969375005,0.9993281999999999,0.16024168458973684,0.0,225,4,72.67918832520441,80.98000784,mp-977200,Na3C,https://materialsproject.org/materials/mp-977200,-80.69479626470242,-2.438213337986019,-85.83601678007629,3.739039741836897
-6.735276383333333,-101.02914575,4.024546623884207,-2.105353988922667,14.9999997,1.1495189101294163,0.7509000000000001,12,15,152.07315560602237,368.57038,mp-753674,Li3Mn4O8,https://materialsproject.org/materials/mp-753674,5.190326811352176,-77.92013615839569,-28.6564684250315,-75.98883186758206
-6.831482609230768,-177.61854784,4.079359981037042,-2.2580065494523085,8.9999824,0.3773496230689525,1.35,31,26,277.95543291779444,682.8386700000002,mp-770423,Mg2Mn3O8,https://materialsproject.org/materials/mp-770423,-8.639302668396569,-0.2618301524933198,25.72944339252524,6.012995449729713
-5.887956315416666,-282.62190314,3.883350776135877,-2.025166932291666,23.000906399999998,0.602989330747776,0.4691999999999998,5,48,444.5419501548477,1039.6096,mp-1176882,Li7Fe5O12,https://materialsproject.org/materials/mp-1176882,2.9720214298608343,-68.80325972167482,-22.57485850871589,-69.84390279109739
-6.3490924422727275,-139.68003373,3.3436746706042886,-2.6886297456709083,3.0000001,0.15665337934000098,0.95,12,22,223.1818785549688,449.40081280000004,mp-759243,Li3V2(O2F)2,https://materialsproject.org/materials/mp-759243,12.102282510722507,-61.986269327800215,-0.7570742613722421,-75.2821104913222
-6.430247995,-205.76793584,3.862135811329112,-2.14452328646,25.9999995,1.0024391221057378,0.601,2,32,302.2684087019884,703.025715,mp-1100535,Li9Mn7O16,https://materialsproject.org/materials/mp-1100535,3.882165864555183,-78.68074974648815,-29.113687125365185,-77.93297482128389
-8.400164100000001,-84.001641,3.879121312627176,0.3242180315479999,0.0,0.0,0.20289999999999964,136,10,131.07942604620814,306.2096,mp-1245685,Ru(CN)2,https://materialsproject.org/materials/mp-1245685,21.913323921120554,-69.12215396436268,-9.4306349721722,-69.79292090702933
-6.768657325333335,-101.52985988,4.033217470317201,-2.271744900666668,4.0000004,0.3167224934308532,0.9413000000000004,12,15,147.18330626568502,357.4877,mp-771072,Li3V3FeO8,https://materialsproject.org/materials/mp-771072,6.045645654533841,-67.19387831498926,-8.114595227988119,-66.9151661811926
-4.7495174796666655,-284.97104878,2.2767285227688845,-1.2082921808664442,4.445e-05,9.016226044428879e-07,2.0934,19,60,574.545465683355,787.7466400000002,mp-769296,AgH9O5,https://materialsproject.org/materials/mp-769296,28.534245680354058,-38.14224685432987,3.37827381959728,-50.55944648563064
-7.53088314125,-60.24706513,3.932502395059592,-2.966400544791667,0.96107655,0.15278178191988126,0.0,194,8,73.3101042829944,173.6136,mp-764648,LiTiO2,https://materialsproject.org/materials/mp-764648,5.530387696938526,-58.34030290819594,-25.85285397752435,-70.17131235040357
-6.191223454166668,-148.5893629,3.923624281766573,-2.0569575532849997,15.999999800000003,0.8484896138577026,0.3834,2,24,219.7611272840089,519.265175,mp-1175225,Li7Mn4CoO12,https://materialsproject.org/materials/mp-1175225,0.4741137910618876,-80.43899657262915,-28.230093982903856,-79.22692850848281
-6.234809454264706,-423.96704289,4.104992838769626,-2.1267769342647065,10.999999,0.20993861536571629,3.0171,212,68,610.6294481402325,1509.5276,mp-759272,Li5Cr3NiO8,https://materialsproject.org/materials/mp-759272,2.044050989632783,-64.4823491654132,-12.861460368192706,-63.562233162071905
-9.54718831,-28.64156493,6.507064636142124,-0.04756120958333317,3.15e-05,1.2400955957053344e-05,0.0,164,3,29.602801720042525,116.0029,mp-1226378,Cr2C,https://materialsproject.org/materials/mp-1226378,-52.29745503898688,-46.1111830211409,-60.11865461100006,-34.99457648337379
-6.08537761,-121.70755220000001,3.868255186986035,-2.016218636018999,14.0000108,0.8934850163635377,0.1959,1,20,182.6074636861628,425.38732999999996,mp-1174808,Li6Mn3CoO10,https://materialsproject.org/materials/mp-1174808,10.889160070485682,-81.82567238579652,-17.779076573900433,-84.24616916155088
-6.146155240833332,-147.50772578,3.873210948897801,-2.011889339951665,17.999292899999997,0.942249107844495,0.07119999999999971,12,24,222.62151650823589,519.265175,mp-1175282,Li7Mn4CoO12,https://materialsproject.org/materials/mp-1175282,11.751050527622747,-82.79650344556073,-19.303443288194057,-86.13708526259194
-6.4363936675,-205.96459736,3.900619977821965,-2.15066895896,25.999999399999997,1.0124279005743575,0.7656000000000001,2,32,299.2861782278183,703.025715,mp-1100523,Li9Mn7O16,https://materialsproject.org/materials/mp-1100523,0.6693087985743411,-80.58000908698348,-29.198413141688363,-78.41240650164241
-5.990144992307693,-77.8718849,4.4323129283340075,-1.624176247307692,1.9999997999999999,0.1540692462171925,0.0,166,13,151.28345069884227,403.80598,mvc-11660,Ca(CoO2)4,https://materialsproject.org/materials/mvc-11660,9.535791122391768,-53.586574929848325,-3.94935014791739,-58.85670598238975
-6.476459636666666,-97.14689455,4.142875606083711,-1.963308458192,9.9999995,0.7869414229264222,0.19910000000000005,12,15,148.0931597998507,369.477335,mp-863869,Li3Mn3FeO8,https://materialsproject.org/materials/mp-863869,5.704479645056471,-65.56536854130441,-6.16930580506657,-67.91058429793985
-5.6355690425,-45.08455234,4.4478914614607685,-2.09416527619,1.9999997999999999,0.2020837072172554,0.0,148,8,115.33897282104202,308.9449992,mp-1079366,TaNF6,https://materialsproject.org/materials/mp-1079366,30.159275041856322,-38.74395432294103,20.117112789888864,-58.85308066622314
-6.018197820625,-96.29116513,3.9467803222773687,-2.046699236995,8.0000001,0.6684444549095261,0.8148,1,16,139.47683859312295,331.5094850000001,mp-1174375,Li5Mn2CoO8,https://materialsproject.org/materials/mp-1174375,21.207687236555746,-73.21340937560862,-10.331285290786726,-78.01182081877577
-6.408413966153847,-83.30938156,3.304055485307608,-2.886140307476924,6.000000099999999,0.449252317739125,1.253,8,13,155.64614146602761,309.69671600000004,mp-764201,Li2V3O3F5,https://materialsproject.org/materials/mp-764201,3.9029572868078377,-62.36911878153228,-11.686594029537465,-84.31341029372007
-6.34722583625,-101.55561338,4.180448275858627,-2.0275755989300004,13.9999992,1.0823306301231568,0.06680000000000019,2,16,150.74589312326722,379.50653000000005,mp-1174216,Li4Mn3CoO8,https://materialsproject.org/materials/mp-1174216,4.532985953728371,-78.18625192438618,-28.43606905920725,-76.13786165677828
-5.098430099375,-81.57488159,5.008662600521207,-1.6341553056250009,5.9999957,0.4590635568267555,0.6478999999999999,166,16,152.31951542010154,459.4394,mp-756871,Li4Ni3TeO8,https://materialsproject.org/materials/mp-756871,1.6170001640697953,-64.55981762743275,-13.521975893394142,-63.58493061113077
-5.7001548675,-91.20247788,3.906012118926156,-1.8688065819350008,9.999999699999998,0.8170777533547615,0.0,12,16,142.63103327790336,335.504635,mp-1174060,Li5Mn(CoO4)2,https://materialsproject.org/materials/mp-1174060,14.206402448563352,-72.17533755521308,-14.512835412929375,-77.96369350152344
-6.0654165425,-48.52333234,4.0724410142477145,-2.0435080668750008,5.0,0.7538491514482268,1.7778,186,8,77.2970610245495,189.5696,mp-754977,LiFeO2,https://materialsproject.org/materials/mp-754977,5.11298792878801,-58.1889480555146,-8.145051715180365,-62.52659368088293
-8.46192428,-110.00501564,3.611892057749341,-3.2844009266666663,0.0006448,5.007631818539091e-05,0.0,166,13,150.0617704665587,326.4042,mp-752546,LiTi4O8,https://materialsproject.org/materials/mp-752546,-0.6351659475292338,-67.19151157707893,-13.818825736959136,-68.18900233807425
-5.662436697916667,-135.89848075,2.8163066912456016,-3.164540277043334,2.0000003,0.07382020718268442,2.4102,19,24,315.74190768196695,535.5044512000001,mp-756016,LiVF4,https://materialsproject.org/materials/mp-756016,22.662768661027854,-42.27350911883766,1.99100251939488,-69.59187659938429
-6.68185481125,-106.90967698,4.011836691735168,-2.22712888643,13.9999999,1.0610197191008,0.0,2,16,153.77367895546988,371.514835,mp-1177398,Li4Mn3VO8,https://materialsproject.org/materials/mp-1177398,1.1770128338302517,-68.80449955055367,-11.102010225374864,-63.60298381689324
-5.838570654166666,-140.1256957,4.039399252427882,-1.8911718173716672,16.9982426,0.9139617970089357,0.0,8,24,216.74715609381943,527.2554749999998,mp-1175102,Li7Mn2(CoO4)3,https://materialsproject.org/materials/mp-1175102,5.766577542605967,-71.10486074004481,-21.790100256702942,-73.66005898838554