energy_per_atom,energy,density,formation_energy_per_atom,total_magnetization_uB,total_magnetization_T,band_gap,sgr,num_sites,cell_volume,weight,mp_id,formula,URL,tsne_xrd_lin1_0,tsne_xrd_lin1_1,tsne_xrd_lin2_0,tsne_xrd_lin2_1
-5.037171472142857,-70.52040061,4.962525561817827,-1.3505678007142856,4.0000005,0.31267091060700125,0.4758,12,14,149.0905080577308,445.5574,mp-757998,Li2Ni3TeO8,https://materialsproject.org/materials/mp-757998,4.982487655098035,-74.27343478531067,-9.134027885965144,-61.053647339534514
-5.8181302554166665,-139.63512613,3.9963695691886008,-1.8707314186216677,17.9999617,0.9575125242647672,0.0,6,24,219.08091459844783,527.2554749999998,mp-1175105,Li7Mn2(CoO4)3,https://materialsproject.org/materials/mp-1175105,6.2522518450925215,-71.83960180044114,-22.20316066142314,-73.58963519657777
-3.910792886,-19.55396443,2.35279981961312,-0.7712823768500001,3.9999989,0.7023799605384597,0.0,221,5,66.36898671629312,94.0375,mp-1184939,KLiO3,https://materialsproject.org/materials/mp-1184939,-50.01303127891134,-39.886715356158014,-55.40860979902484,-24.133933616404686
-6.49450164125,-51.95601313,8.710550857818376,-0.29674016500000105,2.3100000000000002e-05,2.089928248046432e-06,0.0,123,8,128.81250660053664,675.701,mp-1080070,Ti3Pd5,https://materialsproject.org/materials/mp-1080070,-77.64791033900285,-1.7857550592010183,-59.973782959633134,-19.917166221994734
-5.7943256975,-139.06381674,4.071424751194561,-1.8402313302083328,18.999999600000002,0.9418830584275965,0.0,12,24,235.0899339740376,576.4098,mp-867783,Li6Fe5CuO12,https://materialsproject.org/materials/mp-867783,7.037606443454674,-57.818035403304435,-5.205631285574102,-63.04821227651019
-5.782377160357143,-161.90656049,4.08592551746646,-1.841863965515,10.9508946,0.502341552379445,0.0,8,28,254.05510330842438,625.12847,mp-1174862,Li4MnCo2O7,https://materialsproject.org/materials/mp-1174862,6.340990300166871,-72.25233426638779,-22.72154653858257,-74.27822755246581
-7.556676967142858,-105.79347754,3.766190877468912,-2.7198190954761907,5.0000002,0.3857918122129749,0.017100000000000115,166,14,151.04085765678067,342.5687,mp-755975,Li2TiV3O8,https://materialsproject.org/materials/mp-755975,0.09875295959604216,-65.75208022577301,-16.45877634318563,-65.24515554415983
-6.136971843,-122.73943686,3.964460580716188,-2.0678128690189994,11.999994699999998,0.7848902689648853,0.5516000000000001,1,20,178.17613624972796,425.38732999999996,mp-1174768,Li6Mn3CoO10,https://materialsproject.org/materials/mp-1174768,17.274011552773825,-78.69153419572933,-9.223562307237193,-83.79540541306669
-6.132021787916668,-147.16852291,3.3418101667195965,-2.6175999285316665,1.99999835,0.10124965722397343,0.8826,6,24,230.2043380191684,463.28281280000004,mp-1177808,Li2VO2F,https://materialsproject.org/materials/mp-1177808,12.07806463195347,-61.997665432822075,-0.6755553035086528,-75.41350460416437
-5.888235442,-88.32353163,4.3186751940265165,-1.7908427820000006,14.9999992,1.201567441022165,0.7182,12,15,145.4857682532019,378.37459,mp-1177761,Li3Fe2(CoO4)2,https://materialsproject.org/materials/mp-1177761,16.693932630805786,-67.0489096185729,-12.264473619973804,-70.72721124792521
-9.02741817,-36.10967268,9.178323750061454,-0.14802830500000042,5e-06,8.36265263734028e-07,0.0,65,4,69.67923503436491,385.13914,mp-1220635,Nb3Pd,https://materialsproject.org/materials/mp-1220635,-79.0089480110652,-3.47612837948734,-87.31427625090866,1.7171764482322949
-7.397551959285713,-103.56572743,3.834501357252859,-2.5121586904761903,7.999999400000001,0.6227116355266398,0.6168999999999998,12,14,149.72020092283978,345.7325,mp-1177851,Li2TiCr3O8,https://materialsproject.org/materials/mp-1177851,5.166081252404635,-64.80343982469643,-8.020043979764509,-65.739543621072
-4.612532309285714,-64.57545233,3.3458554492624466,-2.739331978537144,1.9999995,0.1580546091325746,5.0863999999999985,74,14,147.4688011061821,297.1380256,mp-35759,Li2NiF4,https://materialsproject.org/materials/mp-35759,15.227665726460247,-68.57354256997209,-10.273126604820586,-69.87065109289999
-6.1229419275,-73.47530313,3.6989405401244224,-2.1273435970349994,3.0000002,0.33333913015728395,0.8653,12,12,104.88476594990615,233.63648999999998,mp-1173926,Li2MnO3,https://materialsproject.org/materials/mp-1173926,20.192442073261248,-72.87891426311424,-12.858666729135955,-75.49165122106402
-5.76410902125,-92.22574434,3.784432929827529,-2.5927073187715517,0.0,0.0,0.0,123,16,196.66134977374858,448.19885,mp-1032623,RbYMg6O8,https://materialsproject.org/materials/mp-1032623,-32.81071463074148,-7.380173205108024,-44.67522993018557,-10.431965403637594
-5.895211316999999,-117.90422634,4.014392985594692,-1.938172581471,7.00000005,0.4593058165183931,0.3689999999999998,12,20,177.61249924722918,429.38248,mp-1174075,Li3MnCoO5,https://materialsproject.org/materials/mp-1174075,18.4874476648784,-72.03267021683429,-10.579345978410242,-77.27980677165169
-6.930691704715447,-852.47507968,4.004919780033308,-2.0352132376793493,40.99481316666667,0.3563135602334521,0.0,8,123,1340.8308335789875,3233.84142,mp-705961,Li5Mn12O24,https://materialsproject.org/materials/mp-705961,-1.3446714812732183,-70.35366380228588,-16.310634530419257,-65.75558204209939
-6.158119901428571,-86.21367862,5.201380669236892,-1.9353354885714285,4.0000007,0.3485422437235829,3.3854999999999995,227,14,133.74639111193045,418.9398,mp-18766,Si(NiO2)2,https://materialsproject.org/materials/mp-18766,-21.781031322779786,1.1696449445700474,-42.70853926907832,-18.98685490323832
-6.408297077142858,-179.43231816,3.8878611313566136,-2.147440343866428,10.999998699999999,0.492729977159949,0.7572999999999999,2,28,260.17231199687717,609.14787,mp-1174312,Li4Mn3O7,https://materialsproject.org/materials/mp-1174312,3.38534246583409,-78.85908622683411,-18.444509935461976,-85.97693420302801
-5.810538574285713,-162.69508008,4.1153368300667,-1.870025379443572,10.7547119,0.496893398077656,0.0,1,28,252.2394332017883,625.12847,mp-1174745,Li4MnCo2O7,https://materialsproject.org/materials/mp-1174745,-2.2259394343045806,-76.09435356433133,-19.988124109822916,-76.8397835960423
-6.79137566,-95.07925924,4.002760436455725,-2.2257917228571427,2.0000004000000002,0.15683197342756686,0.0,166,14,148.61850997182154,358.2477,mp-850894,Li2V3CuO8,https://materialsproject.org/materials/mp-850894,13.642125740906872,-67.71771156768311,-13.44373360750079,-68.42549424267477
-6.845195534047621,-287.49821243,3.9300583084874647,-2.020848157893333,7.000005183333332,0.17796751280242307,0.5064000000000002,1,42,458.3899192061392,1084.88814,mp-758700,LiMn2O4,https://materialsproject.org/materials/mp-758700,7.3198486731259385,-64.38988715349159,-5.925671168259647,-66.00157307234211
-5.698754529375,-182.36014494,4.07940271152116,-1.7634055659974992,23.607223,0.9348256980026444,0.0,12,32,294.30096597695666,723.001465,mp-1100751,Li9Mn2Co5O16,https://materialsproject.org/materials/mp-1100751,6.558284430792768,-79.66765266887025,-25.544446034003965,-74.78877869979375
-5.766794230625,-92.26870769,4.408513882695666,-1.7274445894349997,15.235236800000001,1.216470564531737,0.0,166,16,145.95703477694204,387.49683,mp-1174154,Li4MnCo3O8,https://materialsproject.org/materials/mp-1174154,4.18959756619823,-69.69802568982338,-19.65278694687439,-72.35016991833683
-5.085544438333334,-61.02653326,2.952911526304107,-2.8660437624600004,4.999999900000001,0.3733301807772512,3.1282,63,12,156.08253952594094,277.5592256,mp-755299,LiFeF4,https://materialsproject.org/materials/mp-755299,7.09863852922507,-61.98210950749546,-9.091928662242086,-62.9272937952528
-5.4043057325,-21.61722293,10.97337752459217,-0.5183499087500003,0.0003854,6.77697689290499e-05,0.0,221,4,66.2755183368968,437.97,mp-718,SnPd3,https://materialsproject.org/materials/mp-718,-50.39739801376232,-41.138336078093865,-65.00684526327393,-25.71335989151309
-6.663047413285715,-466.41331893,4.019494856123757,-2.1303375097468567,34.999999200000005,0.5891349255006859,0.5652000000000004,1,70,692.3579642977091,1675.91921,mp-759775,Li8Mn9O18,https://materialsproject.org/materials/mp-759775,5.383713178231416,-78.29541310657828,-29.481412915736982,-76.12050567127345
-4.85393531375,-77.66296502,5.190145094782474,-1.2535276962500008,0.34236170000000005,0.028196201356163075,0.0,166,16,141.50506931925938,442.2852,mp-756159,Li3Ni5O8,https://materialsproject.org/materials/mp-756159,-9.484862450064412,-64.55898282432332,-10.849167483800604,-74.95879956032849
-6.3920166080000005,-95.88024912,4.038108512337435,-2.117820779333333,15.999998800000002,1.2345583201249817,1.3840000000000001,12,15,151.03784028380326,367.2947,mp-762710,Li3VFe3O8,https://materialsproject.org/materials/mp-762710,4.640192012658064,-65.0934854737456,-8.93548066291158,-65.35382465591884
-7.165721890625,-114.65155025,3.4536556237716605,-2.9755614631250005,0.9524536,0.07537069097794923,0.0,166,16,147.27151633126346,306.3012,mp-756645,Li5Ti3O8,https://materialsproject.org/materials/mp-756645,-6.6250756290647725,-64.17285729358555,-22.95769596810737,-69.41763480875699
-6.4336014684375,-205.87524699,3.9138254376918096,-2.1478767598975,25.9999948,1.0158552723861345,0.4979,2,32,298.2763703865883,703.025715,mp-1100517,Li9Mn7O16,https://materialsproject.org/materials/mp-1100517,0.6329742994940621,-80.6201030706633,-28.84491961126894,-79.51739110990059
-6.4380412300000005,-32.19020615,3.7375481405208784,-0.5665225229520005,0.10034069999999999,0.02803276790338914,0.0,164,5,41.714646985772795,93.8915,mp-1245916,Li2CrN2,https://materialsproject.org/materials/mp-1245916,9.629103197095468,-54.40742656750799,-4.6819504345347625,-56.33392887194727
-6.13529387375,-147.24705297,3.325581237890078,-2.620872014365,1.999999825,0.1007580299105156,1.1250999999999998,1,24,231.32774158405314,463.28281280000004,mp-763197,Li2VO2F,https://materialsproject.org/materials/mp-763197,12.070016264354448,-61.98776207975258,-0.6489587281950787,-75.41061703391644
-9.36139904,-37.44559616,8.361830984802694,0.3384130550000002,0.001482,0.00025995521608472913,0.0,221,4,66.4396131497669,334.56413999999995,mp-999440,Nb3Fe,https://materialsproject.org/materials/mp-999440,-50.25940850805542,-41.23435148201313,-64.92684613121125,-25.63148196956132
-5.7815831071875,-185.01065943,4.174182594924971,-1.8462341438099996,25.436913,1.0306827491998296,0.0,1,32,287.61850525402656,723.001465,mp-1176290,Li9Mn2Co5O16,https://materialsproject.org/materials/mp-1176290,-2.290436781664957,-76.12961479478922,-19.959908427173477,-76.96796788803016
-4.9476100275,-19.79044011,17.454564041149414,-0.17630476374999926,3.02e-05,5.302718769675278e-06,0.0,221,4,66.37213312989917,697.663,mp-866022,CdPt3,https://materialsproject.org/materials/mp-866022,-50.41095483755127,-41.05213674065456,-65.21319976188727,-25.76855682453037
-5.7483815245454535,-126.46439354,5.0074946090341115,-1.7239159772727282,1.0000002000000001,0.0555078132322088,0.0,12,22,209.95363399778634,633.132775,mp-756712,Li4Co5SnO12,https://materialsproject.org/materials/mp-756712,9.01593082173487,-68.26754813269962,-5.494459946693333,-69.87749931334986
-5.6683955275,-68.02074633,2.8319700796696776,-3.1704991066266666,2.0000001,0.14846152783044958,2.0983,63,12,156.99778286765914,267.75222560000003,mp-754721,LiVF4,https://materialsproject.org/materials/mp-754721,7.097760242784871,-62.02501525907047,-9.060886374056162,-62.99011462450018
-6.389892545833334,-76.67871055,4.1291552750160285,-1.4532168434933332,4.00000365,0.32585175985452497,1.2374999999999998,4,12,143.0598430660213,355.73767999999995,mp-756184,MnCoO4,https://materialsproject.org/materials/mp-756184,9.23821098468332,-64.97352569864762,-3.277481771927454,-68.48152072504635
-5.782057228571429,-161.8976024,4.041198740794957,-1.8415440337292868,11.00000025,0.4990705726951913,0.0,1,28,256.8669090613124,625.12847,mp-1174794,Li4MnCo2O7,https://materialsproject.org/materials/mp-1174794,2.0447816174895177,-77.58707939272473,-27.26402159062398,-78.47029644934939
-5.466599438125002,-262.39677303,3.7645294988886833,-1.4841105745238103,5.125e-07,5.319839852348483e-09,2.177,142,48,1122.7233077890767,2545.272896,mp-4672,TbPS4,https://materialsproject.org/materials/mp-4672,-5.699300988657204,-3.2631981018978427,3.2451394184055045,-23.8225664503007
-7.125050278888889,-128.25090502,4.166734757330036,-1.8065679622111108,17.0000042,0.9584610121733036,0.7755000000000001,12,18,206.70548677963748,518.679125,mp-1176453,Mn5CrO12,https://materialsproject.org/materials/mp-1176453,22.235927193836414,-66.33983476321824,-2.2793973241309766,-71.8244892390828
-5.779997921875,-184.9599335,4.154139509568709,-1.8446489584974997,25.0624983,1.010635612485929,0.0,8,32,289.00622038433636,723.001465,mp-1100685,Li9Mn2Co5O16,https://materialsproject.org/materials/mp-1100685,-2.2661702847384264,-75.72616210087448,-19.77535652034277,-75.54577418536017
-5.690789401875,-91.05263043,3.9438368641912533,-1.85944111631,9.9999995,0.8249900927159841,0.0,6,16,141.26308052366576,335.504635,mp-1174095,Li5Mn(CoO4)2,https://materialsproject.org/materials/mp-1174095,17.980096924507887,-74.38217736311266,-14.044655020097562,-77.00909188311493
-6.131789592916667,-147.16295023,3.3208474224637734,-2.6173677335316667,1.999999925,0.1006146104141651,0.9406,1,24,231.65749561738681,463.28281280000004,mp-763203,Li2VO2F,https://materialsproject.org/materials/mp-763203,12.068138993959336,-61.98733434278593,-0.6386574211292738,-75.40924530674083
-5.9263861464285705,-82.96940605,4.604068683895304,-1.7861026599999994,3.99999985,0.31345612963848124,0.5904000000000003,141,14,148.71700673358356,412.33797999999996,mvc-10891,Mg(CoO2)2,https://materialsproject.org/materials/mvc-10891,11.386443275035102,-68.75597667658975,-17.929189173803287,-59.02100902916191
-6.840529107575757,-225.73746055,3.888153741960875,-2.4291449675000005,10.000000166666666,0.3375948892532729,1.793,12,33,345.208572101662,808.3062,mp-758964,Li2Ti(FeO3)2,https://materialsproject.org/materials/mp-758964,3.5819885772090316,-64.01573203982818,-8.536883673770268,-65.12882994402992
-7.104197580357143,-397.8350645,4.034233957416556,-2.2487134718542845,10.9999995,0.22069330142297974,0.6859999999999999,20,56,580.8726673829889,1411.2141800000002,mp-774951,Li2MnCr3O8,https://materialsproject.org/materials/mp-774951,17.13127307979424,-66.82667193511527,-15.529059618933484,-68.8996126878405
-5.374925977999999,-80.62388967,4.546924815833521,-1.451094046,11.6817645,0.9699995495350284,0.0,166,15,140.35062202456427,384.311185,mp-753764,Li3Co3NiO8,https://materialsproject.org/materials/mp-753764,7.607432756471332,-68.8539058412942,-20.1101721781666,-73.51301333511323
-5.807462034642858,-162.60893697,4.1245396857307135,-1.8669488398007144,10.41005785,0.4820451175199266,0.0,12,28,251.6766254042153,625.12847,mp-1174574,Li4MnCo2O7,https://materialsproject.org/materials/mp-1174574,5.699607075856575,-71.4144592020978,-23.06663297315596,-75.39128646159921
-6.198454304270832,-595.05161321,3.7052892854469137,-2.198315200338334,45.0139755,0.6292493265945504,1.2544000000000002,1,96,833.6850974263059,1860.2660850000002,mp-1177747,Li32Mn13Cr3O48,https://materialsproject.org/materials/mp-1177747,-11.74720944204516,-68.8182387604045,3.1399758633392496,-81.2178758324558
-6.730091718666668,-100.95137578,4.112673938271418,-2.18787959,7.0,0.5602255521200223,0.0,166,15,145.61715919455338,360.6515,mp-850200,Li3Cr3FeO8,https://materialsproject.org/materials/mp-850200,15.237980571004524,-68.4124646365148,-11.839100284499633,-70.91426325555057
-4.574049955714286,-64.03669938,3.7955934719930817,-2.3785532758628567,5.9999998,0.4620824472966622,3.5335,160,14,151.32448054157086,345.8914224,mp-753329,Li3Ni3OF7,https://materialsproject.org/materials/mp-753329,-0.6324531946314765,-65.51448300247016,-18.06428207948179,-63.63008596629019
-6.189885075833334,-148.55724182,3.943501311849575,-2.055619174951666,16.000000099999998,0.852788067304434,0.3937000000000004,1,24,218.65343181425644,519.265175,mp-1175263,Li7Mn4CoO12,https://materialsproject.org/materials/mp-1175263,2.0833828646083745,-77.92734462004724,-27.809555573108753,-78.93952521631839
-10.381106785,-20.76221357,11.960398730218884,0.08622445499999998,0.3327067,0.12043554507880536,0.0,65,2,32.19469326540991,231.88938,mp-1217812,TaV,https://materialsproject.org/materials/mp-1217812,-38.09792813675367,-54.54595017431326,-53.73414117762067,-37.98638823711463
-7.2806223364285705,-101.92871271,3.8971803400917326,-2.4632947142857136,6.9999991999999995,0.5522373096513941,0.0,166,14,147.72352874195215,346.6978000000001,mp-850187,Li2V3CrO8,https://materialsproject.org/materials/mp-850187,14.20092553458689,-67.46924657218537,-13.491292834016914,-68.36900727914312
-5.872837909285713,-82.21973073,5.314570585692457,-1.8644057378571437,0.0,0.0,0.3744000000000005,74,14,155.3389003213301,497.16359000000006,mp-780098,LiCoSnO4,https://materialsproject.org/materials/mp-780098,2.1797500594434913,-61.97491378960906,-16.54351650852161,-58.311470480294545
-6.331587961458332,-303.91622215,3.2184111676701987,-2.0818055197750005,10.0000006,0.2665147903261926,0.7926000000000002,2,48,437.27650002237937,847.5173044000002,mp-758686,LiMn3Al2(HO2)6,https://materialsproject.org/materials/mp-758686,20.444608464071084,-64.47347927231107,-1.6424933732989104,-72.20714294832159
-6.673316767894738,-126.79301859,2.781117443130272,-2.474034585451128,2.0000005,0.10049115392476107,4.5274,5,19,231.94216069608325,388.463248,mp-761495,Li2Ni(PO3)4,https://materialsproject.org/materials/mp-761495,37.6571880102104,-38.11214284976733,26.039382326830893,-55.31207895227958
-4.730126575185184,-127.71341753,4.584050800185622,-0.9426964696296289,3.0,0.12931541813173078,0.0,2,27,270.36369539526885,746.3606,mp-694965,Li3(NiO2)8,https://materialsproject.org/materials/mp-694965,9.123473056279119,-67.53988301460191,-3.911946096197106,-70.10615950887728
-5.7975641244642855,-324.66359097,2.280883322917157,-2.0623414476228565,0.0,0.0,4.574,7,56,454.30804114457464,624.0284687999998,mp-626073,Al(HO)3,https://materialsproject.org/materials/mp-626073,23.510516754601326,-41.764889381790255,1.4971623558535916,-70.81234425335485
-4.595845774210527,-87.32106971,4.543253665707495,-1.1385278576578957,4.0000001,0.23384290870263816,0.5005000000000002,2,19,199.3486161896999,545.42007712,mp-753301,Na4(NiO2)5,https://materialsproject.org/materials/mp-753301,9.2181765317425,-53.921592437083405,-4.933472233641421,-59.40567157083382
-5.9342705680000005,-118.68541136,3.9998876724565333,-1.977231832471,7.00000035,0.457646214186794,1.0971000000000002,2,20,178.25659856446063,429.38248,mp-1173998,Li3MnCoO5,https://materialsproject.org/materials/mp-1173998,16.29077374124575,-73.02177909957291,-10.393076069947103,-78.39121801423923
-5.696781504375,-182.29700814,4.056219073256645,-1.7614325409974994,25.346360699999998,0.997989963099119,0.0,8,32,295.9830662316229,723.001465,mp-1100631,Li9Mn2Co5O16,https://materialsproject.org/materials/mp-1100631,6.590555396157645,-79.65336192592962,-24.493585807170998,-75.28347399040565
-5.8487331595833325,-140.36959583,4.063907670627444,-1.9013343227883333,17.470800699999998,0.9450697902298186,0.0,6,24,215.44000780806797,527.2554749999998,mp-1175004,Li7Mn2(CoO4)3,https://materialsproject.org/materials/mp-1175004,-2.335108916550777,-75.82125645918339,-19.45704090055185,-75.54676937414679
-8.438202442156863,-430.34832455,3.4829730842436737,-3.3140046574509787,0.0006703,1.3027270104863647e-05,1.9459,166,51,599.6436363233388,1257.7498,mp-759678,Li4Ti15O32,https://materialsproject.org/materials/mp-759678,-0.42821531027686577,-66.55548700533447,-16.472773810617255,-65.58740046841093
-6.395560666428572,-179.07569866,3.872231254139858,-2.1347039331521427,11.00103835,0.4907954995349864,0.9505,12,28,261.2224717174164,609.14787,mp-1174373,Li4Mn3O7,https://materialsproject.org/materials/mp-1174373,2.3911995977186904,-78.53857798024978,-29.2215057181782,-78.3026138947817