energy_per_atom,energy,density,formation_energy_per_atom,total_magnetization_uB,total_magnetization_T,band_gap,sgr,num_sites,cell_volume,weight,mp_id,formula,URL,tsne_xrd_lin1_0,tsne_xrd_lin1_1,tsne_xrd_lin2_0,tsne_xrd_lin2_1
-6.1878355420833335,-148.50805301,3.947763212791488,-2.053569641201666,16.000737599999997,0.853749060450492,0.21160000000000026,10,24,218.4173793418127,519.265175,mp-1175271,Li7Mn4CoO12,https://materialsproject.org/materials/mp-1175271,12.662365730830155,-81.27899112292305,-17.847064555488213,-84.48271242921065
-5.8653702125,-140.7688851,4.120182652459498,-1.917971375705,17.9999998,0.9871796825149242,0.7246000000000001,2,24,212.49744832758972,527.2554749999998,mp-1174533,Li7Mn2(CoO4)3,https://materialsproject.org/materials/mp-1174533,19.984754245928194,-72.52897293437356,-10.970452951994147,-78.76664848788998
-5.70191829375,-91.2306927,4.022946734818467,-1.870570008185001,8.0000003,0.6732309888954676,0.0,12,16,138.4851903945455,335.504635,mp-1174085,Li5Mn(CoO4)2,https://materialsproject.org/materials/mp-1174085,20.627713531673066,-71.77656305873604,-11.811672215296905,-75.97314971298118
-6.96000022,-132.24000418,4.038975772542959,-2.3276548614473684,14.0,0.8863457790427873,0.0,2,19,184.07816754318802,447.7385,mp-753172,Li4Cr5O10,https://materialsproject.org/materials/mp-753172,14.339561691997005,-68.50534943789536,-11.10540680175658,-69.96646447913002
-5.75732778,-184.23448896,4.101339416967607,-1.8219788166224988,25.9999995,1.0351140686536482,0.04919999999999991,1,32,292.7268476349017,723.001465,mp-1176201,Li9Mn2Co5O16,https://materialsproject.org/materials/mp-1176201,10.747652336374692,-81.29481085940955,-14.828362152077286,-86.18116924942642
-5.7637272528125,-184.43927209,4.177328488707167,-1.8283782894349996,23.8260493,0.9661394673147904,0.0,8,32,287.4019033588752,723.001465,mp-1100670,Li9Mn2Co5O16,https://materialsproject.org/materials/mp-1100670,5.680619950726472,-71.29916186427022,-22.76098742416388,-74.96366823449863
-6.198082638750001,-148.75398333,3.9610562503459468,-2.0638167378683328,15.999834,0.8565754566409273,0.5049999999999999,1,24,217.68438535166592,519.265175,mp-1175244,Li7Mn4CoO12,https://materialsproject.org/materials/mp-1175244,13.37758868264811,-81.26724942482937,-16.827440558813635,-85.00487666755666
-6.442350669375,-206.15522142,3.9088612869577712,-2.156625960835,26.0000031,1.0145671231922984,0.8489,2,32,298.65517350962085,703.025715,mp-1100541,Li9Mn7O16,https://materialsproject.org/materials/mp-1100541,2.4124653403190632,-78.39885196472551,-28.830897736245397,-78.74319683958957
-6.194878305416666,-148.67707933,3.943906709595801,-2.060612404535,16.0000932,0.8528806978451227,0.3611,8,24,218.63095622976903,519.265175,mp-1175288,Li7Mn4CoO12,https://materialsproject.org/materials/mp-1175288,12.310456100496024,-78.95086139233055,-18.506549369423137,-84.80200182353953
-5.793467583928572,-162.21709235,4.085350470908768,-1.8529543890864293,10.99999635,0.5045229416014696,0.06849999999999977,1,28,254.09086364616329,625.12847,mp-1174759,Li4MnCo2O7,https://materialsproject.org/materials/mp-1174759,15.691273790595615,-76.69543859667941,-13.23665872166483,-85.3498050064481
-5.826538609166668,-139.83692662,4.099773092958837,-1.8791397723716667,13.999999800000003,0.7640030444654271,0.0,2,24,213.5553067058569,527.2554749999998,mp-1174908,Li7Mn2(CoO4)3,https://materialsproject.org/materials/mp-1174908,22.685820824527532,-79.42070882434905,-9.637376030577405,-86.3529539379305
-5.800529114375,-185.61693166,4.247013486053711,-1.8651801509974997,18.0000001,0.7420707395018087,0.5970999999999997,1,32,282.68621292400337,723.001465,mp-1176226,Li9Mn2Co5O16,https://materialsproject.org/materials/mp-1176226,16.37535919941019,-74.93638957470179,-9.976975483463413,-80.88308548106096
-5.7540452140625,-184.12944685,4.143562853285804,-1.8186962506849988,26.0,1.0457706252070946,0.09640000000000004,2,32,289.7439235554619,723.001465,mp-1175638,Li9Mn2Co5O16,https://materialsproject.org/materials/mp-1175638,15.410851562528714,-81.52367982613794,-15.23966396895215,-86.39516878895003
-5.7583231996875,-184.26634239,4.122521146919476,-1.8229742363099997,24.0000009,0.9604246761091974,0.11119999999999974,1,32,291.22280173306393,723.001465,mp-1176105,Li9Mn2Co5O16,https://materialsproject.org/materials/mp-1176105,13.530615088048984,-82.7311629691917,-14.596869050531659,-87.68287259354831
-5.793981551875,-185.40740966,4.175015251314632,-1.8586325884975,26.000000699999998,1.0537087481859353,0.7481,2,32,287.5611432153827,723.001465,mp-1175624,Li9Mn2Co5O16,https://materialsproject.org/materials/mp-1175624,1.7378283929899199,-72.92130773459655,-21.57078819204597,-76.72543167905592
-5.84668086125,-93.54689378,4.469817463019785,-1.8073312200599998,11.7593183,0.9519894091369194,0.0,12,16,143.95523294066,387.49683,mp-1174080,Li4MnCo3O8,https://materialsproject.org/materials/mp-1174080,1.8867735294446244,-72.73540089971975,-22.28157103149518,-75.89929589034672
-6.210611545,-149.05467708,4.034027398314632,-2.076345644118333,14.000012,0.7633195599995101,0.6019000000000001,1,24,213.74671266738892,519.265175,mp-1175198,Li7Mn4CoO12,https://materialsproject.org/materials/mp-1175198,21.76073743736826,-75.1680217134178,-11.93791701004941,-78.90488263724025
-6.618957095625,-529.51656765,4.006126633785965,-2.15915656024,3.99999872,0.05989902528168727,1.2681999999999998,8,80,778.2471242864731,1877.5569,mp-531604,LiMnO2,https://materialsproject.org/materials/mp-531604,6.074027864630865,-77.6699918967699,-30.00666157913959,-75.72344130757129
-5.7645719684375,-184.46630299,4.1455545399025056,-1.8292230050599996,24.000000600000003,0.9657907587655096,0.0,1,32,289.6047192368933,723.001465,mp-1176239,Li9Mn2Co5O16,https://materialsproject.org/materials/mp-1176239,5.477603424901935,-72.12729564023766,-23.41423858550266,-76.21699041045345
-5.769003121428571,-80.7660437,3.654766646902311,-1.7178794007142852,11.0000001,0.8918841525675554,0.0,166,14,143.73471408199848,316.3532,mp-758388,Li3Fe3O8,https://materialsproject.org/materials/mp-758388,16.527341151337243,-71.57657141492183,-9.559329383243927,-70.61596706543853
-5.668009113125,-90.68814581,3.9174189494599467,-1.8366608275600005,9.9999999,0.8194639035249076,0.0,10,16,142.2157169570169,335.504635,mp-1174120,Li5Mn(CoO4)2,https://materialsproject.org/materials/mp-1174120,14.702507660460643,-73.29391399783705,-13.55615953569776,-78.65686704673504
-5.702534188125,-91.24054701,3.9625694134302094,-1.8711859025600008,10.0000005,0.8289087371664794,0.0,12,16,140.5952770518609,335.504635,mp-1174160,Li5Mn(CoO4)2,https://materialsproject.org/materials/mp-1174160,20.092611802551268,-71.74753345223328,-10.962688678284747,-76.38622641876003
-5.805536405625,-185.77716498,4.229944329039437,-1.8701874422475,22.0000001,0.903330125924582,0.7180999999999997,1,32,283.8269407867898,723.001465,mp-1175663,Li9Mn2Co5O16,https://materialsproject.org/materials/mp-1175663,13.972222425461435,-74.57795690993174,-9.768974290846963,-79.07880369028541
-5.751754665625,-184.05614930000002,4.157188948315635,-1.8164057022474989,23.4461442,0.9461507881796328,0.0,6,32,288.7942245435172,723.001465,mp-1100573,Li9Mn2Co5O16,https://materialsproject.org/materials/mp-1100573,15.035898371192827,-69.53169321236335,-13.124031195371689,-77.68791330720923
-5.79383401875,-185.4026886,4.191482950032958,-1.8584850553724996,23.999999,0.9764906455403192,0.8261000000000003,2,32,286.43135924011176,723.001465,mp-1175573,Li9Mn2Co5O16,https://materialsproject.org/materials/mp-1175573,16.320151555335734,-74.53600507018604,-9.120145356270386,-79.90333262276197
-6.24181889357143,-87.38546451,4.087735383225957,-1.9118001757142864,0.9986985999999999,0.07725821906203874,0.0,74,14,150.64932008487781,370.8522,mp-756739,LiVCuO4,https://materialsproject.org/materials/mp-756739,10.739694972083578,-70.15596653998185,-17.82111513273337,-68.10490173384011
-5.7928362628125,-185.37076041,4.176733783038833,-1.8574872994349996,22.0000001,0.8919666928672596,0.2488000000000001,1,32,287.44282517718966,723.001465,mp-1176151,Li9Mn2Co5O16,https://materialsproject.org/materials/mp-1176151,12.625925163052734,-72.37259367022476,-12.213036858720749,-81.63514367567355
-6.19727233625,-99.15635738,4.488612649862623,-2.1317521797916665,3.0,0.24842298471304225,1.0356999999999998,12,16,140.7365520467622,380.425785,mp-756719,Li4TiCo3O8,https://materialsproject.org/materials/mp-756719,23.313870716724683,-73.36332557283603,-7.936443640247019,-76.90316662762822
-5.795698008125,-185.46233626,4.1777971368777855,-1.8603490447474995,23.9999997,0.9733022872207931,0.6403999999999996,2,32,287.3696637905505,723.001465,mp-1175510,Li9Mn2Co5O16,https://materialsproject.org/materials/mp-1175510,16.431597199324642,-72.62719854076691,-8.834855327315687,-78.62057173175715
-6.43862324875,-206.03594396,3.918106402199404,-2.15289854021,26.0000012,1.0169666709868308,0.8460999999999999,2,32,297.9504704686172,703.025715,mp-1100554,Li9Mn7O16,https://materialsproject.org/materials/mp-1100554,11.520609994545211,-83.0434046229235,-18.99228683542284,-86.4474929250087
-5.871153696666667,-140.90768872,4.094467607057955,-1.923754859871668,17.999999300000002,0.9810184307516582,0.7065999999999999,2,24,213.83202514095527,527.2554749999998,mp-1174506,Li7Mn2(CoO4)3,https://materialsproject.org/materials/mp-1174506,16.41857873501651,-73.12456902895882,-10.7597339116273,-79.06699888443988
-6.366909725,-76.4029167,4.116062376941131,-2.186928500208334,13.0000001,1.3387893819045262,1.702,12,12,113.16406094673277,280.5055,mp-756692,Li3Cr(FeO3)2,https://materialsproject.org/materials/mp-756692,2.4090915742244827,-65.03156333907498,-12.857292012727859,-64.32547493096772
-6.43992067625,-206.07746164,3.92483457472226,-2.15419596771,26.000016100000003,1.0187135900093849,0.7874999999999996,2,32,297.4397069879115,703.025715,mp-1100556,Li9Mn7O16,https://materialsproject.org/materials/mp-1100556,2.465365760454938,-78.41047136553269,-28.86855009934559,-78.60255270874393
-5.85679207875,-93.70867326,4.661857976804614,-1.8659028218749996,2.9345286,0.2185551173549352,0.0,12,16,156.47854323991498,439.30357999999995,mp-756875,Li4NbCu3O8,https://materialsproject.org/materials/mp-756875,5.030653426700535,-74.380530423906,-25.371875383292046,-75.63811372907885
-5.79433824125,-185.41882372,4.197025266874866,-1.8589892778724997,24.0000001,0.9777818850506752,0.8031999999999999,1,32,286.05311673609424,723.001465,mp-1175845,Li9Mn2Co5O16,https://materialsproject.org/materials/mp-1175845,17.735721557533733,-75.61210342805306,-11.006837051031566,-82.89712064715044
-5.82818311375,-139.87639473,4.0346345840380025,-1.880784276954999,18.000015899999998,0.9666835638580092,0.0472999999999999,1,24,217.00312185768868,527.2554749999998,mp-1175039,Li7Mn2(CoO4)3,https://materialsproject.org/materials/mp-1175039,14.101088275665814,-80.24899533566102,-12.81828293411226,-86.45560836698091
-5.7934548134375,-185.39055403,4.1747573963803415,-1.8581058500599996,26.0000001,1.0536436453064142,0.6930000000000001,8,32,287.5789045012845,723.001465,mp-1100684,Li9Mn2Co5O16,https://materialsproject.org/materials/mp-1100684,1.8461502305311104,-72.76699720029386,-21.658786472898008,-75.99105959836258
-5.801707959375,-185.65465469999998,4.196723089715353,-1.8663589959974995,22.0000012,0.8962355746926297,0.9467,2,32,286.0737134532085,723.001465,mp-1175745,Li9Mn2Co5O16,https://materialsproject.org/materials/mp-1175745,1.5244611002526562,-72.88715298087062,-20.95584691923223,-75.61934006899209
-4.928364828666667,-73.92547243,4.2378131742929614,-1.4628752366666664,1.0000001,0.08517099555015825,0.2485999999999997,3,15,136.83139269051924,349.2034,mp-772324,Li3MgNi3O8,https://materialsproject.org/materials/mp-772324,24.63626475177405,-73.30090359638484,-4.524175909834971,-71.67487146015429
-5.820199422857143,-162.96558384,4.150900144684623,-1.8796862280150008,9.000000199999999,0.419414908525854,0.8475999999999999,2,28,250.0783428335969,625.12847,mp-1174441,Li4MnCo2O7,https://materialsproject.org/materials/mp-1174441,18.562392635954076,-79.16142962613036,-12.600421982086036,-84.08092341290205
-5.792750490625,-185.3680157,4.220883077267593,-1.8574015272474995,21.9996745,0.9013817003059009,0.29590000000000005,10,32,284.43625104794165,723.001465,mp-1100715,Li9Mn2Co5O16,https://materialsproject.org/materials/mp-1100715,14.220891938696587,-74.07566584258603,-9.97521394758101,-78.79064523558225
-6.988153119183672,-342.41950284,4.121525911684029,-1.747180782150204,49.0221549,1.0143624941501803,0.0,8,49,563.2181510946817,1397.93052,mp-685250,LiMn16O32,https://materialsproject.org/materials/mp-685250,19.131977127979255,-76.74523393499386,-14.561841737320373,-78.53705212908741
-5.831925256428571,-163.29390718,4.151083796377815,-1.8914120615864287,10.0000005,0.4660371963288351,0.8403999999999998,1,28,250.06727890105668,625.12847,mp-1174631,Li4MnCo2O7,https://materialsproject.org/materials/mp-1174631,16.127373636892024,-75.53663584612038,-9.031327018957994,-80.92384857691833
-5.7882897584375,-185.22527227,4.177190386358607,-1.8529407950599996,21.9999995,0.8920641789313437,0.5717000000000003,1,32,287.41140517089804,723.001465,mp-1176014,Li9Mn2Co5O16,https://materialsproject.org/materials/mp-1176014,13.485538710961142,-75.50074223861614,-11.51151911357056,-82.19956931465373
-6.208250773333333,-148.99801856,3.965023890945559,-2.073984872451666,16.0000004,0.8574423733586409,0.4118,1,24,217.46655730599,519.265175,mp-1175245,Li7Mn4CoO12,https://materialsproject.org/materials/mp-1175245,15.578750621501396,-82.48298137124586,-10.336874044694273,-85.91601576895418
-6.184534154166666,-148.4288197,3.957264710629439,-2.050268253284999,16.0035358,0.8559535308032195,0.3679999999999999,1,24,217.892953403863,519.265175,mp-1175243,Li7Mn4CoO12,https://materialsproject.org/materials/mp-1175243,10.800500253414032,-81.44322611074425,-17.30514466676713,-85.79604993499294
-6.067216805535715,-339.76414111,4.166457939149502,-1.77837724982143,13.000000325,0.2580022337618109,0.0,96,56,587.2152485730621,1473.38158,mp-762142,Li2Fe3CoO8,https://materialsproject.org/materials/mp-762142,14.539104526437823,-68.80145309117893,-10.772691956185515,-69.73930312729448
-6.916186929722223,-248.98272947,4.058018001085287,-1.7030864458222226,19.00000305,0.5177932601010163,0.0,15,36,427.63643964839065,1045.05605,mp-776272,Mn5FeO12,https://materialsproject.org/materials/mp-776272,18.255998486611308,-67.20915085228954,-15.450399683226356,-69.50830586902103
-6.438108504375,-206.01947214,3.92344281470478,-2.152383795835,25.9999776,1.018350842676456,0.6705999999999999,2,32,297.545217558945,703.025715,mp-1100514,Li9Mn7O16,https://materialsproject.org/materials/mp-1100514,2.348235824608525,-78.33753649624245,-28.825949157363315,-78.66686315397178
-5.828612749642858,-163.20115699,4.1106722540953555,-1.888099554800715,10.9999999,0.5076502350722173,0.9487,1,28,252.52566132371325,625.12847,mp-1174668,Li4MnCo2O7,https://materialsproject.org/materials/mp-1174668,1.649955443619081,-72.88279643147513,-21.484790666856767,-76.45968576747185
-6.176139965,-111.17051937,4.300915861188601,-1.4653576678703706,5.000000900000001,0.2823518997915229,0.0,12,18,206.3748619877578,534.5257750000002,mp-756754,TiCo5O12,https://materialsproject.org/materials/mp-756754,9.535914648951833,-65.71083975171376,-3.218029361480812,-69.19842699945723
-5.7665521594117655,-196.06277342,4.198687932073181,-1.472650764852941,3.0000972000000004,0.09528264991710493,0.0,10,34,366.9432695584427,927.819365,mp-759773,Li4Fe3Co7O20,https://materialsproject.org/materials/mp-759773,5.99541753094436,-64.70528695847962,-5.484590332705588,-66.01483136177171
-4.617303580689656,-133.90180384,4.453567139643799,-1.0576931487068977,4.999999900000001,0.18594119688348776,0.0,2,29,313.3803787113656,840.4864464,mp-765844,Na5(NiO2)8,https://materialsproject.org/materials/mp-765844,9.412295998174688,-53.66917891201343,-4.223426224321768,-59.5216380338725
-7.225165299166666,-86.70198359,3.813228781351065,-1.8663205516666668,1.999999875,0.1593082471499624,0.29590000000000005,227,12,146.3083582008189,335.9796,mvc-10873,CrO2,https://materialsproject.org/materials/mvc-10873,14.790417105457113,-68.68955020395751,-8.678606931452064,-68.2486695326204
-5.79984633,-185.59508256,4.261375850602933,-1.8644973666224995,20.0000001,0.8273113794171406,0.33840000000000003,2,32,281.73345902822143,723.001465,mp-1175600,Li9Mn2Co5O16,https://materialsproject.org/materials/mp-1175600,21.935934491892453,-72.54495287089325,-8.185266010450594,-77.48478501609176
-6.4987314154166675,-155.96955397,4.1231411332993995,-2.2397138160416663,7.999999400000001,0.4154941616146373,1.9924000000000004,2,24,224.38946151669398,557.1621,mp-756242,Li2CrFeO4,https://materialsproject.org/materials/mp-756242,2.315377006533039,-66.87175075576452,-12.142498458220615,-64.88048408755081
-6.192195255416666,-148.61268613,3.953879149635132,-2.0579293545349993,16.000000699999998,0.8550323223385671,0.2262,8,24,218.07952710934586,519.265175,mp-1175295,Li7Mn4CoO12,https://materialsproject.org/materials/mp-1175295,12.552406152444238,-79.01247498009967,-18.451876539702724,-83.52397682244585
-5.844326622916667,-140.26383895,4.065158023219702,-1.8969277861216665,16.000000099999998,0.8657742337947273,0.0,8,24,215.37374323220143,527.2554749999998,mp-1175100,Li7Mn2(CoO4)3,https://materialsproject.org/materials/mp-1175100,1.276533107483074,-72.6161571614469,-22.022546751812754,-73.08081256308748
-5.7991694240625,-185.57342157,4.1728506926076445,-1.8638204606849988,26.0000029,1.05316253643412,0.7927999999999997,2,32,287.71030814415434,723.001465,mp-1175484,Li9Mn2Co5O16,https://materialsproject.org/materials/mp-1175484,1.5229162602660091,-72.82490530101374,-20.98269889365949,-75.64777446060144
-5.803487509999999,-162.49765028,4.081207146101983,-1.8629743151578575,11.00000005,0.5040114286136893,0.2799999999999998,8,28,254.34882187784183,625.12847,mp-1174814,Li4MnCo2O7,https://materialsproject.org/materials/mp-1174814,5.785761837726208,-70.76859779206045,-21.386374220910607,-74.31956949775109
-5.778176635625,-184.90165234,4.226964252778618,-1.8428276722474992,20.0,0.8206306441459179,0.0,2,32,284.0270432427932,723.001465,mp-1175640,Li9Mn2Co5O16,https://materialsproject.org/materials/mp-1175640,18.778301153025122,-78.60700858077067,-10.156554916099381,-84.57096961702034
-7.741241048000001,-77.41241048,3.7686460407004376,-2.745440864916668,2.9999999,0.3140156838859015,1.0217999999999998,1,10,111.33900294284732,252.6874,mp-1176571,LiTiV2O6,https://materialsproject.org/materials/mp-1176571,21.84476346581066,-66.70740005252189,-7.552877617391434,-70.14296923630322
-5.7486465815625,-183.95669061,4.0963957866575464,-1.813297618185,25.9995568,1.0338487699437255,0.0,6,32,293.0801175316364,723.001465,mp-1100567,Li9Mn2Co5O16,https://materialsproject.org/materials/mp-1100567,3.883316122306207,-74.2649764777621,-25.44529320128068,-76.49352609523329
-6.1151168325,-48.92093466,4.354681489909675,-1.9356168932449995,5.9999995,0.956309943361328,0.0,10,8,73.11895405222806,191.75083999999998,mp-753482,Li2MnCoO4,https://materialsproject.org/materials/mp-753482,14.806205592126258,-68.89906750536154,-10.688046790953566,-69.89088284937898
-5.803681476875,-185.71780726,4.218922132305269,-1.8683325134974995,21.9999999,0.9009762611368912,0.6252,1,32,284.5684563402185,723.001465,mp-1175627,Li9Mn2Co5O16,https://materialsproject.org/materials/mp-1175627,13.071106579406008,-72.37286960434717,-9.930864659630076,-80.56084326890091
-5.437753133125,-87.00405013,4.0596771240166065,-1.746555145625,8.0000009,0.6713830362011112,0.0,2,16,138.86637529103172,339.49978500000003,mp-1174037,Li5Co3O8,https://materialsproject.org/materials/mp-1174037,21.399340649322482,-72.74132291225331,-8.639601250733143,-77.72147498179115
-6.6838331958333335,-80.20599835,4.083243750488918,-2.211923931201667,10.9999999,1.1311037987906678,0.20210000000000014,12,12,113.3359391682805,278.69158999999996,mp-774897,Li3Mn2CrO6,https://materialsproject.org/materials/mp-774897,2.6634159256658227,-63.61091858651735,-10.79262199092955,-64.08391619826497