energy_per_atom,energy,density,formation_energy_per_atom,total_magnetization_uB,total_magnetization_T,band_gap,sgr,num_sites,cell_volume,weight,mp_id,formula,URL,tsne_xrd_lin1_0,tsne_xrd_lin1_1,tsne_xrd_lin2_0,tsne_xrd_lin2_1
-8.524958988043478,-392.14811345,5.097202258331807,-3.0255526159546475,6.00000015,0.106007600090315,0.0,26,46,659.6167663817934,2024.76424236,mp-1226662,CsNaEuNb5O15,https://materialsproject.org/materials/mp-1226662,9.19227242057396,23.08227208077295,-0.13341303050985825,38.15407421375546
-8.439545825,-50.63727495,5.2981435049044805,-2.899761153385416,0.0,0.0,0.9973,115,6,82.2760077437931,262.51120000000003,mp-1215422,Zr2SO3,https://materialsproject.org/materials/mp-1215422,28.334859168610762,64.63711902409074,-12.145601776588373,35.18692991453429
-3.5975294216666662,-21.58517653,4.5394500749680375,-0.9442252449999998,1e-07,5.987895824379111e-09,0.7058999999999997,194,6,194.6270462006261,532.056,mp-10485,BaLiSb,https://materialsproject.org/materials/mp-10485,-12.481673745377195,22.298639825491538,-3.106017926905478,16.98142504408958
-8.77046420375,-210.49114089,7.070092451702029,-3.8136505704166668,0.0,0.0,4.655899999999999,14,24,304.50285822812293,1296.48464,mp-7651,ThSiO4,https://materialsproject.org/materials/mp-7651,9.865032728578734,14.34623769216198,13.39088312002218,8.280538570708101
-5.87754200125,-47.02033601,7.595183712735909,-0.6508418921549994,0.1493243,0.01459440980116371,0.0,129,8,119.2398382686482,545.39427,mp-644499,CeCoGeH,https://materialsproject.org/materials/mp-644499,-39.477349314342135,-5.812515506599515,-38.762613676905495,12.580802734430653
-3.4030881269999997,-34.03088127,2.8443274792212963,-1.1758566326226672,0.0,0.0,3.2191,161,10,343.064997037017,587.634,mp-998569,InGeCl3,https://materialsproject.org/materials/mp-998569,3.5052095202665208,2.3350585196118914,-0.557661685596344,-14.316074835754025
-6.619865828181817,-72.81852411,5.235392042446893,-3.0075397446212118,8.379999999999999e-05,5.4177055211528884e-06,1.5380999999999996,107,11,180.26277436590527,568.337312,mp-1227696,BaSr2ScInO6,https://materialsproject.org/materials/mp-1227696,-24.6600230478085,23.742519939499317,-24.027087334153293,52.641504996406745
-9.227218385625,-147.63549417,3.907067385047709,-2.6927718845012496,0.0,0.0,1.5488,8,16,186.67468975401403,439.2252,mp-754790,Ti3N2O3,https://materialsproject.org/materials/mp-754790,17.957224664751514,2.787057561046553,63.433649682581894,33.34878115895925
-6.766279799833332,-405.97678799,5.737432369908547,-2.481860441333333,23.999567499999998,0.2982372683010097,0.15739999999999998,164,60,937.8187902261967,3240.3164,mp-1229266,Ba12SrCa3(Ru2O9)4,https://materialsproject.org/materials/mp-1229266,-20.32771976218566,16.95681272351609,-18.84925408168518,47.88402080557869
-8.6604447705,-173.20889541,5.7950992640806245,-3.90135195375,0.0,0.0,4.2587,62,20,268.04482067887193,935.447048,mp-559756,PrScO3,https://materialsproject.org/materials/mp-559756,-18.442636845277907,41.95744127887141,-15.181025804789092,50.61902485172551
-6.576959507000001,-197.30878521,4.780760030985553,-2.7982624582896665,0.0,0.0,3.683,82,30,432.1328650335487,1244.1282496,mp-1192433,Na5Pr4Ge4O16F,https://materialsproject.org/materials/mp-1192433,2.482069602786148,5.831133399387111,5.710128019427749,27.467059684817425
-7.080602136,-141.61204272,7.534752108725398,-2.3970487612500007,1.0,0.04788103338519261,1.2130999999999998,14,20,243.39626671808125,1104.4188,mvc-5822,Ca2IrWO6,https://materialsproject.org/materials/mvc-5822,-11.875073792710507,52.06575587212215,26.15362244854534,52.38954264283864
-6.5545892499999985,-32.77294625,8.483062064625793,-1.753704977249999,1.9936278000000003,0.3863775723114481,0.0,221,5,60.13254696586662,307.1943,mp-22364,CrPbO3,https://materialsproject.org/materials/mp-22364,-29.99364590977388,52.57331147063143,-18.101624543954234,65.08044314242781
-3.3935654310000003,-33.93565431,6.158543534420736,-1.6369991569999995,9.85e-06,3.449309773505882e-07,3.8453,63,10,332.7985757945936,1234.2705999999996,mp-1206321,YbTlBr3,https://materialsproject.org/materials/mp-1206321,8.53896663705617,7.080001217969268,5.7499012580992845,14.26200200730798
-4.120675897,-41.20675897,2.7561462042578704,-2.4450001624973794,0.0,0.0,4.0204,225,10,338.9483567989037,562.5831158000002,mp-571124,Cs2KScCl6,https://materialsproject.org/materials/mp-571124,-21.006608812854303,-23.46375480921759,-16.457424501577446,-21.1061696339492
-7.52808217423077,-195.73013653,4.287375110822928,-3.227439980384616,0.9999996999999999,0.0295136206673594,2.5881000000000003,100,26,394.8706059378569,1019.5234,mp-19179,Ba2V(SiO4)2,https://materialsproject.org/materials/mp-19179,3.6442582116214575,25.385163997910308,28.357351672629385,-2.003605954027674
-5.285441986231882,-364.69549705,8.728480398757975,-0.5068008142675361,0.0003976333333333333,4.110470081892702e-06,0.0,111,69,1127.375830518562,5925.953923200002,mp-707703,Th8Al4H11,https://materialsproject.org/materials/mp-707703,-17.713846620664288,20.980206523405297,-19.084122539491773,36.46987882882011
-6.57935629,-92.11098806,5.8247155799821595,-1.9862497480357144,5.00000255,0.19740205346211184,0.1275000000000004,36,14,295.1861571786926,1035.4320899999998,mp-1225595,Er2MnS4,https://materialsproject.org/materials/mp-1225595,8.965826857167572,12.511308465590757,11.00609001555678,10.52937727697506
-6.297721703055554,-226.71798131,8.840940747270679,-0.8321917190277782,0.0002675,5.652283937686761e-06,0.0,189,36,551.5402907971327,2936.4772,mp-1205128,Ho5Zr3(Ni4As3)4,https://materialsproject.org/materials/mp-1205128,-49.29253954278619,0.8408081791785782,-54.45677348083515,18.728013693258237
-7.097974216,-35.48987108,7.032023218455692,-0.7765417090000001,2.3e-06,3.106651019335992e-07,0.0,107,5,86.28052784189579,365.37935,mp-1068587,YSi3Ir,https://materialsproject.org/materials/mp-1068587,-47.16071109085063,29.733613067595144,-26.29848597645676,33.77696729091438
-7.3047740989473695,-277.58141576,7.737631957862264,-2.5678612518421065,0.0,0.0,2.4281,41,38,502.82749767764136,2343.0308,mp-23427,Ti3(BiO3)4,https://materialsproject.org/materials/mp-23427,-11.185610855551241,33.18987187930039,-2.6575111581454536,43.80522808309011
-5.646074757,-112.92149514,5.171559820586005,-1.2276108569999995,1.21e-05,2.322623432040856e-07,0.0,70,20,607.1332175619408,1890.8472960000001,mp-12383,Sc2Te3,https://materialsproject.org/materials/mp-12383,-32.992898790820874,-29.592954536692247,-42.33734200130585,-7.1086975638201055
-3.0878312988888887,-55.58096338,2.3543882115556745,-0.3425170518999998,0.0,0.0,2.9757,127,18,322.67910790174415,457.5092,mp-642736,K3H5Pd,https://materialsproject.org/materials/mp-642736,6.166935236435117,23.994710712115694,4.800728732872644,-27.10915590180645
-7.964764547894737,-151.33052641,7.237580721948671,-3.1417354721052635,0.0,0.0,1.9052,139,19,241.88526517864227,1054.2746,mp-557438,Sm2Ti3(BiO6)2,https://materialsproject.org/materials/mp-557438,-11.933119431454307,33.21904847058549,-5.039863143705209,61.763778397044476
-5.808043941666668,-139.3930546,4.466688233252112,-1.9007480184114591,0.0,0.0,1.4983000000000004,173,24,573.9565442025696,1543.8871840000004,mp-1191568,La3BeSbS7,https://materialsproject.org/materials/mp-1191568,8.275835628759058,-3.1451788460000047,9.459132473285422,4.001607273044775
-4.4502853883333335,-186.91198631,1.919593531889861,-1.0050801087495231,0.99889155,0.02425029349498894,0.6548,136,42,480.0414818430163,554.9309599999999,mp-604996,CuH12N2(Cl2O)2,https://materialsproject.org/materials/mp-604996,26.809894740725465,-1.2846634859751511,18.588514432164448,-27.273157887054854
-6.5531871124,-163.82967781,2.993185586333268,-2.1543482202772566,15.0000003,0.5597557859842144,4.2757000000000005,166,25,312.2986478420156,562.930343,mp-863971,K2Mn3P4(HO3)4,https://materialsproject.org/materials/mp-863971,0.678347559964119,17.243957495944002,52.03221703739572,42.21365597002391
-3.29319516875,-52.69112270000001,3.843168297255181,-0.22890805874999964,2.5e-07,6.1649393564517025e-09,0.0,194,16,472.5944611427335,1093.777386,mp-261,Ba3Al5,https://materialsproject.org/materials/mp-261,-3.5653838902474124,13.423463234143052,4.107891247400058,35.765424937823354
-7.4389403682352935,-126.46198626,9.265534864595427,-0.6478503552941173,4.5299999999999997e-05,2.2506179636426068e-06,0.0,191,17,234.57074577975246,1308.8662,mp-1217714,Tb2(B2Rh3)3,https://materialsproject.org/materials/mp-1217714,-47.571600039419266,-0.22813404116886615,-58.08763723769492,17.472691112709025
-8.902613640454545,-391.71500018,8.991904146099223,-3.889650271022728,0.0,0.0,3.5103000000000004,62,44,587.0457218376066,3178.88272,mp-773067,Er3TaO7,https://materialsproject.org/materials/mp-773067,12.431142051879563,62.86533706416606,-4.1841433293594354,39.63212598539899
-7.22743448625,-57.81947589,4.8425082008105935,-0.2080672662500005,7.180168425,0.34091998995269057,0.0,63,8,245.4480534111535,715.7821544,mp-1079783,EuAl,https://materialsproject.org/materials/mp-1079783,8.852920661237963,16.101274282900313,1.9340626280637885,22.07112135374528
-5.5540025825,-155.51207231,2.87935303665252,-0.9561100817342856,0.0,0.0,1.6900000000000004,72,28,325.5626565005278,564.5214,mp-1246442,Mg7SiN6,https://materialsproject.org/materials/mp-1246442,-17.97541046245498,16.697471538235995,-16.4826480362955,46.69564002799986
-6.2850419015,-251.40167606,6.92550637486989,-2.4151194719375004,2.375e-07,3.324300764453627e-09,2.0033000000000003,122,40,832.6082925706157,3472.50736,mp-32933,Tm2S3,https://materialsproject.org/materials/mp-32933,-1.8469149514858207,-4.379784911500407,4.787901890409742,7.084528547649225
-6.666788209230769,-173.33649344,5.138541424662309,-2.7154739839423083,0.0,0.0,0.0,46,26,342.6820755187833,1060.4303772,mp-643741,Sr2YAlCu2O7,https://materialsproject.org/materials/mp-643741,-22.58045913565121,46.768946264725066,-9.270729093750026,66.45841036453362
-8.983287472,-359.33149888,5.5286210972407535,-4.002183874625001,0.0,0.0,4.0053,1,40,611.0843876649507,2034.5526100000002,mp-765476,Y13Ho3O24,https://materialsproject.org/materials/mp-765476,18.531190203899214,59.66599279597082,-5.688071180336991,36.96622653817098
-6.0447679191666674,-145.07443006,4.616143746859349,-1.9230952827864585,0.0792701,0.001751572776153415,0.0,173,24,527.4224928044723,1466.1853672,mp-1190786,Pr3AlCoS7,https://materialsproject.org/materials/mp-1190786,8.008792380021832,-3.9212859003211857,39.35294793390131,20.68608999598928
-3.3479880283333334,-20.08792817,5.7344352719361735,-0.7655106100000003,1e-07,4.160751826429511e-09,0.0,139,6,280.0951669006526,967.2688,mp-567872,Ba2Bi,https://materialsproject.org/materials/mp-567872,-1.2703454553069848,17.025567276212215,8.085855155025628,28.083257121233768
-6.883871444166666,-82.60645733,6.565144025490008,-1.999030117864584,7.0000000999999985,0.3313632073351567,0.20120000000000005,63,12,246.19044229256252,973.3439999999999,mp-1212752,EuLuCuS3,https://materialsproject.org/materials/mp-1212752,29.066115772043037,32.78650001861807,17.7039313789028,28.941518547831567
-9.129043062272727,-401.67789474,6.966234150116997,-2.9664845914772737,18.99999965,0.3498360579531405,0.0,19,44,632.9456943211126,2655.3112,mp-1213342,Eu3MoO7,https://materialsproject.org/materials/mp-1213342,19.818898647372226,56.10444700683046,-2.480610615809693,36.92403400894921
-5.8134871369444445,-209.28553693,7.269587355834743,-1.1637259966666664,0.00333355,4.727324252227924e-05,0.0,62,36,821.8054347394757,3597.7392,mp-1208505,Tb4C2Br3,https://materialsproject.org/materials/mp-1208505,-1.9959452765707784,40.692076638373536,3.4615154168850952,50.18852191438283
-4.270245032857143,-59.78343046,3.9879476320347655,-1.7128589936071426,0.0,0.0,1.0572,14,14,187.20511618857648,449.59147712,mp-8086,Na2Zn2O3,https://materialsproject.org/materials/mp-8086,18.674377234737424,4.215628325407663,23.790596975293713,51.17588943589509
-8.482108654,-42.41054327,8.754238905372231,-0.3896028389999984,5.4222676,0.8244505692092612,0.0,139,5,76.64675140579907,404.07599999999996,mp-5683,U(MnSi)2,https://materialsproject.org/materials/mp-5683,-61.00750983294518,14.656711868942876,-60.42184144340522,24.695242356357326
-6.190576848275862,-179.52672859999998,5.762281083378068,-0.9286835790147792,3.71e-05,7.507426020713659e-07,0.0,217,29,575.9175007106677,1998.5067739999997,mp-504775,La6P17Pd6,https://materialsproject.org/materials/mp-504775,-12.309631121853435,31.633664080652512,-12.493184935351493,55.58717137972744
-6.70299182875,-53.62393463,7.3182995099501955,-1.9647696302975008,6.99999975,0.4964413433073991,0.6231999999999998,129,8,164.32646393007573,724.2168063999999,mp-13339,EuCuTeF,https://materialsproject.org/materials/mp-13339,-20.39901265830149,14.569130653925386,-21.15633208622132,44.831119897995
-7.331732413999998,-73.31732414,7.789810608656778,-0.5857516849999996,6.96431425,0.4387837995505229,0.0,65,10,184.97166360540436,867.7268,mp-1079303,GdNiGe3,https://materialsproject.org/materials/mp-1079303,-46.04784542918409,13.674243536113028,-42.64724118817501,29.26650393456077
-9.356113055,-112.27335666,9.118074642021476,-4.1695512512500015,5e-08,3.5919280901333386e-09,2.7707999999999995,141,12,162.2257528564147,890.7869599999999,mp-1173297,SmPaO4,https://materialsproject.org/materials/mp-1173297,26.139433020196037,64.71004733264736,-11.318270432095373,35.89371898310847
-7.85855247875,-188.60525949,4.98238169716734,-3.547543283854168,0.0,0.0,3.0971,139,24,371.47885219893476,1114.6076,mp-27690,Sr3Zr2O7,https://materialsproject.org/materials/mp-27690,-24.709423712035125,18.898358107219387,-25.446287954755487,53.380789296771155
-7.226731593818183,-397.47023766,6.709139310085008,-2.8984004856818197,13.0000001,0.19970660573632704,0.0,8,55,758.6271002408,3065.11005,mp-1178158,La15(NiO4)8,https://materialsproject.org/materials/mp-1178158,-22.111282189259075,39.498725180689505,4.404778842504324,60.40558857119818
-9.71725602,-38.86902408,10.89564884020169,-0.07701232109375056,5.5002727,1.2873506263251508,0.0,38,4,49.792599624177036,326.7148,mp-975570,PuNiC2,https://materialsproject.org/materials/mp-975570,-36.28008053728454,28.697901083068015,-40.05306723531793,35.703638958336214
-5.941202656923077,-77.23563454,6.444466003515671,-2.170751938557693,3.4948585,0.2264875639317373,0.0,123,13,179.83021505854734,697.91175,mp-1244816,Sr2YTlNi2O7,https://materialsproject.org/materials/mp-1244816,-24.243247679391807,43.05070206839678,-8.02065232909538,64.8230994724209
-6.01682794642857,-84.23559125,5.680177062713442,-2.4431004451785716,2e-07,8.001799647957978e-09,2.1913,122,14,291.2860927612392,996.39728,mp-34011,Ca(HoS2)2,https://materialsproject.org/materials/mp-34011,-1.4676614500360607,-4.944905153435268,5.651415156100888,7.452049357593893
-5.4476912025,-43.58152962,5.683048781499183,-0.3340610399999999,8.900000000000001e-06,1.385474095158939e-06,0.0,194,8,74.86330985054076,256.213092,mp-984612,Be3Ru,https://materialsproject.org/materials/mp-984612,-25.86031007986217,42.171867898174135,-23.13516628203185,35.288688831096394
-6.008443965625,-384.5404138,6.69166361951495,-1.8041326185937503,1.0003823125,0.013041004601102154,1.5412,61,64,893.9894297876973,3602.6112000000007,mvc-7861,ZnBiMoO5,https://materialsproject.org/materials/mvc-7861,6.231653065785734,29.424924303073087,33.91261373418041,-5.6039516506197415
-4.9554808744444445,-44.59932787,2.4345590936777017,-1.5585395817500003,0.0,0.0,2.3019,215,9,158.51402609480004,232.4015,mp-551736,K4CO4,https://materialsproject.org/materials/mp-551736,-5.699860758961897,7.015040164808892,-31.702380875520934,-12.281427124269063
-3.617898989,-36.17898989,3.107161671290461,-1.7143909161896551,0.0,0.0,3.3122,225,10,442.6204329854506,828.2209638999999,mp-1113608,CsRb2ScBr6,https://materialsproject.org/materials/mp-1113608,-22.602945330030998,-40.6261298898761,11.395483013214287,-19.99404712998997
-6.5704732175,-131.40946435,6.5299191725954095,-2.3468427102500007,0.9999998,0.047044222758823716,0.0,14,20,247.7256878382772,974.1588,mvc-5666,Ca2SnIrO6,https://materialsproject.org/materials/mvc-5666,-13.11905473934303,49.849255193877056,26.15695106897868,52.255429270134535
-3.1909620875,-12.76384835,3.082029092520865,0.4812538975000002,4.787578400000001,0.3289037749907033,0.0,221,4,169.63851746269796,314.8561,mp-980946,Sr3Cr,https://materialsproject.org/materials/mp-980946,30.672385906447808,63.597101730165775,-13.907549585918536,33.072722564908055
-7.404690004,-148.09380008,3.1151012154401587,-3.3695996172500005,0.0,0.0,4.370099999999999,14,20,217.40633083723225,407.8451088,mp-754531,Al2O3,https://materialsproject.org/materials/mp-754531,2.513082130160579,26.44768737467513,62.352295811081895,10.161846215146136
-3.698072969375,-59.16916751,5.228366393297254,-0.5076915170052083,2.8025e-05,7.50704226412988e-07,0.0,130,16,435.0650412767342,1369.844,mp-675525,InGaSe2,https://materialsproject.org/materials/mp-675525,12.03974067957377,4.442753563844043,12.348577184435605,20.682042497355425
-8.012106688333335,-96.14528026,8.908437613565114,-2.9921515575,0.99999995,0.07618308383471928,1.9458,13,12,152.97443478581386,820.6752,mp-755673,DyWO4,https://materialsproject.org/materials/mp-755673,21.021427723747607,53.234081798445175,-3.2631413121335537,34.9738921798731
-6.523472354722222,-234.84500477,6.556656160158062,-1.5909643485844442,0.0,0.0,0.7737999999999996,62,36,1000.6622507691873,3951.1256,mp-570646,Nd4Te3N2,https://materialsproject.org/materials/mp-570646,13.951541968139914,34.92383316632023,19.867328702149983,38.35415573576906
-5.6592898625000005,-158.46011615,6.094940008022702,-2.157326041964286,0.0,0.0,2.4675,122,28,547.6143856790212,2009.996,mp-1232115,Lu2MgS4,https://materialsproject.org/materials/mp-1232115,-0.4018718137405209,-4.0866762503980345,7.3537882056352135,5.781599214534872
-6.304148375555554,-56.73733538,5.7531594217489435,-1.9138493548611115,1.8003303,0.14784076522666872,0.0,99,9,141.91732500865783,491.6915386,mvc-7698,BaAlCuWO5,https://materialsproject.org/materials/mvc-7698,22.341118456899352,16.203451128948473,25.526473871507932,50.62703633616539
-3.830622635,-30.64498108,5.775511347328114,-1.8088814883925,1.0,0.09709054661332507,0.0,148,8,120.0329504681174,417.48591919999996,mp-15639,HgRhF6,https://materialsproject.org/materials/mp-15639,7.546250770235338,-36.54275626970864,3.2823977983645065,-30.36609825466972
-6.219388715,-87.07144201,7.045390967473347,-1.14690953375,2.00486535,0.08558810371628563,0.0,88,14,272.991568157792,1158.25782,mp-22119,U(PdS2)2,https://materialsproject.org/materials/mp-22119,-3.590485607901776,9.122363322158632,-21.329567616905145,15.710636486955144
-5.7762310781818185,-190.61562558,9.030175390699764,-1.5286228983333343,1.0,0.020985625705523044,0.0,197,33,555.3355871344141,3019.9698,mp-1214246,Bi12IrO20,https://materialsproject.org/materials/mp-1214246,5.183225084048112,13.833919149666036,6.910841421916982,21.016723871290182
-8.089836952,-40.44918476,6.691224177055763,-3.6674481942500012,0.0,0.0,1.6476,115,5,86.54024581094261,348.7182,mp-1219167,Sm2O3,https://materialsproject.org/materials/mp-1219167,-11.00651740121023,-24.32744090841885,-8.57190803022726,33.680726862237016
-5.533547545,-121.73804599,5.4140976600108255,-1.579284744318182,0.4232396,0.012129313913590822,0.0,12,22,406.6562831048063,1325.8808,mp-1192299,Sb4BrO6,https://materialsproject.org/materials/mp-1192299,12.215213790826759,28.41357760556002,29.85369081950767,-7.270246070289148
-8.713979968,-43.56989984,7.263421812908744,-2.6243247794419986,10.0000001,1.9998588967903623,0.0,221,5,58.27443580046733,254.900245,mp-1099619,EuMnO3,https://materialsproject.org/materials/mp-1099619,-29.067876453301484,55.467734015125465,-17.28729486192395,67.67566762676859
-10.895733037884614,-566.57811797,6.747616982763453,-3.676431644898206,28.00000005,0.4210742898677072,3.0154,14,52,774.9554462631658,3149.0392,mp-1201615,Gd4BClO7,https://materialsproject.org/materials/mp-1201615,3.8490223155049033,38.332596232074316,6.242232673632202,34.48740891913496