energy_per_atom,energy,density,formation_energy_per_atom,total_magnetization_uB,total_magnetization_T,band_gap,sgr,num_sites,cell_volume,weight,mp_id,formula,URL,tsne_xrd_lin1_0,tsne_xrd_lin1_1,tsne_xrd_lin2_0,tsne_xrd_lin2_1
-5.4330792428,-271.65396214,5.056935368774367,-3.8853514041329986,0.20824968,0.003827673426666467,0.0,1,50,634.0549438405125,1930.9241120000002,mp-677126,Ca2YbF7,https://materialsproject.org/materials/mp-677126,9.980503179989224,24.060304705084363,-11.309000951141348,6.649256367704092
-4.6183011105,-92.36602221,4.075886847180208,-0.5265215312514876,0.0,0.0,1.6653000000000002,163,20,561.0232593400151,1377.063272,mp-13383,ScAg(PSe3)2,https://materialsproject.org/materials/mp-13383,-21.268324114770685,21.494521420732003,-15.10414006498738,30.277905896865057
-6.714299034,-134.28598068,4.552763855107204,-2.9082754617499984,0.0,0.0,2.2556000000000003,59,20,297.07749048005564,814.5088,mp-19100,Sr2CaMoO6,https://materialsproject.org/materials/mp-19100,-20.408976156219282,19.803809300610528,-22.2518121478824,53.13984092461466
-7.455276498157893,-283.30050693,5.631009184451426,-3.228655364276316,0.0,0.0,2.4,129,38,627.2994682226455,2127.21832,mp-676378,Sr6Ta2O11,https://materialsproject.org/materials/mp-676378,-22.73175937832693,13.115749346363533,-29.353012596498004,48.545252005736025
-6.991514928823528,-356.56726137,4.560680414038363,-1.9336861195371464,51.000001,0.9909025977044638,0.0,2,51,599.8140649055761,1647.39292,mp-758431,Rb3Mn16O32,https://materialsproject.org/materials/mp-758431,6.246309228700907,25.29622652332284,58.990949457051904,33.51127730531959
-3.410093295,-34.10093295,1.9480093940990533,-2.20519392528,0.00023620000000000002,9.05439677019543e-06,4.9602,166,10,304.01695100657537,356.64796928,mp-1223916,K4NaCl5,https://materialsproject.org/materials/mp-1223916,-26.941055061112408,-45.14647200037985,-36.398335159468544,-23.450093072115674
-4.7471547003125,-151.90895041,7.613776987634993,-1.52821600203869,0.0,0.0,1.1862999999999997,55,32,526.938503848274,2416.0782480000007,mp-556798,AgHg2PO4,https://materialsproject.org/materials/mp-556798,3.163447364278549,0.2269152892058977,13.162357473864365,1.6366161196504188
-3.855331478,-19.27665739,6.346122707745204,-0.43161117682291705,2.2800000000000002e-05,1.8111641950197282e-06,0.9527000000000004,160,5,146.70822090289096,560.6784,mp-1223842,InBiSe3,https://materialsproject.org/materials/mp-1223842,-25.429049336008926,-36.13533410633471,-32.98635224413662,-21.587120146412524
-4.919439884166667,-59.03327861,3.75084772882774,-3.4265528582933342,0.0,0.0,5.1275,88,12,160.68668436812658,362.9612256,mp-5104,CaZnF4,https://materialsproject.org/materials/mp-5104,24.912341198184475,61.848482029887116,-12.050636548629086,7.340218991687068
-3.16115433,-18.96692598,5.329753005194202,-0.23154746666666645,0.0,0.0,0.8583999999999996,12,6,234.4580850898709,752.52894,mp-28051,SbTeI,https://materialsproject.org/materials/mp-28051,1.8128331940563065,-11.288784999313151,9.1186963549445,-2.5082456613192865
-4.1817428217241375,-121.27054183,4.877846523954162,-0.5581082632004313,0.0,0.0,0.5291000000000006,121,29,568.5646014166357,1670.1629999999998,mp-1215797,Zn2Cu10Sb4S13,https://materialsproject.org/materials/mp-1215797,7.605484003848893,64.952761240048,-18.327841345444035,36.782424980100615
-7.76236052,-31.04944208,3.987905567584848,0.2331965055000005,21.9954087,1.2436797139655036,0.0,139,4,206.11087791356633,494.9903,mp-1185221,KEu3,https://materialsproject.org/materials/mp-1185221,-8.498149302895559,-33.7433850347893,14.615391940682946,-15.285236875001374
-4.75656077375,-76.10497238,3.2706097536630465,0.3341566477370685,0.0,0.0,3.3639,62,16,492.27002043439535,969.5786075999999,mp-1191554,CsRbC2,https://materialsproject.org/materials/mp-1191554,18.48797716412296,-13.528773922981904,24.006852958906702,-12.736479587751631
-5.611706367999999,-112.23412736,3.2576056247195138,-3.041629601506,5.000000725,0.18922095345886905,2.7828,62,20,307.9486243296075,604.1262184,mp-558046,KMnF3,https://materialsproject.org/materials/mp-558046,-27.311446811185775,10.69260344296041,-30.690680184691026,-11.13881192420395
-4.7681836544117635,-162.11824425,4.125394925243969,-3.4387679818663286,0.0,0.0,6.2813,64,34,639.6153077011678,1589.0416792,mp-5476,Cs4Mg3F10,https://materialsproject.org/materials/mp-5476,11.318956240481812,-19.112186735737726,16.305772341278658,-14.723245062471886
-6.917948542083334,-166.03076501,2.6452073462540286,-2.4114164777675007,5.0000007,0.13374631492088093,2.4128,113,24,435.6780375976284,694.0268900000001,mp-18251,K2MnV2O7,https://materialsproject.org/materials/mp-18251,60.625072093025295,-36.31383548048852,68.87189688987395,-24.350667872151586
-6.6289327751250005,-530.31462201,8.086360816038315,-1.817754851567,4.00003069375,0.04548688985028188,0.0,31,80,1024.8363198852671,4990.66632,mp-1202955,MnBiO3,https://materialsproject.org/materials/mp-1202955,-25.297480585580875,43.617231154056405,-10.207900629517592,62.146667087679404
-4.070699361,-81.41398722,2.0994946873909823,1.308407647572001,2.7205833,0.033876953609151765,0.0,129,20,935.912194559872,1183.3161599999999,mp-1212113,I2N3,https://materialsproject.org/materials/mp-1212113,40.052659435906975,-38.84537783170711,25.642225718006806,-65.62098575153482
-4.234198729999999,-76.21557714,4.95618888201885,-1.6089717666333323,0.0434767,0.0025068541647587945,0.0,7,18,202.11797120870727,603.258832,mp-754878,Cu3OF5,https://materialsproject.org/materials/mp-754878,44.340231708344156,57.28694675802142,70.3909189136615,26.236625235962272
-6.8310913935,-136.62182787,4.7430855694480405,-2.7652382922500007,0.0,0.0,3.0551,36,20,305.33642663121447,872.1486,mp-554381,Ca2VBiO6,https://materialsproject.org/materials/mp-554381,7.247024011502242,13.511580695340953,36.57274191798623,-7.148959616371144
-2.264135155,-18.11308124,3.6190005600182578,0.17799214187500034,0.28224275,0.008674180463961168,0.0,194,8,379.2030041052761,826.44,mp-1187166,Sr3Sm,https://materialsproject.org/materials/mp-1187166,-11.40722065760181,-19.091109815138193,-20.16361341529341,-6.427080509521249
-7.288019865,-349.82495352,3.7657178080632905,-2.6170426881666664,8.5e-07,1.2539320540099096e-08,3.589,60,48,789.9913735355756,1791.5174,mp-19499,KY(MoO4)2,https://materialsproject.org/materials/mp-19499,6.099818800610643,18.624918200230006,35.06456895281771,-2.5549051622096157
-6.578623533269231,-342.08842373,5.206898888327603,-2.536317854091512,0.0,0.0,3.9030999999999993,14,52,868.4747130904482,2723.24824,mp-1195622,Rb2Th(AsO4)2,https://materialsproject.org/materials/mp-1195622,10.149397226933862,21.122367181667357,35.752543088858644,-5.594094906311937
-6.251989917,-250.07959668,4.312778437664651,-2.3298859290500005,0.0,0.0,3.1366000000000005,62,40,738.0218879923325,1916.8022,mp-1194980,KY(TeO3)2,https://materialsproject.org/materials/mp-1194980,33.83903747422256,-5.9535702895745075,43.53586314369718,-5.101263865286937
-5.60481488375,-44.83851907,2.7827752117697298,0.2868780917887932,0.0,0.0,2.0123,131,8,206.50730513836712,346.07039999999995,mp-5425,RbCuC2,https://materialsproject.org/materials/mp-5425,-4.755038560621748,-28.34739015836311,-4.679491116752279,-34.373226718535406
-6.847557834743589,-534.10951111,6.168485202555767,-2.621267700128205,6.000000099999999,0.0615896953420739,0.0,88,78,1135.3261192866632,4217.4512,mp-556809,Sr11(OsO6)4,https://materialsproject.org/materials/mp-556809,-18.02040007687696,28.01003024675772,-2.3944506131899974,44.495017367481395
-5.61667762131579,-426.86749922,3.217318354951018,-2.149490242536185,0.0,0.0,4.3516,198,76,1026.4747281986217,1988.8096,mp-6115,K2Zn2(SO4)3,https://materialsproject.org/materials/mp-6115,5.0313127512278335,28.334708254420768,69.23540371952906,-23.061545868586375
-7.121695309166667,-170.92068742,5.019838906256198,-2.623791842183908,0.0,0.0,3.596,13,24,407.06387679623083,1230.5613038,mp-572231,CsDy(MoO4)2,https://materialsproject.org/materials/mp-572231,5.990133463707633,-18.654730820813167,31.575008520240058,-8.124315921421491
-3.22624919,-129.0499676,2.548499962008603,-0.837973933,0.0,0.0,4.1057,205,40,1812.4290323677415,2781.612,mp-570285,SiBr4,https://materialsproject.org/materials/mp-570285,-0.8472596070643681,-32.510605935168236,-6.420278620374638,-36.1086599865004
-5.864187464166666,-140.74049914,5.773741968533383,-1.846860427369792,1.0000001,0.02410241646980432,0.0,173,24,483.5227186687471,1681.22239,mp-1192256,Dy3GaCoS7,https://materialsproject.org/materials/mp-1192256,6.998502552335213,-6.412655081278706,12.211217030546507,-11.882211556322565
-4.1801432840277775,-300.97031645,4.912844541929816,-1.221926503261494,0.999697675,0.003741369978564098,0.2260999999999997,62,72,3113.977373042025,9212.964207599998,mp-1213658,CsPr6FeI10,https://materialsproject.org/materials/mp-1213658,0.3109539451714542,-12.138140685915086,0.9048274250877194,1.65687702680639
-4.276598016111112,-153.95752858,1.8703680870014412,-0.3655395045344447,0.0003013,3.9749465861018685e-06,3.8089,14,36,883.3753208783992,995.0004,mp-1214217,CCl2,https://materialsproject.org/materials/mp-1214217,24.56996383170588,-22.703020599617254,-6.268105498256179,-1.3964662816295577
-6.678195673333333,-240.41504424,1.8010460775209325,-0.3917909884322215,3.16e-05,8.108047504335871e-07,4.0172,14,36,454.20114597990533,492.63352,mp-1211655,KH2CN5,https://materialsproject.org/materials/mp-1211655,64.95143970334752,-18.336568781527067,26.0587943192568,-25.72217796602079
-5.21763022,-15.65289066,1.4035337676208444,1.3027969414999998,1.0,0.15605808622517686,0.017099999999999668,71,3,74.6777373377756,63.1197,mp-1211615,KC2,https://materialsproject.org/materials/mp-1211615,2.3954861487605763,-27.955069148506798,18.128106805014426,-16.022448257769167
-7.117814795,-341.65511016,4.24873853463514,-2.715137877604167,6.000047625,0.10565085876917324,2.7397,15,48,661.8492691381283,1693.4407600000002,mp-19203,BaCo2Si2O7,https://materialsproject.org/materials/mp-19203,14.003351330519942,27.30987882112121,34.63622355182989,1.9967489851464817
-7.561259087000001,-226.83777261,4.803884652680842,-3.2279105202500005,2.65e-06,6.566657792359059e-08,2.7391999999999994,71,30,470.3042647238121,1360.5747199999998,mp-1218647,Sr4Nb2O9,https://materialsproject.org/materials/mp-1218647,-22.31340836088009,20.460158591913896,-22.770170179867588,54.21929070331724
-8.127750801794871,-1267.92912508,6.5096471718666375,-3.5907928052564104,0.0,0.0,1.9303,65,156,2706.6028405849065,10610.42776,mp-667498,Ba8CaY2U4O24,https://materialsproject.org/materials/mp-667498,-20.191634333462485,6.413241289086839,-12.349763049123002,29.59195990037751
-6.832503922407407,-368.95521181,3.937227228707705,-2.4078155729254838,3.9999997000000005,0.07035123308998455,0.1961000000000004,90,54,662.6217273888237,1571.1116960000002,mp-1195138,SrTiCu4P4O17,https://materialsproject.org/materials/mp-1195138,3.816174904965401,24.61556604446267,58.51914806884562,35.48820488384146
-7.326554176666666,-175.83730024,5.2654333523165135,-3.1207457567708325,0.0,0.0,1.4779999999999998,57,24,471.7116296642652,1495.75896,mp-557722,LaSO,https://materialsproject.org/materials/mp-557722,-20.682458715111718,13.932857231319993,-16.95014267701207,37.952233223709996
-5.550978019166667,-133.22347246,6.20839338802372,-2.3646225226722923,1.000000025,0.03414770537833309,0.0,14,24,341.2839877465349,1275.9864128,mp-553963,YbSeO3F,https://materialsproject.org/materials/mp-553963,9.448403401529491,21.29458171519197,39.06197963669381,-3.324503420753972
-8.335868559,-166.71737118,9.085365669821343,-3.9832950102499987,0.0,0.0,4.5265,62,20,277.39657499495047,1517.72964,mp-752435,DyTmO3,https://materialsproject.org/materials/mp-752435,-22.070675346096444,30.87672641655314,-22.59395455399955,56.754934608270034
-4.624575751333333,-69.36863627,4.781421143630368,-2.5459687922887126,3.0,0.13485773595040385,0.0,166,15,259.2524193831713,746.5015695000001,mp-556943,CsCoF3,https://materialsproject.org/materials/mp-556943,1.5849371849146905,-7.909299332205077,12.654814743083966,-15.124517870371427
-6.82883383375,-54.63067067,3.221549628673694,-1.2538960802717245,0.0,0.0,4.5360000000000005,46,8,180.32640295797532,349.84450380000004,mp-1225916,CsCNO,https://materialsproject.org/materials/mp-1225916,3.3224486028386013,16.72419949926997,17.695409465698148,-22.426329537299853
-6.3640670120000005,-31.82033506,4.557851372224751,-2.0942689801499994,0.001049,0.00020101796597128,0.0,221,5,60.81602650462474,166.92796928,mp-1040471,NaMoO3,https://materialsproject.org/materials/mp-1040471,4.980557054946506,-36.23327634478603,51.51003593608224,15.823518233635529
-3.7891850509375,-121.25392163,3.909798585534367,-0.5478745276093746,0.0,0.0,1.1886,7,32,869.2375672094324,2046.65095424,mp-984519,NaAsSe2,https://materialsproject.org/materials/mp-984519,-17.740557994803236,15.258824779712533,-35.34395579599088,-23.596460174687053
-6.300002624545456,-346.50014435,7.65334324428825,-1.8748555104545452,0.0,0.0,2.6700000000000004,5,55,863.8416656598025,3981.4040000000005,mp-1197854,Bi14Mo5O36,https://materialsproject.org/materials/mp-1197854,1.5846752229795302,-17.69425070953078,27.71346995532976,-6.135341941517319
-5.9961237885,-119.92247577,8.460920473661027,-1.5352595127500002,5.00000075,0.2372774785262796,0.0,63,20,245.5788596762812,1251.2944,mp-555351,FeBiO3,https://materialsproject.org/materials/mp-555351,-30.270764640178818,49.13789426445324,-17.81221235283036,67.10011229289486
-5.306043256153846,-68.97856233,4.851664367795514,-1.1509841251282056,2.6e-06,7.17782117907038e-08,0.0,8,13,422.1415893865932,1233.38823,mp-1223076,La4B4I5,https://materialsproject.org/materials/mp-1223076,7.653563823143218,-22.71984372869977,20.28856075601187,-18.211078972505387
-5.825506726666667,-17.47652018,5.9816913823491085,-0.8813893200000008,1.9e-05,2.3024911437255605e-06,0.0,164,3,96.16854826218893,346.42400000000004,mp-1018107,ZrTe2,https://materialsproject.org/materials/mp-1018107,-13.886585989582288,22.919626439323782,-15.048175836681864,12.420063906162104
-7.981023661071428,-223.46866251,8.29405698199637,-2.870492542053572,0.0,0.0,2.9180999999999995,36,28,385.9732349196215,1927.85832,mp-556697,CaTa2Bi2O9,https://materialsproject.org/materials/mp-556697,20.96994366621247,58.95031440710775,32.98269091092492,-4.478414877200024
-5.7044800875,-68.45376105,6.756781645713249,-1.6143643749999992,0.0,0.0,2.2196,15,12,177.20571307119926,721.0552,mp-19363,HgMoO4,https://materialsproject.org/materials/mp-19363,8.797501978322783,19.920473072327407,27.464880879738654,-2.961143652209813
-7.9880749421875,-255.61839815,5.418977562900657,-3.63810497609375,4.94e-05,1.311812299562182e-06,4.8291,11,32,438.86674942489304,1432.191,mp-1195744,BaEr2Si3O10,https://materialsproject.org/materials/mp-1195744,12.193047274401989,24.687651935297648,38.19381853086284,-4.7805079663264545
-4.85655562,-43.70900058,3.549968798734888,-1.5551451131752871,0.0,0.0,0.7836999999999998,121,9,284.22602359456755,607.6301076000002,mp-645303,Cs4CO4,https://materialsproject.org/materials/mp-645303,22.416434560564017,-16.994691661035578,-5.90850932020862,-32.600671404466354
-6.873265900526317,-261.18410422,3.1824864678954343,-1.8997529682518808,5.0571044,0.10754350361700794,0.0,7,38,548.0184321415019,1050.298248,mp-1182505,BaV2(PO7)2,https://materialsproject.org/materials/mp-1182505,33.044071122710186,-21.93859031390123,27.11057472258703,-27.74318801192965
-5.4307006925,-217.22802769999998,2.569769207207079,-0.22624256413066704,3.997006725,0.07329356386043111,0.0,14,40,635.5452350251247,983.5388,mp-1182987,Ag(NO2)3,https://materialsproject.org/materials/mp-1182987,48.22358590691046,-42.87658589862181,44.25354662524292,-51.087212470071115
-4.006124843333333,-48.07349812,7.5615285884273025,-0.3122526701302082,0.0,0.0,0.0,164,12,379.3965226488645,1727.6424,mp-27902,BiSe,https://materialsproject.org/materials/mp-27902,-23.108362651153694,-35.899842083925954,-32.71675748672139,-22.51390781790394
-6.306924155535714,-353.18775271,5.8081434437572,-1.8786905292857143,6.0003215999999995,0.07739133155811519,0.3428,176,56,903.5654920871614,3160.4424,mp-1209442,Sm7(BrO6)3,https://materialsproject.org/materials/mp-1209442,7.75044317394681,-16.30253169526526,14.145541285169376,-21.32877616958831
-6.026300277115384,-313.36761441,2.7285550101303304,-1.4612123289423071,4.7498685,0.09402874023301218,0.0,62,52,588.7059107988185,967.3464,mp-1178675,Zn(BO3)3,https://materialsproject.org/materials/mp-1178675,27.172348328820753,-20.07731290622578,28.27561042926187,-29.19647176675448
-3.338590204166667,-40.06308245,3.7556437920939576,-1.6714026350000004,0.00015340000000000002,2.951229735987029e-06,3.3934,74,12,605.7588517461706,1370.04576,mp-753486,BaCaI4,https://materialsproject.org/materials/mp-753486,17.855532935277623,-9.14470029442861,14.681877405178607,-20.30320566121389
-8.808339944347823,-405.18363744,6.463280414078504,-3.9415166596195648,0.0,0.0,1.8196999999999992,9,46,646.6642600210305,2516.9974,mp-758094,Ce6Y2O15,https://materialsproject.org/materials/mp-758094,26.360404784791875,64.77609781059336,-11.186622601962364,34.990491466327704
-6.554347744499999,-131.08695489,3.1751714376968714,-2.3964325158392867,7.0,0.3093723272125317,0.009199999999999986,166,20,263.6902083096635,504.2107398,mp-1214482,BaAl3(PO7)2,https://materialsproject.org/materials/mp-1214482,25.726951555652555,-23.4534298640664,6.82071055005462,-37.78758932125418
-3.8524196393333328,-115.57258918,4.1665359812653655,-0.9276678553333332,0.0,0.0,2.0148,13,30,1431.9813749334264,3593.0512799999997,mp-571235,ZrI4,https://materialsproject.org/materials/mp-571235,1.072984301303345,-14.923412653972175,7.800276872431944,-20.076567138120573
-6.1430016325,-245.7200653,3.8944807061852162,-2.18645992458944,0.001742875,2.758188032898297e-05,4.1226,62,40,736.4102047506755,1727.1110556,mp-1194629,CsSc(SeO3)2,https://materialsproject.org/materials/mp-1194629,36.919117107006095,23.92213025507823,41.677809924458145,11.76787698522442
-8.78296243631579,-166.87628629,6.552806442486943,-3.9634925565789474,0.0,0.0,1.9787000000000008,148,19,320.17053925578864,1263.45453,mp-19992,La6UO12,https://materialsproject.org/materials/mp-19992,-12.162693469136494,-26.756370415791146,-0.9074934423977806,-27.577494723076487
-8.179151778055555,-294.44946401,8.89645811815336,-0.8210878133531736,2.18e-05,4.5423432427298175e-07,0.0,189,36,559.3117879157002,2996.553394,mp-1205135,Pr5P12Ru19,https://materialsproject.org/materials/mp-1205135,-51.00692439412466,2.677105008315414,-42.098661070693204,30.73912026485468
-3.965555704615385,-412.41779328,3.907927867770688,-1.2504719800592312,0.0,0.0,2.3272,86,104,1772.776017775874,4172.0674048,mp-1197858,OsXeO3F8,https://materialsproject.org/materials/mp-1197858,36.942093872368616,-18.17747309941963,20.376644084113423,-61.8935977239665
-7.65432607,-84.19758677,4.925388086469263,-1.9894813050000009,2.0,0.1236537456809772,3.8930000000000002,147,11,188.4951354830256,559.1025999999998,mp-32311,Re2NiO8,https://materialsproject.org/materials/mp-32311,5.410683428232481,-34.333031941389216,48.90227982887253,-7.807912240149393
-4.013400664444443,-72.24121196,6.081893194073416,-0.8244784336111116,0.0,0.0,2.6934,4,18,300.5488325229676,1100.79068,mp-23407,Hg(IO3)2,https://materialsproject.org/materials/mp-23407,13.781281215944832,-9.63145662230027,23.8281648221802,-4.531476539394769
-6.183357141538462,-80.38364284,3.9235714831582382,-2.5395979047645887,0.0,0.0,3.6203,164,13,245.64377198398543,580.4144772000002,mp-556275,Rb2Al2Sb2O7,https://materialsproject.org/materials/mp-556275,-2.5817277092818918,-25.14182025832698,13.43454260322618,-14.191168760811141
-6.078549420454545,-267.45617450000003,3.3626913972027115,-1.6447928791742426,0.0,0.0,1.6337,62,44,716.9258737153723,1451.818,mp-559172,KCr2AgO7,https://materialsproject.org/materials/mp-559172,16.868728979645233,-12.281338689555506,35.64442803086374,-5.788111362283195