energy_per_atom,energy,density,formation_energy_per_atom,total_magnetization_uB,total_magnetization_T,band_gap,sgr,num_sites,cell_volume,weight,mp_id,formula,URL,tsne_xrd_lin1_0,tsne_xrd_lin1_1,tsne_xrd_lin2_0,tsne_xrd_lin2_1
-7.089204545714287,-99.24886364,3.3061389591040786,-2.5719712453061225,3.00000135,0.2277007592529188,2.6644000000000005,43,14,153.54454752534318,305.70772400000004,mp-763489,LiVPO4,https://materialsproject.org/materials/mp-763489,14.527792493387865,7.791859110821072,58.03064394947178,22.739491516308703
-3.61391938,-14.45567752,7.958049844190838,-0.1384393049999999,0.00013159999999999997,9.097684467966722e-06,0.0,139,4,168.57860145281808,807.9044700000001,mp-1183096,Ac3I,https://materialsproject.org/materials/mp-1183096,28.93285907814945,63.14457977031212,-12.974834191265908,33.192618103741886
-6.783254983333332,-203.49764950000002,5.690741485802209,-2.782348690916666,0.0,0.0,2.6984,55,30,408.92232525580664,1401.39508,mp-771697,La2Ga4O9,https://materialsproject.org/materials/mp-771697,-0.7465866510486348,27.256460778137285,3.1431679346238197,38.49274046373271
-8.921394184,-44.60697092,7.616823573102367,-0.4263565046666671,14.161957199999998,1.3847539857300672,0.0,65,5,119.18677845726059,546.7048,mp-1076993,Gd2InNi2,https://materialsproject.org/materials/mp-1076993,-39.169985847074926,27.094650186472336,-25.343410264616033,38.05893892503431
-8.7597465405,-175.19493081,7.17601415561541,-2.670091351942,9.99999925,0.4939481315562497,0.0,62,20,235.93699730753403,1019.60098,mp-20614,EuMnO3,https://materialsproject.org/materials/mp-20614,-24.586856949798413,50.95604139786157,-10.66868516776231,65.61761188129094
-7.790949551896553,-451.87507401,5.386682961893509,-3.4973178012212647,8e-07,9.595774667777814e-09,2.6842000000000006,194,58,971.599703081276,3151.8076,mp-16662,Ba6Nd2Ti4O17,https://materialsproject.org/materials/mp-16662,-20.676629170836605,12.827338206766832,-17.83034860300627,46.310263699167386
-6.956252896666666,-41.73751738,5.2704520924774165,-2.8853000362500008,0.0,0.0,2.2391,166,6,146.07061525552348,463.61944000000005,mp-754038,YIO,https://materialsproject.org/materials/mp-754038,-11.572649499359171,21.044213578938283,-21.722715478879362,45.06285871962945
-4.191152871,-41.91152871,7.324092446164709,-0.24619250443750004,4.1172631,0.21793725247275275,0.0,115,10,220.16819203072632,971.0896,mp-1216847,Tl2FeCu3Se4,https://materialsproject.org/materials/mp-1216847,-12.524719174093434,25.161337755208546,-13.840521581062625,50.81464454941746
-6.612042316666668,-19.83612695,4.53326692428366,0.17980462416666634,0.0,0.0,1.3854,166,3,59.102038709947145,161.3484,mp-1018141,BaC2,https://materialsproject.org/materials/mp-1018141,-7.00233928537283,9.610471558562418,0.9397961060019062,21.243527989209692
-8.041592585789473,-152.79025913,7.4260724160546525,-3.3828035402631578,3.0000002,0.13267203164112454,0.0,12,19,263.52348883195026,1178.49955,mp-1105460,Tb5(MoO6)2,https://materialsproject.org/materials/mp-1105460,9.775742276423108,22.57772043717767,1.5917451632232171,35.716494748416736
-3.807781663181818,-83.77119659,4.369240264482404,-1.8668771348863635,0.0,0.0,3.2909,186,22,712.7788033394289,1875.47644,mp-755949,Ca4I6O,https://materialsproject.org/materials/mp-755949,-4.6214057438664184,22.1649587198293,-0.2558686997455486,18.31484981703296
-6.924614827,-276.98459308,6.1559638107858445,-2.649476791125001,5e-08,8.627882070496868e-10,3.137,217,40,675.3722800877687,2503.7456,mp-3154,Sm3Sb5O12,https://materialsproject.org/materials/mp-3154,29.8934169177042,63.56342823562608,-10.181386583792792,33.305870284658845
-8.966228492272727,-197.25702683,6.1627973375128695,-2.8647301525918185,4.5e-05,1.7024352902502081e-06,1.4569,36,22,308.0486628587862,1143.2682,mp-775929,La2Nb2N2O5,https://materialsproject.org/materials/mp-775929,1.8132933212962887,23.188312157397704,1.6165173426679065,47.238200818768846
-5.851709682222222,-210.66154856,4.685582886653673,-0.5392517588355553,1.1599999999999999e-05,1.8788330725885747e-07,0.060499999999999776,62,36,719.5272072544341,2030.3072,mp-1246799,Sr4RuN4,https://materialsproject.org/materials/mp-1246799,3.751176966482201,33.08268588618153,0.7623086969485473,33.96874456417876
-10.286096804285714,-288.01071052,6.1526075011976,-1.0338512923057144,34.51352695,0.7724434251279164,0.0,12,28,520.7150006334465,1929.3464,mp-866789,Gd5(C2Cl)3,https://materialsproject.org/materials/mp-866789,10.556626104482962,23.606363811188178,30.803552909052453,1.2003646970424129
-3.2826522375,-13.13060895,4.825801431520992,-0.1054771168749995,0.0009027999999999998,8.996357983739542e-05,0.0,225,4,116.95054482806916,339.87765,mp-975880,PrSmMg2,https://materialsproject.org/materials/mp-975880,-29.70301731173571,55.58784728921983,-56.30797617963139,52.27182404256236
-10.979619766818182,-241.55163487,8.468244243381521,-3.3178934767045463,19.308429800000003,0.7452029608815863,0.0,63,22,301.96027573403325,1539.9056,mp-31101,Gd3ReO7,https://materialsproject.org/materials/mp-31101,16.15244158894197,60.49513901826799,-4.734450502961437,39.27738835339208
-5.7386053650000015,-34.43163219,6.048974898815158,-2.300651171041668,0.0,0.0,0.0,71,6,106.01749866797131,386.1982,mp-8790,Ba2CuO3,https://materialsproject.org/materials/mp-8790,-24.42516524981359,31.58445941809225,-13.418192064450547,45.93245518452704
-7.21577196875,-115.45235149999999,10.201279216432457,-1.0963572917187498,4.30249185,0.1825050266324209,0.0,129,16,274.7404804597466,1687.8280399999999,mp-572929,U2Cu2As3O,https://materialsproject.org/materials/mp-572929,-36.936760553588755,-2.035156549451677,-21.671399990749524,14.261883708605213
-5.332137079000001,-53.32137079,8.96878466560627,0.10307772700000016,4.455e-05,1.645778990687866e-06,0.0,227,10,315.46677199988767,1703.8765600000002,mp-1212267,Ho4Ir,https://materialsproject.org/materials/mp-1212267,-10.569255598792523,22.62423860893577,-23.567810802235012,76.9150176593403
-5.439611906315791,-103.35262622,6.68684148550514,-1.7252232835526329,11.6810136,0.4801226339183182,0.0,1,19,283.5344128490103,1141.7676,mvc-3064,Ba2Tl2Zn2Fe3O10,https://materialsproject.org/materials/mvc-3064,23.47771451799085,37.96110192498961,23.50420877871892,32.01676138771682
-6.333602526666668,-114.00484548,4.446790369256207,-1.9998878604166663,3.43983995,0.16748380388677364,0.0,26,18,239.35518930319859,640.974,mvc-3989,Mg2Mo2O5,https://materialsproject.org/materials/mvc-3989,5.047705697218092,8.281264653340441,37.27153404212297,35.23225377029036
-10.724515581666667,-128.69418698,6.867578686685728,-4.147724289980001,6.99999995,0.438741424427216,3.2446,70,12,185.93742984655844,768.9912128000002,mp-779592,GdOF,https://materialsproject.org/materials/mp-779592,6.320076787868098,20.74218874210061,3.6924293524238534,34.31657763560743
-5.5106127125,-110.21225425,5.687938699646648,-2.069558555125,0.0002785,1.1011209187930645e-05,0.0,123,20,294.7593660027302,1009.656,mp-1228579,Ba2Ca3Cu4HgO10,https://materialsproject.org/materials/mp-1228579,-5.718826121095478,20.250005696860853,-21.503765216119337,22.86575491595405
-11.637585648,-58.18792824,11.02995024259146,-3.3690280719999985,9.998822800000001,1.4440672905522045,0.0,115,5,80.69355861940986,535.9982,mp-1219669,Pu2O3,https://materialsproject.org/materials/mp-1219669,25.91517126996729,64.67299486307881,-11.076414223625786,36.35453762436314
-8.217228392500001,-164.34456785,4.788335446345116,-3.1948226801875013,9.25e-05,3.6897438080017433e-06,0.9932999999999998,139,20,292.1614744969476,842.47772,mp-756435,Sr3Nb4O13,https://materialsproject.org/materials/mp-756435,4.292466121763774,20.346425812688576,3.3701634109779715,46.900313238861344
-2.76673271675,-110.66930867,5.387746202236842,-0.053974364607143235,0.0,0.0,0.008300000000000196,137,40,984.2406367760353,3193.4441920000004,mp-2441,Cd3P2,https://materialsproject.org/materials/mp-2441,0.5399921535447507,-13.407466073031216,9.189016199763957,-13.278354421101165
-7.526765548333333,-180.64237316,5.683357062729998,-3.260361822604168,2.5e-07,1.015159548735154e-08,4.4022,113,24,287.0008164499897,982.288328,mp-1209882,Nd2Be2GeO7,https://materialsproject.org/materials/mp-1209882,-3.176535792369024,12.655004072688909,-15.278687776313891,44.24909722837433
-9.837938785499999,-393.51755142,7.064323847497972,-3.1858371667500007,12.000000025,0.21131902444416373,0.0,206,40,661.7898124880841,2815.4096,mp-1182469,Eu2O3,https://materialsproject.org/materials/mp-1182469,28.330575398150657,62.69831327719529,-8.065021484262301,33.80223222339311
-3.8002180128571434,-26.60152609,6.2047499151766425,-0.8089644192350006,5.7999999999999995e-06,4.120338445839978e-07,0.0,139,7,164.04860078688634,612.982,mp-1147601,CuPb2(SCl)2,https://materialsproject.org/materials/mp-1147601,-8.029682789340818,-28.248849441932787,-3.9767932244343314,-20.759462679830378
-7.621679414000001,-38.10839707,8.732181899580276,-2.518786092250001,0.0468055,0.00930948443150543,0.0,221,5,58.593398240834105,308.12176,mp-1187425,ThSiO3,https://materialsproject.org/materials/mp-1187425,-29.36177171838302,55.75318970609606,-21.21910234950893,35.791037609074884
-7.406381033888887,-266.62971722,8.310390911602846,-2.1185664211772224,3.0151995,0.07780077517278185,0.0,51,36,451.6578427033834,2260.3824064,mp-766126,W5O12F,https://materialsproject.org/materials/mp-766126,11.344186662255865,-37.27385820832493,48.07723271039643,3.9638192948653215
-4.831201201666667,-57.97441442,6.490576362162874,-1.5330050912413196,0.0,0.0,1.4493,63,12,332.2493193032433,1298.6684,mp-1102849,BaErAgSe3,https://materialsproject.org/materials/mp-1102849,-3.8622874919669448,5.273807319077509,-2.9956033884487185,8.894896138704297
-6.06300005,-109.1340009,4.7587616529125825,-2.3528491626388903,0.0,0.0,2.0209,55,18,281.7181547571966,807.3460000000001,mvc-3799,Ca2Sb2O5,https://materialsproject.org/materials/mvc-3799,1.8619326549941115,21.777475219891247,25.51281740122024,-4.016822106712306
-3.1412219622222213,-28.27099766,5.379284504484165,-0.7541419220555556,6.666666666666667e-08,2.2717699928691207e-09,0.2354999999999996,189,9,341.99661670975325,1107.89150784,mp-31235,BaNaBi,https://materialsproject.org/materials/mp-31235,-1.0110425571702448,10.408791531108443,8.124200287415173,27.76958263131669
-8.726827488928572,-244.35116969,7.087848904614688,-3.0966107825000013,12.000000125,0.2953625916907148,0.0,62,28,473.4816888183162,2021.0104,mp-1019738,BaEu2O4,https://materialsproject.org/materials/mp-1019738,-0.12347835279873405,23.02852366856512,0.5584977584864832,46.10169125432401
-7.1307174225,-114.09147876,5.1196164411984775,-1.3170036224399997,0.0,0.0,2.864,64,16,250.94947013018552,773.7036,mp-3777,BaSiN2,https://materialsproject.org/materials/mp-3777,-7.254265555358237,32.68581795038411,-1.9518192515865558,49.843309644916935
-5.712295710625,-91.39673137,7.191304259147791,-0.003831220564999072,0.0,0.0,1.0782000000000005,14,16,283.29504761308965,1226.8672,mp-1246627,GaBiN2,https://materialsproject.org/materials/mp-1246627,1.8360423606644125,12.84017543867432,6.4186383162090905,25.86679562681572
-6.928355911000001,-69.28355911,6.410035575020283,-2.97832011625,0.0,0.0,3.3586000000000005,148,10,166.34063488589018,642.1104,mp-19078,Ba2SrWO6,https://materialsproject.org/materials/mp-19078,-19.78147302369917,8.27437838311509,-30.419637439991146,46.20224783555582
-8.759446726666667,-52.55668036,7.855611759330123,-2.5116261791666674,5.00054885,0.7493177425280981,0.0,129,6,77.77304191360932,367.9256,mp-1018700,EuO2,https://materialsproject.org/materials/mp-1018700,24.666910720817395,59.31934747847572,-12.629333981215488,38.485866078821424
-7.824760906363636,-86.07236997,4.387435365820863,-2.554077917942728,1e-07,7.034621313742241e-09,0.0,123,11,165.66726555405756,437.72197000000006,mp-1205881,LaNb2HO7,https://materialsproject.org/materials/mp-1205881,28.017336176243692,61.616137067254975,-8.33121432247357,41.99987712180847
-2.80025203375,-44.80403254,8.140545471088005,-0.14250312875000004,1.45e-06,2.948703914808365e-08,0.0,82,16,573.0786951971668,2809.433,mp-1796,Tl5Te3,https://materialsproject.org/materials/mp-1796,-21.63862162126432,14.005465715249233,-41.932053986492704,33.33289208830629
-5.078180824545455,-55.85998907,4.2565540410825085,-1.8891493474109093,0.8193745000000001,0.04887880382589193,0.0,139,11,195.36164448699998,500.7816,mp-547517,Sr2Cu3(ClO2)2,https://materialsproject.org/materials/mp-547517,-8.012993483536462,4.9568694932087976,0.5165052962356469,12.178207728602874
-5.041973675,-70.58763145,4.532267956471119,-1.7027103157500003,0.0,0.0,0.5710999999999995,199,14,242.83598760346158,662.79547712,mp-761872,Na2Sn2O3,https://materialsproject.org/materials/mp-761872,-10.232355136994137,51.081967410246584,3.1231138683384216,22.866906035558177
-6.562696491666667,-78.7523579,4.2596425607450525,-2.7610024072705954,0.0,0.0,3.3618,63,12,196.28783501642468,503.52084236,mp-560791,CsNaTiO3,https://materialsproject.org/materials/mp-560791,1.8319649334343648,27.33025013230969,-1.9757701951117668,23.53946958631327
-5.2166410025,-62.59969203,7.0955394175580455,-1.4299928978645835,0.0,0.0,1.5919999999999996,36,12,253.640868476215,1083.8159999999998,mp-1222325,LuCuPbS3,https://materialsproject.org/materials/mp-1222325,29.12718147562601,32.79172504858369,17.722584190783852,28.733394996989865
-2.8772273619444437,-103.58018503,3.814040356778181,-1.1067273797988504,3.25e-07,2.816776661539476e-09,0.0,141,36,1344.6472710448575,3088.4784,mp-540811,Rb2SbBr6,https://materialsproject.org/materials/mp-540811,1.1444856876430871,19.537240448967328,-16.014355634419914,-8.978700731307375
-7.880272740833332,-756.50618312,3.642843390757364,-2.640385418054027,14.999999675,0.18144612463273235,4.1137,29,96,963.4318074010216,2113.54934,mp-560911,Mn3B7BrO13,https://materialsproject.org/materials/mp-560911,-14.178750432523278,17.83937264187482,-4.426059281936621,27.3301798681682
-6.061119686666667,-36.36671812,8.731222267109409,-1.002764618333334,1.05e-06,7.442168361848602e-08,0.0,139,6,164.42476730193346,864.55612,mp-1077349,ThGeTe,https://materialsproject.org/materials/mp-1077349,-46.723169479214725,29.738589278902875,-24.89380085051877,32.324359206607106
-6.9653889428571425,-97.5154452,6.268202305442093,-2.8020096018542864,3.829279,0.23719509263337846,0.0,123,14,188.1432916792254,710.203245,mp-1218751,Sr2Nd2MnCuO8,https://materialsproject.org/materials/mp-1218751,-23.185340321254753,39.443586053127156,-14.165036822302588,59.00440971999032
-9.695862677884616,-504.18485925,9.40168535452394,-3.80598123625,0.0,0.0,3.4214999999999995,20,52,685.2674373989137,3879.86592,mp-29368,Th2Ta2O9,https://materialsproject.org/materials/mp-29368,11.37390653148411,22.651026831546755,38.46586697376467,-0.9183647230977928
-6.3441119311111125,-57.09700738,5.549771693390846,-1.9538129104166675,1.5484299,0.1226598046612067,0.0,25,9,147.1183033448555,491.6915386,mvc-16255,BaAlCuWO5,https://materialsproject.org/materials/mvc-16255,27.587628481837033,33.35627239586739,33.993013560406595,34.77213445641018
-4.224853582083333,-202.79297194,9.285111103372447,-1.5535487503966667,1.5e-07,2.5520951023679906e-09,0.0,8,48,684.9704441899324,3830.0976512,mp-685515,TlOF,https://materialsproject.org/materials/mp-685515,11.585009816101735,22.97694020794287,-1.222566349930791,35.384120268089404
-8.268401082,-206.71002705,7.927515102256218,-2.940343929600002,1.9999993000000003,0.07097341342810957,0.0,2,25,328.40637446419737,1567.83215,mp-698001,La5Re3NiO16,https://materialsproject.org/materials/mp-698001,1.9870166327203704,25.259930780805988,11.800794256012132,30.141722477652017
-5.408025560833334,-64.89630673,4.838157994049942,-2.1990743714439662,0.99999995,0.037336827242850784,0.0,36,12,312.1332220880648,909.4335076,mp-7646,Cs2PrO3,https://materialsproject.org/materials/mp-7646,5.894960068227383,-5.3838822704115366,10.478639885201279,1.159474114088288
-6.724320847875002,-537.94566783,5.3347523431470165,-2.647149887446429,0.0,0.0,3.4360000000000004,62,80,1185.3432016284178,3808.1082528000006,mp-555644,Al2Tl3(PO4)3,https://materialsproject.org/materials/mp-555644,-3.0082042857164866,22.67807956459095,1.0659276202485175,52.59711471001853
-4.9539659122222215,-44.58569321,2.462305510107398,-1.557024619527778,0.0,0.0,2.3359,146,9,156.7278155047981,232.40150000000003,mp-545387,K4CO4,https://materialsproject.org/materials/mp-545387,-9.460807899119525,22.394624965293094,-5.339041607611001,26.49881891217024
-7.55550655,-52.88854585,6.120807466869872,-3.1300046132142856,2.9999999,0.3704752262152343,2.1776,107,7,94.37120400585349,347.8557,mp-1218137,SrNdCrO4,https://materialsproject.org/materials/mp-1218137,-24.05300929489779,39.897015214176534,-13.852595918327475,59.45789018787932
-2.6995195385714292,-37.79327354,4.122861481266367,-0.9972980609889796,0.0,0.0,1.828,164,14,382.2757463131154,949.131524,mp-29415,Cd3PCl3,https://materialsproject.org/materials/mp-29415,-27.434271705729195,-32.70546590439183,-23.993084847996577,-21.814210573382763
-5.701660205857142,-399.11621441,4.811774578921365,-1.9647461299375,0.0,0.0,1.6583999999999994,146,70,1601.3688400307253,4640.316,mp-1220718,Nd9Ga5S21,https://materialsproject.org/materials/mp-1220718,7.973445073545011,-4.887969452265678,12.56228627667655,4.048029118374453
-5.5501364875,-88.8021838,8.367872340399524,-1.590457119218749,0.0,0.0,2.0934,15,16,246.8609126065052,1243.994,mp-1105700,TePb2O5,https://materialsproject.org/materials/mp-1105700,-18.434136374158737,9.903926718089169,0.5636043762151912,46.069812064174464
-8.088956095,-291.20241942,8.340598991921011,-3.286506467500001,0.0,0.0,2.9226,15,36,475.97673223025663,2390.7484,mp-770983,Tb2WO6,https://materialsproject.org/materials/mp-770983,21.14366805877129,55.9974046324594,-1.6163436905046713,35.63496596921779
-7.693478609642857,-215.41740107,6.270479651487335,-3.595844682500001,0.0,0.0,3.131,62,28,507.5358274595549,1916.5421600000002,mp-752656,BaLa2O4,https://materialsproject.org/materials/mp-752656,0.1255094442123954,22.655341037657667,2.5315138200486644,23.728448234953603
-8.718490365833333,-313.86565317,5.066334410102979,-2.871237417302221,19.001046399999996,0.5012373163634416,2.424,3,36,441.785593895106,1347.895775,mp-1221970,Mn3Nb8FeO24,https://materialsproject.org/materials/mp-1221970,14.205491289154972,54.585283806196664,2.6288077753609365,39.10353051746285
-5.724214293999999,-57.24214294,9.291503727034126,-1.6290672052500006,0.0,0.0,2.2208,167,10,166.54852288077174,931.918,mp-1183524,Bi2O3,https://materialsproject.org/materials/mp-1183524,-18.412806088496932,5.921055142017161,-25.462436433254773,43.21937951845165
-9.62490881,-202.12308501,7.988904690612211,-3.2187673476785723,0.03647653333333333,0.0015427337947835748,0.0,12,21,275.5497309921413,1325.67828,mp-1218160,Ta2O5,https://materialsproject.org/materials/mp-1218160,13.76747737048199,15.446613353583247,23.535888843371215,35.11325314604414
-5.7124675996875,-182.79896319,4.5903879971667,-1.6562439008854168,0.0,0.0,1.7846999999999995,4,32,755.0409437921485,2087.2324,mp-1207671,YAgS2,https://materialsproject.org/materials/mp-1207671,-3.6683427610578727,8.831109544889928,1.2110845813205595,18.703353471279854
-7.5517288267857134,-211.44840715,6.394894331666549,-3.4949263503571437,0.0,0.0,3.0743,62,28,501.8207489427701,1932.5596,mp-17412,BaPr2O4,https://materialsproject.org/materials/mp-17412,0.12504415201453312,22.661011142743558,0.5905507217970671,46.01237076818409
-7.710125447894738,-146.49238351,6.476315775473025,-3.1180064271052634,0.0,0.0,2.7305,160,19,284.85049555389236,1110.95356,mp-1228131,Ba4Nb2WO12,https://materialsproject.org/materials/mp-1228131,-16.699270078368748,18.43090443464195,-14.739135246475403,46.261071031018936
-8.84959749225,-353.98389969,6.102179816660684,-4.006085755,0.0,0.0,4.0053,1,40,611.7428695725434,2248.0441,mp-752458,Dy3Y5O12,https://materialsproject.org/materials/mp-752458,18.064325753787006,59.49452958411489,-5.329527362888669,36.700427827155025