energy_per_atom,energy,density,formation_energy_per_atom,total_magnetization_uB,total_magnetization_T,band_gap,sgr,num_sites,cell_volume,weight,mp_id,formula,URL,tsne_cry_lin1_0,tsne_cry_lin1_1,tsne_cry_lin2_0,tsne_cry_lin2_1
-5.6261705794444445,-101.27107043,3.64166481308742,-3.2407833359274334,5.9999997,0.23463667951358816,2.08,166,18,298.01131384954374,653.5572422,mp-1226312,Cs2LiV3F12,https://materialsproject.org/materials/mp-1226312,-23.112431598454943,-51.375136870394925,7.65833480313083,2.8690188666236516
-7.386533709166668,-265.91521353,8.607554818316284,-3.237155754027779,2.999999975,0.07235398198823309,1.9953000000000003,62,36,483.21036473173444,2504.7647800000004,mp-17736,BaLu2CoO5,https://materialsproject.org/materials/mp-17736,-31.588531362556573,-28.411215140287677,8.55133647738662,-4.891266277911668
-5.967462979,-59.67462979,3.207330357465622,-2.480301574152,5.00000015,0.3444506310163893,1.9232,12,10,169.1688746191776,326.7496,mp-549711,CaFeClO2,https://materialsproject.org/materials/mp-549711,-21.930457806876007,-32.912304543802115,5.893706993341103,-5.140516878459664
-5.7439327175,-22.97573087,2.0197541883509227,-1.36502349447,0.0,0.0,2.4174,8,4,69.9680105467362,85.10379999999998,mp-546787,KNO2,https://materialsproject.org/materials/mp-546787,-1.2263485353224843,-24.117381709896613,9.939717791388807,0.3797540107331746
-6.302906315714287,-88.24068842,4.1931977834215735,-2.042178425,1.9999997,0.16297447981313565,2.5579,74,14,143.01702987869476,361.147,mp-756943,LiVNiO4,https://materialsproject.org/materials/mp-756943,-8.184562881748315,-37.644208705124996,8.601710590310269,-1.208637667534478
-5.916234345,-47.32987476,3.2025520525618125,-1.3675432645312506,5.0,0.4585507158814041,0.0,12,8,127.07498177337713,245.0796,mp-1222735,Li2VCrS4,https://materialsproject.org/materials/mp-1222735,17.57894113306016,7.4492829106375025,-6.532386012973441,-3.1953133720693816
-5.691066532000001,-227.64266128,8.39826831553932,-0.4792051264999998,2.52625e-05,3.094643812471947e-07,0.0,223,40,951.3560498635193,4811.536,mp-1198161,NdSn3Ru,https://materialsproject.org/materials/mp-1198161,0.4456271629096814,50.07376470191009,-8.604250342815693,-0.5045126942092143
-4.3288577083333335,-25.97314625,7.2038838415954585,-0.4073035247222225,8.669999999999999e-05,5.996753027788488e-06,0.0,164,6,168.49241766315473,730.96734,mp-1223033,LaAgSn,https://materialsproject.org/materials/mp-1223033,1.909824040082478,47.866332224235535,-8.604250342815693,-0.5045126942092143
-4.881817987142857,-34.17272591,3.0026560302240157,-1.757294961607143,5e-07,3.220986187780483e-08,1.0795,65,7,180.9083320004901,327.126,mp-866818,Ca2SnS4,https://materialsproject.org/materials/mp-866818,42.72952866190191,0.7267935707418618,6.4338578475310815,-4.656361511220219
-5.4022255575,-64.82670669,4.465388978053289,-1.3450373718229165,8.00000045,0.33587045470648785,1.7106,59,12,277.5847715044813,746.4588,mp-1095252,SrFe2Se2O,https://materialsproject.org/materials/mp-1095252,23.81492722779179,7.039557429820562,-8.604250342815693,-0.5045126942092143
-6.440434692999999,-64.40434693,6.049630870144952,-1.95733991525,4.00000005,0.3815516808319507,0.7227999999999994,2,10,122.17547979686009,445.1064,mp-1178212,FeSnO3,https://materialsproject.org/materials/mp-1178212,-24.927131503628164,-39.164271526069534,7.398265058718545,-1.4654213289190423
-4.464867267625,-357.18938141,3.7034000480473863,-2.0805282974171253,0.0,0.0,2.0234,2,80,1479.1017267480347,3298.7513536,mp-560703,Te3As2S(OF6)2,https://materialsproject.org/materials/mp-560703,47.123109139678476,-18.707357547048424,9.42350349912768,0.464967908121369
-4.790222936785715,-134.12624223,2.5660112099239822,-1.1982542209598221,4.9999982,0.09951042508633988,1.4474,9,28,585.5698318535356,904.87409,mp-1192995,Li4MnGe2S7,https://materialsproject.org/materials/mp-1192995,24.383845452692288,0.013036564359672024,7.383783723776183,-5.341226966523536
-5.39521431763158,-205.01814407,1.5161068923676881,-0.6959487681573686,1.9200593999999997,0.04957127394134605,0.3083,4,38,451.4004752276191,412.13808,mp-625347,H6N4O9,https://materialsproject.org/materials/mp-625347,-5.660602909276079,-20.88945041481504,6.682507493278344,-2.669093133331929
-4.517871190999999,-45.17871191,6.374422001327705,-1.6139390611519993,0.0,0.0,2.8418,11,10,202.58756445809198,777.6864,mp-550553,CdBiClO2,https://materialsproject.org/materials/mp-550553,8.937970208544536,-23.111350496839474,7.788721290337065,-1.1225298229274363
-6.8328754625,-54.663003700000004,5.226429602098265,-1.817231149375,1.0000002000000001,0.12475157022479375,0.9692999999999996,12,8,93.41819972584568,294.0272,mp-1216431,VCr(CuO2)2,https://materialsproject.org/materials/mp-1216431,-27.04396554070356,-30.926957570080376,7.338472708300324,-2.6534885157852126
-3.6877771845,-147.51108738,5.551072951610278,-0.7667098730999996,0.9827234,0.009095569755859723,0.0,62,40,1259.1539028912173,4209.2688,mp-680045,K2CeAg3Te4,https://materialsproject.org/materials/mp-680045,55.59085511929408,19.366666338172916,-11.32649532788612,-0.3029057092528725
-4.739901525,-9.47980305,3.667034787982558,0.27636875142857154,7e-07,1.7386972399907714e-07,0.0945999999999998,216,2,46.91929769690716,103.613762,mp-8373,GeP,https://materialsproject.org/materials/mp-8373,39.49159123571589,11.989186067901294,3.3436339203362397,-5.230759356303088
-6.432226891120689,-746.13831937,4.954597036301756,-1.4183310293642242,41.76505845,0.1659785023127186,0.0,19,116,2932.5044486122233,8749.796,mp-1198785,Eu6Sb6S17,https://materialsproject.org/materials/mp-1198785,-15.123305353310439,12.51114627957089,-5.45973351984411,-3.4584054376571363
-5.5561225094230755,-288.91837049,5.058082058423258,-1.2634967548076923,10.994302025,0.17423600195025796,0.0,186,52,735.3721762108219,2239.97914,mp-1202680,Co3(TeO4)2,https://materialsproject.org/materials/mp-1202680,-10.875288813211577,-36.58936644368652,-6.323428809096562,-3.279691324007445
-2.76458357125,-22.11666857,4.242824940901632,-0.3563778601666669,0.0,0.0,0.6757999999999997,63,8,215.732402811669,551.2154771200002,mp-7392,Na2AgSb,https://materialsproject.org/materials/mp-7392,34.53585990795239,19.507699658468443,5.721353701666391,-6.346631729264296
-3.2503439414285715,-22.75240759,3.1406493131972923,-1.3161002398942858,0.0,0.0,1.4309,38,7,243.09791400951062,459.7816,mp-1223861,K2PdBr3Cl,https://materialsproject.org/materials/mp-1223861,9.782223769568226,-8.590114227800674,8.411313307597242,-5.490484429788535
-4.972728146428572,-139.2363881,4.42043690496061,-0.5764710556017992,0.0,0.0,0.9316,7,28,820.3110989500196,2183.7086440000003,mp-1192452,RbNb2PSe10,https://materialsproject.org/materials/mp-1192452,64.91770563306245,14.080884222068518,7.122301785136343,-6.134984588455034
-3.3114686422222217,-119.21287112,2.8870506872325485,-0.4158186391666669,7.5e-08,1.03293573147601e-09,0.7408999999999999,14,36,846.1851316664197,1471.1965856,mp-18139,Na5SiAs3,https://materialsproject.org/materials/mp-18139,35.43211411660437,18.867489598590762,5.7685726121513765,-5.688552475105768
-5.361577019166667,-386.03354538,4.772715220769803,-1.5187803564311122,10.000000300000002,0.09330995365469363,1.9088000000000005,14,72,1248.9626953742913,3589.764,mp-1213361,Fe2Te4BrClO10,https://materialsproject.org/materials/mp-1213361,-18.717651655352643,-37.473539651391384,7.2493652649070786,0.24427556813080736
-9.6680485515,-193.36097103,5.602060619318169,-1.0381326039279997,0.000228875,8.306922688249935e-06,1.2406,2,20,321.0965329667152,1083.264048,mp-1246967,ScWN3,https://materialsproject.org/materials/mp-1246967,35.69655000766669,-9.868792132300824,7.87790713623813,-4.3434371072014955
-8.492672320833334,-101.91206785,7.221044449366588,-2.744680858333333,4.9999991999999995,0.4212153678052306,1.8928,109,12,138.33852939214398,601.58096,mp-761390,TaFeO4,https://materialsproject.org/materials/mp-761390,-3.764964474624675,-38.64670538599113,7.954990541990721,-0.5343625460285667
-5.813544402978724,-273.23658694,5.530713629210408,-1.5732200963962766,12.9999995,0.12157769317223364,0.0,1,47,1246.1400793451178,4150.4859294,mp-1224120,La12Mn3(AlSe7)4,https://materialsproject.org/materials/mp-1224120,46.82719590819704,1.1888671569127354,2.6225818680927646,-2.399958140483256
-6.712977707916667,-161.11146499,3.8345793736153286,-1.9613704936197918,3.00000025,0.07310650756602965,0.6484000000000005,173,24,478.2364579462024,1104.361664,mp-1191316,Y3BeCrS7,https://materialsproject.org/materials/mp-1191316,27.83192540778896,3.4263216633122484,-5.957179592619092,-2.1178397318985187
-7.12274422,-85.47293064,4.358391522730631,-2.774687331646667,1.99999995,0.1779642397280285,1.5286000000000004,70,12,130.9708568307683,343.7572128,mp-760321,VOF,https://materialsproject.org/materials/mp-760321,-19.484902866236343,-47.96135491990772,5.756356886135746,0.018543450771463618
-2.7685126809090908,-152.26819745,7.33323342031162,0.17424873121212114,0.0,0.0,0.0,191,55,1432.7749483040454,6327.3870000000015,mp-28228,Ag7Te4,https://materialsproject.org/materials/mp-28228,52.56491983918457,19.672042217128197,-8.604250342815693,-0.5045126942092143
-6.6267633539999995,-198.80290062,2.42824759422161,-1.9974401285000007,9.000000300000002,0.2695295455805603,2.0556,7,30,389.14689750740837,569.0592,mp-765004,Li3Fe2(CO4)2,https://materialsproject.org/materials/mp-765004,-20.74683709693805,-79.85058193642452,7.315997587202738,-0.3108107211400547
-6.53068868625,-208.98203796,2.678985423505268,-2.3898182452083345,4.99999985,0.16260498585468888,2.395,14,32,358.3550763121233,578.1424000000002,mp-771016,Li2FeBO4,https://materialsproject.org/materials/mp-771016,-26.83105283987115,-72.8676991627034,9.296605085369244,1.6905569453072076
-6.708090715,-67.08090715,6.161325738383371,-1.9569488336875005,3.06731725,0.18178222482649425,0.0,12,10,196.64581585800727,729.6419399999999,mp-1205855,LaCrSe2O,https://materialsproject.org/materials/mp-1205855,20.24935094658085,2.5768148571957328,-8.604250342815693,-0.5045126942092143
-4.276899175555555,-38.49209258,3.698709833225904,-1.8020644991081989,2.0,0.0783806136231237,0.0,225,9,297.3711032321272,662.3689038,mp-30234,Cs2WCl6,https://materialsproject.org/materials/mp-30234,13.12120422301317,-7.380140014893707,-8.13928533232353,2.22414201456892
-5.6928122275,-22.77124891,5.438374354928434,-1.5749059093749995,0.0,0.0,1.4316000000000004,31,4,82.26363363612899,269.4188,mp-545552,SnO,https://materialsproject.org/materials/mp-545552,13.565579813272686,-27.354738054324784,4.284111828629507,0.5504626654431011
-4.824120249166667,-57.88944299,9.057991577215212,0.0005322958333338809,1.49e-05,6.543292611321758e-07,0.0,124,12,265.379489235562,1447.6053379999996,mp-1213732,CrSn4Au,https://materialsproject.org/materials/mp-1213732,33.52370831753891,35.28755119200938,-8.604250342815693,-0.5045126942092143
-4.7696759,-38.1574072,7.09688155018031,-1.1732423547135418,2.5e-07,1.4454809113348437e-08,0.4780000000000002,109,8,201.5603367912626,861.43704,mp-1079429,HoAgSe2,https://materialsproject.org/materials/mp-1079429,52.409556784948556,12.292940226438985,5.068945684397167,-5.794068187158928
-6.445216053846153,-83.7878087,3.276632838763987,-1.3656418659615388,5.941572799999999,0.27306842384615465,0.0,166,13,253.57554449829132,500.36400000000003,mvc-11740,Ca(VS2)4,https://materialsproject.org/materials/mvc-11740,20.830930543615207,13.52159121933632,-8.604250342815693,-0.5045126942092143
-8.488449675,-50.93069805,7.229001510707562,-2.7404582125,4.9999997,0.8433591168272205,1.6284999999999998,65,6,69.09312913554109,300.79048,mp-1173115,TaFeO4,https://materialsproject.org/materials/mp-1173115,-3.737954755947048,-38.60777159759349,7.911617288570168,-0.4342681724022072
-3.632712451363637,-79.91967393,3.0484826285244324,-1.5077419760909092,4.9999987,0.07743329964080473,2.3229,167,22,752.5226095596704,1381.51049,mp-29637,K4MnBr6,https://materialsproject.org/materials/mp-29637,17.321105306892413,-8.297979478072753,8.737090773432719,-0.6875415414733442
-7.4768091205,-149.53618241,5.570264288187542,-2.849273249208334,0.0,0.0,2.3305,38,20,257.41893796631496,863.50966928,mp-1223389,KNaTi4(BiO6)2,https://materialsproject.org/materials/mp-1223389,6.982688689617145,-40.00245035410297,7.890654955722929,0.02787969989625966
-6.635813794166666,-79.62976553,9.827929169923783,-0.6067734175,6.91271945,0.2091518640877003,0.0,141,12,385.18078993096015,2279.6992,mp-1102891,EuBi2,https://materialsproject.org/materials/mp-1102891,-3.5005777915319207,36.90542572059892,-8.604250342815693,-0.5045126942092143
-4.258888683846154,-55.36555289,4.219651262735578,-0.7704761859999999,6.9999999000000015,0.1945227400935439,0.4510000000000001,5,13,419.3774578914587,1065.69407712,mp-1221196,Na4Eu(SiTe3)2,https://materialsproject.org/materials/mp-1221196,-8.934112221210757,13.078339787416894,5.038331371223354,-6.2450617220486135
-3.887468558,-38.87468558,2.691056629961328,-1.864116116856,0.9999998999999999,0.040848048115812115,0.2587999999999999,225,10,285.30282705581664,462.35953856,mp-1111509,Na2CeCuCl6,https://materialsproject.org/materials/mp-1111509,12.539951158487144,-11.690705498595646,5.314284276037396,-1.0677084984856289
-5.9857901627777785,-107.74422293,7.397931152622273,-0.9269407330555564,0.0019346,4.490490708022374e-05,0.0,193,18,502.0821815467756,2236.84558,mp-1211294,La3NbSb5,https://materialsproject.org/materials/mp-1211294,1.168748807574733,33.75781185687992,-8.604250342815693,-0.5045126942092143
-3.837304394,-38.37304394,2.6301844954392437,-1.914725122606,0.0,0.0,1.2645,225,10,291.1415276376998,461.14900856,mp-1110995,Na2LaCuCl6,https://materialsproject.org/materials/mp-1110995,12.562239098103756,-11.673565972850847,6.144015073488923,-0.5159217987618592
-8.493682061388887,-305.77255421,7.2375283261913514,-2.7456905988888884,4.999999866666667,0.1407256518900283,1.8691,109,36,414.0703668898914,1804.74288,mp-867639,TaFeO4,https://materialsproject.org/materials/mp-867639,-3.7583483945779297,-38.63934136896829,7.997976165496263,-0.4862664733310264
-6.638363851458332,-318.64146487,4.280194690096945,-2.2692968497916666,0.999999975,0.016111884009337003,2.4743000000000004,14,48,723.3210265450286,1864.4276,mp-557424,BaV(AsO4)2,https://materialsproject.org/materials/mp-557424,-13.741814271924298,-44.097895864822185,9.706008313828507,1.3590893073178547
-4.404657217,-132.13971651,2.9370774327970546,-1.0555631559252878,4.9997733,0.06415865490144927,1.0593999999999997,2,30,908.1811639570133,1606.34489,mp-1219636,Rb4Mn(AsS4)2,https://materialsproject.org/materials/mp-1219636,65.47870697229942,4.209846442880433,7.303122606665598,-6.296540810429003
-3.224514952,-32.24514952,3.150548175558359,-1.4047703403560001,0.0,0.0,0.9423000000000004,225,10,279.98876379825776,531.2239385600002,mp-1111510,Na2CuBiCl6,https://materialsproject.org/materials/mp-1111510,4.853159878487404,-7.33185203148135,8.507309966436932,-4.840990496731792
-3.869412595833333,-46.43295115,7.437167080819473,-0.2954153290104167,0.0002914,8.31861959655577e-06,0.09879999999999978,164,12,408.2401455320745,1828.4124,mp-1103410,Bi3Te2S,https://materialsproject.org/materials/mp-1103410,66.73839932888636,23.895634005302963,3.801356092646927,-5.778644291825497
-6.948522071071428,-194.55861799,2.8803650600450523,-1.2204134614100002,3.9999997000000005,0.15686117010247408,1.8788,14,28,297.1816132926072,515.49016,mp-600152,FeHC2O3,https://materialsproject.org/materials/mp-600152,-1.2909718575208076,-96.42472641642958,8.402571497935366,-1.484470670735614
-3.4360670650000005,-68.72134129999999,3.3302348911674664,-1.4690500781973796,0.0,0.0,1.4655,72,20,689.4679164204172,1382.7378076,mp-29882,CsPdCl3,https://materialsproject.org/materials/mp-29882,61.51593136835103,-4.517515653578158,9.27848965065006,-4.339742445503969
-5.852620886428572,-163.87338482,8.924772634089488,-0.6146510507142864,0.76947745,0.014680522634386656,0.0,62,28,610.8461031434335,3283.0679999999998,mp-1193462,Ce(Sn2Rh)2,https://materialsproject.org/materials/mp-1193462,2.2247994776330935,49.840751155372416,-8.604250342815693,-0.5045126942092143
-6.88227153,-55.05817224,3.868460376061485,-2.4427694368750004,2.00000015,0.30206275367234303,1.7012000000000005,186,8,77.1632086705803,179.7626,mp-1176519,LiVO2,https://materialsproject.org/materials/mp-1176519,-29.595025666213736,-50.85026889904998,6.536567555573076,1.3769902735666706
-7.333750823541667,-704.04007906,5.765944399694737,-2.7226205936979166,4.1675e-05,3.091876699005368e-07,0.7652999999999999,62,96,1570.8360865511413,5454.46588,mp-1209401,Sr5Re3IO15,https://materialsproject.org/materials/mp-1209401,-3.7617313875695824,-42.856102310770005,6.80761587850959,-3.80465997954644
-6.959096556666666,-20.87728967,5.691624633837278,-0.2535454066666662,0.0205236,0.0052137755612687705,0.0,225,3,45.875270416876354,157.241,mp-12874,Si2Ru,https://materialsproject.org/materials/mp-12874,34.491179015094296,49.432382530620316,-6.997130590174468,-3.432556350858115
-6.31651673421875,-404.25707099,4.885424966764736,-1.876920640781249,100.9999986,1.8629430385560928,1.0953000000000004,5,64,631.8285107767653,1858.8848,mp-772996,Li9Fe23O32,https://materialsproject.org/materials/mp-772996,-26.067174591786102,-40.20025017386133,5.574839277573485,-4.016279894449886
-5.349115647261905,-449.32571437,7.794187050357808,-0.15897140416666727,0.313907925,0.001910859321085805,0.0,148,84,1914.4806999664715,8986.1306,mp-685871,Pr(FeSb3)5,https://materialsproject.org/materials/mp-685871,43.956744055050585,23.512237358923176,-8.604250342815693,-0.5045126942092143
-7.046747868999999,-140.93495738,2.4805180743676822,-1.902323686,5.0000004,0.2380814489832828,2.2938,9,20,244.74955429440413,365.6076,mp-753230,LiFe(CO3)2,https://materialsproject.org/materials/mp-753230,-16.868736058730853,-70.60793595324185,8.359949175163235,-0.1376416017424968
-5.14279272125,-41.14234177,4.336961131309197,-0.7396795476562499,4.9869881,0.35383017002931205,0.0,121,8,164.25586979360668,429.000045,mp-19722,MnCu2SnS4,https://materialsproject.org/materials/mp-19722,31.719683600517047,1.4404130669627633,-8.604250342815693,-0.5045126942092143
-8.401170449375,-134.41872719,5.2834479352123065,-3.335875988281249,2.9999999,0.17372285753640193,0.0,119,16,201.25269436663865,640.3391349999999,mp-1223091,La2Ti3CoO10,https://materialsproject.org/materials/mp-1223091,6.6187096843563165,-41.07685878517413,-5.323101382379255,-3.559337113726598
-5.24859488,-20.99437952,10.159835165076172,-0.8146931483333333,1.59e-05,2.3299944106490186e-06,0.0,225,4,79.52792892412306,486.58335,mp-864808,TbInPd2,https://materialsproject.org/materials/mp-864808,30.6020439100083,40.755869493721924,-8.604250342815693,-0.5045126942092143
-4.645060972142857,-65.03085361,7.046432578708389,-0.7348011229687492,0.0,0.0,0.9036999999999996,148,14,278.0833882561061,1180.036,mp-1225403,Dy(CuSe)3,https://materialsproject.org/materials/mp-1225403,46.82179834634805,-5.9584832612819945,6.979837079011466,-5.059152152036197
-7.5730209010714296,-212.04458523,8.837256100933931,-0.4153875230357145,0.9976665000000001,0.0191746045122496,0.0,1,28,606.3681785449685,3227.043,mp-1219580,Re9Mo3Se16,https://materialsproject.org/materials/mp-1219580,74.70455095288791,28.200426134941804,5.594284606059501,-5.516721444956842
-5.650897031666666,-271.24305752,7.258241069704705,-0.5847881516666664,0.0,0.0,0.06320000000000013,62,48,1057.0155876112792,4620.231,mp-21981,YNiSn2,https://materialsproject.org/materials/mp-21981,2.2463488502527413,55.01731962386342,-8.604250342815693,-0.5045126942092143
-5.188244765178572,-290.54170685,6.560278140638152,-1.0716766347321436,5e-08,3.347973751376829e-10,0.22750000000000006,176,56,1740.4653736856576,6876.04246,mp-567777,La9Sb16Br3,https://materialsproject.org/materials/mp-567777,2.9928739443472496,32.77131451686398,-8.604250342815693,-0.5045126942092143