energy_per_atom,energy,density,formation_energy_per_atom,total_magnetization_uB,total_magnetization_T,band_gap,sgr,num_sites,cell_volume,weight,mp_id,formula,URL,tsne_xrd_lin1_0,tsne_xrd_lin1_1,tsne_xrd_lin2_0,tsne_xrd_lin2_1
-6.599222422307693,-85.78989149,6.685389000293559,-2.102393533846154,1.9999999,0.16513726612239207,3.3662,2,13,141.14396421240258,568.2506,mp-558765,Li2Ni(WO4)2,https://materialsproject.org/materials/mp-558765,29.397571713249175,11.705717758895496,49.641329487105416,24.503337578798966
-6.542125925535713,-732.71810366,6.623483058200487,-2.493849503303572,0.0,0.0,3.2107,14,112,1708.3920045480936,6814.3568,mp-558224,Dy2(TeO3)3,https://materialsproject.org/materials/mp-558224,11.083732798300874,23.669407033514663,34.08695639456789,-1.1626183732289974
-6.57197831125,-52.57582649,7.713148058490665,-1.2174583030949997,1.65e-06,8.846929013056665e-08,0.0,129,8,217.3545966780589,1009.6048,mp-1078335,Pr2BiN,https://materialsproject.org/materials/mp-1078335,-3.936614935907077,19.31312957099476,-24.26912941074475,35.50266805910324
-4.9408262425,-19.76330497,8.665113521702432,-0.3831261025000003,2.7300000000000003e-05,7.64435214033668e-06,0.0,225,4,41.619742582511,217.182364,mp-862377,LiBe2Ir,https://materialsproject.org/materials/mp-862377,30.18885131618299,64.08003831068261,-14.044554554322266,34.06316025649765
-9.570048094,-95.70048094,6.9999680181452755,-1.2213212509279998,0.0,0.0,1.7100999999999995,11,10,173.06006766394972,729.53114,mp-989646,LaWN3,https://materialsproject.org/materials/mp-989646,4.515766903189942,17.204218198445787,2.9481485763672115,37.2042985469695
-2.6948112889999996,-26.94811289,4.459439398370641,-0.9927924992413792,0.0,0.0,1.5910999999999995,225,10,468.6595116580909,1258.6025624000001,mp-1112111,Cs2AlTlI6,https://materialsproject.org/materials/mp-1112111,-22.930309002326933,-44.682758740933636,-23.42143167100134,-23.635527093672838
-4.9302480559210515,-374.69885225,2.9670691995764016,-3.1933309280410533,0.0,0.0,5.6758000000000015,198,76,1038.79373762483,1856.1279376,mp-6372,K2Be3Zn2F12,https://materialsproject.org/materials/mp-6372,18.483307358739182,-0.4193260032479323,54.34629111113885,-1.5648963424250817
-7.600369995357143,-425.62071974,6.809524424979613,-2.906727453928572,0.0,0.0,1.9563,12,56,858.1163117149167,3518.9561,mp-1228593,Ba6Y(ReO6)3,https://materialsproject.org/materials/mp-1228593,-16.746747219756738,18.27402133528632,-15.29905928349084,46.6976273006686
-7.210624416428572,-100.94874183,7.412436622746926,-2.8831063757142865,1.9275349,0.12122150999651105,0.0,38,14,185.31048307033882,827.2026,mp-1220220,Nd4CuNiO8,https://materialsproject.org/materials/mp-1220220,-23.27170705068612,40.194800629818005,-13.868787439149944,59.617397488726034
-9.717433988333333,-116.60920786,9.394174258704846,-4.011430033749999,1.9999736000000001,0.14311946992020794,0.0,99,12,162.85570293688187,921.3242300000001,mp-1217355,Th2ZrUO8,https://materialsproject.org/materials/mp-1217355,26.305229501095834,64.80579575095075,-11.28111961087718,36.086857705145675
-4.832592346666667,-28.99555408,6.169937067411751,-2.496224337336667,0.9999998999999999,0.09644448299465468,0.0,166,6,120.83701675086098,448.9848,mp-546292,YbClO,https://materialsproject.org/materials/mp-546292,-12.815122276146258,25.313112089279784,-20.35106190398734,42.73389651586653
-7.334933523333333,-44.00960114,3.9395892761362985,-1.5087287496822224,0.0,0.0,0.5597000000000001,59,6,119.51875657571104,283.5554,mp-27849,TiBrN,https://materialsproject.org/materials/mp-27849,-0.9342337917762882,-21.93078170339132,-3.23161031504123,-20.32327516648679
-5.679208056666668,-34.07524834,7.2701706515372875,-0.2999437838888899,0.0086769,0.0008439998389973961,0.01729999999999876,115,6,119.81181743487889,524.5600000000002,mp-505804,Ti2CuSb3,https://materialsproject.org/materials/mp-505804,-23.544641573502407,41.21612331189178,-12.252953794329493,59.83469868678557
-4.222347153333334,-12.66704146,7.76086708430815,-0.6594131566666667,2.6700000000000002e-05,4.87408080327199e-06,0.0,191,3,63.84045361300913,298.37135,mp-2684,TbGa2,https://materialsproject.org/materials/mp-2684,-55.650997481573974,23.092354466457998,-53.23241645858671,32.139246158563374
-5.537263116956521,-127.35705169,6.288330185462043,-1.775054092500001,0.0,0.0,2.9582999999999995,150,23,348.3732021491661,1319.2618,mp-558298,Zn3TeAs2Pb3O14,https://materialsproject.org/materials/mp-558298,3.833923679623832,17.282299921566032,26.923841832694784,-2.415044195619713
-7.790213842000001,-38.95106921,6.221851979209462,-3.5007258293124988,3e-07,3.715790821940717e-08,2.8889,164,5,94.09085708279646,352.5478,mp-3211,Nd2SO2,https://materialsproject.org/materials/mp-3211,-13.79337931309191,23.26680468649849,-18.096244678367867,39.559758205242936
-9.0253465785,-361.01386314,5.29017693965561,-3.995640816250001,0.0,0.0,4.0304,24,40,613.2386859522306,1953.6675,mp-766292,DyY7O12,https://materialsproject.org/materials/mp-766292,18.289147311701733,59.960162473909136,-5.456081887489043,37.009679470366976
-3.30914988,-6.61829976,4.582805891896667,-0.11514167250000007,2.6e-06,5.061623647755249e-07,0.0,221,2,59.863337374150746,165.21265,mp-1548,PrMg,https://materialsproject.org/materials/mp-1548,-30.191997937259025,53.92488941193822,-56.093200612392906,52.365917456822366
-7.588276636666666,-182.11863928,5.356022699618503,-3.294956917604168,1e-06,3.9117714837567614e-08,4.114299999999999,113,24,297.9229441431338,960.942208,mp-19926,La2Be2GeO7,https://materialsproject.org/materials/mp-19926,-3.3991030318373427,12.638775514986882,-15.243141389764187,44.229879944422386
-6.4938971075,-207.80470744,7.286734580677936,-2.5059821229687493,0.0151974,0.0003777475730188638,0.0,38,32,468.8620036895754,2057.44815,mp-1228600,Ba3La5Tl2(Cu2O9)2,https://materialsproject.org/materials/mp-1228600,-12.570806386807421,33.79448884813655,-13.970337297659247,53.51962377126088
-5.902176955238095,-123.94571606,8.097336115091602,-1.8601206598611115,2e-06,7.492838191651339e-08,1.3518999999999997,160,21,311.07210577548216,1516.8901999999996,mp-1223746,InSb3Pb4O13,https://materialsproject.org/materials/mp-1223746,20.160180359107766,65.09691065976547,-8.248297159388812,39.71784981941969
-6.980563184166668,-83.76675821,3.5634964842305665,-2.231138053850575,2.9999999,0.1486368754184653,3.0192,164,12,235.21883821791653,504.77675189999997,mp-1213686,CsCr(MoO4)2,https://materialsproject.org/materials/mp-1213686,7.4347272428807125,-21.16522709567133,45.29614224081336,-1.22939164345633
-6.709372944,-33.54686472,8.526117183167367,-0.76580491,1.18e-05,1.5996521510109753e-06,0.0,107,5,85.96741749716865,441.40382,mp-1069461,HoSi3Ir,https://materialsproject.org/materials/mp-1069461,-47.24122970225443,29.464055208147865,-26.3796403891729,33.35589637946466
-6.233471093333333,-56.10123984,9.809538648056405,-0.905537741666667,2.243333333333333e-05,1.352845466058755e-06,0.0,189,9,193.2515769836897,1141.62255,mp-1084759,TbSnRh,https://materialsproject.org/materials/mp-1084759,-42.57187878496153,15.135483772696452,-40.61568712464972,18.854489304414233
-8.600140402000001,-172.00280804,6.973280915117722,-3.8977548094375,0.0005347,2.163936091295309e-05,1.3319,160,20,287.96730453151235,1209.2922,mp-753792,Ce5Sm2O13,https://materialsproject.org/materials/mp-753792,26.722004983340835,64.38860240586845,-11.126474159446664,35.894125246181396
-5.300404345,-53.00404345,3.64162512698082,-3.321214882899632,1.0,0.07183542068099008,0.0,225,10,162.23284644372836,355.78278848,mp-15626,Rb2NaTiF6,https://materialsproject.org/materials/mp-15626,-23.072102996318268,8.825839671200868,-29.228002216232,-9.047190881183807
-4.03387933,-16.13551732,7.13753100901033,-0.5568018175000002,4e-07,4.9812599240997356e-08,0.0,63,4,93.58326969589676,402.251,mp-10651,YbSi,https://materialsproject.org/materials/mp-10651,-6.028612845867632,19.533858612476756,4.020051085667608,23.388580769967646
-7.172646794583333,-172.14352307,7.963442789376176,-2.9128341604166663,4.75e-07,1.839869665820632e-08,2.3400000000000003,14,24,300.8735276091847,1442.8984,mp-1237257,LuSbO4,https://materialsproject.org/materials/mp-1237257,16.142560445173938,57.263850083357504,-0.5890970970815167,36.61051923851849
-6.7761496121875,-216.83678759,5.700542044797869,-1.9210580483129167,1.000000975,0.032826544420031384,0.8729000000000005,55,32,355.0198883608751,1218.76436,mp-774229,Mn2InO5,https://materialsproject.org/materials/mp-774229,-2.1277783298988804,27.44898360520235,1.6114805758506336,49.99197340907505
-4.225005696428572,-118.30015949999999,5.0429655018509925,-1.6368236861720038,0.0,0.0,2.1175,14,28,739.6019113187074,2246.1302228,mp-28381,Cs3InO3,https://materialsproject.org/materials/mp-28381,9.454244389765844,26.857016796222695,29.5169803276494,-6.527495823247901
-6.58579663625,-52.68637309,6.8156564142440725,-0.4637811712499991,1.88868835,0.16130254324029233,0.0,63,8,136.45721836691234,560.08651,mp-1025424,TmMnSi2,https://materialsproject.org/materials/mp-1025424,-37.2711562497709,9.03922685345899,-22.93419437945105,22.05313281889489
-5.316627831578948,-101.0159288,7.3715719782469655,-0.2875669010526318,7.6e-05,1.7167870052022297e-06,0.0,204,19,515.9107798641593,2290.2644,mp-1210867,Nd12Ni6Pb,https://materialsproject.org/materials/mp-1210867,-10.376850449616748,21.56404755621931,-11.599418655707538,48.73474213638898
-7.916311664285715,-55.41418165,6.890772742580059,-3.0667139712328577,0.0,0.0,1.6148999999999996,107,7,89.35583657263838,370.8017386,mp-1025277,Pr2AlNO3,https://materialsproject.org/materials/mp-1025277,-6.802523743361711,21.48257676186084,-24.075482270939503,37.8372030696171
-5.021491254,-50.21491254,6.507859646715435,-0.7035329180000005,5.675e-05,3.1229179042316795e-06,0.0,127,10,211.77891834639075,829.9879999999998,mp-1206813,Er2MgSi2,https://materialsproject.org/materials/mp-1206813,-7.795204832632067,25.388892290655516,-5.291069569549904,19.65728559530127
-8.878731596785713,-248.60448471,4.815402945274303,-2.3788686899657145,3.499999925,0.11027974377621888,0.3057999999999996,1,28,369.87051686186464,1072.5888,mp-560341,EuSi2(NO)2,https://materialsproject.org/materials/mp-560341,30.52967784744511,24.50274043627467,31.92417617136059,37.940159828303216
-9.632972644545452,-211.92539818,6.95409688897025,-3.217523618295455,18.0000002,0.6647301529204743,0.017900000000000027,20,22,315.5764294958707,1321.58836,mp-510674,Eu3NbO7,https://materialsproject.org/materials/mp-510674,23.63296065581201,63.55900815330696,-7.7756254439865495,37.57421892769635
-5.8700912677499995,-234.80365071,8.528446026045883,-2.7227070090000005,1.9999999875,0.03797133247243622,0.0,199,40,613.8349086475483,3152.6256,mp-1196954,Yb2O3,https://materialsproject.org/materials/mp-1196954,18.29821136222548,60.1807398782671,-6.0330893889384125,36.45612848297323
-7.6321348817857135,-213.69977669,7.009381410736508,-3.5945702189285713,0.0,0.0,3.1428000000000003,62,28,475.7422141955245,2008.1784,mp-17960,BaSm2O4,https://materialsproject.org/materials/mp-17960,-0.12505775445374698,22.997516163877002,0.5496010918239345,46.09049624384753
-8.0609908128125,-257.95170601,6.055542682197562,-3.384609270859375,2.044289625,0.0407909329951382,0.0021000000000004353,62,32,584.0583177261807,2129.9048000000007,mp-510277,Ce3S2O3,https://materialsproject.org/materials/mp-510277,6.0582920746572695,17.621348627482245,1.025388039839119,25.958986905040142
-5.906575912142857,-82.69206277,5.2653581592410985,-2.031747707500001,0.0,0.0,0.1211000000000002,162,14,249.91232299287051,792.4402,mvc-583,BaCa(SbO2)4,https://materialsproject.org/materials/mvc-583,-18.44595471976585,5.861387868484781,-11.995463572694126,28.470966732429844
-6.074478345555557,-54.67030511,5.577339358031012,-1.2975997378200006,14.879593,0.8146074048253049,0.0,139,9,212.87277722268388,714.986935,mp-18787,Ba2Mn3(SbO)2,https://materialsproject.org/materials/mp-18787,-10.22500544011267,16.92414716853048,-16.602132347158598,17.969426797122704
-7.936493222386362,-698.41140357,5.184194983093731,-2.5030928701136346,2.0000080000000002,0.016303913011619042,0.0,61,88,1429.6091227318786,4463.23288,mp-704511,U(MoO4)2,https://materialsproject.org/materials/mp-704511,33.33630728555635,3.8815090661393654,41.87323528064961,-13.295258062276796
-8.125510806,-81.25510806,6.845515160680972,-3.526538092,0.0,0.0,3.6260000000000003,148,10,167.4977568857416,690.5037500000002,mp-13056,Ba2LaTaO6,https://materialsproject.org/materials/mp-13056,-20.031582676794592,8.629411290557204,-30.554524773714643,46.22755029128008
-3.87825163,-62.05202608,4.836107844875147,-1.5809697971874996,0.0,0.0,1.6794,62,16,559.1803560378437,1628.54136,mp-1182139,BaI2O,https://materialsproject.org/materials/mp-1182139,9.090635707667461,19.88086071730324,23.836064170531078,-6.782699307812387
-3.2997837425,-13.19913497,8.616230715232032,0.025267893333333458,8.909999999999998e-05,8.319910729609446e-06,0.0,129,4,124.80628758907514,647.5968,mp-23313,InBi,https://materialsproject.org/materials/mp-23313,-25.0980495839792,32.33525464558856,-36.92741406761797,35.372177203747775
-7.8336235475,-250.67595352,6.357973753258261,-2.8425877698437496,1.999999975,0.04751538985135025,0.0,62,32,490.53852502707434,1878.204,mp-1210187,Nd2RuO5,https://materialsproject.org/materials/mp-1210187,21.138057517233676,55.970838523324716,-1.5065299307089524,36.16066758078929
-8.340173236666667,-250.2051971,8.32328991852539,-3.969753102916667,0.0,0.0,3.0912,185,30,452.18699652280367,2266.5432,mp-772188,DyErO3,https://materialsproject.org/materials/mp-772188,10.54020983812089,56.533360617711494,-7.732056829777519,42.10450937036576
-4.8772305815,-195.08922326,6.5509480854434194,-1.1471637260833338,0.0,0.0,1.6417999999999997,14,40,574.8261382491414,2267.7312,mp-558637,AgTeO3,https://materialsproject.org/materials/mp-558637,13.264894067806196,35.27527399787526,20.48958983241421,38.71438973470097
-5.8935016009375,-377.18410246,5.7660290767721145,-2.8179971753125,1.410625e-05,1.1634556269832847e-07,2.3017,57,64,1412.9902970530911,4906.4448,mp-1178531,BaO,https://materialsproject.org/materials/mp-1178531,11.51565230573902,23.033940894141928,2.819109807923972,26.627356300924195
-9.152324366,-91.52324366,8.962410249386108,-0.8332913468333345,5e-08,5.180173778289286e-09,0.0,127,10,112.48719899516928,607.126,mp-10136,Ti2ReB2,https://materialsproject.org/materials/mp-10136,-36.616727229560745,-4.466324460942139,-23.02702167094349,9.910585844750695
-5.55003847375,-133.20092337,5.75601381556816,-1.439804480781251,0.0,0.0,1.5894000000000004,62,24,526.0247907249384,1823.3874,mp-542802,YCuPbS3,https://materialsproject.org/materials/mp-542802,8.573634890589556,8.71504587787125,6.8045526072258715,16.751145693032914
-4.789791763999999,-23.94895882,8.248516897943494,-0.40900265799999996,1e-07,1.091199719025342e-08,0.0,65,5,106.80047446281498,530.5178000000002,mp-1206624,Sm2CdNi2,https://materialsproject.org/materials/mp-1206624,-36.50463434066256,20.128141923990274,-34.190290044729124,30.93779120381505
-8.360100971818182,-183.92222138,7.436102634542376,-3.2346638894318187,1.9999999,0.07239076277304203,0.0,63,22,321.97655456108475,1441.8515,mp-11207,Pr3ReO7,https://materialsproject.org/materials/mp-11207,20.400226961958552,55.43863271919197,-1.4919968051760049,37.04395671206448
-7.871451697916666,-377.8296815,3.682514861440648,-2.6315643751373607,14.99999825,0.3668442012792735,3.8383,219,48,476.52641253200807,1056.77467,mp-555775,Mn3B7BrO13,https://materialsproject.org/materials/mp-555775,-26.172453674521947,-43.07795338152153,-32.42021652664988,-13.206723999295706
-7.778490575,-217.7977361,7.494179729398423,-2.8812875591369047,0.0,0.0,2.748800000000001,4,28,378.04997342642713,1706.17756,mp-1219101,SmTiNbBi2O9,https://materialsproject.org/materials/mp-1219101,16.712103674245178,56.42678398021875,-0.145517667013269,38.48958635237542
-8.32672949625,-399.68301582,5.2651202282188345,-3.3003879209374998,0.0,0.0,3.9406,15,48,699.8111300270747,2218.91184,mp-555349,La2CO5,https://materialsproject.org/materials/mp-555349,2.1496587657747863,9.237706390500039,7.830920263622785,24.363068051857525
-5.399578355340909,-475.16289527,5.374214842098154,-1.6647916994545455,0.0,0.0,2.9729,205,88,1357.5620298629685,4393.6516,mp-559730,KGa(Te3O7)2,https://materialsproject.org/materials/mp-559730,28.35872287389911,62.333457372664135,-8.343612701840001,32.84524937661997
-6.031262878333332,-72.37515454,5.524032147200908,-2.0335179260416667,0.0069682,0.0004154913789935855,0.0,115,12,195.4501543325744,650.19425,mp-1228465,Ba2Y(CuO2)3,https://materialsproject.org/materials/mp-1228465,-19.11582205650057,37.99285963809223,-13.681015721706064,54.83378982357347
-6.86612021234375,-439.43169359,4.983663330798407,-2.40216442445875,4.99997086875,0.04873772583864383,0.6364999999999998,62,64,1195.5827516088607,3588.22152,mp-1199857,BaMnO2,https://materialsproject.org/materials/mp-1199857,1.6920738928046666,30.95628894347405,18.764537456565574,28.75797853116884
-7.078407297999999,-70.78407298,12.608027824737468,-0.7582851220000002,6e-07,3.8548272019262736e-08,0.0,129,10,181.39435303459683,1377.2787,mp-1080531,Tb(GeIr)2,https://materialsproject.org/materials/mp-1080531,-49.34434037154297,29.83597965364188,-27.150924254178953,34.45298377813364
-3.659020584,-36.59020584,3.4149597837150867,-1.7797409943620692,0.0,0.0,3.3137,225,10,448.8595729600625,923.0962677000001,mp-1112649,Cs3ScBr6,https://materialsproject.org/materials/mp-1112649,-22.524169001299466,-41.57135135942913,-22.614642391768893,-22.077213663216853
-4.771670043,-47.71670043,4.708149665853205,-0.48403303195200004,1.665e-05,7.048201449704955e-07,0.0,59,10,275.3045295991669,780.5748,mp-1245616,Ba2SrN2,https://materialsproject.org/materials/mp-1245616,4.149837294748006,-5.767008929057393,11.1413975086665,-10.597128886347184
-7.5281141167708325,-722.69895521,4.038722776575508,-2.5117543047048607,12.000000875,0.1470903510389132,3.2665,29,96,950.7679224385396,2312.4346800000003,mp-561135,Fe3B7IO13,https://materialsproject.org/materials/mp-561135,-14.275443834086895,17.87904010433366,-32.186614525175635,-13.396757474254933
-2.641455284,-13.20727642,4.806819131849304,-0.9192336905747126,9.000000000000001e-07,6.318997798962972e-08,0.0,6,5,165.98610458489236,480.48565189999994,mp-998344,CsAgBr3,https://materialsproject.org/materials/mp-998344,-5.339639026367759,-6.1828208915680944,-0.9313679416616784,14.870310785482662
-4.820693526666667,-86.77248348,5.5125889354640645,-1.6245944354224544,0.00026945,5.5768824697006485e-06,1.0684,36,18,563.072248702915,1869.264,mp-1188304,Ba2SmInSe5,https://materialsproject.org/materials/mp-1188304,2.8530027994845786,29.93792166524803,-0.9051887624306396,25.313266899818412
-7.6026935505263165,-288.90235492,6.7781009511777235,-3.2336915344102626,19.999998,0.3890829867814124,1.9979,87,38,599.0528500646311,2445.2545800000003,mp-19471,Ba5Sm8Mn4O21,https://materialsproject.org/materials/mp-19471,-7.076957466201997,34.85959705180412,-2.270085466218028,49.79921834241258
-3.817763705,-15.27105482,4.984018764116879,-0.06072894500000015,7.1565244,0.6700188489120965,0.0,225,4,124.47798899900194,373.614,mp-1187643,YbEuMg2,https://materialsproject.org/materials/mp-1187643,-33.63774142902988,47.65221800985688,-55.640867998686886,52.7518292210497
-3.68040736,-22.08244416,3.252074683300266,-1.39005861454,4e-07,3.77285037264705e-08,4.1139,129,6,123.55713714014207,241.97988,mp-24422,CaHBr,https://materialsproject.org/materials/mp-24422,-28.98992694174396,56.241921569171716,-3.1408156509867613,20.48078726917011
-5.354471452222223,-48.19024307,7.778980622945509,-1.0888075236111117,0.9999993,0.09529698961854596,0.0008999999999996787,99,9,122.29197020140008,572.890395,mvc-15141,Co(BiO3)2,https://materialsproject.org/materials/mvc-15141,-2.24361354924174,12.122619826337562,3.5111197252750954,47.68821550550523
-6.496084385277778,-233.85903787,3.834368665851908,-2.0081406524108,0.0,0.0,2.3071,173,36,550.5519667021763,1271.2855037999998,mp-18545,CsV3(SeO6)2,https://materialsproject.org/materials/mp-18545,7.668385556254326,16.215122807278522,50.75105038953916,7.409792103189499