energy_per_atom,energy,density,formation_energy_per_atom,total_magnetization_uB,total_magnetization_T,band_gap,sgr,num_sites,cell_volume,weight,mp_id,formula,URL,tsne_xrd_lin1_0,tsne_xrd_lin1_1,tsne_xrd_lin2_0,tsne_xrd_lin2_1
-8.182470991428572,-171.83189082,7.454708442469273,-0.7093436045238093,16.4334615,0.7129592149123776,0.0,174,21,268.62213258847254,1205.933514,mp-1192228,Ho2Mn12P7,https://materialsproject.org/materials/mp-1192228,-62.97100468614718,-29.54235858366414,-65.29565337833544,-17.543369237290786
-6.180179175499999,-123.60358351,6.121558849888323,0.050371435547999256,6.585e-05,3.7842362952653273e-06,0.0,59,20,202.793933939384,747.5975999999998,mp-1246916,MgNi5N4,https://materialsproject.org/materials/mp-1246916,-51.809842194559394,-6.627762080719083,-58.95883784817524,0.11440434849008843
-5.066014593043478,-116.51833564,9.107177243719855,-0.7322375713043484,1.7899999999999998e-05,4.271352516771857e-07,0.0,229,23,488.3880658636837,2678.5499,mp-569508,Pr6Cd4Pd13,https://materialsproject.org/materials/mp-569508,-72.86220511604127,-0.8605043310804429,-56.67285038029896,-32.783968733031934
-7.100804205,-71.00804205,7.956537193797032,-0.5686133400000003,0.0,0.0,0.0,127,10,174.70162294492286,837.0895999999998,mp-20146,Zr2Ni2Sn,https://materialsproject.org/materials/mp-20146,-54.72334624436305,-8.769342417356526,-59.533572974673355,0.39935744070838
-10.8125217975,-216.25043595,17.526481574393333,-0.2386214448749996,0.3937556,0.0190868685304781,0.0,156,20,240.41938883953537,2537.5531,mp-1226393,CrRe13B6,https://materialsproject.org/materials/mp-1226393,-61.03714350100735,-22.349147828588038,-59.660007823351215,-9.769979765187044
-8.788646624444445,-316.39127848,7.900099278985469,-0.7206526307142853,5.07947855,0.13299617025683688,0.0,62,36,445.0998244401289,2117.585144,mp-652036,GdFe5P3,https://materialsproject.org/materials/mp-652036,-64.49629145036722,-28.99674243437073,-64.99116931528864,-15.470311025438807
-9.58833654625,-76.70669237,15.982427970022574,0.4410276849999999,5.3e-06,4.5064966470496856e-07,0.0,194,8,137.06111006429728,1319.1917,mp-1187883,YOs3,https://materialsproject.org/materials/mp-1187883,-49.72626471921456,-34.44705876395975,-59.50296026766315,-28.30841473063301
-8.85263480625,-70.82107845,7.256852549663742,0.1536826287499995,6.47314725,0.6438096344274872,0.0,194,8,117.17512957211477,512.07627,mp-1188045,ZrMn3,https://materialsproject.org/materials/mp-1188045,-53.90732370185316,-46.15342427223735,-64.46713205021086,-35.312856130630195
-7.427661138421053,-141.12556163,7.5675485238501,-0.11751221631578952,27.725245899999997,1.2397237419178684,0.0,166,19,260.6321074837906,1187.7746158,mp-1106052,Dy2Al3Fe14,https://materialsproject.org/materials/mp-1106052,-53.45882546373368,-23.884962555723646,-56.01288971308068,-11.552022591506601
-7.955076057307693,-827.32790996,5.882738119423747,-0.6603479103846144,6.11944225,0.047710386050116974,0.0,135,104,1494.7767615739835,5295.49744,mp-31310,Zr3(Mn2Si3)2,https://materialsproject.org/materials/mp-31310,-64.29794876915322,-18.7433451190383,-63.15758720756614,-16.413817985415278
-8.209758397631576,-311.97081911,7.3921862627503385,-0.0057386308552637676,79.4245208,1.7793171968146866,0.0,187,38,520.209949968306,2315.80755,mp-1219085,SmY3Fe34,https://materialsproject.org/materials/mp-1219085,-57.220149787154035,-25.529190458145145,-59.938339133258374,-11.936345918972552
-7.591311894545455,-167.00886168,7.762392062244268,-0.07290365663,35.2620779,1.5584838735990003,0.0,166,22,263.68353681623194,1232.62082,mp-1190701,Ce2Fe17H3,https://materialsproject.org/materials/mp-1190701,-52.327555326746854,-23.482926898539507,-56.28920248871338,-11.19879125526449
-9.17262004,-165.10716072,10.82453768543883,-0.9574320083333324,1.4666666666666669e-06,6.036251109467046e-08,0.0,46,18,283.166290187631,1845.8729999999998,mp-1212161,HfSiRu,https://materialsproject.org/materials/mp-1212161,-50.66591571531395,-10.98356062157124,-57.38584225016914,2.322693486520686
-6.7582029875,-162.1968717,6.706943759640692,-0.5567509940277778,1.525e-06,7.112955292508577e-08,0.0,139,24,249.8602626797277,1009.1896,mp-979948,SmNiB4,https://materialsproject.org/materials/mp-979948,-33.549110850171765,-11.706423783005073,-38.9498100275186,-10.929464114244132
-8.602868927000001,-86.02868927,13.493440184935345,-0.2773271829999999,0.0,0.0,0.0,127,10,167.92879625648624,1364.5792800000004,mp-16756,Ta3Ga2,https://materialsproject.org/materials/mp-16756,-54.79520795206121,-9.792244478764651,-57.86557422600605,-9.841596427141932
-4.0283578975,-32.22686318,8.716778552792888,0.07794786000000009,0.0,0.0,0.0,59,8,119.02311659660342,624.7959999999999,mp-20900,Cu3Sb,https://materialsproject.org/materials/mp-20900,-54.16857560894818,-46.89854811555486,-63.29684785044692,-33.27023091904757
-1.18979700625,-9.51837605,5.0033021815496035,0.09942349387500003,7.75e-06,6.207017993540699e-07,0.0,194,8,145.51110063049214,438.43353856,mp-1186211,NaZn3,https://materialsproject.org/materials/mp-1186211,-46.799662761848815,-31.950827889624314,-58.195469783845816,-29.49947360100737
-9.511204948275862,-275.8249435,9.039237627419565,0.11212475206896452,48.0279203,1.3675757953125818,0.0,225,29,409.2793218379544,2227.935,mp-1194558,Gd6Fe23,https://materialsproject.org/materials/mp-1194558,-55.9178128629117,-17.778078517613682,-60.49655410621824,-4.7784053511764855
-6.782787723999999,-67.82787724,7.891004861554308,-0.5021046806666675,5e-08,3.338997195578505e-09,0.0,127,10,174.51444385745498,829.3055999999998,mp-19906,Zr2InNi2,https://materialsproject.org/materials/mp-19906,-54.99447436825899,-9.320257252686156,-57.08063968147329,-18.58452572856768
-7.50497794875,-60.03982359,5.071600998041632,-1.2331660107812503,0.0001381,1.4804542833766031e-05,0.0,62,8,108.71165446728504,332.0259999999999,mp-1868,VS,https://materialsproject.org/materials/mp-1868,-30.03233437784083,-10.338766059827002,-62.398005851745864,-16.039525860170222
-7.197052895,-172.72926948,9.132671910619566,-0.3428456233333333,8.37239915,0.3277707809554028,0.0,141,24,297.6851130885265,1637.2156300000001,mp-17474,ThCo9Si2,https://materialsproject.org/materials/mp-17474,-67.24577317826466,-28.664259211414155,-57.33236289751122,-11.281212290547408
-7.50629369,-142.61958011,7.942112298802299,-0.006873084999999659,30.431805400000002,1.3402749381691457,0.0,166,19,264.6130440684057,1265.605,mp-1106126,Nd2Ga2Fe15,https://materialsproject.org/materials/mp-1106126,-52.87974954712443,-23.771631989613066,-55.823327561366575,-11.398207275482466
-3.765766458333333,-22.59459875,8.205938351106884,-0.34470679499999984,1e-07,9.228413354265036e-09,0.0,191,6,126.28459871895106,624.0646,mp-1218349,SrAg3Pd2,https://materialsproject.org/materials/mp-1218349,-71.87260789511261,2.4907599564766376,-48.37309074245052,11.382098655153914
-1.894592264473684,-71.99450605,7.223859236774096,-0.25220179421052624,2.675e-05,4.865201364201732e-07,0.0,194,38,640.7673790437698,2787.536600000001,mp-976812,Pr2Zn17,https://materialsproject.org/materials/mp-976812,-49.133593308686436,-20.296466650091627,-49.92029413434732,-20.890911752601184
-5.99072081,-35.94432486,8.660129529873782,-0.08023901166666647,2.9093734,0.3982555157833591,0.0,191,6,85.13636273051958,444.007585,mp-1226659,CeCo3Cu2,https://materialsproject.org/materials/mp-1226659,-51.926965230105296,-17.137896748612043,-53.94626724433181,-16.31529233025209
-8.26502805375,-198.36067329,6.978044855100566,-0.1966819670833336,1.575e-06,3.9943786517723135e-08,0.0,227,24,459.5245873507085,1931.0495600000002,mp-1191437,Zr2Co,https://materialsproject.org/materials/mp-1191437,-69.18587281210175,-3.399112408882792,-65.09588289739477,4.352243859917603
-6.468442545833334,-77.62131055,6.2780080613479035,-1.7862480421875009,0.41979055,0.018713092206845142,0.0,129,12,261.4354809206195,988.4104,mp-5908,CeAsS,https://materialsproject.org/materials/mp-5908,-36.95468697178124,-8.68769596723408,-40.88059632343303,-12.705333046860625
-6.441666216666667,-38.6499973,5.365958505743378,-2.153946116041668,0.00062085,5.723725227108928e-05,0.0,129,6,126.41113657544184,408.49199999999996,mp-1018663,CeS2,https://materialsproject.org/materials/mp-1018663,-4.817371351516441,-22.953948668596663,-41.03939154063802,-11.368083016983164
-9.1228565975,-36.49142639,7.378128357070906,-0.1816729287500003,0.0010527999999999998,0.00017768816248088683,0.0,65,4,69.05017881464453,306.80464,mp-1220588,Nb3Si,https://materialsproject.org/materials/mp-1220588,-72.5910780023798,0.4886095789547186,-58.99909867739814,-18.626620450186017
-8.6957433375,-34.78297335,14.396480479335205,-0.6107593025,6.4e-06,1.1226817609870837e-06,0.0,51,4,66.43558053246056,575.9807599999999,mp-999376,NbPt,https://materialsproject.org/materials/mp-999376,-50.322294049102844,-34.914343169216,-64.44288029329311,-22.562207272849683
-7.1102272675,-28.44090907,7.340398817605956,-0.4225639833333332,4.970000000000001e-05,9.815623011862884e-06,0.0,25,4,59.008686305108064,260.8474,mp-1217097,Ti2NiPd,https://materialsproject.org/materials/mp-1217097,-53.7229413668935,-45.578076730231885,-63.92751840370967,-34.13879726632862
-6.752070386153847,-87.77691502,8.73984408615587,0.17379739749999928,18.158265300000004,1.2988012689869737,0.0,139,13,162.93300985806587,857.5583399999998,mp-1094061,SmCo12,https://materialsproject.org/materials/mp-1094061,-42.140497694729646,-36.56488821921064,-62.425562204056405,-30.782965334344826
-8.22359476631579,-156.24830056,7.539438106506194,-0.0015509678947371176,38.797475899999995,1.742139396507712,0.0,160,19,259.536233470639,1178.38685,mp-1226697,CeYFe17,https://materialsproject.org/materials/mp-1226697,-54.18025258604866,-24.41400809549633,-57.320379311941956,-12.113126744314473
-9.63826956,-77.10615648,5.965089783063805,-0.8041804477824996,2.2e-06,3.6005272676789544e-07,0.0,141,8,71.208855241247,255.8008,mp-676416,V2CN,https://materialsproject.org/materials/mp-676416,-46.41754644532146,-44.59250382601915,-65.63951302905232,-22.793046111164866
-4.916363531666667,-58.99636238,8.576466644078751,-0.4199892095833331,2e-07,8.831786790119398e-09,0.0,5,12,263.91182326995784,1363.07,mp-1219006,Sn7Pd5,https://materialsproject.org/materials/mp-1219006,-55.77304562442032,-30.653400923714266,-51.29509279530063,-25.477387758545078
-9.418041643333334,-56.50824986,8.041050329260376,-0.21490721952333186,0.0043163,0.0008520093420684344,0.0,71,6,59.03977491101154,285.8962,mp-1245955,CrMo2N3,https://materialsproject.org/materials/mp-1245955,-39.645282437722685,-13.130987100206726,-56.88409258201399,2.545678214915045
-6.325751699285715,-177.12104758,16.067814189084185,-0.7890001917857147,1.15e-06,2.809187160483539e-08,0.0,15,28,477.08371577979017,4616.388,mp-1213024,Er2(GePt3)3,https://materialsproject.org/materials/mp-1213024,-53.445418169755314,-5.6111276791168905,-50.430903323201065,-3.0532634377328405
-6.11815198909091,-134.59934376,7.294191974338317,-0.4685995981818187,3.88225235,0.1239214858582016,0.0,59,22,365.10230681137085,1603.7721800000002,mp-1191025,Zr3(MnGa3)2,https://materialsproject.org/materials/mp-1191025,-55.29188041211894,-20.591334812965012,-49.52326019302388,-5.51741130310033
-7.009859914000001,-140.19719828,3.392380124722241,-0.954145671142858,0.68077115,0.019881828319282924,0.0,186,20,399.04534683539083,815.2253400000001,mp-1105778,Sc7P3,https://materialsproject.org/materials/mp-1105778,-37.214238987392676,12.074098928674752,-39.019870242819465,13.817113109619305
-4.843153569285714,-135.60829994,9.156242227140568,-0.6739700514285712,7.6e-06,1.898606889286049e-07,0.0,63,28,466.5046396453338,2572.315,mp-1210956,Lu2(Ga3Rh)3,https://materialsproject.org/materials/mp-1210956,-46.21692538779008,-6.922278638877372,-42.81646929140294,5.3860660705347625
-11.683731145,-93.46984916,17.52528526850712,0.21341461093749992,3.9e-06,4.2382845938910436e-07,0.0,156,8,107.23879344604302,1131.7954,mp-1219519,ReW2C,https://materialsproject.org/materials/mp-1219519,-46.90226845747689,-32.566346472994034,-59.32032271021514,-29.813892773991427
-5.734436645833332,-68.81323975,8.756278194138346,-0.07484668666666631,3.716108,0.25583839494533384,0.0,47,12,169.27781048298488,892.6279750000001,mp-1226892,Ce2(CoCu)5,https://materialsproject.org/materials/mp-1226892,-52.32633200862277,-18.165963601236196,-53.46236315165898,-14.370404031531914
-7.219304121666667,-86.63164946,8.030642827343375,-0.8947640600000012,7e-07,4.386771883361518e-08,0.0,62,12,185.96465824296638,899.3560000000001,mp-1207428,ZrNiAs,https://materialsproject.org/materials/mp-1207428,-52.38772278739878,-8.486274056316923,-58.16356718221082,0.6983955388422155
-7.483581243181818,-329.2775747,8.11654372049548,-0.08397832708454639,37.6619653,0.8444750680146372,0.0,194,44,519.7488945410615,2540.47904,mp-1208578,Tb2Fe17H3,https://materialsproject.org/materials/mp-1208578,-53.737268349360626,-22.609237688498677,-56.01250036613367,-9.992805643195933
-8.068910894736844,-153.30930700000002,8.211313758070656,-0.01480496894736922,39.1927899,1.772365665647617,0.0,166,19,257.709411192541,1274.365,mp-1106107,Dy2Fe17,https://materialsproject.org/materials/mp-1106107,-53.558183559778044,-24.019345813134716,-56.0387889693916,-11.41221577307493
-9.3453880675,-74.76310454,10.679758580330798,-0.12607239250000113,0.085978,0.009098253426002728,0.0,194,8,110.13027820828222,708.303,mp-971788,VRu3,https://materialsproject.org/materials/mp-971788,-56.88705142562839,-47.28991881347438,-67.6372069277391,-35.63304534206453
-7.498087049166666,-269.93113377,9.949247725838408,-0.6457381233333324,0.00037769999999999997,1.1349560629612374e-05,0.0,55,36,387.83353895754544,2323.7345600000003,mp-1204735,Ho2ReB6,https://materialsproject.org/materials/mp-1204735,-35.62998621752746,-10.439097915105183,-37.74171767489673,-12.240596543489476
-7.301999736666668,-109.52999605,5.572372194227032,-1.3480718925,0.00023849999999999997,1.0068683564496272e-05,0.0,147,15,276.05341159557463,926.36928,mp-1220444,Nb6CdS8,https://materialsproject.org/materials/mp-1220444,-39.2419523107984,-14.968826420129435,-41.16631408743663,-11.158848068986789
-6.99952668125,-55.99621345,5.416551188988249,-0.31901400375000044,8.525e-05,7.595840948823711e-06,0.0,194,8,130.79644881381677,426.648,mp-30672,Ti3Ga,https://materialsproject.org/materials/mp-30672,-50.297732353405685,-35.28347612521254,-60.678481560344174,-27.656439179407982
-5.62974633,-33.77847798,8.323561541298679,-0.2732613762499992,1.9600000000000002e-05,2.6187168781070616e-06,0.0,187,6,87.22579804323216,437.22507,mp-1222960,LaCuNi4,https://materialsproject.org/materials/mp-1222960,-51.623202088106794,-16.09868943980523,-54.57927977389326,-16.01571124022713
-6.24159709625,-49.93277677,9.793323221141938,-0.5044550262499996,0.0,0.0,0.0,62,8,152.37558294236268,898.6619999999999,mp-20619,SbRh,https://materialsproject.org/materials/mp-20619,-57.551287664958906,-25.25455633768692,-44.49175390731336,-1.264926602661114
-6.148562164545454,-135.26836762,7.1826904185375335,-0.41219984636363577,4.26e-05,1.348903311099414e-06,0.0,59,22,368.0494778431556,1592.0044,mp-1191828,Zr3(CrGa3)2,https://materialsproject.org/materials/mp-1191828,-55.30483849048426,-20.5800613686865,-49.551774730612706,-5.575103298418224
-6.661206838181817,-146.54655044,8.004879191813163,-0.1373940170845458,23.9607932,1.138176917321968,0.0,166,22,245.34027329576932,1182.699835,mp-1191845,Y2Co17H3,https://materialsproject.org/materials/mp-1191845,-56.48306994955666,-24.705484871848906,-60.67164400292498,-12.430970076628375
-7.434945109411764,-126.39406686,9.325080415965212,-0.6464457776470579,1.2e-06,5.967620049005374e-08,0.0,191,17,234.34598067955918,1316.0155,mp-1225361,Dy2(B2Rh3)3,https://materialsproject.org/materials/mp-1225361,-47.60482210743125,-0.27179979147131056,-58.05829891515936,20.686871193014287
-7.072408064090909,-155.59297741,6.094944700635406,-0.6636357781818186,0.00013959999999999998,4.5906233484715374e-06,0.0,72,22,354.3979365658516,1300.8039999999999,mp-1365,Ti6Ge5,https://materialsproject.org/materials/mp-1365,-56.49484008605264,-7.169891356427529,-45.337786444738036,-0.6524921183031375
-7.019722623333332,-42.11833574,8.688857016880856,-0.10567346833333248,5.7485,0.8062579172016539,0.0,191,6,83.0917624692343,434.781975,mp-764,CeCo5,https://materialsproject.org/materials/mp-764,-53.06878166221202,-17.64026300342497,-55.19993483194376,-16.383277389827413
-8.570196287894738,-162.83372947,5.6784264613400675,-0.8428792081578954,0.0008398999999999999,4.041974991357009e-05,0.0,174,19,242.16500654762055,828.114334,mp-684675,V12P7,https://materialsproject.org/materials/mp-684675,-64.02567790348503,-31.511251424977985,-68.09031604205322,-16.96489622734132
-5.357258981071428,-150.00325147,6.6030454847706475,-1.2643337996428576,0.0,0.0,0.3609,62,28,248.73761925739134,989.09196,mvc-12655,Zn(CoO2)2,https://materialsproject.org/materials/mvc-12655,-33.69349597321864,2.251019185428691,-40.90276516237736,13.313172940105154
-6.5033189433333325,-39.01991366,8.298069648380297,-0.2521222733333334,2.7678861,0.3742345400398479,0.0,187,6,86.19494044839622,430.7346,mp-1226721,CeFeNi4,https://materialsproject.org/materials/mp-1226721,-51.17347517690239,-16.83225585603914,-53.84731466520167,-16.480018080301505
-7.272225488333333,-43.63335293,7.890576717741727,0.2097227583333338,6.11905205,0.7314506160579799,0.0,194,6,97.4937027487738,463.27218000000005,mp-6912,Mn2Sb,https://materialsproject.org/materials/mp-6912,-35.9441773927111,-58.38261540328839,-48.2607556573841,-42.154605649760406
-7.528520125999999,-37.64260063,6.4735134721239485,-0.8048911320000002,2.8e-06,4.795704151432611e-07,0.0,139,5,68.04294079195697,265.26139,mp-569344,Zr(CoSi)2,https://materialsproject.org/materials/mp-569344,-38.16822463439796,-16.783075241226133,-58.16531606295142,19.104746748083716
-8.060927030526315,-153.15761358,8.128949745240558,-0.002985709868421569,39.7277695,1.788899026314896,0.0,160,19,258.8128185055104,1266.984,mp-1219100,SmErFe17,https://materialsproject.org/materials/mp-1219100,-53.52199336040686,-23.96440966180192,-56.08557458980186,-11.435734709274836
-4.4008083034,-220.04041517,3.4082808623878216,-2.3275283384664,2.9972279,0.057322853150468686,0.016400000000000026,36,50,609.3536201527587,1250.7072896,mp-760015,Li6Cu5F14,https://materialsproject.org/materials/mp-760015,30.290629511227785,-28.39977494646511,20.844049347239316,-35.629965105832575
-4.431544492857143,-31.02081145,6.859747492468309,-0.31315490952381,0.0014439,0.000152719607952066,0.0,123,7,110.18430672229408,455.1754,mp-1025313,TiGa5Ni,https://materialsproject.org/materials/mp-1025313,-53.37019175574462,-35.59611791081408,-61.35951837164346,-30.173197103075594
-7.0270788526666665,-105.40618279,9.643123979279046,-0.5290428174761901,0.0012923,6.43222890648704e-05,0.0,166,15,234.14197666986016,1359.715162,mp-1228867,As4PRh10,https://materialsproject.org/materials/mp-1228867,-45.13610657271495,-21.272056821147803,-65.78831851052993,-2.4611378721581314
-6.749712715,-80.99655258,6.295515760505689,-0.7279535149999994,8.8e-06,5.506377844135285e-07,0.0,62,12,186.24906045587682,706.116428,mp-1095261,ScCoGe,https://materialsproject.org/materials/mp-1095261,-51.39675830809036,-8.16739111121676,-58.657024400070746,0.5741750655261489
-6.9331042627777775,-249.59175346,8.576827208747876,-0.6470797016666671,0.001293075,3.910301997747145e-05,0.0,55,36,385.3814824138829,1990.5285600000002,mp-1212391,Ho2B6Rh,https://materialsproject.org/materials/mp-1212391,-35.669659487138084,-10.464331137746264,-37.75157482935183,-12.224950950085335
-5.148868059,-51.48868059,9.933410259573515,-0.31347079181250026,0.0,0.0,0.0,114,10,153.03977647197962,915.49,mp-7819,Pd4S,https://materialsproject.org/materials/mp-7819,-56.84231848546839,-20.698289791892922,-59.074925031880035,-14.845376731774936
-5.4799370475,-43.83949638,16.029251014531102,-0.5579182412500003,0.0,0.0,0.0,65,8,122.7166683628169,1184.589,mp-30663,Ga3Pt5,https://materialsproject.org/materials/mp-30663,-57.85611085051836,-32.589078059092024,-64.16886279888331,-29.36729478905945