energy_per_atom,energy,density,formation_energy_per_atom,total_magnetization_uB,total_magnetization_T,band_gap,sgr,num_sites,cell_volume,weight,mp_id,formula,URL,tsne_xrd_lin1_0,tsne_xrd_lin1_1,tsne_xrd_lin2_0,tsne_xrd_lin2_1
-5.877898040833332,-141.06955298,5.527437726791406,-1.911908800286459,0.0,0.0,1.8039999999999996,173,24,482.8228995866233,1607.1730000000002,mp-557998,Dy3CuSiS7,https://materialsproject.org/materials/mp-557998,9.151533236375274,-2.428473320143246,10.556572483629576,3.7060067009335818
-6.79482819375,-271.79312775,4.556776319487915,-2.422541575918,27.111210999999997,0.6991599392889083,0.0,38,40,451.90777002738565,1240.104915,mp-1099788,Sr2Ca6Mn7FeO24,https://materialsproject.org/materials/mp-1099788,-12.746959594325359,66.22925243446052,-11.645087068978631,74.23363847636126
-8.121789316666666,-48.7307359,4.364346193101326,-3.1483844725,0.99991735,0.12665975222236014,0.0,11,6,92.00319248728985,241.8093,mp-1206610,YO2,https://materialsproject.org/materials/mp-1206610,1.0031432159819549,13.31871673197789,6.647788326948447,32.796149831443785
-6.94896044425,-277.95841777,7.051023489467442,-2.7023944515,0.0,0.0,3.1062000000000003,217,40,624.4104315562897,2651.3876,mp-768483,Lu3Sb5O12,https://materialsproject.org/materials/mp-768483,19.196269109785604,61.54264519814872,-7.116902766870345,35.3255984612696
-5.128654610833333,-61.54385533,5.266103836360634,-1.1268708578313582,0.0,0.0,0.6262999999999996,63,12,330.81186151724825,1049.1109038,mp-7152,CsZrCuSe3,https://materialsproject.org/materials/mp-7152,-9.18475337735225,21.98199103952744,-4.47438237362204,26.437165795004137
-5.637494582142858,-78.92492415,5.2500146005047235,-1.167909843667143,10.0000036,0.2860485616002078,0.010299999999999976,194,14,407.41575146639525,1288.09898,mp-19213,Ba2Mn2Sb2O,https://materialsproject.org/materials/mp-19213,3.891734362449472,18.88834258460549,-17.744060011414376,39.34500709199102
-5.3535323236842105,-101.71711415,7.171023777014128,-0.3082647871052631,3e-07,6.857375577593794e-09,0.0,204,19,509.84803037355385,2201.7744,mp-542879,Nd12Ni6Sn,https://materialsproject.org/materials/mp-542879,-10.34709415574831,21.672643624117192,-11.532501973773108,48.602468612100274
-6.448184090384616,-335.30557269999997,5.624330461564493,-1.868513544230771,4.0,0.07119098962414035,2.7913,110,52,654.8056058267174,2217.86,mp-1207918,V2Ni2PbO8,https://materialsproject.org/materials/mp-1207918,-7.7295309963135574,13.38127856110732,6.230621498789035,30.053041103145887
-4.8119051725,-19.24762069,7.170896160499133,-1.3035645993750005,0.0,0.0,0.0,160,4,58.97650390365752,254.685,mp-1097001,InAgO2,https://materialsproject.org/materials/mp-1097001,-30.79216959404352,16.977442184431894,-24.01827237018421,45.442951046757926
-8.80367943725,-352.14717749,5.7015169022043874,-3.9435319188749998,0.0,0.0,3.9456,24,40,633.5176041697857,2175.2041,mp-867607,Sm3Y5O12,https://materialsproject.org/materials/mp-867607,19.877736205959838,59.74023065785047,-6.26224259477362,35.80714768639907
-7.881707902820513,-307.38660821,6.069943357315967,-3.1959247430769238,2.9999995999999998,0.06088738252110978,0.0,164,39,574.2107512000817,2098.973075,mp-562226,Ba8Nb6CoO24,https://materialsproject.org/materials/mp-562226,-17.003148330611825,19.281121762072736,-14.550773852697985,46.35348215419293
-6.973945793055555,-251.06204855,7.8046647223097585,-3.679295348009513,6.7e-06,1.3356177784682947e-07,2.8557,176,36,584.6151139564478,2747.7372384,mp-1194579,Dy2SeOF2,https://materialsproject.org/materials/mp-1194579,8.54534579039064,50.514142466167094,16.244303291689445,51.78116303204832
-4.09544197,-16.38176788,4.303044942218032,-0.4204865575000003,3.5e-07,3.195022656844824e-08,0.0,63,4,127.66490596420198,330.825,mp-2499,BaSi,https://materialsproject.org/materials/mp-2499,3.159761744345948,20.855111724579704,37.59326657012493,0.6888636647178661
-6.945633275750001,-277.82533103,6.670588220750325,-2.69123833825,0.0,0.0,3.1298,217,40,645.0307954485005,2591.16752,mp-771762,Ho3Sb5O12,https://materialsproject.org/materials/mp-771762,25.2457759185397,64.650539701701,-7.6877718126253125,34.82356642313776
-3.896441082,-116.89323246,3.5892246045506107,-0.5174760716537866,0.0,0.0,1.1251,152,30,980.7760371935356,2119.929372,mp-571464,RbPSe3,https://materialsproject.org/materials/mp-571464,13.209517509165869,24.39765553156898,30.99317489248249,2.8225605035052466
-6.681457790357142,-187.08081813,4.5317362609442045,-2.531548342410715,0.9999416999999999,0.030578641382136087,1.8171,9,28,381.0955887461799,1040.0386,mp-1218545,Sr2VAs2O9,https://materialsproject.org/materials/mp-1218545,17.729587570345988,33.62536788231028,21.379077090306996,38.718751008358076
-7.8659164786666675,-117.98874718,3.7789731416737347,-1.326164868602667,0.0,0.0,3.2694,44,15,183.6288884177668,417.89360000000005,mp-567771,Ba(Si3N4)2,https://materialsproject.org/materials/mp-567771,-4.907958364439082,28.96707038790737,2.174415766474789,50.532970341539844
-7.171913306875,-114.75061291,5.893078943091765,-3.09813174125,1.000000025,0.057746041969329115,0.0,14,16,201.81582436595716,716.2232,mp-8412,LiCeO2,https://materialsproject.org/materials/mp-8412,21.928899528475483,32.12719203221548,29.552506490193338,37.61830401277103
-7.5265023678125,-240.84807577,4.182770035074538,-2.466144236614584,10.000000025,0.3063577758795926,1.73,12,32,380.4070181745684,958.216,mp-559280,TiFe2O5,https://materialsproject.org/materials/mp-559280,17.746274824537718,3.305467199243996,63.13631021873458,33.30112148072451
-6.005271572857143,-252.22140606,8.429492300093003,-1.7988404278747618,3.9999867999999994,0.06917829299645555,0.5562000000000005,8,42,673.854517615406,3420.7274449999995,mp-1222044,MnBi12W2(ClO8)3,https://materialsproject.org/materials/mp-1222044,4.587324526393048,31.232512356254873,-5.727979859148173,32.17846145444139
-9.34126715576923,-485.7458921,8.199493689412218,-2.9242051510576914,14.000000225,0.24378758515899104,0.0,14,52,669.2584830831078,3304.6984,mp-770657,Gd2W2O9,https://materialsproject.org/materials/mp-770657,14.033984613046426,20.67732407480357,48.662487941328564,1.612976135723067
-5.874503736666667,-17.62351121,2.7091808777471234,-0.8488205629166673,0.0005127999999999999,0.0001350999669403669,0.0,8,3,44.2354247059624,72.1704,mp-1063118,Si2O,https://materialsproject.org/materials/mp-1063118,0.3017512181918337,13.338943766408505,4.500045359902347,23.45001167251848
-8.377990035,-67.02392028,9.918071169752249,-1.7089006599107135,3.0570513,0.3061607633443821,0.0,129,8,116.36721006983845,695.038324,mp-1087496,NpCuPO,https://materialsproject.org/materials/mp-1087496,-7.168298608329311,16.533992263442926,5.801161880986398,48.84084000564511
-7.635925426785714,-213.80591195,6.722235407999728,-3.6327236639285703,0.0,0.0,3.5247,62,28,446.94908670769615,1809.3504,mp-754414,SrSm2O4,https://materialsproject.org/materials/mp-754414,-11.331591093033811,26.141908293253717,-1.8078167924443904,56.51093621137479
-6.396793214117648,-217.49096928,4.748873944055287,-2.2229108943014717,2.99999995,0.07754853152052564,0.2866000000000001,14,34,450.8427567802751,1289.3375999999996,mp-1195739,Dy2Cu(SO6)2,https://materialsproject.org/materials/mp-1195739,27.00009054667272,-3.201795043614317,17.543772138051153,-26.69783935419453
-4.7285888321875005,-453.94452789,1.6012049358603109,-1.1575037943758335,0.001729875,1.4515782207254156e-05,5.0335,62,96,1388.8383698921061,1339.2126288,mp-740718,AlH6N2Cl3,https://materialsproject.org/materials/mp-740718,26.69709233936001,9.46539259336193,27.43052904031849,8.377758717998532
-6.774492979166666,-81.29391575,7.243833305443956,-2.085724626625,0.0,0.0,3.2933,82,12,166.80167695971076,727.64536928,mp-1220818,NaBi(WO4)2,https://materialsproject.org/materials/mp-1220818,27.169721490933608,57.952006788494785,-7.094646329869589,33.8813480808218
-9.2742549025,-222.58211766,7.940220236847535,-3.68655265625,0.0,0.0,3.5892000000000004,14,24,325.5632640617036,1556.74992,mp-18433,NdTaO4,https://materialsproject.org/materials/mp-18433,20.574027364568966,56.74370840160199,-2.9037484852356448,35.94457531097429
-6.690375109285714,-93.66525153,5.155193778805692,-2.142798528878096,5.0000002,0.2835989440892832,2.3769,147,14,205.46735948095287,637.879645,mp-19174,BaMnV2(AgO4)2,https://materialsproject.org/materials/mp-19174,-21.492666078008877,27.42275711732789,-19.257327396509442,59.232238697839385
-5.80262547875,-139.26301149,7.047279058501236,-0.672969123333333,0.002173725,4.7492020656950677e-05,0.0,62,24,533.4102781332119,2263.777600000001,mp-617312,Sm3Si2Ni,https://materialsproject.org/materials/mp-617312,30.192929753069905,42.72556967899672,16.669824185287464,30.28258530542795
-5.2576886,-94.6383948,7.790817108478713,-1.0220334533333333,5.666666666666667e-07,1.6653632055134642e-08,0.0,109,18,396.5483334758615,1860.5016,mp-28340,CaAsPt,https://materialsproject.org/materials/mp-28340,6.9223714643160354,1.2291815424724566,0.13633742060621426,10.555659941509047
-8.100534635,-48.60320781,5.582885242884223,-0.14006645374999968,0.3685006,0.044146078875958526,0.0,65,6,97.27998432644183,327.06427,mp-1222943,LaCeC4,https://materialsproject.org/materials/mp-1222943,-8.297026204503393,-26.66439817806281,-3.8404945512044297,-19.011802358716306
-4.1467624225,-16.58704969,3.2806457661788304,-1.4134016280357145,0.0,0.0,1.7152000000000005,166,4,120.48394226750266,238.03423199999997,mp-23040,Ca2PI,https://materialsproject.org/materials/mp-23040,-20.91892929513402,-35.500077273020636,-7.9886891497344115,-25.611615805795147
-7.1637224745,-143.27444949,3.764271872597841,-2.9416407027499996,0.0,0.0,2.9822,15,20,274.3444676021577,621.9108,mp-1255815,CaSi2SnO6,https://materialsproject.org/materials/mp-1255815,8.948500018825642,21.987574314457607,32.86588169617765,-1.4433779250159895
-5.4388770145833325,-130.53304835,4.254746352445417,-2.189545019906609,0.9951860999999999,0.0206459624787686,0.0,62,24,561.754545571702,1439.3658,mp-752428,Rb2PrO3,https://materialsproject.org/materials/mp-752428,3.2338701419115248,-0.5776550224250573,13.089592862606652,1.483950604087659
-8.475351416153845,-110.17956841,6.936015717319425,-3.4468217636746163,0.0,0.0,3.0577999999999994,12,13,197.8978971412329,826.6128600000002,mp-559702,Pr2Ta2Cl2O7,https://materialsproject.org/materials/mp-559702,19.42727048793498,22.05140803713403,31.18925994945765,38.387792459000394
-8.565237190909091,-94.21760909999999,7.305831838525449,-1.5782638232030308,1.1836613999999999,0.0930675555120506,0.0,12,11,148.21993065663526,652.1195,mp-31017,Ce4B2N5,https://materialsproject.org/materials/mp-31017,18.58440238310416,42.962076853622044,17.99529236990942,48.989368840157745
-7.8132734917499995,-312.53093967,6.6610564621422235,-2.8892607212690016,29.9999973,0.7199514877815326,0.0,38,40,485.61870854402315,1948.0021600000002,mp-1076669,La7SmMn6(FeO12)2,https://materialsproject.org/materials/mp-1076669,-27.542912099983774,49.752675000302666,-12.582567864305124,66.38917158688695
-6.510863472916667,-156.26072335,4.845748224751792,-2.5178984388541674,3.0000002,0.08633634892659632,2.655,113,24,404.95338386636087,1181.72599,mp-1190827,Ba2CoGe2O7,https://materialsproject.org/materials/mp-1190827,6.009182761217307,27.505118952612577,33.091650773693345,-6.38611203927887
-6.598705802857142,-46.19094062,6.248195698442372,-2.6536203846428568,8.5e-06,1.0527224775642953e-06,0.0,107,7,94.09844729064152,354.06907,mp-1218202,SrLaCuO4,https://materialsproject.org/materials/mp-1218202,-23.29476131273601,39.39738413617893,-14.177020656437366,58.88255423238929
-8.814688956666666,-211.55253496,6.740651253641619,-3.5403115191666665,0.0,0.0,2.8903,14,24,311.21439914798265,1263.31732,mp-756852,TbNbO4,https://materialsproject.org/materials/mp-756852,17.531935165438195,57.6128129554882,-2.1690664103205504,37.0324642701651
-3.1470346125,-25.176276899999998,7.33662103404717,-0.14708315155172436,5.025e-05,1.7146208946933442e-06,0.0,194,8,341.5429945089178,1509.0109037999996,mp-1183989,CsPb3,https://materialsproject.org/materials/mp-1183989,-14.732223273307026,17.094788710598888,-34.742236059242714,-16.752869601827282
-3.75303275,-15.012131,3.920361607694935,-0.10237134937500024,4.59e-05,4.5687312662334835e-06,0.0,225,4,117.08317733940292,276.42132000000004,mp-1185136,LaYMg2,https://materialsproject.org/materials/mp-1185136,-29.71707643901463,55.53086323128033,-56.027039609861205,52.35701442904785
-4.696745683888889,-84.54142231,4.134200238698273,-1.0319430515182002,0.0,0.0,0.8488000000000002,194,18,458.0127288934103,1140.3022076,mp-28486,Cs2Ni3S4,https://materialsproject.org/materials/mp-28486,16.666474313380288,2.4154726863265057,-11.25960432361448,-11.261760210244436
-7.815085281071428,-218.82238787,4.748632847405206,-3.4094118563809532,2.5e-08,7.185816427409477e-10,2.3591,57,28,405.45374663714585,1159.47348,mp-1211901,KLaTiO4,https://materialsproject.org/materials/mp-1211901,-12.122384202588258,33.76603371141713,-0.419091293592005,49.11224658916135
-6.048044400625002,-483.84355205,4.452824738174211,-2.01195359195575,0.000736225,7.2656357721459795e-06,3.5309,29,80,1180.903379449692,3166.65592,mp-733581,PrH(SeO3)2,https://materialsproject.org/materials/mp-733581,37.64592520990698,24.198659811846213,32.32230438967614,4.497791993893067
-7.541679772692307,-392.16734818,3.388779678926132,-2.807000628956924,11.9999999,0.2341023981585522,1.5015999999999998,173,52,597.3829281774101,1219.12167,mp-532650,Ca4Mn3B3CO15,https://materialsproject.org/materials/mp-532650,-4.3348858527196095,26.64238364407795,16.924958074411933,59.19780967343507
-4.717972965833334,-113.23135118,4.3664490594229,-1.1425231472395836,0.0,0.0,0.9711,152,24,530.8755616097003,1395.957,mp-17947,BaCu2GeS4,https://materialsproject.org/materials/mp-17947,1.2849928654676015,17.719990633768827,4.355547901061905,25.93623264335097
-5.64318761,-146.72287786,5.286890137258765,-1.5116064100000008,6.00000015,0.1770650970358121,2.4778,15,26,394.90781387212286,1257.32318,mp-18855,Co2Te3O8,https://materialsproject.org/materials/mp-18855,27.07742485152029,9.782590840877436,52.18768689868492,0.6782253315549623
-4.115003736999999,-123.45011211,7.863230304587433,-0.6913722426666666,0.0026888000000000003,4.964240216930383e-05,0.0,8,30,631.2234700808788,2989.062828,mp-1227364,Ca5(Si2Au3)2,https://materialsproject.org/materials/mp-1227364,5.346987300670199,-7.943442913116603,3.8519936894283457,5.309300794852353
-4.607502542083333,-110.58006101,7.09201995457474,-1.1046219675694449,0.0,0.0,2.2744,45,24,456.9042262661618,1951.3988,mp-1191720,TlAgTeO3,https://materialsproject.org/materials/mp-1191720,19.186664773195385,59.532255636282784,-5.902784190631743,35.816796066485274
-9.86482797888889,-88.78345181,9.80674691840248,-3.8782049980555566,3.9994657999999994,0.3865195656143755,0.0,164,9,120.58906620871907,712.17022,mp-1226535,CeU2O6,https://materialsproject.org/materials/mp-1226535,25.076538057428927,64.7444131783259,-10.85864247459788,36.60509360359895
-6.271765586,-250.87062344,6.815844672795175,-2.2368001575000007,0.0061083,0.0001331523590012771,0.0,10,40,534.6245788220966,2194.4188,mp-1228592,Ba4Nd5Cu9O22,https://materialsproject.org/materials/mp-1228592,-26.457890567922888,52.24836515564302,-11.81483196064685,68.51711414396199
-6.578558167333332,-197.35674502,5.695116703069697,-2.183497507916667,0.00017693333333333334,4.8153426281100215e-06,0.028999999999999918,185,30,428.213044499572,1468.6335,mvc-3470,YAgO3,https://materialsproject.org/materials/mvc-3470,16.59342665586861,61.56784494425416,-7.736711423360941,41.88987491459421
-7.5938124375,-243.001998,6.804939352096548,-2.8505702854687485,3.00000035,0.096315671585548,2.7356,55,32,362.99594677640994,1487.5684,mp-1213301,ErCrGeO5,https://materialsproject.org/materials/mp-1213301,-1.9632639431864625,27.47145103383553,1.1718390409602757,49.651175496589076
-6.0146971025,-649.58728707,6.0585075406259286,-2.2279928336574075,10.864963725,0.08136845632826546,0.0,21,108,1556.1434579984327,5677.618320000001,mp-704097,Sr6Co4Bi2O15,https://materialsproject.org/materials/mp-704097,-9.173480005231722,22.86069990436488,1.7874729642940732,55.737512482753324
-8.003224323000001,-160.06448646,7.915572143840898,-3.0760597324420003,3.9999998999999997,0.20433775783466032,0.4221000000000004,62,20,228.13335341847,1087.48182,mp-554270,TmMnO3,https://materialsproject.org/materials/mp-554270,-9.40640909667924,44.70765536306585,-3.0480181513749374,63.512314881874524
-6.963477305833332,-668.49382136,4.334175924286652,-2.503867999392361,0.0,0.0,4.293,29,96,929.9264447360864,2427.20268,mp-1207531,Zn3B7IO13,https://materialsproject.org/materials/mp-1207531,-24.108055695399088,-42.778987332983924,-32.419191438911994,-13.086310372063075
-7.120021207727272,-156.64046657,7.185743965498734,-2.5458244342045457,0.0002673,9.52309094205016e-06,0.0,227,22,327.11349000669844,1415.5366,mp-769359,Y2Bi2O7,https://materialsproject.org/materials/mp-769359,27.44214566242177,65.07850194687335,-11.751534534404984,36.362929665474184
-2.9375904360000002,-14.68795218,3.8569860394787434,-1.8232549681973795,0.0,0.0,1.7462,221,5,151.40599714706605,351.6754519,mp-568544,CsCdCl3,https://materialsproject.org/materials/mp-568544,-16.437464906567953,-18.542505264590822,-13.13998204116658,-20.81262404577516
-8.413245349666669,-252.39736049,7.154625096916946,-3.764376991166667,2.0,0.057252940686927385,0.0,2,30,407.1079889603182,1754.072,mp-674484,YbCe9O20,https://materialsproject.org/materials/mp-674484,26.149318664213357,63.82691559619852,-9.546264728550456,35.9521689683683
-6.441376981,-64.41376981,7.420404277687202,-2.2088834614166672,0.0,0.0,1.6164,99,10,140.3623275508053,627.2332,mp-550998,TiZn(BiO3)2,https://materialsproject.org/materials/mp-550998,-11.919721400978933,13.91138987849261,-19.057598186269797,51.34943511774872
-6.503979715652172,-149.59153346,5.6603256198231975,-2.3780765113043487,8.636745,0.28605592866329066,0.0,139,23,351.86540661619165,1199.4134,mvc-150,Ba2Ca3Tl2V4O12,https://materialsproject.org/materials/mvc-150,17.303734993393846,52.54259810642058,4.092949869572618,47.68420597780521
-5.312334650454545,-116.87136231,4.047771441852187,-3.446230245783396,0.0,0.0,2.9901,127,22,475.5220209728566,1159.1443562000002,mp-12244,Cs3TiF7,https://materialsproject.org/materials/mp-12244,10.185820797668724,-19.09944122751205,14.900638486757064,-14.034901562564547
-6.6693336049999985,-40.01600163,6.806140758072424,-3.191503019583333,0.0,0.0,3.6743,166,6,127.27464517824473,521.6674399999998,mp-755565,HoBrO,https://materialsproject.org/materials/mp-755565,16.543730509786123,59.65675973608572,-5.932390201914036,37.624887504460276
-8.283219921,-82.83219921,12.425667351455585,0.32262480925000003,0.08237645,0.004382739740836232,0.0,127,10,219.0457432570139,1639.1,mp-640044,Pu2SnPd2,https://materialsproject.org/materials/mp-640044,-43.87189219578507,36.26919707415168,-38.577922914886095,39.639235210067135
-5.538593524375,-88.61749639,4.329937177970013,-1.9639070392812503,0.0,0.0,0.9190999999999998,63,16,398.37277707275075,1038.7766,mp-11603,KNd2CuS4,https://materialsproject.org/materials/mp-11603,1.397723265245238,2.8041718589885227,4.778910937154161,0.6028275274801561
-6.5907874415384615,-85.68023674,5.892913896936027,-2.4953252785576927,9.652699499999999,0.5767216356239419,0.17110000000000006,123,13,195.0562945004669,692.2149499999998,mvc-2513,Sr2YTlFe2O7,https://materialsproject.org/materials/mvc-2513,-18.947024558848863,36.627223214231854,-13.890653344088467,54.5630217183971
-7.0810355175,-113.29656828,6.659322371038384,-3.070175638802083,1.93473745,0.09539451166646827,0.0,63,16,236.3611403455883,947.888,mp-760698,Yb2TiO5,https://materialsproject.org/materials/mp-760698,-4.594885315169334,14.297675662115415,7.3318422790085185,33.20749463036067
-8.509538995,-272.30524784,5.767367201749861,-3.67748737953125,0.0,0.0,1.9460999999999995,63,32,427.06678857903336,1483.2839999999999,mp-1197030,BaSm2Ti3O10,https://materialsproject.org/materials/mp-1197030,-4.778904296794383,17.008774227773895,9.927651551073447,58.96968497075871