energy_per_atom,energy,density,formation_energy_per_atom,total_magnetization_uB,total_magnetization_T,band_gap,sgr,num_sites,cell_volume,weight,mp_id,formula,URL,tsne_xrd_lin1_0,tsne_xrd_lin1_1,tsne_xrd_lin2_0,tsne_xrd_lin2_1
-8.3953938155,-167.90787631,7.736142137109053,-3.960744155250001,0.0,0.0,4.379099999999998,62,20,304.0796974112506,1416.65068,mp-7538,LaErO3,https://materialsproject.org/materials/mp-7538,-23.24699767335321,20.307361977319268,-23.31324949659492,54.822046445900355
-6.942922514423077,-361.03197075,4.536520672674599,-2.3055740627884616,1.0005958000000001,0.015528119004146244,0.0,57,52,750.9607738862328,2051.5922800000003,mp-1201268,CeV2IO9,https://materialsproject.org/materials/mp-1201268,17.0472266835111,-4.248593737074785,35.1056480409701,-12.31214231004092
-4.809157056111111,-86.56482701,5.636575396110266,-1.6253807657002315,0.00016885,3.527518673106832e-06,1.1164999999999998,36,18,557.8393820701141,1893.544,mp-1106127,Ba2DyInSe5,https://materialsproject.org/materials/mp-1106127,2.8622599775503774,29.917450196006843,-0.8284887914027913,25.35796981307797
-7.818417768888889,-281.46303968,5.0286314997994666,-2.7859595797605348,0.99941435,0.018702169113106064,0.0,14,36,622.7747968209483,1885.9568399999998,mp-17642,RbUCrO6,https://materialsproject.org/materials/mp-17642,29.782480477275033,-15.89800586259508,44.50382012435651,-28.083105111117693
-8.481480435,-101.77776522,5.923597421006056,-2.7268745875000007,6.99489225,0.466173200535607,0.021300000000000097,88,12,174.86832633217682,623.8032,mp-1095254,EuMoO4,https://materialsproject.org/materials/mp-1095254,-9.41620897458367,-25.20187839978475,-1.8735547207744525,-28.889803376737227
-7.05621216,-451.59757824,3.416348483668642,-2.7226159307812505,1.000000575,0.014937273746896582,0.6206,130,64,780.2007026930349,1605.1640000000002,mp-1267587,ZnCu(Si2O5)2,https://materialsproject.org/materials/mp-1267587,20.33496496609003,-4.725846332576992,50.09833541067232,1.1646512612436002
-7.407187890714285,-103.70063047,4.516890861989674,-2.3384483567500003,13.8655517,0.5109549710869336,0.0,14,14,316.2510333842751,860.2456,mp-755649,K2Eu2O3,https://materialsproject.org/materials/mp-755649,20.5987551027653,10.080171541425656,51.91315303681564,-2.2524465158914087
-5.173622649166666,-62.08347179,7.5348423221720875,-1.0565975433333332,0.0,0.0,0.0,72,12,212.42932622516463,963.9168,mp-25208,BiO2,https://materialsproject.org/materials/mp-25208,9.409180899049026,-23.141485297759342,18.61715688634349,-17.501544536467335
-3.2941342682142856,-92.23575951,4.786173474233282,-0.5822504349876846,5e-08,4.946469894048353e-10,0.5657999999999999,62,28,1178.0183668541067,3395.4036151999994,mp-662549,Cs2GeTe4,https://materialsproject.org/materials/mp-662549,14.76440947025316,-16.176087020848627,24.618265465920125,-11.949966820916725
-6.448880005,-103.18208008,6.484862618225048,-1.7827007264025008,14.999966699999998,0.5849746124043138,0.0,121,16,298.83447896917545,1167.0310032,mp-1220250,Nd4Fe4As4O3F,https://materialsproject.org/materials/mp-1220250,-18.266208203301677,23.70425917217558,-22.5250563551302,45.219416614016
-6.757407559642857,-189.20741167,2.5481395092316674,-1.9337021501785725,5.000000075,0.16106082797345128,1.962,37,28,361.7907933917886,555.1772,mp-757939,LiFeCO4,https://materialsproject.org/materials/mp-757939,23.96445749927484,-20.934986041323857,54.05420359556305,-30.967434172752395
-5.597639176875,-89.56222683,2.98954014094023,-0.9754291469908328,0.0,0.0,2.1127,22,16,247.58498420938224,445.73793856,mp-554048,NaAg(NO2)2,https://materialsproject.org/materials/mp-554048,25.352570978607517,-20.693149339716992,-3.2724080365437507,-35.463816968013475
-2.7584990343333327,-82.75497103,3.0049430150761043,-0.3147120347467123,0.0,0.0,2.9189999999999996,59,30,531.2751610283423,961.4056314,mp-571020,CsMgH3,https://materialsproject.org/materials/mp-571020,9.4107809611051,-27.83489857244657,25.623096502045318,-13.76765521313384
-5.251677953636364,-231.07382996,7.783456415326454,-1.3832717746590917,0.0008827,1.4986874264957223e-05,0.0,62,44,686.4035016822637,3217.384,mvc-8943,ZnBi3O7,https://materialsproject.org/materials/mvc-8943,6.789061390830767,27.13234198935004,33.33981952009694,-5.3431812355066866
-4.4703254942857145,-62.58455692,5.546750704883653,-1.3484927846577384,3.8e-06,1.2916205137091086e-07,1.4624,12,14,342.8673179597747,1145.29047,mp-553874,Ba2LaAg5S6,https://materialsproject.org/materials/mp-553874,2.3372490947463294,-10.646957747146876,0.004790155190941876,-1.5789422671449571
-0.86286167375,-6.90289339,2.6247098028482103,0.1908903315948277,0.00142885,2.3017347414477506e-05,0.0,194,8,723.4504545818413,1143.5127114,mp-979983,Cs3Yb,https://materialsproject.org/materials/mp-979983,3.1429118062626378,-28.6543062150946,-9.267015187521434,-33.376379788228675
-6.404092378181818,-281.78006464,4.0186581995887,-2.286676165503246,1.9999997999999999,0.04731474153430449,3.8671,14,44,492.61871582680845,1192.182896,mvc-1239,ZnNiP2O7,https://materialsproject.org/materials/mvc-1239,6.623622642557017,32.47370614648092,30.921838903742966,-2.836581931376338
-4.920866093947368,-373.98582314,3.491472391090385,-3.1938228452615607,2.175e-06,2.3930932668491186e-08,5.857900000000001,198,76,1059.1977852033908,2227.0839376,mp-1209690,Rb2Be3Zn2F12,https://materialsproject.org/materials/mp-1209690,0.16407806831799124,-1.6991558728705345,11.196253111466829,-16.076087221308292
-4.2097024575,-33.67761966,4.84467382792635,-2.4979058871425,7.2000000000000005e-06,6.303310796281464e-07,0.0,148,8,133.119354374737,388.3798192,mvc-15677,ZnBiF6,https://materialsproject.org/materials/mvc-15677,3.1440349186170216,-37.28879051749432,3.789825344116162,-31.3210440747027
-7.5458647125,-30.18345885,8.135219977339808,-0.33169762937500025,0.0,0.0,0.0,38,4,49.322932117892705,241.64015,mp-3061,TbNiC2,https://materialsproject.org/materials/mp-3061,-36.18226567386074,28.737910814842426,-40.108216590446354,35.663692911983006
-5.896718368333333,-283.04248168,3.1661747833506966,-2.3047555960208337,0.0,0.0,3.513,14,48,797.4208824529453,1520.4544,mp-557367,K2CaAs2O7,https://materialsproject.org/materials/mp-557367,7.091305752773714,20.71415132128342,49.33735027491198,32.00528911166601
-7.0335214714999985,-422.01128829,6.3011667105640266,-2.483666684,4.2890790333333335,0.05333599713463112,0.0,12,60,937.1757828567703,3556.2553499999995,mp-1182483,Ba4Pr(RuO4)3,https://materialsproject.org/materials/mp-1182483,-18.15170024468513,16.819692495284787,-16.489278331478292,46.78406647382578
-2.8381802966666663,-17.02908178,3.5881784324571133,-0.5823072999999998,3.45e-06,1.6528414779166673e-07,4.0779999999999985,72,6,243.25698503167683,525.642244,mp-570886,BeI2,https://materialsproject.org/materials/mp-570886,7.614592778609952,-30.62705224676066,-7.35974366292553,-34.33512396475362
-6.626063295,-172.27764567,6.956853849777902,-2.3387305245604395,0.0,0.0,3.5257000000000005,15,26,387.41603745864717,1623.0854479999996,mp-542152,P2Pb3O8,https://materialsproject.org/materials/mp-542152,10.430117873456597,15.535209117148533,14.593791996868505,7.960869555936817
-5.6223191396875,-179.91421247,2.7625774835260275,-2.98209834387625,0.9999336,0.03090737940142782,2.6196,19,32,377.0391139056083,627.2660512,mp-765589,Li2VOF4,https://materialsproject.org/materials/mp-765589,9.97053165746723,-33.89243084855082,36.4066088526391,-45.23714919170124
-7.7606300776,-194.01575194,6.0772271754364064,-3.3335990314000004,4.9999997,0.13991795222608633,0.0,2,25,416.4606431090628,1524.15925,mp-557002,Pr9O16,https://materialsproject.org/materials/mp-557002,-10.202358730655572,-29.37742054886797,-0.7391976100643676,-29.21940060973281
-6.259689780357142,-350.54262769999997,5.431496077197098,-1.819269537857144,0.0991209,0.0012288461905258846,0.0,176,56,940.0374089291523,3074.7904,mp-1210868,Nd7(BrO6)3,https://materialsproject.org/materials/mp-1210868,7.798862057511473,-16.2912200351454,14.069878843585201,-21.326805384523595
-1.4050539575,-5.62021583,2.036075109967564,0.5845629564999999,0.1705122,0.008821086397648706,0.0,139,4,225.2738646615385,276.22025,mp-1185123,K3Tb,https://materialsproject.org/materials/mp-1185123,-6.159361290152951,-34.34006297708876,-4.594895405128762,-31.191484741104514
-5.3497826102631585,-406.58347838,2.6546910700345694,-1.6745270796171727,2.000000075,0.015070700367078185,0.6442,198,76,1546.585749265552,2472.5148151999997,mp-1213923,Cs2S5O12,https://materialsproject.org/materials/mp-1213923,6.467899095575192,-28.89649992104782,18.61521721457419,-17.597547869545924
-5.611342671071428,-157.11759479,6.117404170096389,-1.5355361242857144,0.000102225,1.292904279901898e-06,0.0,214,28,921.442360346514,3394.58164,mp-1192721,La3IrBr3,https://materialsproject.org/materials/mp-1192721,-27.196799521181887,-40.38486632513481,-35.0364128282815,-18.23826809822272
-7.547572816500001,-150.95145633,4.007569458131602,-2.5977893748000005,0.0,0.0,4.2582,15,20,268.53769438252203,648.09284,mp-9804,KHo(CO3)2,https://materialsproject.org/materials/mp-9804,31.37069728651635,-17.5273153568304,43.93571842214642,-29.107330158740396
-7.245289006666668,-86.94346808,3.1719043914526184,-2.5933659087787357,0.0,0.0,3.6197,164,12,235.73816570905117,450.298912,mp-1209180,RbSc(MoO4)2,https://materialsproject.org/materials/mp-1209180,7.595407855030472,-27.16993706340311,24.818398861041004,-14.269910327578401
-4.790457153999999,-47.90457154,5.194827621473019,-1.1146665254999994,4.7124350999999995,0.14047301037444554,0.0,12,10,390.9578341454448,1223.07185,mp-1206019,Ce4SiI5,https://materialsproject.org/materials/mp-1206019,-0.3000929199384616,-14.599943572153675,19.82638846219351,-14.081608659538185
-4.885712393048781,-400.62841623,3.343036639967869,-0.5190793840934153,0.0,0.0,2.8456,63,82,1728.9050424131033,3480.6727,mp-1016214,Bi2H18C3(IN)9,https://materialsproject.org/materials/mp-1016214,43.00141780623591,-44.3306670396096,33.250906887563374,-56.87068363630117
-7.535683837,-75.35683837,4.294989164410614,-0.35418458595199953,3.90069935,0.26069822189135605,0.0,140,10,174.37404272794075,451.01898,mp-1246208,Sr(MnN)2,https://materialsproject.org/materials/mp-1246208,5.174600881161008,25.834418498805213,30.82334907348627,-1.6087836340956023
-3.406098773,-34.06098773,1.9352948631325728,-2.20119940328,4.1e-06,1.5614194398801886e-07,4.9322,71,10,306.01428640571515,356.64796928,mp-1223924,K4NaCl5,https://materialsproject.org/materials/mp-1223924,-27.089444473673364,-45.440554406126616,-36.407145361710256,-23.3510660124738
-6.474290334705883,-220.12587138,3.0750858271358146,-2.9049009721029413,0.0,0.0,4.2286,40,34,563.72652350771,1043.9426,mp-558347,K4Ba(SiO3)3,https://materialsproject.org/materials/mp-558347,-8.56147692743862,33.978549638424894,-3.7999509361246253,28.55051456257544
-7.706605464285714,-215.78495299999997,3.215234593964561,-3.142781562619047,0.0,0.0,4.9456,60,28,357.885075775164,692.9584,mp-9749,Sr(BO2)2,https://materialsproject.org/materials/mp-9749,4.819103707551621,-4.603312642104602,12.536826420265571,1.833975502388535
-6.9785689,-27.9142756,5.069396582262604,-2.2464182581640633,6.9999753,0.7103265574472656,0.0,160,4,114.84600244384684,350.60900000000004,mp-1218270,SrEuSeS,https://materialsproject.org/materials/mp-1218270,-27.228661267808604,-40.28303735624947,-36.03523086124593,-21.212192234563894
-4.02975037475,-161.19001499,5.0612441401525246,-0.685125233656251,0.0017334,2.365523498158606e-05,0.0025999999999992696,5,40,853.9824648742723,2602.8979999999997,mp-1216071,Zn2Cu10Sn5Hg3S20,https://materialsproject.org/materials/mp-1216071,-13.140062563888815,-24.231525067828425,-10.617858647536572,33.10858154095356
-4.148804049615385,-107.86890529,4.921751229988896,-0.871846680576923,3.0,0.041520495956964214,1.6006,2,26,842.0466449610144,2495.7824,mp-1192987,BiW2(Br4O)2,https://materialsproject.org/materials/mp-1192987,43.38264626358747,-37.82798582677012,13.243882184158581,-41.183752940656255
-5.7837851465,-115.67570293,7.6058945963338545,-2.1467769437500004,0.0,0.0,0.5644999999999998,26,20,321.0842348761726,1470.6868,mp-1227843,BaSr(PbO3)2,https://materialsproject.org/materials/mp-1227843,-21.877140191950215,12.124946713360163,-29.53570112669733,47.94706207863101
-5.43320411125,-43.46563289,7.885728893465665,-1.469260550625,0.0,0.0,2.2291,29,8,188.0010446271828,892.7976,mp-550714,PbO,https://materialsproject.org/materials/mp-550714,-10.120748064077967,-28.671508955905622,-0.2459016122474057,-30.01982108349409
-7.511612271666666,-180.27869452,1.588812780711779,-0.27516259710666563,0.0,0.0,4.3293,62,24,439.5451614622014,420.5592,mp-637256,KC2N3,https://materialsproject.org/materials/mp-637256,15.401902095869836,-13.882682668809053,25.20044214434948,-25.379841468786665
-3.0845358419999998,-15.42267921,6.322249174608622,0.01318069599999987,2e-07,1.699240375644731e-08,0.0,166,5,137.16793620958862,522.246,mp-1070116,Ga2Te3,https://materialsproject.org/materials/mp-1070116,-33.52914641092025,-18.670849562306145,-34.93179086075418,-20.453364009071244
-6.810993131964287,-381.41561539,4.735228556555463,-3.1783197474825005,0.9856554,0.013363032057344546,0.0,194,56,859.6022089694715,2451.26,mp-1198788,Ba6Li2Si4ClO15,https://materialsproject.org/materials/mp-1198788,-7.923302126096171,29.808117743857355,6.334866133334017,25.36614654912897
-5.9022862854545455,-259.70059656,2.3541490784816785,0.13985618394430202,0.0,0.0,2.2423,14,44,1164.7297530410847,1651.2393919999995,mp-568534,P4C2Se3N2,https://materialsproject.org/materials/mp-568534,33.25315350238962,-23.98704858869355,24.99299169030755,-51.74564372161964
-5.503256915714287,-77.04559682,3.5189958506634365,-1.0585003518819636,3.99999975,0.24833300822546084,0.0,15,14,187.71671357679452,397.80717000000004,mp-1210724,MnHSeO4,https://materialsproject.org/materials/mp-1210724,53.887879513946494,-21.02249156966333,69.1576535155315,-19.811101259524477
-6.529974543928572,-365.67857446,4.925372930627108,-2.3614446853236606,0.0,0.0,3.5148,62,56,888.2763353427695,2634.7421600000002,mp-4350,La2(SeO3)3,https://materialsproject.org/materials/mp-4350,10.213887301925023,3.634412148735372,11.510510636076967,10.233941114557332
-6.867024082083333,-329.61715594,6.896362276897999,-2.2761057533333333,0.0,0.0,1.9725,14,48,797.8876521266608,3313.69644,mp-555259,UTe2PbO8,https://materialsproject.org/materials/mp-555259,11.104076043129421,19.500554949173274,35.070622375991825,2.1118863571985265
-5.214577162222223,-187.72477784,6.634809611466482,-2.933849533703333,0.0,0.0,1.9721,14,36,503.59682504001063,2012.1592896,mp-1211006,LuPtF7,https://materialsproject.org/materials/mp-1211006,12.043630147559815,-26.55588701104493,25.23229610485366,-14.705974780545466
-1.59013827375,-12.72110619,5.877683762012549,0.03763853625000002,0.04993675,0.0015690080198062135,0.0,194,8,370.91341260511734,1312.894,mp-1183433,BaYb3,https://materialsproject.org/materials/mp-1183433,-14.58687286764183,24.36444315385535,-20.001006677931805,-6.2245469513763885
-2.765484685625,-44.24775497,2.1339044687099573,-0.9589897545878574,0.0,0.0,1.7726,113,16,576.7732532890079,741.192464,mp-27824,PICl6,https://materialsproject.org/materials/mp-27824,21.134542544206084,-22.933117339550446,10.205576620166337,-22.343089360792685
-5.418244340833334,-195.05679627,5.23096001239958,-2.921792786758889,1.4175e-05,3.12003144549098e-07,2.1027,14,36,529.4702025832877,1667.9146896,mp-1207656,YPtF7,https://materialsproject.org/materials/mp-1207656,12.036535376804602,-26.45593839329381,25.15788820020691,-15.095624095321044
-5.258067420833333,-189.29042715,2.1998109717269907,-1.040905923602779,0.0,0.0,2.7056,2,36,377.44385944219323,500.0214528,mp-743587,MoH8N2O5F2,https://materialsproject.org/materials/mp-743587,42.256013193312505,-36.61532184691914,29.368431053200837,-54.08771227422935
-4.62972624125,-111.11342979,2.5849235626699563,0.2186412360166668,2.99999995,0.06203173315107398,0.0489,14,24,563.6178768345526,877.3712,mp-1192400,PdCNCl2O,https://materialsproject.org/materials/mp-1192400,43.71204407424217,-49.116896712316425,34.43037906522954,-64.43363380090788
-7.581755559318182,-333.59724461,3.6158480448916515,-2.721703221250001,3.00000115,0.05400256343438594,2.3892,62,44,647.417557544898,1409.7612,mp-542104,SrV3O7,https://materialsproject.org/materials/mp-542104,20.169067814700746,58.45383871332013,35.40023375042953,-5.184505073732363
-2.924891448888889,-105.29609216,4.67563963292594,-0.8431952655627397,0.0,0.0,1.4123,62,36,1170.5764832346456,3296.0344,mp-16818,Rb2Cd3Se4,https://materialsproject.org/materials/mp-16818,16.235491402169067,-12.080369265837824,14.713916007808173,-24.167189685894602
-6.703531982272727,-294.95540722,4.24626579924753,-2.5025581077759753,2.5e-08,4.777509829995897e-10,4.0556,14,44,609.8399159426586,1559.458896,mp-759596,LiBiP2O7,https://materialsproject.org/materials/mp-759596,43.47240175159107,-42.51651416027161,26.200358477033205,-69.26557741527324
-7.911254596875,-126.58007355,5.375041195297095,-3.5561887030468746,0.0,0.0,3.4394000000000005,146,16,281.62495380489645,911.599,mp-15751,Ba3Y4O9,https://materialsproject.org/materials/mp-15751,-20.353818087285678,11.056374272819703,-18.21316180257788,46.386854325333516
-4.88685699125,-39.09485593,10.944361057248928,-0.1886764218750008,2e-07,1.3254088644250226e-08,0.0,187,8,175.85614651242517,1159.0412,mp-1227388,Bi3Pd5,https://materialsproject.org/materials/mp-1227388,-25.936505080096268,-36.28579289250877,-36.3387783679658,-17.26350207620257
-4.694672875454545,-103.28280326,4.6096248994200755,-1.2289280836609089,2.0000005,0.060674745623974076,0.2530000000000001,81,22,384.1488766446869,1066.39,mp-581276,Cu2Te2Cl2O5,https://materialsproject.org/materials/mp-581276,16.558819373496153,-6.108755661420666,15.106823096109506,-18.511747229518797
-7.549412995500001,-150.98825991,3.940182594250511,-2.596891342300001,0.0,0.0,4.3497,15,20,271.08189895657887,643.2321999999998,mp-9807,KDy(CO3)2,https://materialsproject.org/materials/mp-9807,31.248747716743807,-17.444659765056162,43.839160938259795,-29.168047356446692
-3.127800111875,-100.08960358,4.198629196943272,-0.7737540930549569,2.000173825,0.02100063185946012,0.0,62,32,1109.9739983503398,2806.54,mp-1202208,Rb2PtBr4O,https://materialsproject.org/materials/mp-1202208,-16.802680956869377,-6.386411231874794,4.146653133415998,-47.20445378064066
-6.476153868999998,-64.76153869,5.698549299842348,-2.3054643374375003,0.97555025,0.04743258753058335,0.0,63,10,239.6901875752882,822.556,mp-1205797,CeLuS3,https://materialsproject.org/materials/mp-1205797,8.670593719696985,-7.389226349862795,13.654366458085173,4.361073436658832
-4.668996730625,-298.81579076,5.669081945845822,-1.2221404917187502,0.0,0.0,0.6639999999999997,14,64,2318.2906262081337,7914.64652,mp-570607,Dy5C2I9,https://materialsproject.org/materials/mp-570607,-0.90151243189415,-12.365625963070533,-6.232084655494084,-1.331262513126722
-5.9814263105,-119.62852621,3.2871205138458794,-1.3460239440250006,9.0000014,0.3883682292653071,0.0,166,20,270.069978347988,534.6170999999998,mp-1180836,KCr2Fe3O14,https://materialsproject.org/materials/mp-1180836,-6.938394424059178,-6.2710381886311595,6.566419084511838,-38.61410061191889
-5.932943992352941,-100.86004787,8.749131922627312,0.22502951352941167,0.8335236999999999,0.02155905937282733,0.0,204,17,450.57342350969617,2374.004,mp-640956,Eu(Sb3Os)4,https://materialsproject.org/materials/mp-640956,-4.219289534911386,-1.6617069992234188,-0.6308481183653981,26.794271469643178
-6.34010433,-215.56354722,6.763857257939249,-2.3286307997794125,0.0,0.0,3.2347999999999995,15,34,501.27114497905677,2041.8228,mp-581795,Er2Te4O11,https://materialsproject.org/materials/mp-581795,5.9437802621070395,15.79155712591414,36.2112561774698,-3.594269791882643
-5.798531417083333,-139.16475401,3.3441404930414023,-2.9815641833608044,0.999999675,0.028019987254765573,2.6994,55,24,415.919567665276,837.6156384000002,mp-1191935,RbVOF3,https://materialsproject.org/materials/mp-1191935,9.890186771426901,16.000531995599133,13.630837455593193,6.996891709207294