energy_per_atom,energy,density,formation_energy_per_atom,total_magnetization_uB,total_magnetization_T,band_gap,sgr,num_sites,cell_volume,weight,mp_id,formula,URL,tsne_xrd_lin1_0,tsne_xrd_lin1_1,tsne_xrd_lin2_0,tsne_xrd_lin2_1
-5.851170224375,-93.61872359,4.486387796930427,-1.811820583185,11.7876977,0.9578245921249532,0.0,2,16,143.42353876129303,387.49683,mp-1174093,Li4MnCo3O8,https://materialsproject.org/materials/mp-1174093,13.458542402364225,-75.75663970935459,-11.634775671569257,-82.53789958485976
-6.30100138,-201.63204416,4.145214240679128,-2.1605383425,17.99999975,0.6976706969197226,1.8475000000000008,2,32,300.676470889096,750.5806,mp-768701,Li4CrFe3O8,https://materialsproject.org/materials/mp-768701,2.303068479635077,-65.93199862100111,-12.806158640187176,-64.64582528848545
-4.643376618235294,-78.93740251,4.206014207790553,-0.9367744203823534,2.0000004000000002,0.1182075904413835,0.04809999999999981,2,17,197.1796745007105,499.44053856,mp-760161,Na2(NiO2)5,https://materialsproject.org/materials/mp-760161,9.655859673901633,-53.334042690845926,-3.4494546440549563,-59.570115779738714
-5.7579022540625,-184.25287213,4.158168998409587,-1.8225532906849988,23.764454500000003,0.9592220326971762,0.0,6,32,288.7261578519025,723.001465,mp-1100571,Li9Mn2Co5O16,https://materialsproject.org/materials/mp-1100571,11.943079435385904,-72.80532859905432,-13.314201506727777,-81.72738411650657
-4.475210261428571,-31.32647183,4.7209036373255815,-2.6310719394214286,1.5e-06,1.5984728693625907e-07,0.0,82,7,109.36123780324355,310.91341600000004,mp-752483,LiBiF5,https://materialsproject.org/materials/mp-752483,20.786863096298585,-3.4508824962232936,6.615619452030624,-38.045193633863285
-8.63111681875,-69.04893455,7.5327272174926625,-0.5105116759374989,6.105e-05,6.0316626181768214e-06,0.0,194,8,117.95763447058106,535.0929199999998,mp-1079546,Nb2GaC,https://materialsproject.org/materials/mp-1079546,-73.37038172461493,4.346205567822853,-86.98002872838484,2.752142118577188
-5.816888351666668,-139.60532044,3.986611786788293,-1.8694895148716681,15.9999999,0.8490458925053465,0.0,2,24,219.61714536458283,527.2554749999998,mp-1174890,Li7Mn2(CoO4)3,https://materialsproject.org/materials/mp-1174890,13.200476514262204,-84.16382097447116,-17.293154221946864,-88.05280015098316
-5.691782875,-79.68496025,5.931337855072598,-1.603676104642857,0.0,0.0,1.065,166,14,147.72305622072471,527.6571849999998,mp-756423,Li2Co3BiO8,https://materialsproject.org/materials/mp-756423,18.703720716523584,-70.32482432916304,-2.8390846953659774,-50.756196255680244
-5.769006351875,-184.60820326,4.147729919678759,-1.8336573884975,22.000000600000003,0.8857727630304914,0.0,6,32,289.45282886275237,723.001465,mp-1100572,Li9Mn2Co5O16,https://materialsproject.org/materials/mp-1100572,2.089709291173032,-73.7403036353527,-21.77104876505344,-76.32811588487928
-6.325921078125,-303.64421175,3.2160796636288635,-2.076138636441667,10.000000300000002,0.2663217118187149,0.1649999999999996,2,48,437.5935045849568,847.5173044000002,mp-758231,LiMn3Al2(HO2)6,https://materialsproject.org/materials/mp-758231,20.44316810567824,-64.46818263382089,-1.6165594804037808,-72.25776890615447
-6.2131167808333325,-149.11480274,3.9700636167255903,-2.078850879951666,16.000000099999998,0.8585322055326381,0.3893,1,24,217.19049830015132,519.265175,mp-1175230,Li7Mn4CoO12,https://materialsproject.org/materials/mp-1175230,15.767133709489286,-74.62141587356592,-11.736537293590047,-81.2275020275498
-5.830308175,-163.2486289,4.134305902475956,-1.8897949801578582,11.000000199999999,0.5105689023008111,0.8407999999999998,2,28,251.082105179687,625.12847,mp-1174433,Li4MnCo2O7,https://materialsproject.org/materials/mp-1174433,13.238654358585267,-72.37237229021294,-11.954730560885832,-80.93230532257516
-6.960714051749999,-278.42856207,4.026873723331201,-1.990547939288,10.000000025,0.26387873198800305,0.4556,9,40,441.6447174008968,1071.00614,mp-1176672,LiMn3O6,https://materialsproject.org/materials/mp-1176672,11.09104560914598,-69.8772040407063,-16.52042978254513,-67.82496815903528
-6.42463747625,-205.58839924,3.920809445761584,-2.13891276771,26.000000600000003,1.0176682377426645,0.7864,10,32,297.74506056227267,703.025715,mp-1100483,Li9Mn7O16,https://materialsproject.org/materials/mp-1100483,2.4024606920994955,-78.53241483240961,-28.975999627993748,-78.4197749316176
-6.143700650666668,-184.31101952,3.3286276984685976,-2.629278791281666,1.9999789000000001,0.08067942082570657,0.2822,8,30,288.8950293124338,579.103516,mp-763225,Li2VO2F,https://materialsproject.org/materials/mp-763225,12.069208055811036,-61.97994328817146,-0.6161837154386817,-75.39169609706661
-5.82812288,-163.18744064,4.14711206605158,-1.8876096851578583,9.999999800000001,0.4655912623399777,0.8855,1,28,250.3067708123897,625.12847,mp-1174606,Li4MnCo2O7,https://materialsproject.org/materials/mp-1174606,12.864406024788686,-72.59141499424247,-11.914433918838167,-81.75008285402929
-5.7858194415625,-185.14622213,4.148745028760832,-1.850470478185,26.0099801,1.0474804465478238,0.1578999999999997,2,32,289.3820059528427,723.001465,mp-1175633,Li9Mn2Co5O16,https://materialsproject.org/materials/mp-1175633,12.586381627018573,-72.91742617272999,-11.954283980414491,-82.06212797453686
-5.7925131215625,-185.36041989,4.184331319425936,-1.8571641581849996,24.0000008,0.9748246017977296,0.6464000000000003,1,32,286.92091207882754,723.001465,mp-1175837,Li9Mn2Co5O16,https://materialsproject.org/materials/mp-1175837,12.701102330344868,-72.84153692409048,-11.79963687619952,-81.06742985041836
-7.575600924545455,-166.66322034,3.747755237713221,-2.8377886075000007,7.0,0.35669291943514464,0.0,2,22,228.7078014811863,516.1822999999998,mp-753117,Li4Ti3V3O12,https://materialsproject.org/materials/mp-753117,5.804455811673318,-64.03750810929992,-7.254216053221422,-65.32856558260974
-5.7790275271875,-184.92888087,4.182711105832974,-1.8436785638099995,17.999999300000002,0.7308353024238505,0.0,2,32,287.03205366859856,723.001465,mp-1175698,Li9Mn2Co5O16,https://materialsproject.org/materials/mp-1175698,4.942228081281462,-73.81094654055181,-25.11303210331534,-76.18734585740262
-8.794460448333334,-105.53352538,3.544931828362861,-3.3444745363888893,0.0,0.0,1.7121000000000002,227,12,149.64494132128837,319.4632,mp-25262,TiO2,https://materialsproject.org/materials/mp-25262,2.941080930635241,-66.81328530541593,-8.646186783597361,-66.3329496205188
-5.787730564375,-92.60368903,4.260437097529136,-1.897857988125,15.9999995,1.2524292405862862,0.0,166,16,148.88268693458068,381.9876,mp-769856,Li4Fe3NiO8,https://materialsproject.org/materials/mp-769856,3.6537196823836835,-65.25259998027579,-10.628557294045539,-64.6207995540306
-6.1318142920000005,-122.63628584,3.9507430057700703,-2.062655318019,11.9999994,0.7821747478113218,0.3895999999999997,5,20,178.79479063930626,425.38732999999996,mp-1174811,Li6Mn3CoO10,https://materialsproject.org/materials/mp-1174811,18.952652626156127,-79.90321774306322,-9.634809769498512,-89.14051544791903
-5.7543757693333335,-86.31563654,4.381735157997942,-1.6897055446666676,11.9999999,0.9673943098551516,0.09799999999999986,12,15,144.5623306656098,381.462785,mp-752570,Li3FeCo3O8,https://materialsproject.org/materials/mp-752570,3.7883805429548616,-70.73092888188124,-6.67722699473305,-68.7192862488263
-6.771442083999999,-135.42884168,3.8692815367235935,-2.472233243747001,10.9999996,0.660272878138906,1.0925000000000002,1,20,194.15413245182785,452.4055032,mp-761283,Li5V5O9F,https://materialsproject.org/materials/mp-761283,3.30440986321747,-63.95651292784484,-10.855617651307856,-64.71423295377593
-5.86903632375,-140.85687177,4.068344661122045,-1.9216374869550008,17.9999998,0.9747595021134142,0.7861000000000002,2,24,215.2050460861824,527.2554749999998,mp-1174539,Li7Mn2(CoO4)3,https://materialsproject.org/materials/mp-1174539,16.32526440462699,-73.13691769482155,-10.930721776765656,-79.00989499333559
-5.869003449166668,-140.85608278,4.077571022901773,-1.921604612371668,17.999999300000002,0.9769700752474194,0.8654999999999999,1,24,214.7180994209098,527.2554749999998,mp-1174925,Li7Mn2(CoO4)3,https://materialsproject.org/materials/mp-1174925,14.024810507323412,-74.38391083610263,-11.538929048276154,-79.1548741625955
-5.715642506428572,-160.03799018,4.0127013155889015,-1.7751293115864288,10.51743085,0.4738114574659011,0.0,8,28,258.69112794858626,625.12847,mp-1174447,Li4MnCo2O7,https://materialsproject.org/materials/mp-1174447,6.7312763644713876,-79.66898762864561,-24.449270680920442,-75.22537278665685
-7.072636279166668,-84.87163535,3.6394249337840847,-2.036758255000001,4.9999996,0.4106950875394357,0.0,166,12,141.88219184768636,310.9650386,mp-1229068,AlCr3O8,https://materialsproject.org/materials/mp-1229068,19.024249659615194,-67.49273218123524,-15.410624214992051,-69.56032720815341
-7.66681961,-115.00229415,3.7368050274024833,-2.9585644846666668,3.2601615,0.2490102958985232,0.0,12,15,152.58057163021388,343.3607,mp-752665,Li3Ti3VO8,https://materialsproject.org/materials/mp-752665,4.295133754490147,-64.2463496059754,-10.622411477503242,-65.13493327352903
-6.4332743103125,-205.86477793,3.934073325851524,-2.1475496017725,25.999950100000003,1.0211089694274034,0.0,2,32,296.7412015963711,703.025715,mp-1100546,Li9Mn7O16,https://materialsproject.org/materials/mp-1100546,3.388311171741805,-78.77813144058572,-28.984168433316306,-77.38532519430865
-6.1905065537500015,-148.57215729,3.88058907849592,-2.056240652868333,17.999987100000002,0.944080420409648,0.5084,8,24,222.19824819332217,519.265175,mp-1175311,Li7Mn4CoO12,https://materialsproject.org/materials/mp-1175311,3.3850451562042423,-77.32793967882614,-25.91388273383348,-78.91851321413421
-5.426190149375,-86.81904239,4.563338884072675,-1.5980346856250005,13.4616272,1.088425051784218,0.0,166,16,144.13732491334974,396.104785,mp-753919,Li4Co3CuO8,https://materialsproject.org/materials/mp-753919,4.6143275391999925,-69.49766567694589,-19.5183907241032,-72.28888478899152
-6.1131942785,-122.26388557,3.943042834606077,-2.0440353045189994,12.000017199999998,0.7806514129325522,0.4872000000000001,1,20,179.1439500445934,425.38732999999996,mp-1174816,Li6Mn3CoO10,https://materialsproject.org/materials/mp-1174816,16.32021356966041,-80.46956869218803,-17.471840644460602,-84.51616920513618
-5.879430457173912,-270.45380103,3.855691633288543,-1.9316490421739136,13.0,0.34295879203001906,0.139,1,46,441.75231999888496,1025.7276000000004,mp-780305,Li6Fe5O12,https://materialsproject.org/materials/mp-780305,4.225078287373635,-69.79591235212854,-17.071449549674238,-75.28802537832969
-5.9247865895,-118.49573179,3.9817954886096936,-1.9677478539709996,7.00000465,0.4555764810498942,1.1229999999999998,2,20,179.06654753405644,429.38248,mp-1173974,Li3MnCoO5,https://materialsproject.org/materials/mp-1173974,1.1626794760861283,-73.0104957230092,-20.828932138975798,-76.43879284576161
-5.8681768991666665,-140.83624558,4.074069177316696,-1.9207780623716664,16.0000002,0.8676720861319881,0.5926,2,24,214.90265927882282,527.2554749999998,mp-1174576,Li7Mn2(CoO4)3,https://materialsproject.org/materials/mp-1174576,16.38910618282677,-75.28286590252895,-11.145823090739153,-81.45646011017186
-6.163943179583334,-147.93463631,3.8915214849694886,-2.029677278701666,16.000003200000002,0.8415475149091299,0.0,8,24,221.57402921461517,519.265175,mp-1175306,Li7Mn4CoO12,https://materialsproject.org/materials/mp-1175306,3.3466158396695325,-79.53822836632409,-30.04048209381277,-78.33143934379898
-5.7679061575,-184.57299704,4.141554454528048,-1.832557194122499,21.999999399999997,0.8844539069250631,0.0,8,32,289.8844315078564,723.001465,mp-1100650,Li9Mn2Co5O16,https://materialsproject.org/materials/mp-1100650,13.296529225798853,-71.58162973982834,-13.695377696836447,-78.23867158037953
-5.855599415384615,-76.12279240000001,5.319760558116929,-1.2408845515384614,4.8976717,0.43263110057555865,0.0,216,13,131.93176161075357,422.661175,mp-761471,Co5O8,https://materialsproject.org/materials/mp-761471,-21.55562855547803,2.00522024463543,-16.612315173489087,-71.63382541547625
-7.349828794666665,-110.24743192,3.4275937415080424,-3.007522515333333,0.0,0.0,1.7489999999999997,166,15,145.02865176299997,299.3602,mp-758836,Li4Ti3O8,https://materialsproject.org/materials/mp-758836,16.149769114018213,-69.36339886577743,-12.719939132192605,-68.94305773624289
-6.362229108125,-101.79566573,4.157438942210115,-2.0425788708050003,13.9999981,1.0763733598753589,0.4451000000000001,12,16,151.58019582722278,379.50653000000005,mp-1174270,Li4Mn3CoO8,https://materialsproject.org/materials/mp-1174270,2.420717330649328,-63.38932945095998,-10.846275847351016,-63.68041335274528
-5.7708246225,-184.66638792,4.1673849194813455,-1.8354756591224997,23.6440223,0.9564761292799312,0.0,6,32,288.0876573213476,723.001465,mp-1100603,Li9Mn2Co5O16,https://materialsproject.org/materials/mp-1100603,12.278598423314278,-72.28003917098285,-14.391977542462387,-80.56372081985694
-6.3616998916666665,-152.68079740000002,3.8703973731271386,-2.134000458741666,17.9999917,0.9489019067526624,0.7001,12,24,221.0692882842057,515.270025,mp-1175365,Li7Mn5O12,https://materialsproject.org/materials/mp-1175365,12.683559861184706,-82.43749256451811,-18.523442195729068,-84.40527929385749
-5.897755441,-117.95510882,4.003818156585054,-1.940716705471,6.0,0.3926536257479231,0.032600000000000406,1,20,178.08160691797204,429.38248,mp-1174235,Li3MnCoO5,https://materialsproject.org/materials/mp-1174235,13.155268995937085,-72.50732834925654,-11.918649808483448,-80.19355023141672
-5.75568410375,-184.18189132,4.130812972527487,-1.8203351403724997,24.107077399999998,0.96664999765696,0.0,12,32,290.63822704979765,723.001465,mp-1100748,Li9Mn2Co5O16,https://materialsproject.org/materials/mp-1100748,4.499258373350553,-70.28443745411424,-21.4203675698522,-74.20643617301968
-5.76674872,-184.53595904,4.123027628733035,-1.8313997566224989,23.9999995,0.9605426152592316,0.06150000000000011,6,32,291.1870272813615,723.001465,mp-1100761,Li9Mn2Co5O16,https://materialsproject.org/materials/mp-1100761,4.789441273044004,-73.09482688750712,-23.255932153782478,-74.68595596385403
-7.002416664,-105.03624996,3.932912622926672,-2.388733023397334,8.9999999,0.6966702280036131,0.8178999999999998,166,15,150.55413245976516,356.58074500000004,mp-757175,Li3MnV3O8,https://materialsproject.org/materials/mp-757175,3.1495164115414918,-65.26733106463773,-9.68931586978814,-65.17894117726567
-5.7752469225,-184.80790152,4.163556993281457,-1.8398979591224995,21.999999300000002,0.8891526776011134,0.0,6,32,288.3525217853394,723.001465,mp-1100754,Li9Mn2Co5O16,https://materialsproject.org/materials/mp-1100754,2.1883809206926053,-73.18669635017075,-22.56415617971135,-76.05279645719624
-7.062951849999998,-98.88132590000001,3.9179933950104897,-2.1970888307142857,4.9999997,0.3929757368018797,0.0,74,14,148.27968983733024,349.8616,mvc-16816,LiCr2O4,https://materialsproject.org/materials/mvc-16816,-0.5236347484284596,-67.3731644024563,-13.721329340978013,-68.26807076623925
-8.239321377857143,-115.35049929,4.426525118192823,-3.0324615704761917,4.495e-05,3.7395219865577202e-06,0.0,74,14,140.08480586813428,373.4262772,mvc-16757,Ti2AlO4,https://materialsproject.org/materials/mvc-16757,-9.265729349063657,-64.83072123157936,-27.935475708368745,-61.925011088259104
-5.848887049166668,-140.37328918,4.041728131763418,-1.9014882123716663,16.0000008,0.8607843064372811,0.0,12,24,216.6222644740947,527.2554749999998,mp-1174551,Li7Mn2(CoO4)3,https://materialsproject.org/materials/mp-1174551,1.867546892190072,-72.86032203281894,-21.811136238249453,-74.74878230710063
-4.997279533846154,-64.96463394,4.282089554665238,-1.1303070534615391,1.9999997999999999,0.1492018186503996,0.4870000000000001,166,13,156.21878758006685,402.8468,mp-18718,Ca(NiO2)4,https://materialsproject.org/materials/mp-18718,9.685711791348584,-53.6536506822621,-3.871072256008468,-59.66347645906117
-6.3696831454166665,-152.87239549,3.894598748038356,-2.1419837124916667,17.999999399999997,0.9548357449295092,0.0,2,24,219.6955445243853,515.270025,mp-1175328,Li7Mn5O12,https://materialsproject.org/materials/mp-1175328,14.50503135608191,-82.36520272594095,-16.582288722515692,-86.53103570975372
-7.142911923636363,-78.57203116,3.811468835676457,-2.4732707902272724,5.0000029,0.5091269651003277,1.1142,12,11,114.45152516740818,262.7029,mp-752965,Li2V3O6,https://materialsproject.org/materials/mp-752965,5.473827793078336,-64.77157241453078,-7.748588318968485,-65.70767781370823
-6.583410263636364,-72.4175129,4.180805553268896,-2.0690613084090907,5.000000099999999,0.5377840429607652,0.6491000000000002,12,11,108.35264785358486,272.80379500000004,mp-758963,Li2Cr2CoO6,https://materialsproject.org/materials/mp-758963,6.978181826602032,-67.67770376290565,-6.361987819556135,-68.62116107878877
-6.400237006071428,-179.20663617,3.8850523893831737,-2.1393802727949995,11.000098,0.4923784546707079,0.96,12,28,260.36040647277906,609.14787,mp-1174351,Li4Mn3O7,https://materialsproject.org/materials/mp-1174351,10.74698664435755,-82.56661860192635,-18.889482478226572,-84.62960617060622
-5.842056626875,-93.47290603,4.352042317772852,-1.8027069856850002,13.999999599999999,1.1035228135514938,0.6722000000000001,2,16,147.85095527759688,387.49683,mp-1174126,Li4MnCo3O8,https://materialsproject.org/materials/mp-1174126,4.929522717431384,-75.2942290674327,-26.46073064735764,-76.50205381269866
-5.861386157999999,-117.22772316,3.8921971274915337,-1.9043474224709995,7.00000025,0.44532481926544776,0.11660000000000005,2,20,183.1886586873727,429.38248,mp-1174047,Li3MnCoO5,https://materialsproject.org/materials/mp-1174047,13.18740113986017,-84.13513936844359,-17.634124929503514,-87.72930663724436
-5.780809992499999,-161.86267979,4.0582893846365184,-1.8402967976578577,10.99999995,0.5011811796510423,0.0,1,28,255.7851673614552,625.12847,mp-1174747,Li4MnCo2O7,https://materialsproject.org/materials/mp-1174747,10.663170269115128,-81.39823861740275,-14.931325175919435,-87.0114511749184
-7.1739862442857145,-100.43580742,3.8839935234259433,-2.3243016907142864,8.9999992,0.7033380499291072,1.1213000000000002,12,14,149.12682975186314,348.807,mp-1177801,Li2VCr3O8,https://materialsproject.org/materials/mp-1177801,4.3822580597483904,-65.34641260450661,-8.1680611968039,-65.89287808004397
-5.7786008509375,-184.91522723,4.164212635732591,-1.8432518875599992,23.6260766,0.95502263530412,0.0,8,32,288.30712156908925,723.001465,mp-1100671,Li9Mn2Co5O16,https://materialsproject.org/materials/mp-1100671,1.952130771923916,-72.73909586945985,-21.752130868531342,-75.53246013889806
-5.870457875,-140.890989,4.094099208807649,-1.9230590382050003,17.999999600000002,0.980930180320027,0.8454999999999999,2,24,213.85126633172848,527.2554749999998,mp-1174512,Li7Mn2(CoO4)3,https://materialsproject.org/materials/mp-1174512,14.015306121018135,-74.4236034892893,-10.371802495622672,-79.15267187659965
-5.7961444421875,-185.47662215,4.155087438710983,-1.8607954788099992,25.999999300000002,1.0486792225529245,0.7292000000000001,5,32,288.9402873750697,723.001465,mp-1175635,Li9Mn2Co5O16,https://materialsproject.org/materials/mp-1175635,2.0724140140026828,-72.80382181593706,-22.298039080630666,-75.46966391014477
-5.75213623125,-184.0683594,4.157179521470149,-1.816787267872499,21.999999300000002,0.8877907300772773,0.0,12,32,288.79487941505164,723.001465,mp-1100743,Li9Mn2Co5O16,https://materialsproject.org/materials/mp-1100743,1.929279529206478,-72.68540668881981,-22.101447131845408,-75.23042396403453
-5.98535545375,-95.76568726,3.9000306526614397,-2.0138568701200006,9.682344500000001,0.7994308977126752,0.0,12,16,141.1487475353906,331.5094850000001,mp-1174091,Li5Mn2CoO8,https://materialsproject.org/materials/mp-1174091,19.78821767461764,-71.82665696012221,-12.287739462319804,-76.15242371294495
-5.78029486125,-184.96943556,4.188633756441407,-1.8449458978724989,23.5574138,0.9578315955029992,0.0,6,32,286.62619565709645,723.001465,mp-1100606,Li9Mn2Co5O16,https://materialsproject.org/materials/mp-1100606,12.35457861387988,-72.23497900918598,-14.192178002708195,-80.33852885121814