energy_per_atom,energy,density,formation_energy_per_atom,total_magnetization_uB,total_magnetization_T,band_gap,sgr,num_sites,cell_volume,weight,mp_id,formula,URL,tsne_xrd_lin1_0,tsne_xrd_lin1_1,tsne_xrd_lin2_0,tsne_xrd_lin2_1
-3.891293185,-7.78258637,8.588813526086602,0.06252800500000033,0.000126,2.317759327001564e-05,0.0,119,2,63.35481618974543,327.6904,mp-1218964,SnBi,https://materialsproject.org/materials/mp-1218964,-34.195432737059456,-14.6445353418589,-31.23744863738976,-11.91493343678996
-4.811399765,-38.49119812,7.012447047915014,-0.6198534368750002,0.00038075,2.7798420934631268e-05,0.0,65,8,159.6236409466026,674.08974,mp-1079217,LaGa2Ni,https://materialsproject.org/materials/mp-1079217,-46.02115560200213,14.470239086052532,-41.91034957525057,27.32331739899451
-5.18699131,-41.49593048,6.305083975061788,-0.6932994724999997,0.0,0.0,0.0,11,8,249.68275157326386,948.048,mp-2089,ZrTe3,https://materialsproject.org/materials/mp-2089,2.95503424047674,25.50740054138948,-2.100826517471734,23.136512570698127
-4.986933825833334,-59.84320591,4.782170539564472,-0.5059190733333333,1.6e-06,8.724114027253225e-08,0.0,51,12,213.73521228454567,615.5339988,mp-975726,PrAl4Co,https://materialsproject.org/materials/mp-975726,-7.752183650641418,8.430929342055585,-0.7861826123463652,20.134655011932995
-6.449291671333332,-96.73937507,4.172082152117091,-2.652082643583333,0.0,0.0,3.0029,189,15,248.6678297966715,624.7746,mp-555731,SrGeO3,https://materialsproject.org/materials/mp-555731,-18.433781131485887,17.65069583228797,-5.561399286434106,29.350009797725907
-3.2806334175,-13.12253367,4.808124757873795,-0.10057644624999984,0.0005043000000000001,5.0369372320949074e-05,0.0,225,4,116.68092322757605,337.852,mp-1186610,PmNdMg2,https://materialsproject.org/materials/mp-1186610,-29.62154661247123,55.678353248331774,-56.34453736862525,52.27039800059799
-7.385527907999999,-36.92763954,8.455479533273866,-0.2095225710000008,4.933688,0.7145420110413496,0.0,119,5,80.46765428922158,409.74201,mp-1216266,UCrCuSi2,https://materialsproject.org/materials/mp-1216266,-60.407400095337714,15.319811448513928,-60.44250548736391,25.063092302059204
-9.02691943475,-361.07677739,5.33180548504854,-3.9985827782500016,0.0,0.0,4.0498,24,40,609.964569511856,1958.52814,mp-762307,Y7HoO12,https://materialsproject.org/materials/mp-762307,18.35517260005571,59.76635933676543,-5.774909036827418,36.51027451793921
-5.058750477799999,-252.93752389,7.107997336586941,-1.566200765602,0.0,0.0,1.5366,12,50,1024.287023591128,4384.4976,mp-653930,CuAs2Pb8Cl5O9,https://materialsproject.org/materials/mp-653930,-9.317949478423486,23.083868772560987,-0.3143094598810435,25.619312958557945
-8.002026434893617,-376.09524244,5.030267944489747,-3.4084955566081567,0.0,0.0,4.0103,189,47,606.6059560212218,1837.59033784,mp-6760,Na3La9B8O27,https://materialsproject.org/materials/mp-6760,3.7709745590830366,21.451195424622085,26.501681027877694,-3.229377048052152
-8.357973787999999,-167.15947576,7.054296323520668,-3.166070348425,0.0001022,4.718313641225472e-06,0.0,6,20,252.43031945757943,1072.37362784,mp-1221219,Na3SrTa4O12,https://materialsproject.org/materials/mp-1221219,-11.542574260671135,49.799949658735905,10.359717252065325,36.2832951085151
-4.921591614,-24.60795807,3.38790398891085,-0.6665224359519997,0.0011972999999999999,0.00011699418028703679,0.0,164,5,119.26586192537123,243.3314,mp-1245917,Sr2CaN2,https://materialsproject.org/materials/mp-1245917,0.6741757984498572,12.795251325052524,-20.079488962501888,43.40476382913003
-2.407902635625,-38.52644217,6.165989529445684,-0.3789421858072921,1.3025e-05,3.0146329600490823e-07,1.3584,19,16,503.52462695862846,1869.71068,mp-23140,AgHgSI,https://materialsproject.org/materials/mp-23140,10.401285973115316,17.403161211162807,22.886078824435682,-14.348871323834205
-5.947934481333332,-356.87606888,7.002051615143287,-2.084141068583333,0.0,0.0,2.8269,62,60,797.6290442434412,3363.3896,mp-1195913,Ga4Bi2O9,https://materialsproject.org/materials/mp-1195913,-1.190518428079987,27.217457557452477,9.321013588218195,22.927733685318113
-7.229594716842103,-137.36229962,7.654509654436105,-2.865940414473684,0.0,0.0,3.0799000000000003,166,19,255.452330909468,1177.54674,mp-41236,Ba2La2Zn(WO6)2,https://materialsproject.org/materials/mp-41236,-15.570673923612446,19.85727703467344,-13.579603402237131,46.749290085755575
-8.985389297000001,-359.41557188,5.591420507704835,-4.011776963250002,0.0,0.0,3.9935,1,40,607.7882856649009,2046.56428,mp-766258,Y13Tm3O24,https://materialsproject.org/materials/mp-766258,17.028787043724357,58.78429054439665,-2.8765728913090283,38.597933634263256
-3.2373678257142857,-22.66157478,3.4885227487501957,-1.5321764857142857,0.0,0.0,4.5252,65,7,170.31445483392068,357.80300000000005,mp-29009,Li2MgBr4,https://materialsproject.org/materials/mp-29009,31.41683440350328,62.87965131981748,-15.187455852831215,35.802201826926385
-6.297097912083332,-151.13034989,4.8524054673350125,-2.398858050520834,1.0000004999999998,0.02859509379092332,0.1878,113,24,407.5549003196949,1190.9516,mp-22067,Ba2CuGe2O7,https://materialsproject.org/materials/mp-22067,5.939681005693336,27.464011122298974,33.27843401551891,-6.386224762548821
-7.062286153,-70.62286153,9.401597409275029,-2.84161428725,0.0,0.0,2.3294,148,10,152.58311981081368,863.8912,mp-772801,LuBiO3,https://materialsproject.org/materials/mp-772801,-23.2485401671064,14.944875446982698,-26.66202879106103,46.198671911958314
-3.322526015,-13.29010406,5.174873292315805,0.5193681936637926,1.4499999999999998e-05,1.036261358537136e-06,0.0,139,4,163.07077149018264,508.19075,mp-975253,RbPr3,https://materialsproject.org/materials/mp-975253,27.748844770196477,64.19711424384973,-12.976497931372418,33.27030931741049
-6.52940453,-91.41166342,2.6652792692136518,-0.4716143208378329,0.99999865,0.040374768635130266,0.9992,139,14,288.64683151229275,463.298,mp-1104285,RbNiC2N2Cl,https://materialsproject.org/materials/mp-1104285,-0.543661327336492,-21.96878428610759,13.778109663853614,2.0334952894794087
-8.91996485,-178.399297,7.11012035089927,-2.801248711249998,9.000000625,0.4456143499716572,0.0,62,20,235.37525271234853,1007.8332,mp-1189762,EuCrO3,https://materialsproject.org/materials/mp-1189762,-24.418645154679986,51.01947363915811,-10.528050054587869,65.5951161273065
-5.459165711,-54.59165711,3.6286569092300858,0.4643622450000002,0.68398395,0.02276352885134421,0.0,227,10,350.17388159571414,765.2098772,mp-1207806,Y4Al,https://materialsproject.org/materials/mp-1207806,-11.815450041718018,-25.133544205926214,-3.0998872152016275,-27.288236340172862
-6.920201200714287,-96.88281681,5.553442485370369,-2.359929103777143,11.9999994,0.7867925765679387,0.0,123,14,177.7454114886424,594.4448736,mvc-1099,Ba2Mn3AlO8,https://materialsproject.org/materials/mvc-1099,-24.29845624024727,47.322793812862045,-10.745952560117592,67.79796307598882
-5.879294921818183,-64.67224414,5.579726981991169,-1.303539105227273,1.6681101000000003,0.06638477941010107,0.0,71,11,292.84217445487224,984.0054,mp-574262,Ce4C2Br5,https://materialsproject.org/materials/mp-574262,-4.3345365923294015,24.977721717302856,-3.2028545699694755,26.58302474759359
-8.20701593125,-196.96838235,4.301755532247694,-3.5900165292708337,0.0,0.0,5.1648,113,24,259.3377949789883,671.834728,mp-6655,Y2Be2SiO7,https://materialsproject.org/materials/mp-6655,-2.1324576394867543,12.928479691849596,7.417066044951272,31.013273907796997
-6.632374459166668,-79.58849351,4.222206394091304,-2.7557357136566103,0.0,0.0,3.5443,36,12,243.96208398588038,620.3156,mp-756156,Rb2ZrO3,https://materialsproject.org/materials/mp-756156,0.7983550569740364,20.84013918661875,4.548917369873876,29.99873367226048
-6.0566547,-145.3597128,5.8891753634987865,-2.4409646505208347,7.1e-06,2.256682651458796e-07,0.0,36,24,366.66147910378714,1300.3812,mvc-3359,Ca3Bi2O7,https://materialsproject.org/materials/mvc-3359,-2.0395117454367595,13.964143685417323,6.572960024493511,29.985614057732267
-7.570486345714285,-52.99340442,5.964624220634023,-3.177341340357143,1.9999997999999999,0.2414131432434941,0.2942,107,7,96.54870857962109,346.8011,mp-1217977,SrNdVO4,https://materialsproject.org/materials/mp-1217977,-22.9877127309358,38.199808148872044,-15.004826192267315,58.743982182718675
-5.561815427692308,-72.30360056,6.222852544256367,-2.0602122304807717,2e-07,1.3258715075516306e-08,0.0,123,13,175.79478412776544,658.7891,mp-20824,Sr2CaTlCu2O7,https://materialsproject.org/materials/mp-20824,-24.11687619916296,42.79892028380224,6.289872808431007,48.53620292563835
-9.2649081475,-37.05963259,5.758684890661581,-1.5962783841300006,6.99942475,0.7339991034527431,0.0,186,4,111.13330932346193,385.406,mp-1184482,GdCl,https://materialsproject.org/materials/mp-1184482,-27.94387976589569,7.723075704453717,-35.0039461434663,-16.964514453167087
-2.75567153,-5.51134306,3.5549503514201666,-1.548446883103448,0.0,0.0,3.8572,225,2,121.35880269662589,259.8099219,mp-614603,CsI,https://materialsproject.org/materials/mp-614603,-10.173848760792938,51.16401652762549,-10.222073501472977,25.100759733744802
-6.856566528571428,-47.9959657,6.480588336695937,-3.0872124789285715,3e-07,3.732316883744578e-08,3.7037,107,7,93.67423883526745,365.5826,mp-1218095,SrNdGaO4,https://materialsproject.org/materials/mp-1218095,-23.382396141187392,39.5480795258155,-14.337385571327305,59.10172025661493
-4.980651014736843,-94.63236928,5.194292688479371,-0.9705263182456147,0.9993780999999999,0.017506958392569848,0.0,148,19,665.2678808342105,2081.00864,mp-760421,Zr6BI12,https://materialsproject.org/materials/mp-760421,-9.501323928750962,5.334275990454152,-4.637067450848125,0.39425854629911705
-7.443354300909093,-81.87689731,4.04768474788724,0.16082263631545468,0.0,0.0,1.0170000000000003,12,11,149.1616186533634,363.5923,mp-1245514,Sb2(CN2)3,https://materialsproject.org/materials/mp-1245514,8.827353089510552,6.965934817312387,27.585965398096103,7.773995635290708
-5.851271761666666,-35.10763057,6.735867072355228,-1.7157212374999995,0.0014822000000000001,0.00017889095709233382,0.0,119,6,96.55968689894287,391.68800000000005,mp-754839,SnBiO4,https://materialsproject.org/materials/mp-754839,3.2639599000741484,-36.094503130969535,1.1245972925831795,-32.26452280422322
-2.991787731666667,-17.95072639,3.733576120104931,-1.0840240681002156,0.0,0.0,2.0269999999999997,129,6,208.90762688200627,469.71044236,mp-8658,CsNaSe,https://materialsproject.org/materials/mp-8658,3.9851662399234304,18.62885949810228,28.493186664581057,-2.948520990819936
-6.663004143846153,-173.23810774,4.893940885167626,-2.7255198916346157,1.185e-05,3.177071534728395e-07,1.1121,46,26,434.6791252424175,1281.0863772,mvc-10827,Sr2YAlSn2O7,https://materialsproject.org/materials/mvc-10827,-8.711829325837943,30.800760284149586,0.1918629171141565,47.66206872195836
-3.7461917330000003,-37.46191733,1.6658893349418216,-1.430005631216,2e-07,1.4433049510668051e-08,1.3509000000000002,8,10,161.4913710916837,162.0117,mp-34038,Li6NCl3,https://materialsproject.org/materials/mp-34038,16.142478580321722,56.13917601442387,4.513222439062263,34.989275577974645
-7.071182692857143,-98.99655770000001,5.596076200802549,-2.885185458351428,6.9999999000000015,0.4284688735326613,0.0,38,14,190.3952825555549,641.6389399999998,mp-1218451,Sr3PrMn2O8,https://materialsproject.org/materials/mp-1218451,-23.607443011208336,39.24521102363885,-14.603223194662895,59.980163620948225
-8.924573950454548,-196.34062691,8.237882551760817,-2.6226987678409106,16.119413199999997,0.6130412388505898,0.0,63,22,306.4340106722218,1520.2096,mp-17981,Eu3IrO7,https://materialsproject.org/materials/mp-17981,17.13887815446594,59.462549379041434,-3.1774834730140906,37.938045272484544
-11.375139147999999,-56.87569574,7.715221611781894,-3.353309769218749,14.0000006,1.781752126216739,1.3184999999999998,164,5,91.57105043265013,425.4588,mp-13973,Gd2SeO2,https://materialsproject.org/materials/mp-13973,-13.40096973769746,24.12764160665239,-21.547075827381484,42.04112292743983
-7.766268373815789,-590.23639641,7.9077367933848866,-2.8017526841447364,1.036030075,0.012024298635450105,0.1236000000000006,55,76,1004.1302171898288,4781.8192,mp-21950,Tb4Mo4O11,https://materialsproject.org/materials/mp-21950,3.1798041026242716,31.034759939297146,1.7586237362386616,34.708987590475985
-7.3893496039999995,-147.78699208,6.897886265518148,-2.702614832442,6.999999799999999,0.3374432085998879,0.0,51,20,241.75460936253083,1004.24968,mp-559528,BaTbMn2O6,https://materialsproject.org/materials/mp-559528,-27.190106957782174,50.351758946756256,-13.150758681558695,65.10785382012938
-9.281205691666667,-55.68723415,12.054549441597644,0.16839483424666687,2.7699999999999996e-05,5.469759951332082e-06,0.0,6,6,59.018603571677026,428.4408,mp-1077275,ReN2,https://materialsproject.org/materials/mp-1077275,-8.932871937697849,19.57320186589504,-25.262500340777283,36.75796958456739
-6.312003926315789,-119.9280746,6.126043569240798,-2.2442657952831566,13.001327499999999,0.5135865886908647,0.0,1,19,295.01999497393933,1088.384735,mvc-3046,Ba2Ca2Mn3Tl2O10,https://materialsproject.org/materials/mvc-3046,11.569339009916437,23.541682692026672,19.337345671068963,39.362495360291156
-7.820148429,-78.20148429,6.122227904624974,-2.250989190749999,14.00000065,0.5242320043678186,0.014800000000000146,72,10,311.23035799336947,1147.47268,mp-558258,Eu2I2O,https://materialsproject.org/materials/mp-558258,2.488275006590728,20.021715996313286,7.846567916745472,25.223718887830664
-8.478734796923076,-110.22355236,7.292766931514988,-3.4605639671361534,0.0,0.0,3.1287,12,13,192.52156699513145,845.5175600000001,mp-554623,Sm2Ta2Cl2O7,https://materialsproject.org/materials/mp-554623,19.448953312769326,22.04857071726663,33.17270036561453,37.93422231543882
-5.388409662999999,-53.88409663,5.928897363274452,-1.744790520250001,0.0,0.0,1.4786,194,10,136.68727487040053,488.0372,mp-19138,BaNiO3,https://materialsproject.org/materials/mp-19138,-2.22337763884688,-3.9017028144294383,-1.2862738453575069,-18.95582703204811
-5.4289115603125,-173.72516993,4.913949268703941,-1.0469569544120834,0.0,0.0,2.0142,60,32,445.3452183703754,1317.8876,mp-559562,AgTeNO5,https://materialsproject.org/materials/mp-559562,4.39399955720308,31.10284231417039,20.215413614715715,-15.177344531298818
-8.287465396,-41.43732698,10.325664190389356,-0.5903922237499998,0.0139971,0.0020328227849500603,0.0,139,5,80.24462891486267,498.98199999999997,mp-20292,Np(SiRh)2,https://materialsproject.org/materials/mp-20292,-61.1873890650347,16.083126154204614,-59.87646663740815,25.25013898466797
-5.462334355,-21.84933742,4.857468334380573,-2.1086164782812507,2e-07,2.8890421545716042e-08,0.3119000000000001,123,4,80.67770665179367,236.00132000000002,mp-1222279,LiHoS2,https://materialsproject.org/materials/mp-1222279,-1.1432541160614031,0.2305075212286789,-1.0037377083870356,-9.66430007793384
-8.347872021666666,-50.08723213,9.401351716892092,-1.3301666976041666,3.69976685,0.354830933430942,0.0,129,6,121.5151173443584,687.9732,mp-15691,NpAsS,https://materialsproject.org/materials/mp-15691,-5.365290082581701,-23.512304776518693,-1.0608629427274252,-19.940529934155965
-4.61703439625,-36.93627517,5.8640547228146325,-2.0304566727975004,1.5e-07,1.0366086700501542e-08,1.5175999999999998,129,8,168.6373813369104,595.5288063999999,mp-1091416,SrCuTeF,https://materialsproject.org/materials/mp-1091416,-14.714576528089195,20.61839167637707,-20.525006885649727,44.089665332009275
-7.275745976,-72.75745976,10.499190731620676,-0.2291930810000011,1.44230155,0.09019999977423288,0.0,99,10,186.34895484850009,1178.23982,mp-1237836,U(GeRh)2,https://materialsproject.org/materials/mp-1237836,-35.55694080569067,13.844581998136478,-43.443159847032376,23.14643998954765
-6.734242251052632,-127.95060277,7.756722339747492,-2.1516961939215804,0.0,0.0,1.1016000000000004,123,19,307.9718412114542,1438.60036,mp-1220834,Nb2Bi3Pb2ClO11,https://materialsproject.org/materials/mp-1220834,16.989156057697038,56.991358897456806,-5.709615574511948,34.84097403784189
-3.67796104,-44.13553248,8.078528274825485,-0.617210135,0.0,0.0,0.0,194,12,259.32396447269167,1261.612,mp-12846,YbGaGe,https://materialsproject.org/materials/mp-12846,-53.79568372995438,22.842606021869145,-48.864071865949896,28.050570933677694
-7.645887898571429,-53.52121529,5.76613941814467,-3.2296720417857148,1.9999996,0.23702695444032704,0.2648999999999999,107,7,98.33533463959448,341.46457000000004,mp-1218139,SrLaVO4,https://materialsproject.org/materials/mp-1218139,-22.935230321815034,38.036596693767656,-15.56056593889682,58.44944106241692
-4.1279988245,-82.55997649,4.528615570167272,-0.3947403385000001,0.0,0.0,0.0,62,20,493.6499857202677,1346.2803088,mp-570482,Ba(AlGe)2,https://materialsproject.org/materials/mp-570482,1.1047148059215603,28.220624001884573,-0.3672345693851707,24.61234090771699
-6.93796368,-138.7592736,7.275306582209817,-2.3811678687500004,1.5e-07,6.527754215070688e-09,0.0,62,20,267.79649758382084,1173.29468,mp-16415,LaPdO3,https://materialsproject.org/materials/mp-16415,-20.74604511614456,42.45350956315243,-8.143441402145513,60.655800136495245
-5.195663420000002,-51.9566342,8.844137750219867,-1.13922560325,5e-08,4.984530098199874e-09,0.0,148,10,116.90234127353821,622.6293900000001,mp-755788,TlCoO3,https://materialsproject.org/materials/mp-755788,-18.29206174519172,38.918177948255696,8.088685450596481,51.763710838465684
-5.2579423263636365,-57.83736559,4.346533767999636,-2.133473303636364,1e-07,6.474841782285298e-09,0.0,139,11,179.9899544177956,471.1316,mp-545706,Ca3Cu2(BrO2)2,https://materialsproject.org/materials/mp-545706,-23.63116503887217,46.710016529306095,-8.121007478626785,66.08626097752177
-6.867248192000001,-34.33624096,8.551790264384337,-2.622708708226,0.0,0.0,1.1317000000000004,164,5,73.76068257621692,379.86814639999994,mp-9006,Ho2CF2,https://materialsproject.org/materials/mp-9006,-33.0832207148832,29.22725376158424,-24.499171620451826,42.671435792050815
-7.92400828857143,-110.93611604,8.611853206115683,-2.8362087006250007,0.0,0.0,2.0106,139,14,195.03204581115392,1011.4711599999999,mp-554675,SrTa2Bi2O9,https://materialsproject.org/materials/mp-554675,21.55518354693997,59.168009520742814,-5.964601618938568,35.9594793418734
-6.86738745,-137.347749,5.151350282905733,-2.499047841442,2.9999995999999998,0.1422942786671417,0.8628999999999998,186,20,245.70341115286573,762.22498,mp-1218206,SrMnO3,https://materialsproject.org/materials/mp-1218206,-9.536606578837707,12.602932213849598,-9.052203083385297,57.730242458382946
-7.139184389166666,-171.34042534,6.938294435947107,-2.8476250404166663,5e-08,1.8109223217368566e-09,2.2709999999999995,14,24,321.77152583171744,1344.4704000000004,mp-13196,SmSbO4,https://materialsproject.org/materials/mp-13196,20.74468309933984,56.459106586834096,-1.2078179100996136,36.3157625449382
-5.339432604166666,-64.07319125,6.754305656810423,-1.273981643333333,6.879999999999999e-05,2.0999488931965915e-06,0.3098000000000001,62,12,381.81865232519476,1553.0618800000002,mp-1185210,LaSbTe,https://materialsproject.org/materials/mp-1185210,-44.42944182425762,28.081633671901997,-24.71218559131433,31.55849053622189
-4.9596615229999985,-49.59661523,3.41094172360978,-0.6409440579519995,1.5e-06,9.170113782855957e-08,0.0,59,10,190.6311914201264,391.5788,mp-1247470,SrCa2N2,https://materialsproject.org/materials/mp-1247470,-4.9005782785324685,28.08465254443657,6.163843773639312,47.811003700107406
-3.190340875,-19.14204525,3.321048908269,-1.1038474981465516,0.0,0.0,0.3534999999999999,58,6,186.93664201662938,373.87,mp-1101405,Rb2O,https://materialsproject.org/materials/mp-1101405,8.995767086742473,14.144757597015225,6.234564307446696,12.70918287329548
-3.02586534,-9.07759602,2.7997439357308433,-1.1933708482507186,0.0,0.0,1.9684,225,3,120.40044703424995,203.0006,mp-8041,Rb2S,https://materialsproject.org/materials/mp-8041,-30.60978082510164,53.24497879614018,-55.84247537257897,52.66847507118202