energy_per_atom,energy,density,formation_energy_per_atom,total_magnetization_uB,total_magnetization_T,band_gap,sgr,num_sites,cell_volume,weight,mp_id,formula,URL,tsne_xrd_lin1_0,tsne_xrd_lin1_1,tsne_xrd_lin2_0,tsne_xrd_lin2_1
-6.193076721875,-99.08922755,3.738737891757825,-2.081427840180001,9.999999,0.8011669027717331,0.0,2,16,145.46361771604123,327.514335,mp-1174766,Li5Mn3O8,https://materialsproject.org/materials/mp-1174766,10.560149802874992,-79.6220358433725,-16.029945956958446,-84.49551609099808
-5.4636093575,-131.12662458,4.150473824158919,-1.7030775847916668,18.0000009,0.9795921477686964,0.2241,2,24,214.14338290946048,535.245775,mp-1174266,Li7Co5O12,https://materialsproject.org/materials/mp-1174266,18.591714872495306,-78.0113488147563,-10.98673173070181,-82.6406728347595
-5.405820287857141,-75.68148403,4.243093743315853,-1.3837173214285718,4.99999955,0.4013847523452054,0.0,74,14,145.17322413970209,370.954,mp-753174,LiFeNiO4,https://materialsproject.org/materials/mp-753174,19.91709291424505,-76.04363180711623,-13.152561170381274,-80.88124987861333
-5.555937163142857,-194.45780071,4.3953316711071695,-1.6660868442499992,31.999996799999998,1.1413670763082098,0.6470000000000002,1,35,326.7397870237835,864.857555,mp-735506,Li9Co9O17,https://materialsproject.org/materials/mp-735506,-2.2838450354926936,-75.79691449505616,-19.39755711547996,-76.24404080140488
-6.973712651538462,-90.65826447,4.047827466803988,-1.9250287579876932,12.9999999,1.041230109681354,0.5198,12,13,145.50370707607917,354.68838,mp-752921,LiMn4O8,https://materialsproject.org/materials/mp-752921,11.023317044481203,-69.91721832657477,-16.901965611126837,-68.13415209427028
-6.145769922083333,-147.49847813,3.337810870836755,-2.6313480626983328,2.0,0.10112857059538377,1.7369999999999997,8,24,230.48016409106967,463.28281280000004,mp-752588,Li2VO2F,https://materialsproject.org/materials/mp-752588,12.072911301309722,-61.9692929281647,-0.5685464421519881,-75.40011414774115
-6.22777638375,-49.82221107,4.283404469697697,-2.030113350625,7.000000599999999,1.1145333010308798,0.010699999999999932,10,8,73.19517534819398,188.808895,mp-752940,Li2CrCoO4,https://materialsproject.org/materials/mp-752940,5.833143798751682,-70.23486354892789,-20.563125012506468,-73.85204058190384
-5.790498769642857,-162.13396555,4.1011628443341035,-1.8499855748007152,10.00000015,0.460432614835173,0.0,8,28,253.1111952515053,625.12847,mp-1174810,Li4MnCo2O7,https://materialsproject.org/materials/mp-1174810,12.96744339154855,-76.0467115406214,-15.196084377428043,-80.68280549770334
-5.91262254875,-94.60196078,3.7990858579292137,-1.9411239651199999,9.999999,0.8042877302521734,0.0,12,16,144.89918431926398,331.5094850000001,mp-1174121,Li5Mn2CoO8,https://materialsproject.org/materials/mp-1174121,18.91584311007098,-76.72420927097244,-15.652698755185005,-79.26684614079555
-5.909862695999999,-118.19725392,3.997195329964755,-1.952823960471,7.00000005,0.4573381508489745,0.3027000000000002,2,20,178.37666470462574,429.38248,mp-1174188,Li3MnCoO5,https://materialsproject.org/materials/mp-1174188,17.6405533218675,-75.41542232330829,-14.76959708233098,-78.44619293496345
-5.864039011666668,-140.73693628,4.0633936498610845,-1.916640174871668,18.0,0.9735732699564958,0.6836000000000002,10,24,215.46726104697612,527.2554749999998,mp-1174891,Li7Mn2(CoO4)3,https://materialsproject.org/materials/mp-1174891,15.966884792853904,-73.04504550419296,-11.074728862216586,-77.86099562612337
-6.6099727435,-132.19945487,3.528619010194645,-2.6421211023750004,1.9999999,0.1376987148649707,1.6423999999999994,2,20,169.26903350237643,359.694,mp-867696,Li3VSiO5,https://materialsproject.org/materials/mp-867696,17.871596741335004,-71.8571015342571,-13.785724573384275,-75.15325893577042
-5.6025638964285704,-78.43589455,4.680142426089794,-1.619322529817143,5.0,0.4314975922768084,0.0,8,14,135.04206027044916,380.6089832,mp-780622,Li2Co4O7F,https://materialsproject.org/materials/mp-780622,-21.45782005502432,2.2834202159597465,25.799027185947214,6.106496048809268
-5.912228049166668,-70.94673659,4.289327520930815,-1.826161641955,11.9999994,1.247281470356313,0.5265999999999997,12,12,112.12286368555336,289.623835,mp-1173932,Li3Mn(CoO3)2,https://materialsproject.org/materials/mp-1173932,5.699153455767922,-78.84777999232985,-10.878609233170463,-63.88350445341529
-5.749524813125,-183.98479402,4.075515061499232,-1.8141758497475,25.9999999,1.0285964201394218,0.0,8,32,294.58170083858005,723.001465,mp-1100622,Li9Mn2Co5O16,https://materialsproject.org/materials/mp-1100622,3.6007788974078685,-77.34893003297306,-27.211082291824997,-77.79020879204094
-5.869196474583332,-140.86071539,4.087413647014125,-1.921797637788334,18.000000399999998,0.9793283893514544,0.8043,2,24,214.20105130069754,527.2554749999998,mp-1174523,Li7Mn2(CoO4)3,https://materialsproject.org/materials/mp-1174523,16.610709735916465,-74.47257689382411,-10.939634895148668,-78.84355114067182
-5.710670111428572,-159.89876312,3.996652022695885,-1.7701569165864288,11.6721024,0.5237264222954264,0.0,8,28,259.7299498569472,625.12847,mp-1174436,Li4MnCo2O7,https://materialsproject.org/materials/mp-1174436,6.553837874785511,-79.77510965991698,-24.816811809919955,-74.23972812735842
-5.76240479,-195.92176286,4.490486356177666,-1.4973761325,4.9999995,0.16871231192010555,0.010000000000000007,1,34,345.3827250222274,933.995755,mp-759547,Li4FeCo9O20,https://materialsproject.org/materials/mp-759547,8.580879668450342,-66.76229743412439,-4.2465257887400965,-69.15078650426065
-7.67888839,-61.43110712,3.192854006739162,-1.4139478774399998,0.0,0.0,3.5623000000000005,122,8,67.72592380950289,130.222164,mp-15704,BeSiN2,https://materialsproject.org/materials/mp-15704,-78.81140450752706,3.9697671733733566,-63.29785329487883,-27.457899228858608
-7.909543803636364,-87.00498184,3.7411725256941546,-3.1035603029545458,0.16629520000000003,0.01722555075995702,0.0,12,11,112.50816064882702,253.4794,mp-760539,Li2Ti3O6,https://materialsproject.org/materials/mp-760539,5.685832418541603,-64.15817017100443,-7.151429772035747,-65.22475993132193
-5.937047810499999,-118.74095621,4.004442374865792,-1.9800090749709995,7.0,0.4581673164911931,1.1939000000000002,2,20,178.0538472990051,429.38248,mp-1173984,Li3MnCoO5,https://materialsproject.org/materials/mp-1173984,16.408084650986236,-73.1854751573109,-10.942170782986423,-79.23401073133509
-6.76621839125,-54.12974713,4.0545146617651735,-2.316567076995,1.9999999,0.30970500562627484,0.0,10,8,75.25912709282825,183.759145,mp-754402,Li2MnVO4,https://materialsproject.org/materials/mp-754402,5.150370683444134,-77.77645211892269,-10.973390469838801,-63.86754801815203
-5.7867262959375,-185.17524147,4.183067870259238,-1.8513773325599996,24.809553,1.007402467689165,0.0,3,32,287.0075733519691,723.001465,mp-1175898,Li9Mn2Co5O16,https://materialsproject.org/materials/mp-1175898,-2.375409747313737,-76.02634277237696,-19.396734820145475,-76.26248402234292
-6.629122043035713,-371.23083441,4.168205195724503,-1.964946436098572,12.0000005,0.2400288118196941,0.9938000000000002,212,56,582.6333182151523,1462.4981200000002,mp-1177935,Li2Mn3CoO8,https://materialsproject.org/materials/mp-1177935,15.392511350155306,-68.71555431274739,-9.86286911861635,-70.3236396114507
-5.873087913749999,-140.95410993,4.082872967761768,-1.925689076954999,18.0000001,0.9782404439845248,0.7613000000000003,2,24,214.43927038739312,527.2554749999998,mp-1174622,Li7Mn2(CoO4)3,https://materialsproject.org/materials/mp-1174622,14.040910678460786,-74.48697003083103,-11.34254720340916,-79.37363841425713
-5.364664399166667,-64.37597279,3.8341823570790474,-1.742800196875001,3.00000005,0.3341006180977001,0.23439999999999994,5,12,104.6457055346076,241.62679,mp-1173888,Li2CoO3,https://materialsproject.org/materials/mp-1173888,-10.99950913306641,-68.81411698420249,2.8588548973943912,-81.59295844242621
-6.6701659520000005,-100.05248928,3.5625178304904086,-2.427844075333334,3.0,0.2430712847146663,0.0,148,15,143.83514843688792,308.5837,mp-771788,Li4V3O8,https://materialsproject.org/materials/mp-771788,3.500731549576768,-71.10448860059438,-20.163246289637748,-73.53088805687975
-6.8226664403125,-218.32532609,3.916099589168812,-2.5687647596875003,8.99999965,0.3651254726085592,3.1150999999999995,2,32,287.26174080590783,677.4580771999998,mp-768694,Li4AlCr3O8,https://materialsproject.org/materials/mp-768694,16.680923264290442,-70.25292959043927,-12.326176531192793,-69.94536871665838
-6.344840169166668,-152.27616406,3.8729981336595904,-2.1171407362416668,17.9999987,0.9495399021817074,0.09499999999999977,12,24,220.92083784347096,515.270025,mp-1175378,Li7Mn5O12,https://materialsproject.org/materials/mp-1175378,5.532548151673958,-73.2193421703743,-25.28053461397507,-77.4211079032639
-6.130124762083334,-147.12299429,3.3161703107924247,-2.615702902698333,1.99999965,0.1004728900680022,0.8651,6,24,231.9842243058926,463.28281280000004,mp-763190,Li2VO2F,https://materialsproject.org/materials/mp-763190,12.064056449286694,-61.97041426587471,-0.6193163347162225,-75.39800821196161
-6.648781644333334,-199.46344933,4.212920428051109,-2.2863136636666663,8.0000002,0.3157806867146256,0.6843000000000004,1,30,295.24453025066015,749.059,mp-768641,Li3Cr3GaO8,https://materialsproject.org/materials/mp-768641,3.3578305980115943,-67.2819275144805,-10.422631406886236,-65.66350702806513
-7.0901739820000005,-70.90173982,3.9517074910315535,-2.090946919346,7.9999996,0.8472688698701057,0.27769999999999984,8,10,110.03887530193931,261.86764500000004,mp-850948,LiMnCr2O6,https://materialsproject.org/materials/mp-850948,6.5336614704548905,-68.52874267607433,-7.360858923385449,-66.7586181116114
-5.806619910357143,-162.58535749,4.1392700531582145,-1.866106715515001,9.859698199999999,0.45819088132888897,0.0,8,28,250.78098701447337,625.12847,mp-1174802,Li4MnCo2O7,https://materialsproject.org/materials/mp-1174802,12.436259215784428,-72.13452589840311,-13.64800162476871,-80.23377423038646
-5.877704696,-117.55409392,3.9565780161051065,-1.920665960471,6.00000015,0.38802080455681387,0.0,8,20,180.2078382455124,429.38248,mp-1174234,Li3MnCoO5,https://materialsproject.org/materials/mp-1174234,12.701322907747095,-76.52269039045909,-19.542634612692414,-83.99943625712874
-6.32799175,-94.91987625,4.102009944330398,-2.0483830033973334,11.999999699999998,0.9304468552047525,1.6158,166,15,150.30280664844852,371.291245,mp-757216,Li3MnFe3O8,https://materialsproject.org/materials/mp-757216,2.571571223206054,-65.18098130626727,-12.20482410285584,-64.61850615707006
-6.202029819583332,-148.84871567,3.9615143235359085,-2.0677639187016656,15.9999995,0.8566833759451863,0.3799000000000001,2,24,217.65921432547256,519.265175,mp-1175149,Li7Mn4CoO12,https://materialsproject.org/materials/mp-1175149,12.64735998973269,-77.97874589038663,-14.954675416238045,-84.86608691565549
-7.123538244545455,-78.35892069,3.8579318118415182,-2.4538971111363646,5.000000099999999,0.5153330906455476,0.4065000000000003,12,11,113.07312898384006,262.7029,mp-762271,Li2V3O6,https://materialsproject.org/materials/mp-762271,4.702570065576769,-65.21229898583057,-8.681208017775647,-65.58570111660539
-4.7928026051999995,-119.82006513,4.6500153793759615,-1.1087426597,4.0,0.19700857287241305,0.3752999999999997,2,25,236.62045976257312,662.6094,mp-774600,Li4(NiO2)7,https://materialsproject.org/materials/mp-774600,24.985043472642946,-72.920182077979,-4.625424560006324,-72.04951662369436
-6.16304436375,-147.91306473,3.88466816027412,-2.028778462868333,16.0001644,0.8400739365461014,0.0,8,24,221.96492972493354,519.265175,mp-1175304,Li7Mn4CoO12,https://materialsproject.org/materials/mp-1175304,3.4971617686994554,-77.30613179154561,-25.786078866216336,-78.89971062587102
-5.7589134859375,-184.28523155,4.0994376858104005,-1.823564522559999,24.0,0.9550468811836906,0.0,6,32,292.8626437633866,723.001465,mp-1100585,Li9Mn2Co5O16,https://materialsproject.org/materials/mp-1100585,4.089935989767649,-72.94047807274367,-22.672466120945145,-77.28895724713591
-5.868604981250002,-140.84651955,4.0927977694256965,-1.921206144455,18.000000399999998,0.9806184041101146,0.9211,1,24,213.91926736074677,527.2554749999998,mp-1174933,Li7Mn2(CoO4)3,https://materialsproject.org/materials/mp-1174933,16.39406889788254,-73.0576229547548,-10.495932510950494,-78.85495930555803
-7.021288437142857,-98.29803812,3.955773835372829,-2.1658043286399997,10.9999999,0.8656045518153869,0.5367999999999999,2,14,148.09847182976813,352.80354500000004,mp-780543,Li2MnCr3O8,https://materialsproject.org/materials/mp-780543,5.2789811500432196,-65.5818429942319,-8.161844181121701,-66.2159171414265
-5.8390705629166675,-140.13769351,4.0606195938075444,-1.8916717261216656,17.1318859,0.9259866342578876,0.0,6,24,215.61445982933893,527.2554749999998,mp-1175108,Li7Mn2(CoO4)3,https://materialsproject.org/materials/mp-1175108,1.373517638523654,-72.40931685260406,-20.581590001875586,-74.90532934479566
-6.190434498333333,-148.57042796,3.947982650624181,-2.056168597451666,15.999998000000001,0.8537570514732838,0.2844000000000002,2,24,218.40523920833527,519.265175,mp-1175175,Li7Mn4CoO12,https://materialsproject.org/materials/mp-1175175,10.82223750398343,-81.55009273041361,-17.141422596258778,-86.11431717560366
-6.522377827333332,-97.83566741,4.176557552704669,-2.3518440175555555,2.9999993,0.2429587690733606,0.56,12,15,143.90172576679882,361.939,mp-753424,Li3Ti2(NiO4)2,https://materialsproject.org/materials/mp-753424,17.959275311450657,-67.0123817956427,-11.965514242971766,-70.78967058208572
-5.9288405095000005,-118.57681019,3.994833551108665,-1.9718017739710008,6.999999799999999,0.45706791216028797,1.0924,1,20,178.48212247394943,429.38248,mp-1174022,Li3MnCoO5,https://materialsproject.org/materials/mp-1174022,16.410543210768388,-73.04885743073629,-11.024054985741362,-79.02264854397689
-6.115543098,-91.73314647,4.050738484215751,-1.952705567333333,10.9999993,0.8401966238516532,0.7019000000000002,166,15,152.57702863960282,372.1982,mp-756480,Li3(FeO2)4,https://materialsproject.org/materials/mp-756480,3.013802548308456,-64.47755101045598,-10.28248309283502,-64.68999646463602
-6.3774936079166675,-153.05984659,3.8992194126210133,-2.149794174991667,17.9999988,0.9559685578045884,0.625,12,24,219.4352002569492,515.270025,mp-764764,Li7Mn5O12,https://materialsproject.org/materials/mp-764764,15.442816913368551,-72.34376541657947,-11.812103320051785,-79.09019549546716
-5.962469140625,-95.39950625,3.884464208871397,-1.9909705569950005,8.0000195,0.6578919132358809,0.0,10,16,141.71438128213146,331.5094850000001,mp-1174355,Li5Mn2CoO8,https://materialsproject.org/materials/mp-1174355,19.64574075025902,-71.8483630511617,-12.070154798747176,-77.68023943385147
-3.2053955175,-12.82158207,6.9128903893443585,-0.2786794479166663,3.91e-05,6.6879659713771885e-06,0.0,225,4,68.1334107495842,283.642112,mp-867109,ScZn2Ag,https://materialsproject.org/materials/mp-867109,-41.82869798010871,-62.72450280015958,-46.6862458967417,-37.585539426972154
-7.310262186666668,-87.72314624,3.9491780887402568,-2.768564881319445,4.1831087,0.4382553846694275,0.0,12,12,111.23701258623409,264.5495,mp-756972,Li3Ti2CrO6,https://materialsproject.org/materials/mp-756972,3.8211666739935337,-66.30562278647696,-12.074679466525636,-66.6294073991605
-5.3858274925,-43.08661994,3.33465112926033,-1.8412762943750005,2.9999998,0.4991281506377893,0.0,38,8,70.04652400829568,140.6656,mp-764163,Li3FeO4,https://materialsproject.org/materials/mp-764163,19.850600986698677,-71.0947525352924,-13.329213909418227,-74.78806176464303
-5.79973051375,-185.59137644,4.156480394892307,-1.8643815503724996,26.0000002,1.0490308192663218,0.7862,2,32,288.8434551706337,723.001465,mp-1175537,Li9Mn2Co5O16,https://materialsproject.org/materials/mp-1175537,-2.2920746334962714,-76.04743140812295,-19.96222314748711,-76.85665034047292
-5.798857511071428,-162.36801031,4.065324488543562,-1.8583443162292848,10.642485800000001,0.4857327141534713,0.0,12,28,255.34252736178485,625.12847,mp-1174586,Li4MnCo2O7,https://materialsproject.org/materials/mp-1174586,5.442855454659824,-72.0013321823745,-22.369887600810213,-77.12723190245849
-5.799051116071429,-162.37343125,4.103435332100021,-1.8585379212292858,10.32999515,0.4758902092906456,0.0,8,28,252.97102194595178,625.12847,mp-1174870,Li4MnCo2O7,https://materialsproject.org/materials/mp-1174870,6.450984383335947,-72.08486136156664,-22.275119045143065,-74.20102629122103
-6.1038102940000005,-122.07620588,3.9500198694500592,-2.0346513200190004,12.0000007,0.7820316647860275,0.40980000000000016,1,20,178.82752288147546,425.38732999999996,mp-1174821,Li6Mn3CoO10,https://materialsproject.org/materials/mp-1174821,12.647205571556494,-77.66295349879863,-14.836698234593726,-84.65268572109119
-5.90655533,-70.87866396,4.107046294521746,-2.131346916875,8.000002799999999,0.8812488710136818,0.9166,164,12,105.79593787690816,261.66732859999996,mp-1222590,Li3Al(CoO3)2,https://materialsproject.org/materials/mp-1222590,21.538383103918992,-74.73805258877697,-10.775158418936726,-73.8911302867992
-6.192112070833333,-148.6106897,3.9642630587366003,-2.057846169951666,16.0000009,0.8572778690403323,0.4337,1,24,217.50829408246483,519.265175,mp-1175250,Li7Mn4CoO12,https://materialsproject.org/materials/mp-1175250,10.837905687743307,-81.42314387538113,-16.149295513296224,-85.76689838955014
-7.436011334137932,-215.64432869,2.8222521328563417,-1.9837571337931028,7.9999997,0.2990203700286788,0.0,2,29,311.79318878950045,529.9236999999998,mp-757965,Li2Cr3(CO3)6,https://materialsproject.org/materials/mp-757965,30.476130195716184,-35.698012876757026,38.74990814997005,-51.910845374690325
-5.3139974455555565,-47.82597701,4.725225221302118,-0.9312489669444446,2.0000001,0.2433463396540332,1.0824,12,9,95.78171894289906,272.55619,mp-753469,Co2NiO6,https://materialsproject.org/materials/mp-753469,26.50160392520069,-69.79045689874316,-5.661152540357798,-72.82832637682904
-6.267008900833333,-75.20410681,4.199648203255864,-1.9940754295350007,11.9047766,1.2284590341860948,0.0,12,12,112.93745557512493,285.628685,mp-1173946,Li3Mn2CoO6,https://materialsproject.org/materials/mp-1173946,4.825078359158634,-78.06382601909226,-29.552081898591627,-77.16138809584703
-6.593296434375,-210.98548590000001,4.2936999821390405,-2.384234411874999,8.99999955,0.35547704865721536,3.1483000000000003,2,32,295.058648947684,762.941,mp-768746,Li4Cr3GaO8,https://materialsproject.org/materials/mp-768746,13.691898435580333,-67.8434502201355,-12.907628094252946,-68.61060246610846
-5.84569181625,-140.29660359,4.035487428329047,-1.8982929794549992,18.0000003,0.9668870642354979,0.2345999999999999,8,24,216.9572612579714,527.2554749999998,mp-1175098,Li7Mn2(CoO4)3,https://materialsproject.org/materials/mp-1175098,5.7229394475548085,-71.02286614587463,-22.310570914619433,-73.6662499681261
-8.2365761175,-164.73152235,4.7603867851449255,-3.4663236700583338,0.0,0.0,1.9969,1,20,241.1082970793641,691.20250928,mp-677430,NaLiLa2Ti4O12,https://materialsproject.org/materials/mp-677430,-10.26771326495826,1.241313712552845,-18.078396773442204,22.735588263207426
-6.212121295416666,-149.09091109,3.957531722103102,-2.077855394535,16.0000244,0.8558234643236724,0.5643000000000002,1,24,217.87825234202083,519.265175,mp-1175203,Li7Mn4CoO12,https://materialsproject.org/materials/mp-1175203,12.765447106067068,-79.71431479815917,-16.331617500782926,-86.13625051162865
-5.175777676666667,-31.05466606,5.3023747634699765,-1.2320556141666659,2.0,0.2973606647557744,1.1891999999999996,10,6,78.38336507709454,250.291,mp-755176,NiTeO4,https://materialsproject.org/materials/mp-755176,13.972533160475953,-64.67477615422273,-9.509457855390224,-62.852012998890885
-6.716609905714287,-376.13015472,3.961352148868889,-2.23768942047619,11.999999925,0.2334453926478432,0.003699999999999815,4,56,599.0641957437388,1429.1168,mp-776147,Li2TiFe3O8,https://materialsproject.org/materials/mp-776147,1.5230569181731946,-67.05217260138427,-13.121147875679336,-65.60604166556604