energy_per_atom,energy,density,formation_energy_per_atom,total_magnetization_uB,total_magnetization_T,band_gap,sgr,num_sites,cell_volume,weight,mp_id,formula,URL,tsne_cry_lin1_0,tsne_cry_lin1_1,tsne_cry_lin2_0,tsne_cry_lin2_1
-7.9122158345,-158.24431669,7.355303379292251,-3.13847016075,7.00000025,0.34702822169096725,1.2977,14,20,235.07729695275512,1041.2672,mp-1217726,Tb2VFeO6,https://materialsproject.org/materials/mp-1217726,-14.195402658352332,-29.35943097503836,7.706226118693593,-1.4970126048692811
-3.986382448125,-63.78211917,4.478852088717447,-0.04865774812500012,1.625e-07,4.292656783746565e-09,0.02210000000000001,205,16,441.1686330739173,1189.9323087999999,mp-15621,AlSb,https://materialsproject.org/materials/mp-15621,37.78964295143722,22.48432899812666,-8.604250342815693,-0.5045126942092143
-6.1607578704999995,-246.43031482,8.364860483042845,-0.5416672582499992,20.59842465,0.2508071746044553,0.0,223,40,957.1312123043463,4821.488,mp-1199325,Eu3Sn13Rh4,https://materialsproject.org/materials/mp-1199325,0.3946086761554093,49.788825388467295,-8.604250342815693,-0.5045126942092143
-7.179637565999999,-107.69456349,6.585290823502972,-0.7335574273750003,4e-07,1.5067457055558296e-08,0.0,1,15,309.3837196173876,1226.9399999999996,mp-1221608,Mo6Pb(SeS)4,https://materialsproject.org/materials/mp-1221608,64.78504357276948,33.84730243263302,-8.604250342815693,-0.5045126942092143
-5.541529990384616,-144.07977975,4.808986222616707,-1.4624461015900003,9.99985515,0.18031492756502698,2.123,2,26,646.3078859196899,1871.733,mp-1192820,Mn2Sb3I3O5,https://materialsproject.org/materials/mp-1192820,16.255038051743647,-9.213039148523604,7.725234139253341,-1.471797110201753
-4.011684730833334,-144.42065031,3.5903999529551816,-1.0375111485622226,1.0009552,0.00967474316677131,0.0,14,36,1205.7370964942518,2607.032,mp-662513,Te2WCl6,https://materialsproject.org/materials/mp-662513,16.25648886213057,-5.268744699851711,-8.604250342815693,-0.5045126942092143
-3.707931818863636,-163.14900003,4.123998418449668,-0.8507466724599998,1.0004109,0.007987507064692544,0.0,14,44,1459.6360708475333,3625.0498800000014,mp-617352,Te3WICl6,https://materialsproject.org/materials/mp-617352,16.26966495661236,-5.26043161554631,-8.604250342815693,-0.5045126942092143
-3.4169583332142857,-95.67483333,2.7051625249104747,-1.5783370606485714,0.0,0.0,1.1864,130,28,722.3961463291577,1176.84615424,mp-29359,Na2PdCl4,https://materialsproject.org/materials/mp-29359,10.561565782342381,-9.480280238735483,8.292876222860059,-5.042067639494365
-4.5715190025,-36.57215202,8.093875893470615,-0.6694064635416663,1e-07,5.979935534868204e-09,0.0,63,8,194.88612719328492,949.92294,mp-21367,LaIn2Pd,https://materialsproject.org/materials/mp-21367,6.796214807370598,53.660391798437225,-8.604250342815693,-0.5045126942092143
-3.937101659000001,-39.37101659,2.8426756390661416,-2.0762854243060005,0.0,0.0,2.1889,225,10,291.31538092807205,498.7026,mp-1112227,K2NdCuCl6,https://materialsproject.org/materials/mp-1112227,13.206960714908226,-12.335376833062424,8.853924964926765,1.0484297152914324
-4.336885747361111,-312.25577381,4.0937880592464815,-1.058336419638889,0.0,0.0,1.5705,14,72,1261.9894682813099,3111.22912,mp-1181385,K(IO3)2,https://materialsproject.org/materials/mp-1181385,2.247633290998955,-57.72630190715231,8.759394613297829,-0.9450553097203076
-7.603685507666666,-228.11056523,7.512711138733045,-3.0172964549166674,4.999996866666667,0.1575922483343977,1.1635,185,30,369.7535123877674,1672.8612,mp-1193395,LuFeO3,https://materialsproject.org/materials/mp-1193395,-23.78172506270343,-32.4084296781968,5.489151316466156,-5.864599695795947
-6.901105087666666,-207.03315263,5.441142225500915,-2.484657419108666,3.000000066666667,0.07946961164408117,2.0629,185,30,439.94420472571517,1441.57947,mp-19267,BaMnO3,https://materialsproject.org/materials/mp-19267,-33.075384516929354,-23.580207145596017,5.05645710090266,-2.7251160092809767
-9.6193395975,-192.38679195,7.172011728017043,-1.892276530656251,13.99999995,0.31951140270563105,0.2400000000000002,62,20,510.6450187740264,2205.52,mp-1188175,Gd2Se3,https://materialsproject.org/materials/mp-1188175,49.82605092995322,3.6366639153156184,5.5138352703963,-6.634324475523258
-7.290583037999999,-109.35874557,5.4844522843574515,-0.9674136347708326,5.2000000000000004e-05,2.1455272746576144e-06,0.0,148,15,282.45335089940164,932.8910000000001,mp-1222346,LiMo6(SeS3)2,https://materialsproject.org/materials/mp-1222346,67.57203311640865,33.67867277640925,-8.604250342815693,-0.5045126942092143
-6.7529805925,-297.13114607,2.373618199437495,-1.947400778863636,2.999999725,0.06479165556800003,2.0636,4,44,539.6094729531616,771.3319799999998,mp-759685,Li2Co(CO3)2,https://materialsproject.org/materials/mp-759685,-8.876067866362693,-69.29962147373139,8.167893168501777,0.6663660721381094
-3.774426761130953,-634.10369587,2.2044988794887344,-1.7249886338509528,3.0070533708333334,0.006949515417311255,0.8275000000000001,9,168,5042.71055661521,6694.603080000001,mp-654372,K2CoCl4,https://materialsproject.org/materials/mp-654372,20.81225073112659,-1.66084265707778,5.458190064118668,-6.518663098390027
-5.689592439166668,-68.27510927,2.635436419806833,-0.8722303805654766,2.99999805,0.1313459063695908,0.6769000000000003,12,12,266.18394557249184,422.459724,mp-542096,CrPS4,https://materialsproject.org/materials/mp-542096,23.95363138145844,-1.766481584817056,-8.604250342815693,-0.5045126942092143
-6.981091606756758,-258.30038945,4.715491256219321,-1.1096790456081087,6.7e-05,1.138363388598417e-06,0.0,8,37,685.9165953350523,1947.8215386,mp-1264535,Al(MoS2)12,https://materialsproject.org/materials/mp-1264535,73.1345686628684,35.72090921066679,-8.604250342815693,-0.5045126942092143
-7.355308247222222,-132.39554845,3.2687301679199443,-2.2575601697222223,3.9999998,0.18083194272857095,1.6835,15,18,257.7877340476117,507.4488,mp-757078,V2FeO6,https://materialsproject.org/materials/mp-757078,-13.517940469470576,-41.053024963669216,6.7742705272243695,-3.178456609436248
-6.991735220833332,-167.80164530000002,2.609447839399064,-1.8752778965625,9.00000025,0.3236300738249323,1.4949,9,24,324.0940640247538,509.2964,mp-762511,LiFe2C2O7,https://materialsproject.org/materials/mp-762511,-20.15012572733946,-79.84806213326436,7.800207258086407,-2.801145527422464
-5.3328172775,-85.32507644,7.54129303828473,-0.4005731324999999,0.0,0.0,0.0,204,16,412.3644562093553,1872.742,mp-2395,Sb3Rh,https://materialsproject.org/materials/mp-2395,34.64212604996324,28.78084346490983,-8.604250342815693,-0.5045126942092143
-6.617103322857143,-46.31972326,6.149352249129954,-0.7320156563392867,2.0298324,0.1869200249766784,0.0,12,7,126.55571959179753,468.6645,mp-22700,V3Se4,https://materialsproject.org/materials/mp-22700,49.75223489047515,26.790498086389675,-8.604250342815693,-0.5045126942092143
-5.277819002121212,-174.16802707,8.188958247905827,-1.5313827299621212,1.6e-06,3.13134365554786e-08,0.9417000000000008,107,33,595.4793113511878,2936.6098,mp-1227641,Bi10Te2Br4O17,https://materialsproject.org/materials/mp-1227641,8.952106434783161,-36.007089669906506,7.018272692573367,-3.7261587130677087
-7.784654990999999,-77.84654991,5.735578076210303,-3.2253455646666667,5.0000003,0.4722017651320866,1.8081,216,10,123.40133320492399,426.23387,mp-1218147,SrLaTiFeO6,https://materialsproject.org/materials/mp-1218147,6.429525169135792,-40.87811269826234,-5.0162194259744375,-3.511732853963532
-3.9532369960000002,-39.53236996,3.8468687607598415,-2.140284261447379,0.0,0.0,2.4047,225,10,298.89639130590734,692.4349037999999,mp-1112618,Cs2SmCuCl6,https://materialsproject.org/materials/mp-1112618,13.220703895490415,-12.292434319671829,8.484122840915441,0.9940051144976296
-4.2807030396551715,-124.14038815,4.200558092260688,-0.5648291752801732,0.0063199,9.721424708691852e-05,0.0,1,29,757.6309662743962,1916.53,mp-753921,Sb11S18,https://materialsproject.org/materials/mp-753921,70.20769249117606,15.301114480627994,4.254557478205967,-6.0336833986240235
-5.09758816,-101.9517632,3.4569710742597324,-1.6777210485000005,10.999994699999998,0.6369212813865702,1.9619,1,20,201.2723620296296,419.016185,mp-761167,Li8Co3NiO8,https://materialsproject.org/materials/mp-761167,-24.753997465632352,-53.27584449293386,7.6743238539012175,1.3390486992853627
-5.441286988,-54.41286988,9.036459880770304,-0.5579571280000003,5e-08,3.0291955481241145e-09,0.0,129,10,192.36237125359384,1046.8136,mp-1080718,Dy(NiSb)2,https://materialsproject.org/materials/mp-1080718,2.299258791556893,35.18263928890862,-8.604250342815693,-0.5045126942092143
-4.885657753030302,-161.22670585,8.740411579714989,-0.3405970303030301,0.000648,8.713298879500538e-06,0.0,1,33,866.7020467283186,4561.972,mp-684014,Sn14Sb11Pt8,https://materialsproject.org/materials/mp-684014,49.6776228836435,30.04178749921021,-8.604250342815693,-0.5045126942092143
-4.650403572857143,-32.55282501,5.312151177354539,-0.09059981348214308,0.00013969999999999998,1.208576468843982e-05,0.0,12,7,134.70995759861685,430.94419500000004,mp-1078078,Co(SiSe2)2,https://materialsproject.org/materials/mp-1078078,49.30373004729928,25.07041400701004,-8.604250342815693,-0.5045126942092143
-4.077677357000002,-40.77677357,2.7445501283887395,-2.023342478024966,1.9999999,0.08724956314509327,0.0,164,10,267.1432101150148,441.5361,mp-1206399,Rb2LiVCl6,https://materialsproject.org/materials/mp-1206399,13.134067204960283,-7.362840089855956,-8.604250342815693,-0.5045126942092143
-5.789282833500001,-115.78565667,7.255955626796586,-0.5402977424999996,1.0368846,0.02369395209507045,0.0,57,20,510.0001992737936,2228.5166,mp-1209337,PrVSb3,https://materialsproject.org/materials/mp-1209337,3.1547166382153264,34.91635693696372,-8.604250342815693,-0.5045126942092143
-4.539684565769232,-118.03179871,3.1626691134913303,-1.5386661813547753,16.0000286,0.3275012061864926,1.3602000000000003,1,26,569.3578104290294,1084.4011,mp-1223738,K7Rb5(Fe2O5)2,https://materialsproject.org/materials/mp-1223738,-33.39111135953755,-30.144491196545644,6.829401158432066,-1.4209591470825809
-4.578657608333333,-54.9438913,6.985201808515956,-0.6657332603313572,0.0,0.0,1.0979,166,12,361.31593905396886,1519.9069037999998,mp-573316,CsPt2Se3,https://materialsproject.org/materials/mp-573316,65.02025975421395,15.779674616245156,7.29364429802346,-6.213877413916764
-4.4699763407692314,-58.10969243,4.679886412612546,-0.08828947726923092,0.0004287,1.5500989879944087e-05,0.0,12,13,322.3082917085527,908.35936928,mp-1103729,Na(GeAs)6,https://materialsproject.org/materials/mp-1103729,39.57570377832828,12.00875631451704,-6.174798526349161,-3.784031416761069
-2.96373923,-5.92747846,5.7571953295391936,-0.15456347499999978,0.0,0.0,1.1363000000000003,216,2,54.93133765997504,190.45047,mp-22895,CuI,https://materialsproject.org/materials/mp-22895,16.925128665734444,-11.249898816855668,6.631636109791291,-3.813491105253163
-4.499781644210526,-341.98340496,3.5623703887653084,-0.9071411201973676,0.000145575,8.126676244778138e-07,0.34450000000000003,68,76,2087.6191300908577,4478.589417600001,mp-1248289,Al4(BiS4)3,https://materialsproject.org/materials/mp-1248289,18.78865954769197,-6.883976956653267,4.0947434100732965,-5.013011098612606
-5.4659198290625,-174.90943453,2.611100207284371,-3.1764321654312497,2.0000001,0.05733277475366042,2.1788,7,32,406.5411243511765,639.262064,mp-760146,Li2VF5,https://materialsproject.org/materials/mp-760146,-21.100768831453134,-52.10845326678258,8.145728186983991,2.4441931586193717
-8.818388421833331,-529.10330531,1.9810676395632816,0.407085159416666,0.0,0.0,0.7132000000000001,166,60,604.0450870862126,720.6419999999999,mp-680372,C,https://materialsproject.org/materials/mp-680372,59.84199917502985,37.147487512912384,2.868510679583196,-4.983158499439238
-3.6166498797222224,-130.19939567,5.07518841524645,-0.2815191583333332,0.000289625,2.6628385171156255e-06,1.2721000000000002,4,36,1267.5603451195082,3874.108,mp-669328,ReTe3Br5,https://materialsproject.org/materials/mp-669328,60.12085004442822,-1.999433102073136,8.075271923434308,-4.717744997054346
-7.216652235192307,-750.53183246,3.65342562275735,-0.10621131157000062,7e-07,6.536249851170227e-09,2.1661,19,104,1248.0926412767453,2745.9840000000004,mp-1245347,Ga3C3N7,https://materialsproject.org/materials/mp-1245347,16.613195429804875,-12.986578666254067,7.747393422116536,-2.7347247933041103
-6.831099505,-27.32439802,5.984249373939602,-0.40737249929687547,1.0252275,0.16506491503481555,0.0,164,4,72.38405380749356,260.8576,mp-1216368,VCrSe2,https://materialsproject.org/materials/mp-1216368,52.213756314506156,34.35466647241594,-8.604250342815693,-0.5045126942092143
-6.165049800499999,-246.60199202,6.785877667575287,-1.8384663026562509,2.8539759,0.03178458164095032,0.0,58,40,1046.4325242233988,4276.3,mp-645694,Ce3LuSe6,https://materialsproject.org/materials/mp-645694,46.61451357436646,3.426685926688703,-8.604250342815693,-0.5045126942092143
-4.156892765,-49.88271318,10.099056791531137,-0.3425850176302087,6.87e-05,2.9416802878863275e-06,0.0,164,12,272.1690229804433,1655.276,mp-1102023,HgPt2Se3,https://materialsproject.org/materials/mp-1102023,64.45836648882782,15.601613582179922,5.864247033575557,-6.280544151345634
-3.1160075725,-12.46403029,5.155570583051072,-0.2518540474999997,0.0,0.0,0.9949,129,4,92.40658097906609,286.9,mp-22917,CuBr,https://materialsproject.org/materials/mp-22917,16.43158306792979,-11.30523892204442,6.444385150098706,-4.5396709072140355
-4.931127423928571,-414.21470361,5.275407578363617,-0.5999504569196432,9.14e-05,3.5209345111881685e-07,1.0652,33,84,3025.280694165769,9611.08912,mp-1208574,Ta4Se8SI8,https://materialsproject.org/materials/mp-1208574,66.73697759998305,16.094113756969875,8.419791813340185,-6.190053127974633
-6.49468164862069,-376.69153562,3.960419577317871,-1.7987299470086209,54.00000065,0.8253501988227541,0.7158,5,58,762.4878581128364,1818.54913856,mp-1101699,NaFe11O17,https://materialsproject.org/materials/mp-1101699,-27.976132023013815,-33.88150930120676,5.313714227192834,-2.349243904325051
-3.452412730625,-55.23860369,5.290262116852848,-0.4983932428906255,0.0,0.0,0.6423999999999994,63,16,504.7433310065091,1608.04682,mp-561134,Sn2SbS2I3,https://materialsproject.org/materials/mp-561134,71.97226776577328,16.006324188950867,8.06011447108142,-6.511310882821188
-5.953858712307693,-77.40016326,5.6062332881596255,-0.6572769541346151,4.3510601,0.18852441627006097,0.0,216,13,268.9706576895672,908.086,mp-8689,V4GeSe8,https://materialsproject.org/materials/mp-8689,50.239031027985,26.497750474447397,-8.604250342815693,-0.5045126942092143
-5.196340599999999,-20.785362399999997,9.319709518472457,-0.7280311477083332,5e-07,6.930279342041031e-08,0.0,225,4,84.08077219819153,471.9,mp-977590,NdInPd2,https://materialsproject.org/materials/mp-977590,30.195793264969872,40.75855095175453,-8.604250342815693,-0.5045126942092143
-5.183160334375,-82.93056535,4.031223073135547,-1.7653048787500003,2.0,0.12301212088691475,1.8111999999999997,2,16,189.4783162591481,459.9888,mvc-4902,MgNiO2,https://materialsproject.org/materials/mvc-4902,-25.310452157757684,-31.67520562002448,8.912256283933466,-3.5765902519189874
-7.56573000357143,-105.92022005,8.578163578226027,-0.4645792734821431,0.0,0.0,1.1516000000000002,1,14,303.60455126761593,1568.388,mp-1219132,Re2MoSe4,https://materialsproject.org/materials/mp-1219132,74.69267664097399,28.203317163669876,5.543108989909387,-5.525667986096259
-4.816648379999998,-67.43307732,6.104221770751434,-0.6596609372544638,0.0,0.0,0.7974000000000006,148,14,257.055331776042,944.947824,mp-1219527,Sc(CuSe)3,https://materialsproject.org/materials/mp-1219527,46.955502640457155,-5.813631511864443,6.746479932970795,-5.38791514680552
-6.980824195675675,-258.29049524,4.723443298713262,-1.109411634527027,0.0009642000000000001,1.6409864941143554e-05,0.0,156,37,684.7618364931524,1947.8215386,mvc-14436,Al(MoS2)12,https://materialsproject.org/materials/mvc-14436,73.13510113476487,35.71788850339571,-8.604250342815693,-0.5045126942092143
-6.5398928745000005,-261.59571498,6.181817935421117,-2.124152831437501,3.00057705,0.04402920652550617,0.2866,58,40,794.2209741049626,2956.70824,mp-1212338,Ho3CrS6,https://materialsproject.org/materials/mp-1212338,25.77526700443019,5.651151620253358,-4.283033203294173,-1.5707758127859135
-8.521358453333333,-102.25630144,6.301962563064954,-2.7733669908333334,5.00000025,0.3676038909538443,2.0949,12,12,158.51390099576224,601.58096,mp-754944,TaFeO4,https://materialsproject.org/materials/mp-754944,-5.572962550010943,-39.635214941317365,7.145346477383209,-2.265673435126824
-6.9533969274444445,-625.80572347,5.717817291620709,-2.2660169996777797,2.6666666666666667e-07,2.2584377537619025e-09,1.3463,13,90,1376.062103478082,4738.2636,mp-772962,K2W3O10,https://materialsproject.org/materials/mp-772962,-3.066317573710436,-39.588561380137385,7.620389661087521,-1.905642870685894
-4.1982858896,-209.91429448,6.424036034774038,-0.3229743828124998,3.96101405,0.03282016919074332,0.07519999999999971,14,50,1406.5105525640804,5441.289999999999,mp-1201549,FeSb6(Pb2Se7)2,https://materialsproject.org/materials/mp-1201549,69.96600605468483,16.645851453218278,5.331439585094356,-6.837939680485393
-5.834316774285715,-163.36086968,5.782029522878999,-0.6221742100669648,3.4057587,0.06399857583545132,0.0,6,28,620.1846208509273,2159.49502,mp-1220619,Nb4V3FeSe20,https://materialsproject.org/materials/mp-1220619,49.10693667132349,25.044038358871212,-8.604250342815693,-0.5045126942092143
-3.958316835,-55.41643569,6.488452612481508,-0.7765639738734527,0.0,0.0,0.7830000000000004,11,14,336.5259150700752,1314.9539999999995,mp-558368,AgBi2S3Cl,https://materialsproject.org/materials/mp-558368,69.31148077747591,17.038383434234813,8.486010144207544,-6.3205775247281935
-6.288804936,-94.33207404,5.17987803402008,-1.17966087355,0.6314736999999999,0.024373133006198016,0.0,147,15,301.9404768396618,941.87176928,mp-1221415,Na(Ti3Se4)2,https://materialsproject.org/materials/mp-1221415,23.092233405625787,15.083324953009587,-8.604250342815693,-0.5045126942092143
-6.719032113214285,-188.13289917,6.6908741883300005,-1.9328095009821435,6.976438675,0.10424453045601932,0.0,62,28,779.9341398975612,3142.6188,mp-646337,Tb2EuSe4,https://materialsproject.org/materials/mp-646337,-14.502712405877244,11.50385143015941,3.3018116985042663,-5.256012230388945
-4.950910292222222,-44.55819263,7.60446885480052,-0.2963347674386117,0.0,0.0,0.9367,12,9,209.65742366986424,960.13,mp-1245549,Bi4S3N2,https://materialsproject.org/materials/mp-1245549,31.800952917317538,-4.0895560040303405,6.236076383802241,-6.883154186560616
-5.1963738347058825,-88.33835519,7.652148377735706,-0.17919314176470674,1.9261963,0.056781273630511976,0.0,204,17,395.3418972413143,1821.827,mp-1189647,Ba(FeSb3)4,https://materialsproject.org/materials/mp-1189647,43.92826182987547,23.53171747843004,-8.604250342815693,-0.5045126942092143
-3.253698757,-32.53698757,4.339266505788,-0.8619251480689656,2.9999999,0.08825176961743461,0.9751999999999996,225,10,396.16421635318267,1035.24342,mp-1114569,Rb2LiMoI6,https://materialsproject.org/materials/mp-1114569,10.43817716462191,-7.5569289443940075,6.683067820845079,-2.6075695368763863
-4.66019407,-51.26213477,2.487801181487631,-0.9147120980600659,2.0000001,0.1068173831008494,0.5326,1,11,218.20540846352668,326.91292400000003,mp-775433,Li2Ni(PS3)2,https://materialsproject.org/materials/mp-775433,23.26504446634748,-0.5802590025352778,3.3708118143517445,-4.688970456996804
-6.925256727083332,-166.20616145,2.3125630817139697,-2.6055344250694445,2.00000045,0.08570008651840715,2.7476000000000003,2,24,271.9732935677058,378.7658,mp-778031,Li3V(BO3)2,https://materialsproject.org/materials/mp-778031,-22.029068845084986,-54.472259128215796,8.889817011759554,3.057410030641478
-3.019060038333333,-36.22872046,6.162883998916943,-0.3878294633908042,2.1000000000000002e-06,6.836840075284965e-08,0.25619999999999976,12,12,357.9656062286242,1328.5448,mp-10481,RbAg3Te2,https://materialsproject.org/materials/mp-10481,53.25356525440457,19.648240025331226,-6.3454044908552865,-3.6758338396881336