energy_per_atom,energy,density,formation_energy_per_atom,total_magnetization_uB,total_magnetization_T,band_gap,sgr,num_sites,cell_volume,weight,mp_id,formula,URL,tsne_xrd_lin1_0,tsne_xrd_lin1_1,tsne_xrd_lin2_0,tsne_xrd_lin2_1
-2.733383711666667,-16.40030227,8.622743181579587,-0.10876657388888884,1.4499999999999998e-05,1.5568090992273252e-06,0.0,155,6,108.54506136043629,563.646,mp-1185839,MgAg5,https://materialsproject.org/materials/mp-1185839,-48.23650564990339,-32.782827017708094,-57.86241320872745,-27.184709818692827
-5.218723716,-52.18723716,10.208072011470922,-0.546701928666667,2e-07,1.2306810567745263e-08,0.0,127,10,189.39212086523307,1164.2776,mp-1079510,Lu2InNi2,https://materialsproject.org/materials/mp-1079510,-45.79806508580754,2.1490220157752247,-56.75875600878231,23.815717969791393
-7.256693351111113,-130.62048032,7.779091850083022,-0.4690925774074073,0.0,0.0,0.0,137,18,178.9206082107653,838.1855599999999,mp-22165,Ce(CoB)4,https://materialsproject.org/materials/mp-22165,-54.2891925979189,-30.759713754525126,-51.772826394437686,-13.715312356605622
-8.014972512058824,-272.50906541,12.054388592603226,-0.5171984255882361,5.5e-07,1.2669149124499763e-08,0.0,64,34,505.9326054117242,3672.728,mp-1198091,Hf7Ni10,https://materialsproject.org/materials/mp-1198091,-61.653834199449776,-27.034247023395125,-57.03188305388645,-18.40138074050244
-7.682087108333333,-368.7401812,10.739441399688088,-0.5656522733333323,4.166666666666666e-08,6.160162117883193e-10,0.0,55,48,788.2682677787195,5098.08,mp-1204281,HfGe2Ru,https://materialsproject.org/materials/mp-1204281,-57.12944345202093,-8.189476401836442,-53.906224961029174,-7.599395927096897
-4.522321736875,-72.35714779,8.00805363750059,-0.14192320437500072,5e-08,1.5768639311426996e-09,0.2397,136,16,369.5329870382155,1782.096,mp-607450,In3Ru,https://materialsproject.org/materials/mp-607450,-46.7324106826927,1.4990988224883737,-49.42777053934004,11.763942398336887
-8.525184715625,-136.40295545,8.33891490971984,-0.4709429075000013,1e-07,4.287812998209843e-09,0.0,140,16,271.7950800892028,1364.9038,mp-16842,Nb5Ge3,https://materialsproject.org/materials/mp-16842,-63.23468404666705,-18.68995389709641,-57.76651475041685,-10.534509089109823
-6.768918603809524,-142.14729068,8.467866979555373,-0.7571963069047618,2.9534795,0.13819751380610906,0.0,174,21,249.0641144653188,1270.094674,mp-567602,Yb2Co12P7,https://materialsproject.org/materials/mp-567602,-63.89685187327811,-30.163834503250214,-65.9745177638519,-17.46353191277823
-6.52636082106383,-306.73895859,7.6232923242815005,-0.8122946567173251,0.0008904999999999999,1.5083028175403052e-05,0.0,187,47,688.0544516179083,3158.757544,mp-649704,Ce9(Ni13P6)2,https://materialsproject.org/materials/mp-649704,-51.00453118275826,0.07268146344511679,-55.739075640098065,20.175744059542545
-6.137182016363636,-135.01800436,7.829618571812582,-0.14515215545454455,12.2473849,0.4921826065178847,0.0,12,22,289.9976858769449,1367.37,mp-570920,Ga5Fe6,https://materialsproject.org/materials/mp-570920,-58.58578143105255,-26.09290703905941,-62.94124465845204,-12.690185052232016
-7.367271348823528,-250.48722586,7.740157471670684,-0.4487290829411772,9.000000000000001e-07,1.994695568616233e-08,0.0,64,34,525.827522772307,2451.004,mp-636525,Zr7Ni10,https://materialsproject.org/materials/mp-636525,-61.97546947719303,-27.08569099044825,-63.070682511831706,-14.516420721041472
-6.893945745384616,-89.62129469,6.797392245478184,-0.2126209212820516,0.0,0.0,0.0,12,13,354.00351375703906,1449.1082,mp-29607,Ag(TeMo)6,https://materialsproject.org/materials/mp-29607,-56.29568340801146,-29.634585380387723,3.983031961071232,-59.47044525921111
-6.407460386875,-102.51936619,4.6391716799464335,-2.0424748681250007,15.999998199999999,1.231132912263908,0.12130000000000064,12,16,151.45807047002862,423.1397,mp-756824,Li3V(FeO2)4,https://materialsproject.org/materials/mp-756824,-6.619406132112078,-62.093057102566206,-24.25814096945193,-63.67144405869647
-6.721064706896553,-194.9108765,5.916510157065262,-0.6480675868965522,0.0006435,1.584332068191199e-05,0.0,225,29,473.3471493576513,1686.5386176000004,mp-866136,Zr6Al16Ru7,https://materialsproject.org/materials/mp-866136,-39.33373931561015,-22.380454958518367,-48.07536778661518,-21.856322641640357
-6.717480047894736,-127.63212091,7.947502247042276,-0.08042678973684235,26.0213043,1.0999853264488637,0.0,166,19,275.68910101527956,1319.475,mp-1205466,Sm2Ga5Fe12,https://materialsproject.org/materials/mp-1205466,-51.86106687693202,-23.097838054203105,-56.1959745176414,-12.807837367679484
-8.747622555555559,-157.457206,11.960085326239614,-0.7915929972222229,5.208333333333334e-05,2.0554950662966654e-06,0.0,46,18,295.2974931392413,2126.8896,mp-1212409,HfAsRu,https://materialsproject.org/materials/mp-1212409,-50.045670163289095,-12.673226983443609,-56.86909742484563,2.2420743263852403
-7.582271996666668,-272.96179188,5.882742380138521,-0.6631667766666678,9.225e-06,2.769967984637831e-07,0.0,55,36,388.12270799916763,1374.9908,mp-1196778,Y2B6Ru,https://materialsproject.org/materials/mp-1196778,-35.67250374149722,-10.44668595231468,-37.7613651377341,-12.19227451210037
-8.230953422499999,-164.61906845,8.540313476686173,-0.30630918283333275,5.45e-06,2.7450262171087675e-07,0.0,127,20,231.38086119027275,1190.01423,mp-1209993,Nb3Co5B2,https://materialsproject.org/materials/mp-1209993,-57.74486336834809,-25.256411387082878,-60.04402410830488,-11.496474381960091
-7.1063759325,-255.82953357,8.676611753417571,-0.8502399809920631,1.088307175,0.029451375597128886,0.0,62,36,430.6488933959301,2250.217044,mp-1196904,LuCo5P3,https://materialsproject.org/materials/mp-1196904,-64.68693215752371,-29.046181542353228,-65.07258211034656,-15.458270633703512
-6.964631560357143,-195.00968369,7.007984182019509,-0.4439149901785718,1.745343475,0.043069218558793435,0.007500000000000284,227,28,472.27106942393175,1993.1288,mp-21602,Zr4Ni2O,https://materialsproject.org/materials/mp-21602,-69.87232353699524,-3.0271789166398846,-65.26129635767424,5.436930684817011
-7.983722089166666,-95.80466507,7.95181075290938,-0.7653238975000001,0.314787775,0.019784161757681943,0.0,62,12,185.4289893295829,887.9624000000001,mp-1207418,ZrFeAs,https://materialsproject.org/materials/mp-1207418,-52.602866550638076,-8.384741845857883,-58.17106540567584,0.6144615287786304
-6.3725781525,-25.49031261,5.659700620396046,-0.4312156624999997,1.9463881999999997,0.4606493821772105,0.0,123,4,49.2420809252701,167.8343172,mp-1221642,MnAl2Co,https://materialsproject.org/materials/mp-1221642,-50.96889771148484,-51.78302778282881,-68.77510565205706,-42.703160134307375
-6.875251326,-206.25753978,8.276046992892272,-0.02751444999999914,33.6243571,0.9176900093433324,0.0,65,30,427.0074116416275,2128.184475,mp-1220153,Pr4ZrCo25,https://materialsproject.org/materials/mp-1220153,-52.36231787036285,-16.864740759923038,-54.451081631762285,-15.237726675632787
-5.887247843333332,-141.29394824,4.570342369613239,-1.841848491875,27.0000092,1.368129224559523,0.17280000000000004,5,24,229.9927890055957,633.0147999999998,mp-757148,Li5Fe5(CuO6)2,https://materialsproject.org/materials/mp-757148,-9.271957843057807,-62.31150175681386,-30.33065654285426,-61.60551850833498
-8.325578084090909,-183.16271785,8.042666495437972,-0.2833294144154557,37.9327217,1.6354020197891097,0.0,166,22,270.31298135995155,1309.2358,mp-1191945,Tb2Fe17N3,https://materialsproject.org/materials/mp-1191945,-52.08587124453505,-23.39465237262177,-56.09116254213024,-11.155865988556094
-5.9026300095,-118.05260019,3.955375520244927,-1.945591273971,6.68260075,0.4320333309149265,0.0,8,20,180.2626242394977,429.38248,mp-1174168,Li3MnCoO5,https://materialsproject.org/materials/mp-1174168,-2.088970906572861,-75.74435082895053,-19.051817084003545,-75.36582936126537
-5.58065562875,-44.64524503,6.669343488555628,-0.5637066362500001,0.0,0.0,0.0,65,8,93.22133522321056,374.41161580000005,mp-16514,Al3Ni5,https://materialsproject.org/materials/mp-16514,-72.84930473533458,-40.86203566433874,-74.40472025019919,-28.943581839135785
-5.678571630909091,-437.25001558,9.747583090753468,-0.23876063418831175,8.327248599999999,0.10363167741332374,0.0,229,77,936.4539587113733,5497.1082,mp-8792,Yb11(Ni10C)6,https://materialsproject.org/materials/mp-8792,-55.658681590351506,-30.80129455327001,-60.31191798622857,-30.077577765147318
-9.526699545555557,-342.96118364,12.644141213269307,-0.5068596490277789,8.945517025,0.2685194772293087,0.0,55,36,388.24608147273165,2956.292,mp-1201365,Pu2ReB6,https://materialsproject.org/materials/mp-1201365,-35.7065575084981,-10.39813363608192,-37.70404883666775,-12.27537043630008
-8.950607909444445,-322.22188474,12.365263290727215,-0.5486547838888893,0.790323275,0.023658106395166877,0.0,55,36,389.31596993718483,2899.05528,mp-1203029,U2B6W,https://materialsproject.org/materials/mp-1203029,-35.74577815311242,-10.315310893655944,-37.62671764946893,-12.191367893211364
-4.88797166,-78.20754656,5.248222229779094,-1.2572493056249998,9.990000000000002e-05,8.229333371798962e-06,0.0,12,16,141.47452997449855,447.1378,mp-756169,Li3Cu(NiO2)4,https://materialsproject.org/materials/mp-756169,-9.50666473633532,-64.52086280975125,-26.919771143393845,-62.574177791212044
-6.6946008866666675,-40.16760532,8.681695803462048,0.036256251666666614,2.09996075,0.3413519062880904,0.0,194,6,71.69457134854409,374.83639,mp-1206973,FeCoGe,https://materialsproject.org/materials/mp-1206973,-49.86821863000814,-52.35635527231136,-69.65351568560276,-41.34993850284521
-7.479169680681817,-329.08346595,8.320749675606027,-0.09313825731181877,37.772110999999995,0.8547827527626329,0.0,194,44,514.9830489298074,2580.5144800000003,mp-1208090,Tm2Fe17H3,https://materialsproject.org/materials/mp-1208090,-54.03827702797528,-22.624109102567225,-55.24903509411236,-9.898619513161488
-7.319144895,-29.27657958,7.8392804721143685,0.07761366749999965,4.370617299999999,1.0302189552050538,0.0,35,4,49.44138996174053,233.4091,mp-1226220,CrGaFe2,https://materialsproject.org/materials/mp-1226220,-49.45470326689477,-50.50729048828343,-68.59234678568772,-43.57061290543485
-6.069237262222222,-218.49254144,8.940626477477663,-0.4608180177777778,0.000263275,8.037265035253157e-06,0.0,55,36,381.74974814663557,2055.406,mp-1207638,Yb2B6Rh,https://materialsproject.org/materials/mp-1207638,-35.63324760242118,-10.461195056055484,-37.71407022407908,-12.356858853324859
-6.510788640714287,-91.15104097,9.831184659036767,-0.4395411107142856,0.0,0.0,0.0,63,14,240.21236600658662,1422.172,mp-17801,Hf2CuGe4,https://materialsproject.org/materials/mp-17801,-52.81424866413909,-0.06535516265524245,-65.98369246581646,-18.706689943106575
-4.3670741516666665,-26.20244491,8.92837031745614,-0.1834232766666665,1e-07,1.3048219234043598e-08,0.0,191,6,89.31536605511292,480.23,mp-1225307,DyCu5,https://materialsproject.org/materials/mp-1225307,-50.677787226366156,-16.208480898371185,-54.045529624690644,-17.064066403434165
-2.7741000235000004,-55.48200047,5.6863904764928535,-0.4647254045000001,0.0,0.0,1.9336,62,20,768.2887691312984,2630.94684,mp-29288,TlGeI3,https://materialsproject.org/materials/mp-29288,10.158232571961307,27.389903583386197,15.565552774891596,-10.594856394237798
-8.247215429999999,-313.39418634,8.46088182817844,-0.019077051578947433,29.8113272,0.6563693201942924,0.0,194,38,529.3104468105389,2696.97552,mp-1197659,Dy2Nb2Fe15,https://materialsproject.org/materials/mp-1197659,-54.09375529063103,-22.235498572559106,-55.86957505622213,-9.451127668217644
-8.058580266578947,-306.22605013,8.022063861380085,0.0014655024342094913,79.79218990000001,1.7828619596542443,0.0,8,38,521.5789951675912,2519.74805,mp-1217666,Tb3NdFe34,https://materialsproject.org/materials/mp-1217666,-53.31863961358602,-24.18474893847581,-55.46426014120273,-11.320020255178788
-5.033835258333333,-30.20301155,8.305593484550784,-0.2370050412499995,1.59e-05,2.073749824840402e-06,0.0,191,6,89.35486222305526,446.93027,mp-1222942,LaCu3Ni2,https://materialsproject.org/materials/mp-1222942,-50.64101081241677,-15.978906812410814,-54.076770206411325,-17.108912539347422
-6.228928955,-24.91571582,7.836438282228651,-0.7285503466666663,0.7594299,0.14518180331258185,0.0,123,4,60.96111938879275,287.6885386,mp-1217040,TiAlPd2,https://materialsproject.org/materials/mp-1217040,-51.90517705143799,-33.02815330873034,-60.29191724128372,-29.229232922267414
-7.7975142700000015,-163.74779967,8.047861299945883,-0.7250688764285723,0.9744546000000001,0.04505947052509823,0.0,174,21,252.0304143386068,1221.474334,mp-1190642,Er2Fe12P7,https://materialsproject.org/materials/mp-1190642,-64.24677619300802,-29.813672900001418,-65.2521301231858,-16.18181522237582
-8.1454715175,-32.58188607,6.347574291412961,-0.3840047585714288,1e-07,1.798061074971753e-08,0.0,141,4,64.81462134284162,247.76028399999998,mp-9830,NbP,https://materialsproject.org/materials/mp-9830,-39.90051118488466,-18.154098919214412,-43.25978605882311,-21.21869997751405
-9.091529475833333,-109.09835371,5.765886165957799,-0.4560929853566656,1.3909044,0.13802599377548505,0.0,36,12,117.43940055526916,407.78458,mp-1246797,Mn2CrN3,https://materialsproject.org/materials/mp-1246797,-50.9971882758177,4.662691148900735,-40.173587193109896,14.27219379448002
-7.1076340275000005,-142.15268055,8.020810178157921,-0.5754431625000009,4.175e-06,1.4037866671911837e-07,0.0,136,20,346.60338043237886,1674.1791999999996,mp-510040,Zr2Ni2Sn,https://materialsproject.org/materials/mp-510040,-54.835047214325655,-8.792574072193412,-59.499573014118454,0.2090867590900123
-6.28453248,-37.70719488,9.091147352568983,-0.2548156983333338,3.8527911,0.5425135706070497,0.0,187,6,82.76415460778159,453.1186,mp-1225612,DyFeNi4,https://materialsproject.org/materials/mp-1225612,-53.589951200667294,-17.020441997776338,-53.555930468515434,-4.757924029102889
-7.06342881047619,-148.33200502,7.759718404807947,-0.7434914933333326,5.091894,0.2287032731509107,0.0,174,21,259.468356851419,1212.498674,mp-974042,Nd2Co12P7,https://materialsproject.org/materials/mp-974042,-63.63856998576597,-29.937837907977837,-65.21133164902294,-16.750344385037128
-7.30765256125,-58.46122049,8.509511658866865,0.03956995249999995,6.95834625,0.7258904876474902,0.0,194,8,111.71522328417471,572.49,mp-20883,Fe3Sn,https://materialsproject.org/materials/mp-20883,-56.631430710644615,-47.3040965022249,-67.78189651610136,-35.56631461938593
-6.1744490475000005,-74.09338857,9.058459156286533,-0.6188935241666668,4.1603737999999995,0.2295370685856641,0.0,25,12,211.2306567388501,1152.2910516,mp-1216589,U2Al6Pd3Pt,https://materialsproject.org/materials/mp-1216589,-42.560881566658416,-20.137777713527047,-35.314723698815094,-61.61247355976101
-6.335135171999999,-63.35135172,8.274152800955996,0.1411748193333338,7.41206805,0.4985736588346236,0.0,127,10,173.25568574005356,863.3004000000002,mp-1084761,Cr2InPd2,https://materialsproject.org/materials/mp-1084761,-62.8659090879075,-29.39531131258286,-64.6983017890271,-17.337195537974292
-7.363831908,-36.81915954,7.995466245945331,0.010166517999999769,9.200678300000002,1.7614556523673583,0.0,69,5,60.873119749325454,293.103,mp-1224889,GaFe4,https://materialsproject.org/materials/mp-1224889,-49.284681250076424,-50.73894063758471,-68.99809385293102,-44.1039288984615
-6.764103656666666,-81.16924388,8.253254538269267,-0.018009784583333282,6.74068785,0.4502638961980061,0.0,66,12,174.4674922391746,867.1428900000002,mp-570460,LaCo5,https://materialsproject.org/materials/mp-570460,-52.00832844322055,-15.654295523447313,-54.55754598731742,-14.720747255724769
-8.047157757999999,-120.70736637,4.340042094324486,-2.9396256524444437,2.2732228,0.18018097312111986,0.0,12,15,147.03153887314767,384.2867,mp-753566,Li2Ti4VO8,https://materialsproject.org/materials/mp-753566,-6.994866219647781,-63.19707725769364,-25.117311687488343,-62.88185387749992
-8.40673878952381,-176.54151458,7.167472783399434,-0.06374639654762047,36.2065465,1.5820908825409263,0.0,12,21,266.7061941625083,1151.1981,mp-1216161,Y2Fe17C2,https://materialsproject.org/materials/mp-1216161,-53.878051029840705,-25.3884877997098,-59.65482348962996,-12.003372072273569
-6.35827459375,-101.7323935,8.889784296504835,-0.3786386237499997,8e-07,2.5216431901640305e-08,0.0,53,16,369.7292247536927,1979.36512,mp-19810,TaNiTe2,https://materialsproject.org/materials/mp-19810,-10.485067697216476,-3.529342819008469,-33.333216396337406,-14.156695969804618
-7.226917848333334,-260.16904254,9.272354745998344,-0.7392604794444458,1.8000000000000001e-06,5.6766303779004456e-08,0.0,55,36,369.5381801195607,2063.48,mp-1201540,Lu2B6Ru,https://materialsproject.org/materials/mp-1201540,-35.72910465609249,-10.610822521971286,-37.66603121806685,-12.240680257773509
-7.444729217999999,-111.67093827,6.165030162530043,-1.2919006684999998,0.0001968,8.324133489337041e-06,0.0,147,15,275.52656984389733,1022.9386800000001,mp-1220429,Nb6BiS8,https://materialsproject.org/materials/mp-1220429,-39.10476099340513,-14.771860635465044,-40.799341142171606,-10.778471730515248
-6.9479527333333335,-41.6877164,8.299603954347168,-1.7738980163541669,0.0001962,1.6854793042646023e-05,0.0,129,6,135.66037284414207,678.04932,mp-1019358,ThAsS,https://materialsproject.org/materials/mp-1019358,-36.22677204009954,-9.287338184411212,-40.24239346583783,-10.870971984528127
-8.315308475517242,-241.14394579,6.946262071969267,0.06994229586206988,23.9706007,0.6473507491588119,0.0,225,29,431.5356606259703,1805.17273,mp-1193646,Y6Mn14Fe9,https://materialsproject.org/materials/mp-1193646,-57.26897677388091,-17.63666836413327,-60.905003446605605,-17.470007830557446
-5.7282810999999985,-40.097967700000005,16.342171943082352,-0.3448747311904756,0.0,0.0,0.0,123,7,118.39264758499756,1165.1596,mp-1025212,InAsPt5,https://materialsproject.org/materials/mp-1025212,-51.386320934409525,-32.878604050256115,-60.207673870564726,-29.38791578271941
-6.9325376285,-138.65075257,6.168746533573402,-0.03611808745200022,6.670000000000001e-05,3.8502808594013966e-06,0.0,59,20,201.8881605563139,749.99555,mp-1247554,MgCo5N4,https://materialsproject.org/materials/mp-1247554,-53.869747955363906,-29.619482798950273,-54.24764031776694,-32.24329278963395
-4.26211906,-42.6211906,5.495846471185463,-0.7838106320000001,1.25e-06,6.646188290562531e-08,0.0,15,10,219.1870035699308,725.4380000000001,mp-1078280,Ca2GaPd2,https://materialsproject.org/materials/mp-1078280,6.654291972875392,-2.3041166986856063,-39.416315972251795,-10.19022957197526
-7.485153589318182,-329.34675793,8.294436793984254,-0.09101008185727334,37.598777,0.8503776934811437,0.0,194,44,515.2752546145471,2573.81364,mp-1213007,Er2Fe17H3,https://materialsproject.org/materials/mp-1213007,-53.878025300726044,-22.598464658957443,-55.283263587966005,-9.882588466634687
-7.608758299642857,-213.04523239,6.425253042448532,-0.17153014374999945,0.008548775,0.00021779766399733597,0.02099999999999991,227,28,457.4336370166835,1769.9836,mp-504834,Zr3V3O,https://materialsproject.org/materials/mp-504834,-69.315174614951,-3.3455343993462927,-65.0993619734495,4.494111225481382
-7.8672070211111125,-70.80486319,4.445878867996412,-0.6547709051851867,2.7000000000000004e-06,2.3785965717604422e-07,0.0,189,9,132.28798552678748,354.184,mp-11750,Ti6Si2B,https://materialsproject.org/materials/mp-11750,-53.15840054702043,-34.29121497307139,-68.59471166190511,-16.22890613585355
-6.691818504166666,-80.30182205,6.436060480994443,-0.6677747058333333,0.0,0.0,0.0,62,12,188.7109030907083,731.422,mp-22522,ZrCuSi,https://materialsproject.org/materials/mp-22522,-52.03157559737506,-8.783311934165738,-57.86801115974314,1.3912709099436076
-5.824061455,-93.18498328,4.960783959587247,-1.6861834731249994,14.9999995,1.1858412398486884,0.0,2,16,147.4151512757885,440.39598,mp-756767,Li3Fe(CoO2)4,https://materialsproject.org/materials/mp-756767,-6.9947146434292575,-63.006342806661564,-25.011173879882218,-63.02505346235353