energy_per_atom,energy,density,formation_energy_per_atom,total_magnetization_uB,total_magnetization_T,band_gap,sgr,num_sites,cell_volume,weight,mp_id,formula,URL,tsne_xrd_lin1_0,tsne_xrd_lin1_1,tsne_xrd_lin2_0,tsne_xrd_lin2_1
-6.181617649375,-98.90588239,5.491054222169449,-2.43122466046875,0.000143,7.600319417824803e-06,1.4504,44,16,219.27121359762458,725.0839000000002,mp-1227293,Ca4Tl2CO9,https://materialsproject.org/materials/mp-1227293,0.016816549117909,17.7420032459847,4.163166526430901,47.2704672685885
-6.90046740875,-110.40747854,6.935722730454877,-2.2972557613020825,0.0,0.0,1.7449000000000003,63,16,261.36090631776113,1091.6496,mp-755121,TiBi2O5,https://materialsproject.org/materials/mp-755121,3.5982767588685096,7.702027777479591,7.091174553054607,32.51038792212068
-7.084134601666666,-42.50480761,8.539762686382714,-0.7165090058333329,0.3884776,0.0383408103147592,0.0,187,6,118.08157094024031,607.2658150000001,mp-1217297,Th2CoSi3,https://materialsproject.org/materials/mp-1217297,-58.008196763510405,22.057352170471187,-54.53823493624139,30.141092883067422
-6.88936009875,-55.11488079,6.3441377178045775,-1.7400460755524998,4.763088099999999,0.31470794109605105,0.0,129,8,176.3836560383027,673.8788900000001,mp-18755,NdMnSbO,https://materialsproject.org/materials/mp-18755,-14.974784110192909,21.23037264182148,-15.126072822872114,41.848673760428206
-8.627601411702129,-405.49726635,5.701891216115407,-3.0069139898528374,54.0016884,1.105304217068647,0.0,189,47,569.3809584027845,1955.11710784,mp-1210643,Na3Eu9B8O27,https://materialsproject.org/materials/mp-1210643,3.3700870456771215,21.387320776124294,-5.695200949677023,29.032004953412105
-8.620742255625,-137.93187609,6.589695112519119,-3.850239043177083,0.0,0.0,3.0374,63,16,233.03152855573097,924.7639999999999,mp-755595,Er2TiO5,https://materialsproject.org/materials/mp-755595,-4.8041801088771035,14.30701079098305,7.302019961961719,33.03227483370699
-2.75232126875,-22.01857015,3.5295925621506488,-1.545096621853448,0.0,0.0,3.8345,59,8,488.9227418718557,1039.2396876,mp-1078801,CsI,https://materialsproject.org/materials/mp-1078801,-10.782739044082973,51.089005203122994,3.535042648010814,22.635350157959696
-6.1592063685000005,-123.18412737,6.2112514948782245,0.02653228454800001,4.85e-06,2.2783787650092806e-07,0.0,62,20,248.08085036152568,927.9472,mp-1246858,Ni(GeN)2,https://materialsproject.org/materials/mp-1246858,-34.55266585581141,14.952411688624373,-16.70782660724138,27.100240341461195
-7.038723788157895,-267.47150395,8.03558748617512,-3.1078289777302635,7.9999972999999995,0.17382815974093316,2.2376,87,38,536.3485804224862,2595.468,mp-1214489,Ba5Er8Ni4O21,https://materialsproject.org/materials/mp-1214489,-6.0561725532300335,35.69643612883644,-1.861393018023567,49.576986811311215
-9.114891210909091,-200.52760664,7.404255164208175,-3.7291336501136367,3.000007,0.10927852590382442,0.0,63,22,319.93729423933337,1426.5833600000005,mp-754141,Ce3TaO7,https://materialsproject.org/materials/mp-754141,20.437561611572143,55.59246646340728,-1.6525995577370465,36.8691905304345
-8.486919042307692,-441.3197902,5.556258314074387,-3.1502520989876928,0.000268225,5.0489121506751465e-06,2.3334,14,52,619.1257503265971,2071.630064,mp-1207474,Zr4N3OF5,https://materialsproject.org/materials/mp-1207474,0.8815847942754984,22.151127877555776,0.6425068080035355,45.91140621846265
-6.89810015773585,-365.59930836,6.538329886238415,-2.3758758095047168,17.6977451,0.15776698348372642,0.0,160,53,1307.311981057973,5147.5074,mp-579102,Sm32O21,https://materialsproject.org/materials/mp-579102,27.592230966157665,64.34820925683104,-12.48033721197022,33.893754314252746
-7.3160059916666675,-87.79207190000001,4.987101354498439,-2.859932185055834,7.0000003,0.5556504014956392,0.0,139,12,146.81615757777425,440.93335999999994,mp-1214095,Ca2LaMn2O7,https://materialsproject.org/materials/mp-1214095,-25.966443169858714,55.59336328206329,-11.43247257931889,62.800503583461094
-9.23613531,-55.41681186,8.436373397198555,-2.543720115208334,5.0000002,0.3825789605330319,0.0,129,6,152.30928044873588,773.8077400000001,mp-647604,PuIO,https://materialsproject.org/materials/mp-647604,-15.959012779902876,23.47752962082391,-15.83285458382753,40.960241103900486
-4.50637386875,-36.05099095,6.190913395400113,-0.7453877756640628,0.0,0.0,1.5257,42,8,237.68259959080825,886.1414,mp-1216543,Tl3V(SeS)2,https://materialsproject.org/materials/mp-1216543,-10.265994398006567,53.37010689364215,3.5683436841622282,21.962518042146307
-6.995302022222222,-62.9577182,8.901606573995046,-0.6748469755555564,7.283808500000001,0.400722165523112,0.0,189,9,211.83249481372897,1135.564707,mp-580154,GdMgAu,https://materialsproject.org/materials/mp-580154,-38.55335634842954,13.373224004205165,-27.33724605546904,29.166007154487602
-8.11798494,-32.47193976,7.3737194728778315,-0.21120315499999973,0.9895809999999999,0.2224391228718583,0.0,38,4,51.84628010935858,230.2264,mp-999178,SmFeC2,https://materialsproject.org/materials/mp-999178,-36.971816442891694,28.145289705385423,-40.47712166669535,35.112616731150005
-8.44985828,-33.79943312,5.91671185023597,-0.5918840675000006,7.1690532000000005,0.8267013448519721,0.0,63,4,101.0626278413596,360.099,mp-21279,EuSi,https://materialsproject.org/materials/mp-21279,-6.056547394584008,19.573064182751526,6.3905385743532825,49.298900461829966
-3.7763646404545455,-83.08002209,3.9779299219462696,-0.4588955414547416,1.05e-05,1.8083033249619275e-07,0.4298000000000002,15,22,676.6988614283122,1621.0764,mp-1192007,Rb2As2Se6O,https://materialsproject.org/materials/mp-1192007,8.943693334837212,12.920806180829565,22.885763091494574,35.58336684555971
-7.120635406428571,-99.68889569,5.741378007139571,-3.1123964504257136,3.0007725,0.18312319863709592,0.0,123,14,190.97087284948532,660.289185,mp-1218803,Sr2La2MgMnO8,https://materialsproject.org/materials/mp-1218803,-23.037448299822373,38.65984292996549,-13.697405605188932,59.0206319400841
-8.859387537272726,-97.45326291,6.53101478331538,-1.5272949551618185,7e-07,5.3241388184816896e-08,0.0,139,11,153.2237535293679,602.63961,mp-31054,La3(VN3)2,https://materialsproject.org/materials/mp-31054,-26.490789827177736,46.901479377240896,-12.833923990244047,63.940173211479035
-6.84426821125,-109.50829138,7.888054126866192,-0.5863348436900004,0.0,0.0,1.3609999999999998,33,16,221.7115124248045,1053.1956,mp-1245777,SiPbN2,https://materialsproject.org/materials/mp-1245777,-2.3997622025994167,18.85272347658608,1.2988034191173616,23.45040997269511
-6.877744117083334,-495.19757643,5.2943739777976235,-2.4105030590277794,0.000391925,4.2905335777279935e-06,2.9765,62,72,1064.5574153516209,3394.178,mp-1201916,Y2Te3MoO12,https://materialsproject.org/materials/mp-1201916,18.655654440973716,52.196023898353005,36.219211805623594,-2.159925244830466
-3.995421156666666,-119.8626347,3.8433570948733453,-1.495411266683908,3.505e-05,5.261429655428218e-07,1.0711000000000002,185,30,776.3573724810582,1796.8976,mp-769294,Rb8SnO6,https://materialsproject.org/materials/mp-769294,8.083380279779531,4.375170268661236,7.20478936923006,13.783009535398676
-4.3424351331818185,-95.53357293,3.430890406834082,-0.8090004042721862,0.0,0.0,2.1922,15,22,478.5553640652289,988.7578480000001,mp-1222065,MgAg2(PS3)2,https://materialsproject.org/materials/mp-1222065,12.886847156333788,12.053763186448787,35.71268070877381,-15.779743008906255
-6.04676219375,-193.49639019999998,7.187224462193299,-2.0574675893750003,1.595e-05,3.668383641181083e-07,0.0,17,32,506.71454052848185,2193.1861,mp-1200772,Ba2YCu3(PbO4)2,https://materialsproject.org/materials/mp-1200772,-23.396624217082227,38.5043394204967,-8.5711286124574,64.96568594069271
-7.77529093,-124.40465488,3.3618539328963832,-3.267934000677084,1.5e-07,9.817079884419388e-09,2.9889999999999994,9,16,178.06819710801838,360.509,mvc-3091,MgTiSiO5,https://materialsproject.org/materials/mvc-3091,22.259614919088605,22.168308350286,51.98231829526527,41.26202534790207
-5.540092586,-27.70046293,6.939251933658383,-2.37760890725,1.9995993000000003,0.3969263611203525,0.0,221,5,58.709781067675564,245.3432,mp-972160,YbMgO3,https://materialsproject.org/materials/mp-972160,-29.40264627085816,55.773368213717276,-10.342262960410526,25.33527788500133
-8.742021016363637,-192.32446236,6.2409947781605055,-3.6320081614772746,6.405e-05,2.4063374341738533e-06,2.3629999999999995,51,22,310.1987435684464,1165.8556,mp-676311,Nd2Zr2O7,https://materialsproject.org/materials/mp-676311,16.970660174544054,61.63072649329447,-7.602896286792637,37.38727268918739
-4.8673079365625,-155.75385397,5.002100567170408,-1.4000046108300783,0.0,0.0,3.068,4,32,487.40056968780715,1468.2140000000004,mp-542117,Cd3Se3O10,https://materialsproject.org/materials/mp-542117,22.096503713010453,57.12806352648038,32.24260871003871,0.5135892916018298
-3.4770272835000005,-278.16218268,6.925263696121679,-0.471821159463542,0.0599360125,0.0002942301400132745,0.6144000000000003,39,80,2373.985791708605,9900.6872,mp-686102,Tl3In2Se5,https://materialsproject.org/materials/mp-686102,-12.395171739135424,29.17046827087969,-8.282253884818035,21.989595974845983
-5.959995500833332,-214.55983803,6.3018972595996114,-2.3714763290277787,0.0,0.0,2.2583000000000006,62,36,709.5458288148196,2692.7912,mp-23357,Sr2Bi2O5,https://materialsproject.org/materials/mp-23357,3.8087466104086363,19.859087565995647,8.089615505435532,29.632224175833713
-6.803542961764706,-462.64092139999997,7.700647325935407,-2.511479637867648,0.00025089999999999997,2.77946149075844e-06,0.3738999999999999,201,68,1052.004088258602,4878.60404,mp-772194,La3Bi3O11,https://materialsproject.org/materials/mp-772194,8.727668773873294,22.289943708472794,-15.315917463186713,42.27023571992229
-4.6028768200000005,-23.0143841,5.976800763954833,-0.6619227101904762,0.0,0.0,0.2542,156,5,104.50113964006329,376.132374,mp-1219728,PrZnAgP2,https://materialsproject.org/materials/mp-1219728,-30.30240916040375,-17.452797943066425,-18.846810830887925,-19.621322795766282
-6.931731685357143,-194.08848719,8.444307963988384,-1.664226826339286,6.01702485,0.18872136007854926,0.0,83,28,371.56788882199083,1889.5272,mvc-16392,ZnW4O9,https://materialsproject.org/materials/mvc-16392,0.059395152113922614,6.842353045486008,10.844733857407599,8.155749652695274
-4.6946658616666666,-28.16799517,7.071028523684638,0.3030448892066667,3.35e-06,2.370990454563519e-07,0.0,129,6,164.6616371353639,701.1742,mp-1246309,BiTeN,https://materialsproject.org/materials/mp-1246309,-14.42925980072995,19.1978329078187,-15.719868706122346,42.93178000405115
-7.493591285714286,-52.455139,7.06513323211162,-2.9637315692857147,2.9922507,0.3665759788955528,0.0,139,7,95.12866494580923,404.746095,mp-1207107,Pr2CoO4,https://materialsproject.org/materials/mp-1207107,-22.90294363315628,38.74116340917978,-14.127902383341892,59.41489746014449
-4.664813123181818,-102.62588871,2.8028038292876043,-0.17988241932,0.000196,4.9869386116196826e-06,0.8826,137,22,458.03585592561103,773.1132,mp-1245841,K6MoN4,https://materialsproject.org/materials/mp-1245841,2.6760970910435917,2.6525747769913486,-8.726459628029911,-11.178669850669674
-2.8861900275,-11.54476011,3.639105238095621,-1.492697590599224,0.0,0.0,1.8073,123,4,142.2354317225635,311.71185510000004,mp-28650,CsBr2F,https://materialsproject.org/materials/mp-28650,0.4583368601324328,-6.369537975554992,-8.541450161771063,-18.08891971231065
-8.836271761818182,-194.39797876,7.402600440217492,-3.769394471250002,0.0,0.0,3.4828,63,22,325.56203553488115,1451.33936,mp-31417,Nd3TaO7,https://materialsproject.org/materials/mp-31417,26.59435592323739,63.74306836983003,-9.087525491805794,36.03206972131928
-4.954971676,-49.54971676,2.46614174038255,-0.3062692057142861,0.0,0.0,0.5800000000000001,14,10,199.57649749336784,296.400096,mp-384,MgP4,https://materialsproject.org/materials/mp-384,6.712248667650637,21.183148632008923,4.112916348354643,34.79019905211735
-7.5846139325,-212.36919011,6.612160806203165,-3.533121708214286,0.0,0.0,3.0973,62,28,492.03056384515463,1959.2344,mp-2892,BaNd2O4,https://materialsproject.org/materials/mp-2892,0.10057445015914968,22.68545311519528,2.5878128357401664,23.91583099997272
-2.992403089375,-47.87844943,8.08004775780628,-0.2377209393750004,0.0,0.0,0.0,140,16,545.8098732106515,2655.8664,mp-2081,TlTe,https://materialsproject.org/materials/mp-2081,-0.5376688266148208,26.593798937444067,2.0049402150307527,24.783634291314925
-8.057165228666667,-120.85747843,5.1341019503976515,-0.16193282249999946,1.6e-06,7.539781982578419e-08,0.0,69,15,247.30826009532527,764.63473,mp-1223098,La4YC10,https://materialsproject.org/materials/mp-1223098,-8.302758275093245,-26.83099144573198,-3.8343575362509066,-19.121794848609714
-11.342849698125,-181.48559517,8.050971508776401,-3.936209589843751,14.000000199999997,0.6902873333588476,3.2044000000000006,15,16,236.3608620090833,1145.974,mp-755251,Gd2HfO5,https://materialsproject.org/materials/mp-755251,2.4314262413529457,19.023351400287968,3.4807917706304066,47.35428878077489
-8.825157343333332,-105.90188812,6.019478066160322,-3.537674132083333,0.0,0.0,3.5661,5,12,161.63356672954225,585.9240199999998,mp-1227121,CaThNb2O8,https://materialsproject.org/materials/mp-1227121,6.25094521157208,22.55309030262209,34.070830857234164,-1.4257300356702118
-6.960857343571428,-97.45200281,6.216128657913929,-2.7948228764971423,3.7374044,0.2317570729655181,0.0,123,14,187.9379662571509,703.534545,mp-1218720,Sr2Pr2MnCuO8,https://materialsproject.org/materials/mp-1218720,-23.257947740507326,39.400433943148435,-14.338672217984744,59.12884743008954
-6.8268501383333335,-163.84440332,5.7224648596536705,-3.1587671951041667,0.7313101,0.024950737909004858,0.0,6,24,341.58249368453363,1177.14415,mp-756936,Sr3Li4La5O12,https://materialsproject.org/materials/mp-756936,8.422538829286013,24.318376171000338,0.3521619332269323,35.738965716069366
-7.769688030999999,-77.69688031,7.276211353461813,-3.2065095166666664,3e-07,2.9635073891013205e-08,2.583800000000001,216,10,117.97572851094296,516.9504086000001,mp-1222721,LaTiAlPbO6,https://materialsproject.org/materials/mp-1222721,-29.283886540507925,54.70453711725462,-18.162210230051745,64.76665333633521
-6.0381047528571425,-84.53346654,8.673704625818058,-1.8188186555900003,7.45e-05,3.8386760604592386e-06,0.7254000000000005,99,14,226.17897730391627,1181.4294000000002,mp-1227566,Bi3PbWClO8,https://materialsproject.org/materials/mp-1227566,-13.240116049330954,25.080806786937238,-17.587420392181333,40.86784476566153
-8.079939984444444,-72.71945986,6.4603077491825776,-3.2713030893055555,1.4065504,0.10942355403187316,0.0,123,9,149.80348255454246,582.8086999999998,mp-1184129,Dy2Y2O5,https://materialsproject.org/materials/mp-1184129,22.354623680142,60.344757489619205,-7.562475180423509,35.189272604538644
-6.570781396428571,-183.9818791,4.506892357384696,-2.2445076585714294,9.999999775,0.2526276758008566,1.7431,36,28,461.3138474792444,1252.0584,mp-19154,Ba(FeO2)2,https://materialsproject.org/materials/mp-19154,4.2449802206641225,19.83739025756811,-5.719484904394454,28.94185261252418
-6.507295745,-130.1459149,5.370849117406044,-2.101600087250001,1.0,0.04934231742545425,0.0,62,20,236.18803049059272,763.9268,mp-1181917,CaRhO3,https://materialsproject.org/materials/mp-1181917,-23.97812981459237,51.1074369424693,-6.847957768935252,67.45420074686243
-6.873401105000001,-137.46802209999998,6.100417362427202,-0.5873100088333338,2.5e-08,1.3821449042845444e-09,0.0,127,20,210.79672501112174,774.416,mp-8546,SmB4,https://materialsproject.org/materials/mp-8546,-2.2246413099921463,17.168124698205204,10.001600109359577,24.469298198336386
-9.296672106111108,-334.68019582,6.801237210273258,-3.624961120462963,0.999952125,0.02566554235561987,0.004100000000000215,33,36,454.05262326969637,1859.70912,mp-1226851,CeTaTiO6,https://materialsproject.org/materials/mp-1226851,5.411210737747026,22.76450960344801,3.2948892735333755,37.301136865802
-6.654077178,-33.27038589,6.106458232659781,-2.8480685927500007,1.0000002000000001,0.1972203354029734,0.0,221,5,59.09160979551272,217.3032,mp-1186600,PmMgO3,https://materialsproject.org/materials/mp-1186600,-29.548717610186817,13.129680667554704,-21.560920989219852,35.994838825836155
-5.166237905,-41.32990324,4.845320319443318,-1.7964188777975003,3.94854095,0.28281614745121103,0.0,129,8,162.70836160917142,474.7700064,mp-20807,SrFeAsF,https://materialsproject.org/materials/mp-20807,0.5578146629377783,26.34149326849996,-20.48039108706835,43.976405466957424
-3.8949867639999995,-38.94986764,5.837584275286606,-1.754070673047334,2.0029703000000003,0.1835346683012983,1.8303,63,10,127.1843942605594,447.11361919999996,mp-998429,NiAgF3,https://materialsproject.org/materials/mp-998429,0.641042560804626,26.37900674890698,0.16850383228792845,34.26239266821389
-4.044051219,-40.44051219,6.589139094129503,-0.3767326749166671,0.0,0.0,0.33940000000000003,43,10,132.92832136112034,527.4692,mp-546190,Ag2O3,https://materialsproject.org/materials/mp-546190,-9.490620351183836,16.93492837918839,3.9396041425179176,22.241376623413338
-8.788469391818182,-96.67316331,6.7018472467551256,-3.4031107899177133,3.96e-05,2.667459778797628e-06,2.2853000000000003,123,11,173.01140533087548,698.26483,mp-541600,RbLaTa2O7,https://materialsproject.org/materials/mp-541600,-10.98675284406722,-24.226209337082327,-4.728454418999354,35.03184424898166
-7.098383015833333,-255.54178857,8.30109381856321,0.08372705755333401,7.25e-07,1.2144193872546322e-08,0.0,52,36,695.7396307058626,3478.0271999999995,mp-1246071,Mo2Pb3N4,https://materialsproject.org/materials/mp-1246071,3.944051591762397,32.756994613499195,0.7443077405612993,33.997773351968824
-7.0507679915625,-225.62457573,6.350367052160697,-2.91216689203125,0.0,0.0,3.1921000000000004,62,32,459.2518788771454,1756.3080000000002,mp-772676,Sr2WO5,https://materialsproject.org/materials/mp-772676,2.955292144721128,21.403393212650126,3.7745865636149234,35.913790664394796
-5.8717631741666665,-70.46115809,4.036887988982221,-2.3842088707291667,10.0000794,0.6006008034522011,0.8658999999999999,139,12,194.041653604972,471.72900000000004,mp-1214034,Ca3Fe2Br2O5,https://materialsproject.org/materials/mp-1214034,-23.091918691059064,44.43166662318549,-8.217442610250924,64.74362688256474
-8.773053628125,-140.36885805,5.920573700748142,-3.660822406927084,2.0,0.1018192258551692,0.0,15,16,228.91678216325852,816.1920000000001,mp-754405,Ce2TiO5,https://materialsproject.org/materials/mp-754405,3.124921683610413,19.93077074422044,3.9638380508559408,36.9360837312132
-5.719929825,-91.5188772,5.536450258984655,-1.88139863014875,2.9100000000000003e-05,1.261180483941715e-06,2.4653,15,16,268.9014690598082,896.5520064,mp-1101419,Sb3O4F,https://materialsproject.org/materials/mp-1101419,6.446148394879618,17.405666086040036,35.45234513902177,-3.28677026260423
-7.019731470000001,-98.27624058,5.998701273696662,-2.877200289642857,8.3822554,0.507162166449261,0.0,38,14,192.61560470029931,695.8243349999998,mp-1218706,Sr2La2FeCoO8,https://materialsproject.org/materials/mp-1218706,-22.875292000540703,38.69497365207688,-14.452957270072243,59.18769062310279
-5.686804887,-398.07634209,5.04366449913354,-1.962425616366072,0.0,0.0,1.7401,146,70,1563.999960451918,4750.440000000001,mp-1219403,Sm9Ga5S21,https://materialsproject.org/materials/mp-1219403,7.4349266897355815,-6.1904480354120235,12.606445317844699,3.7371855667500786
-7.616606935,-30.46642774,11.638533195822465,-0.3566578299999996,1e-07,1.4036101619130868e-08,0.0,63,4,83.02921344396283,581.94251,mp-30564,ThCo,https://materialsproject.org/materials/mp-30564,-5.304794408326142,20.094916908514843,-24.48562319227796,39.00477274967416
-5.1540047546666665,-695.79064188,8.585313931543793,-1.0617377281086664,2.9988610740740733,0.02204859148489811,0.0,221,135,1585.0863410075422,8195.208615000001,mp-1080187,MnHgO3,https://materialsproject.org/materials/mp-1080187,-29.39397422463732,55.728058122256535,-26.262380941164107,47.81662130421621