energy_per_atom,energy,density,formation_energy_per_atom,total_magnetization_uB,total_magnetization_T,band_gap,sgr,num_sites,cell_volume,weight,mp_id,formula,URL,tsne_cry_lin1_0,tsne_cry_lin1_1,tsne_cry_lin2_0,tsne_cry_lin2_1
-6.661081797777778,-179.84920854,4.418783284649649,-0.9939142214814816,0.0001224,2.5430543141345443e-06,0.11910000000000046,115,27,560.9229501048861,1492.646,mp-1225113,Ga2Ge(MoS2)8,https://materialsproject.org/materials/mp-1225113,18.947299363629394,3.5575435327007288,-8.604250342815693,-0.5045126942092143
-5.2513372325,-21.00534893,10.330998975265349,-0.8229406983333334,1.58e-05,2.337177233510162e-06,0.0,225,4,78.78487808555941,490.158,mp-30606,DyInPd2,https://materialsproject.org/materials/mp-30606,30.60583688893331,40.766560913970615,-8.604250342815693,-0.5045126942092143
-5.430636054125,-868.90176866,8.180849279499485,-0.6161514010000004,0.000566775,1.7151881610910478e-06,0.0,214,160,3851.025042795227,18972.547280000003,mp-640274,La3Sn13Rh4,https://materialsproject.org/materials/mp-640274,0.7286797512936433,49.74037565319122,-8.604250342815693,-0.5045126942092143
-8.832393056956523,-406.29008062,4.529141811862237,-2.975045285842392,3.3100000000000005e-05,5.759778620070466e-07,1.8929,1,46,669.7298098012775,1826.69676,mp-704637,Nb12WO33,https://materialsproject.org/materials/mp-704637,-0.2904122147907084,-47.05739309417668,7.725280567790777,-0.1090863499979724
-5.287488444,-105.74976888,3.3372979268383567,-1.7619926130000003,13.0000009,0.7316413443503628,1.9241,1,20,207.07256868658283,416.16778500000004,mp-752780,Li8FeCo3O8,https://materialsproject.org/materials/mp-752780,-24.754064890229788,-53.27049788489846,7.678356321650088,0.4201667981299189
-5.5517964025,-66.62155683,8.922384118625596,-0.9171669016666671,0.003325725,0.00013865553840700806,0.0,62,12,279.528787749903,1501.96,mp-571581,SmSnPd,https://materialsproject.org/materials/mp-571581,4.2362400591087885,49.28787708532713,-8.604250342815693,-0.5045126942092143
-7.353375737647059,-250.01477508,6.863719128973021,-2.409901207352941,0.0,0.0,1.8538,2,34,385.86655504564163,1594.9517544000003,mvc-14989,Al2(WO4)3,https://materialsproject.org/materials/mvc-14989,-3.784365791210589,-40.17771155728154,8.395035879722471,-2.0080919750330537
-8.442523888125,-270.16076442,6.951924768372191,-1.6722943734960944,14.001054725,0.2133338670201173,0.6168000000000005,62,32,764.8537052671347,3202.0959999999995,mp-1200071,Gd2ZrSe5,https://materialsproject.org/materials/mp-1200071,56.2206154712956,1.543415197506936,5.9483403555225,-5.721962887265208
-4.428869961111111,-79.7196593,7.782287608215093,-0.2409801793750006,0.0,0.0,0.0,14,18,325.2641474313137,1524.384,mp-1212900,Cu2Pd3Se4,https://materialsproject.org/materials/mp-1212900,16.168584608217422,-0.6070908806454712,-8.604250342815693,-0.5045126942092143
-4.657091925833334,-55.88510311,5.016007957267863,-0.9691531589322924,0.0,0.0,1.3209,9,12,520.9105353261834,1573.52,mp-1120810,Dy2Te3Se,https://materialsproject.org/materials/mp-1120810,56.517798161213854,21.10546557503674,5.918163510548616,-7.055002594051174
-5.727616002545455,-315.01888014,7.261687753248876,-1.8246690684545457,0.0078949,6.274874132798709e-05,0.0,1,55,1466.2871959767008,6412.20683,mp-684691,Tm23Se32,https://materialsproject.org/materials/mp-684691,52.685721521894855,7.201200759253661,6.395518777893745,-5.836665100729871
-3.049235916666667,-292.726648,8.272793616699603,-0.28146219604166706,0.0007109333333333332,2.522919095034344e-06,0.4892000000000003,83,96,3283.9987346188163,16360.8582,mp-686086,Tl9SbTe6,https://materialsproject.org/materials/mp-686086,58.484425630294645,23.773422653014425,5.3558712073031245,-5.957389121553315
-3.05015927075,-488.02548332,8.322442862519921,-0.28238555012500016,0.00032292000000000003,6.917023844933291e-07,0.5366999999999997,85,160,5440.678940425527,27268.097,mp-1101036,Tl9SbTe6,https://materialsproject.org/materials/mp-1101036,58.4776369350833,23.776663413271407,5.314548011909864,-5.942783737191415
-8.956007793035715,-501.53643641,4.243119852232945,-3.0476714650000014,0.0,0.0,1.5314,139,56,832.194232667267,2126.47808,mp-556048,Nb2O5,https://materialsproject.org/materials/mp-556048,-0.3032522964806702,-47.0478243173798,6.363621878441172,-1.0125355746374909
-7.3613704575,-265.00933647,7.8522371488517315,-3.194309151250001,3.000000075,0.06874209003414336,1.8447,62,36,508.599537406684,2405.02878,mp-19364,BaDy2CoO5,https://materialsproject.org/materials/mp-19364,-31.584286949102484,-28.410082316237716,8.578019684008565,-4.781215950420747
-6.59541454,-263.8165816,7.794954773919668,-0.3984105394062503,0.0,0.0,0.8812999999999995,9,40,1056.2589282129693,4958.3240000000005,mp-1220002,Re3PbSe6,https://materialsproject.org/materials/mp-1220002,59.699444156619776,-1.3993771501160777,7.120137305585878,-6.171767346534586
-6.23847838,-18.71543514,7.524593596155425,0.11647227333333275,3.1316874,0.7025853918643923,0.0,216,3,51.94655088139579,235.391445,mp-22541,MnNiSb,https://materialsproject.org/materials/mp-22541,47.89189826289727,41.88952067029315,-8.604250342815693,-0.5045126942092143
-6.059056019166667,-72.70867223,10.246017507712839,-1.061450060000001,3.725e-06,1.4792437070168835e-07,0.0,62,12,293.47017717134935,1810.79788,mp-3076,LaSnPt,https://materialsproject.org/materials/mp-3076,10.091091868170382,54.45533995117725,-8.604250342815693,-0.5045126942092143
-6.404141549875,-512.33132399,4.367429407269225,-1.4275185192500004,4.10000002,0.043730573851896284,0.2014,1,80,1092.6375208886973,2873.7760000000007,mp-1244983,FeO,https://materialsproject.org/materials/mp-1244983,-25.345525857580963,-30.955966937487588,3.42530320745973,-3.5820294040306817
-5.994722540416666,-143.87334097,5.517884474831014,-1.859403928619792,4.00006065,0.09367798753925932,0.07059999999999977,173,24,497.62988225735114,1653.5981000000004,mp-1190757,Tb3GaFeS7,https://materialsproject.org/materials/mp-1190757,28.01522319596531,3.5501155850812314,-6.236351714639048,-3.2406196457826693
-5.3031546725,-21.21261869,7.249037542323342,0.11610560749999975,4.5561223,0.6576563653729787,0.0,216,4,80.73721656414044,352.4561,mp-631494,SrCrPd2,https://materialsproject.org/materials/mp-631494,29.25716941561154,40.57454204066442,-8.604250342815693,-0.5045126942092143
-3.051817681875,-48.82908291,8.281511452446361,-0.2840439612500001,1.56e-05,3.325122976750684e-07,0.6309999999999993,79,16,546.7569522183202,2726.8097,mp-34292,Tl9SbTe6,https://materialsproject.org/materials/mp-34292,58.49094701443801,23.76980673787684,5.409539749564692,-5.95473300126811
-3.434368008333333,-61.81862415,2.987193032566273,-1.6732836366944062,1.6266903,0.03609150940488368,0.0,123,18,525.2635435227693,944.9122,mp-1219783,Rb4FeSbCl12,https://materialsproject.org/materials/mp-1219783,18.899844139533073,-4.639654900486576,-8.604250342815693,-0.5045126942092143
-5.00257248125,-40.02057985,5.956369732125242,-1.690956138426723,0.0,0.0,2.3292,15,8,208.46592433248424,747.7693038,mp-29506,CsBiO2,https://materialsproject.org/materials/mp-29506,15.389248496551044,-28.789310030640305,8.363987678448135,0.7726675347932465
-2.9229983951515157,-192.91789408,8.300979018433713,-0.297560571818182,0.0,0.0,0.6482999999999999,15,66,2360.500959661819,11800.0652,mp-582753,Tl2Te,https://materialsproject.org/materials/mp-582753,58.61050474486149,23.761816569464077,6.462084183443045,-6.382635406889699
-5.796325371833332,-347.77952231,5.369748042330722,-1.6242386209895836,0.000523625,3.6636040671508574e-06,0.3374999999999999,6,60,1665.671168248621,5386.344,mp-1228764,Ba2Sr(ZrSe3)3,https://materialsproject.org/materials/mp-1228764,57.30531864505014,1.2492767309407629,3.943843024219776,-5.487066113997248
-8.831357813260869,-406.24245941,4.5344890052729285,-2.9740100421467384,2.26e-05,3.9373014875681634e-07,1.882,5,46,668.9400460987415,1826.69676,mp-1198790,Nb12WO33,https://materialsproject.org/materials/mp-1198790,-0.2886735095394,-47.05465267044786,7.715779606219543,-0.14983148097870716
-6.2823453546153845,-163.34097922,5.435237354826369,-1.7060463150961551,22.0001279,0.9189202263236952,1.1706999999999996,63,26,279.0132464239419,913.2596,mvc-2600,ZnFe5O7,https://materialsproject.org/materials/mvc-2600,-25.845694163250233,-38.558863675660724,5.17954675412271,-3.982067055427238
-5.329889551388889,-383.7520477,4.946819301982098,-1.4662504551388893,5.000771925,0.04608189519813414,1.8533,14,72,1264.6901711869646,3767.568,mp-554007,FeTe2BrO5,https://materialsproject.org/materials/mp-554007,-18.726267215140115,-37.47545159757196,6.920745372593738,-0.2857464497725461
-5.18351238,-20.73404952,8.825965729955048,-0.05730764499999985,6e-07,9.962210166569935e-08,0.0,194,4,70.18963409344902,373.06639,mp-788,CoTe,https://materialsproject.org/materials/mp-788,53.38426840278789,28.586789873966914,-8.604250342815693,-0.5045126942092143
-6.758610126590908,-297.37884557,2.3445120076838317,-1.9530303129545448,2.9999999,0.06399715985241634,2.0932000000000004,4,44,546.3085117042508,771.3319799999998,mp-759898,Li2Co(CO3)2,https://materialsproject.org/materials/mp-759898,-8.862727522769005,-69.3358361418413,8.300256304722467,0.7846768315223668
-3.211133188,-32.11133188,3.4110230925392715,-1.6695818856916325,0.0,0.0,0.9373,225,10,273.2226889449773,561.2447999999998,mp-1113785,Rb2GaAgCl6,https://materialsproject.org/materials/mp-1113785,6.175246470998277,-7.553835902956369,7.107054549315691,-5.1224364761872945
-7.676049570357143,-214.92938797,4.5713176144985725,-2.496556733452382,8.000104625,0.28702637021103433,1.5818999999999996,15,28,324.82638239286115,894.2184,mp-780585,Ti(FeO2)2,https://materialsproject.org/materials/mp-780585,-24.514979365058995,-37.57238970179613,-5.8880874192589046,-3.6751217670993785
-5.892138630000002,-35.35283178,7.923633539563317,-1.148112062500001,4.41e-05,3.3403664871492213e-06,0.0,194,6,153.85864348929553,734.1709400000002,mp-1018745,LaSbPd,https://materialsproject.org/materials/mp-1018745,5.783941749279576,35.73043050080387,-8.604250342815693,-0.5045126942092143
-3.7222734868181817,-81.89001671,5.848388682668633,-0.3899214586363636,0.00010445,1.9001896770024127e-06,0.6621000000000001,2,22,640.6029251848811,2256.192,mp-638749,Te3(PdBr)4,https://materialsproject.org/materials/mp-638749,63.65249304058053,16.764092794858765,7.061108310727542,-6.123659567547966
-6.8193945825,-654.66187992,4.747175390807423,-2.2016774005729176,24.9999999,0.23769440819534415,1.7010999999999998,64,96,1225.7403123642039,3504.1658800000005,mp-650954,LaFe5(GeO5)3,https://materialsproject.org/materials/mp-650954,-27.85454070821723,-33.60999760730055,6.176655363148607,-1.9636259033621064
-5.803555305,-46.42844244,9.411444489602033,-0.3337054024999997,0.00025035,1.3865190703667224e-05,0.0,194,8,210.42589158464585,1192.63176,mp-1186409,PaSb3,https://materialsproject.org/materials/mp-1186409,2.0269836909977035,37.850193413345366,-8.604250342815693,-0.5045126942092143
-3.6061311669230767,-46.87970517,5.623785258840394,-0.009579330384615704,0.0,0.0,0.34030000000000005,8,13,411.8177347488858,1394.71247,mp-541032,Te7As5I,https://materialsproject.org/materials/mp-541032,68.7614199977223,27.02529665166361,6.5082839639536205,-6.879338971825278
-4.3239714775,-51.88765773,5.281468454899795,-0.9901847294980244,3.3769117999999994,0.1040040879014518,0.0,63,12,378.3961730976517,1203.5172937999998,mp-542948,CsYbCoSe3,https://materialsproject.org/materials/mp-542948,26.340035701073326,4.677544292425981,-8.604250342815693,-0.5045126942092143
-5.329455021666667,-31.97673013,7.946106333647384,-0.08625761500000036,0.13847625,0.012651335234083134,0.0,10,6,127.56054259107023,610.4100000000002,mp-1224850,FeSbTe,https://materialsproject.org/materials/mp-1224850,43.88573663939773,23.562584383027144,-11.331315557367759,-0.2897944112590196
-6.4546797207407405,-174.27635246,4.6954997218913,-1.7696691014814827,28.0000066,1.100115132381516,1.1067999999999998,160,27,296.6179456527413,838.7454,mp-757008,Mg(Fe5O8)2,https://materialsproject.org/materials/mp-757008,-27.78431876621254,-33.42507036577239,7.733015162733334,-3.181113169487865
-6.41371620576923,-166.75662135,3.603384193991933,-0.27219348309304897,2.5e-07,4.366882017560247e-09,1.372,14,26,667.1845452714311,1447.7962799999998,mp-1194184,Rb2PtC4(IN2)2,https://materialsproject.org/materials/mp-1194184,44.763829218363355,-19.195417754560534,8.738121248629966,-4.38745232665504
-7.345333681111112,-66.10800313,7.830117104994907,-3.1782723748611117,2.9999909,0.2741929254716585,1.4218000000000002,71,9,127.5090821747093,601.2571949999998,mp-19164,BaDy2CoO5,https://materialsproject.org/materials/mp-19164,-31.64515013480208,-28.412904088973697,7.632841143810122,-2.1895576705079955
-8.255425391000001,-165.10850782,8.077274150134032,-3.3349614442500006,1.999999425,0.10348094459408383,1.5799000000000003,62,20,225.24072364686074,1095.6268,mp-755583,LuVO3,https://materialsproject.org/materials/mp-755583,-13.63918783789063,-28.971704848090877,8.121602447427236,-1.7955302210062942
-6.8604082114999985,-137.20816423,5.3331886464166125,-2.4800415879419995,11.9999986,0.5531931971556624,0.7930999999999999,187,20,252.80274897464759,811.9319800000002,mp-1227712,BaSr3Mn4O12,https://materialsproject.org/materials/mp-1227712,-32.39359645983992,-22.98206490756398,-6.116496441149549,-3.757049096704788
-5.987626756607143,-335.30709837,3.903782012455092,-3.6756254181714283,1.9999996125,0.029326984557011517,2.3691,14,56,794.7671873273707,1868.428128,mp-30297,SrVF5,https://materialsproject.org/materials/mp-30297,-20.91762075093007,-50.89207417235856,9.022888674916492,1.3368896005724835
-4.078384179259259,-220.23274568,4.73848295776017,-0.6105897677160493,1.31820105,0.012421182767544814,0.0,20,54,1236.7904657273432,3529.282,mp-530464,Ag5(Sn3S8)2,https://materialsproject.org/materials/mp-530464,36.76512030984179,-0.06004412452111243,-6.3943700382114645,-3.2622994820982467
-3.97659028,-143.15725008,3.836677453764311,-0.5777279830555556,1.925e-06,2.5006557253102254e-08,0.9032,14,36,897.1276797566481,2072.8145856,mp-541236,Na5HfAs3,https://materialsproject.org/materials/mp-541236,35.450630066746676,18.72281272313369,6.486729859696381,-5.486446806504091
-3.0828886278571432,-43.16044079,5.288824350253763,-0.2441710207635473,2.2e-06,4.7975113018951784e-08,0.0,15,14,534.4217217269103,1702.1355999999996,mp-28878,RbTe6,https://materialsproject.org/materials/mp-28878,65.23521171036387,19.579188880221537,2.6124009614464403,-4.877462180853262
-4.230771375714285,-29.61539963,9.505941048708786,-0.3382966595982145,3.3600000000000004e-05,2.530201945413708e-06,0.0,166,7,154.76099726655605,885.9465999999999,mp-1077903,Tl2Pd3Se2,https://materialsproject.org/materials/mp-1077903,26.458971550096216,39.17668883958672,-8.604250342815693,-0.5045126942092143
-4.131369546818181,-181.78026006,4.835110398405248,-0.6433241604545453,0.99999995,0.016676527747166048,0.0,14,44,698.8303780345944,2034.8344399999999,mp-1181126,I3O8,https://materialsproject.org/materials/mp-1181126,2.6874231085744724,-57.831503444991675,7.55536395457737,-1.6803720451252948
-6.887189591875,-220.39006694,3.015085139390424,-2.5375223420833333,2.000000075,0.07577268351016912,2.2955,33,32,307.60597803093725,558.5284,mp-768869,Li2VBO4,https://materialsproject.org/materials/mp-768869,-21.697446046066432,-54.538723154705934,9.509766025557004,1.5922405556366408
-6.228333935555557,-56.05500542,6.811193926672897,-0.6921058579513889,4e-07,2.0296714581731304e-08,0.0,12,9,229.6739154631321,942.07576,mp-8436,Ta2PdSe6,https://materialsproject.org/materials/mp-8436,48.244350545526885,25.58324913882377,-8.604250342815693,-0.5045126942092143
-4.69458888625,-37.55671109,6.142062663964507,-0.6734375560000005,6.846412,0.3561923885592642,0.0,99,8,224.00402555023862,828.5543,mp-624928,KEu(CuTe2)2,https://materialsproject.org/materials/mp-624928,58.848092843842494,25.376522408111352,-8.604250342815693,-0.5045126942092143
-6.295067204615385,-81.83587366,6.060402649767621,-0.8028194645192315,5.3e-06,2.1008469804628586e-07,0.0,216,13,294.00781622352133,1073.0285199999996,mp-15208,Nb4GaSe8,https://materialsproject.org/materials/mp-15208,49.775684839305754,24.659477656125407,-8.604250342815693,-0.5045126942092143
-7.404160547916668,-355.3997063,6.133798697519702,-2.742917755572916,0.0,0.0,2.0007,185,48,872.8817446881297,3224.30294,mp-1214601,Ba5Re3IO15,https://materialsproject.org/materials/mp-1214601,-3.87932334237539,-43.08986354814356,8.93015871166354,-0.20380422135351733
-4.206721099,-168.26884396,5.502412708660233,-0.8553686530208331,0.0,0.0,1.4932,12,40,957.1442736473404,3171.6224,mp-504646,In5(BiS4)3,https://materialsproject.org/materials/mp-504646,39.48682631513073,-2.435141800498012,7.198117666067289,-4.869003366645544
-6.135706273333334,-36.81423764,7.278518724664567,-0.060582988333333525,8.8772064,0.9533961762115744,0.0,160,6,108.51264245266174,475.63549000000006,mp-1221889,Mn2CuNiSb2,https://materialsproject.org/materials/mp-1221889,47.829326078303716,41.93936860737678,-8.604250342815693,-0.5045126942092143
-7.916319851,-237.48959553,4.921444897700667,-2.9416277322499984,5.0000004166666665,0.14933015225593868,1.2949000000000002,185,30,390.21140632595484,1156.4943,mvc-3751,YFeO3,https://materialsproject.org/materials/mvc-3751,-23.769400643743033,-32.304405476298555,6.224532110381618,-2.7036088415557966
-5.302533881,-106.05067762,10.058648522764887,-0.5802302912500004,6e-06,1.4658961188102574e-07,0.0,220,20,477.00780251816076,2889.4556,mp-1210154,Nd3Ni3Bi4,https://materialsproject.org/materials/mp-1210154,5.753112500115847,33.22013254748289,-8.604250342815693,-0.5045126942092143
-7.06536204263158,-134.24187881,5.928031452907901,-2.2203775680394746,0.0,0.0,1.9482,12,19,277.1280801123436,989.33173856,mp-32533,Na2W4O13,https://materialsproject.org/materials/mp-32533,-3.093643213621361,-43.58862991829962,8.16915208282769,-0.1193641325437622
-6.413670415,-384.82022489999997,3.978050561795882,-2.106077556962644,5.999999975,0.07363030025742368,2.1846,62,60,949.6686567831359,2275.0624,mp-622624,Rb2Cr2As2O9,https://materialsproject.org/materials/mp-622624,19.88708254181853,-38.36428288135174,8.939652686967332,0.98393094914113
-7.306105487249999,-584.48843898,5.593794249263398,-2.6209964367499987,24.999999275,0.27447708640695434,1.8248,230,80,1061.478809319704,3575.763,mp-1197438,Pr3Fe5O12,https://materialsproject.org/materials/mp-1197438,-23.34032065606541,-33.630982735984176,7.846846547238097,-2.0889846364592493
-3.705649540909091,-81.52428990000001,2.312163497971339,-1.200486250134805,2.0,0.03638488567603503,0.0,2,22,640.5992244321197,891.981524,mp-23397,MoPCl9,https://materialsproject.org/materials/mp-23397,14.6974836922613,-6.6136881037216035,-6.645891106977294,1.4074040590472403
-6.8966787557142855,-96.55350258,8.130138705366669,-0.21979249250000013,6e-06,1.926621795178372e-07,0.0,1,14,362.9378054912141,1776.974,mp-1219145,Re(Te2Mo)2,https://materialsproject.org/materials/mp-1219145,58.105020852545785,32.27448035926185,-8.604250342815693,-0.5045126942092143
-6.171310041136365,-271.53764181,6.561639304436013,-0.6722885211420458,0.0,0.0,1.2263000000000002,15,44,1124.2053250337956,4442.3104,mp-541060,K2(ReSe2)3,https://materialsproject.org/materials/mp-541060,59.65489330728816,-1.3556484245790656,8.003613409795726,-6.263986169432164
-6.6379653833333325,-39.8277923,9.724948961903706,-0.6089250066666665,6.93655755,0.41534798743235135,0.0,63,6,194.62978859252186,1139.8496,mp-1077479,EuBi2,https://materialsproject.org/materials/mp-1077479,-3.500508040621612,36.88608724614235,-8.604250342815693,-0.5045126942092143
-6.002408623518519,-324.13006567,4.30878770920553,-2.211143225165185,4.972522861111111,0.09195962477914896,0.0,6,54,630.1689860696605,1635.1704576,mp-759674,FeOF,https://materialsproject.org/materials/mp-759674,-42.58882097963603,-76.88488352069086,-5.0959318904346205,-2.459723951094101