energy_per_atom,energy,density,formation_energy_per_atom,total_magnetization_uB,total_magnetization_T,band_gap,sgr,num_sites,cell_volume,weight,mp_id,formula,URL,tsne_xrd_lin1_0,tsne_xrd_lin1_1,tsne_xrd_lin2_0,tsne_xrd_lin2_1
-4.854257353478262,-111.64791913,7.247682685499278,-1.3970522443478268,0.0006212,2.383268362013137e-05,0.0,139,23,303.7637368961212,1325.8244,mvc-10555,Ba2Tl2Zn3(CuO3)4,https://materialsproject.org/materials/mvc-10555,-5.32023005420896,19.295430610331604,4.278942212930701,47.978291767388704
-9.172972163333332,-55.03783298,9.794868405451693,-2.8448955126041664,1.98866245,0.2389187962864371,0.0,129,6,97.00367389793726,572.1866200000001,mp-3263,USO,https://materialsproject.org/materials/mp-3263,-1.6606143048486524,10.448648223202458,-13.024637331607584,41.16760826014283
-5.198497548000001,-103.96995096,4.098223152944195,-1.5434270316874998,1.006156,0.0225112836290068,0.10050000000000026,146,20,520.8857650476376,1285.550084,mp-504921,Sc7CBr12,https://materialsproject.org/materials/mp-504921,25.03599471220541,65.08946843371325,-15.67142651988558,36.123487704588214
-7.443351124999999,-74.43351125,5.598453637247969,-2.81214569125,0.00026255,2.0178725318737646e-05,0.0,194,10,151.63369626694353,511.2281,mvc-13971,YSnO3,https://materialsproject.org/materials/mvc-13971,10.53719664607453,56.43173210237626,-7.75416036007581,41.98906152078187
-7.926994248863636,-348.78774695,6.854274300600309,-3.095520414659092,3.0000369,0.055868099304728684,0.21910000000000007,62,44,625.8065835024737,2583.167200000001,mp-1200843,Nd3RuO7,https://materialsproject.org/materials/mp-1200843,19.798754511227948,55.80269764485126,-1.229409455900199,36.764745930878036
-7.029517074285714,-98.41323904,5.4977700770622935,-2.438108244999999,8.999999800000001,0.5929829724421345,0.0,123,14,176.87958254561767,585.6190386,mvc-1141,Ba2AlCr3O8,https://materialsproject.org/materials/mvc-1141,-24.24684914379655,47.200759836410256,-10.718919731902066,67.80754864644834
-7.548417393076923,-196.25885222,6.520890618677423,-3.2968183211369233,0.98099875,0.027508567093026445,0.0,176,26,415.6022716718792,1632.0585600000004,mp-1209877,Nd3Ta(ClO2)3,https://materialsproject.org/materials/mp-1209877,-0.11985547687032788,12.544463826166988,7.569356075298767,30.075261671006423
-6.4426932711111125,-115.96847888,5.9088238506035315,-2.2048985529166667,0.0,0.0,3.0573,166,18,264.08058568137545,939.69827,mp-31419,LaSb5O12,https://materialsproject.org/materials/mp-31419,-6.6191368276530405,-9.128118888452807,-10.65309269960175,43.04137749930446
-7.2522570291666675,-261.08125305,3.1907782757861285,-2.5102210481194427,29.0000027,0.8957012417852039,2.6056000000000004,6,36,377.3221405796077,725.036425,mp-779891,Li6Mn5Fe(BO3)6,https://materialsproject.org/materials/mp-779891,13.041508306667733,3.4032197662335353,66.56468092749982,37.99330381702539
-3.744742761666666,-89.87382628,4.510075754273888,-0.18418457527777807,0.0,0.0,1.0812,62,24,370.7907403522545,1007.0792,mp-755991,AgBrO4,https://materialsproject.org/materials/mp-755991,2.9241440246205905,23.24331780319953,6.172889658496198,25.820326912714798
-7.010572493571429,-98.14801491,6.028561017342705,-2.848388803928572,6.0000010999999995,0.3669891087432413,0.5712000000000002,38,14,190.53535864943345,691.73564,mp-1218698,Sr2La2CrNiO8,https://materialsproject.org/materials/mp-1218698,-22.961088027090092,38.791074820628,-14.254821084071732,59.26543749807835
-6.557088667777778,-59.01379801,6.718856814668883,-2.388023004305555,8.599999999999999e-06,7.006909047699958e-07,0.0,99,9,143.03733124224374,578.7562499999998,mvc-7260,BaYCuBiO5,https://materialsproject.org/materials/mvc-7260,-11.934806304511604,27.162292826611136,-0.4668719976929752,47.674668116606036
-8.326868775,-799.3794024,5.261898695488801,-3.3005271996875,0.0,0.0,3.933099999999999,40,96,1400.4791615608835,4437.82368,mp-579552,La2CO5,https://materialsproject.org/materials/mp-579552,2.1175347831718065,9.259538783286038,7.824451017619883,24.42668766416084
-3.7516555768181816,-82.53642269,3.920422437814172,-0.5967115351398061,1e-07,1.6796492723427386e-09,1.7961,14,22,693.8391820516705,1638.108248,mp-541897,Rb2Cd(PSe3)2,https://materialsproject.org/materials/mp-541897,6.083064698796212,21.875770731561193,7.411655834913042,32.519161540476105
-7.764452579999999,-38.8222629,5.944982668384914,-3.4675302143124997,0.0,0.0,2.8871,164,5,96.6101636804431,345.8791,mp-3236,Pr2SO2,https://materialsproject.org/materials/mp-3236,-13.832147636735199,22.6666999812647,-18.379683614022483,38.03731959793026
-6.91900110875,-55.35200887,5.5603124429168025,-2.9650999621767244,3e-07,2.3062686133212318e-08,2.8477,194,8,151.59636703085692,507.6202038,mp-541044,CsYO2,https://materialsproject.org/materials/mp-541044,0.06809303615941803,63.471944944465896,-11.076482110565756,50.639308042375205
-8.529026281428571,-59.70318397,5.137562662600564,-2.364653245858572,0.0,0.0,3.728,164,7,114.36593255018559,353.8382,mp-9497,Pr2C(NO)2,https://materialsproject.org/materials/mp-9497,3.8158797960929007,19.364647460390252,-8.594589797291219,31.627299199861522
-2.8721778975000003,-103.39840431,4.090557870622612,-0.5013193477777776,1.1e-06,9.875702974998868e-09,0.0,225,36,1298.081896779316,3197.684,mp-567959,Sr11Ga4Sn3,https://materialsproject.org/materials/mp-567959,-4.1413151740036485,18.631755686480908,3.497931826779918,19.895897906207303
-10.799969986818182,-237.59933971,7.556849474948923,-0.26164583613636433,20.78801925,0.8432962892706047,0.0,176,22,287.283278623532,1307.38058,mp-28826,Gd3(MnC3)2,https://materialsproject.org/materials/mp-28826,-0.7127649331134642,25.56120302744901,-14.041263585964801,41.55621809612745
-3.44745806375,-27.57966451,6.871397571678688,-0.3948451136718756,0.0,0.0,1.3713000000000002,121,8,230.36975035581654,953.2821,mp-1079426,Tl2SiHgSe4,https://materialsproject.org/materials/mp-1079426,-0.8804708466049529,13.225236869607732,-2.0653982747452333,19.542125381235746
-8.629503085454546,-379.69813576,7.4314468249633405,-3.758554032840911,0.0,0.0,2.7676,62,44,609.277488109421,2726.7129200000004,mp-771834,Tb3NbO7,https://materialsproject.org/materials/mp-771834,16.55314588101433,59.71071763023733,-3.263721131010544,38.11414152031596
-4.38271771,-21.91358855,4.308677442239992,-1.3469235924913796,2.9999992000000004,0.4420768689114132,0.0,221,5,79.08621204389061,205.2086519,mp-984756,CsMgO3,https://materialsproject.org/materials/mp-984756,-24.89739740068273,9.199423488038855,-29.13690507219509,-7.360083270824251
-5.224313962619048,-219.42118643,7.721340844049652,-1.632398595573096,0.0,0.0,0.6150000000000002,8,42,836.6856529440689,3890.5048,mp-1228274,Bi13Pb3Cl7O19,https://materialsproject.org/materials/mp-1228274,1.4626283715797834,24.48936200299523,-0.10462392473282577,25.790742018887247
-6.8285842357142865,-95.6001793,6.999113308076254,-2.755786052321428,2.9999987999999997,0.1924499995198722,0.6151,38,14,181.66890319576842,765.7280000000001,mp-1218171,SrNd3(NiO4)2,https://materialsproject.org/materials/mp-1218171,-23.35067304741024,40.83533999315493,-13.846101237017052,59.49339110747857
-5.530951813125,-88.49522901,4.158761465886012,-2.4657135994504307,0.0,0.0,0.04940000000000033,123,16,217.8653643594145,545.6361218999999,mp-1030982,CsLaMg6O8,https://materialsproject.org/materials/mp-1030982,-6.8092447662891376,12.605466728334696,-15.418555400069618,19.995789758239017
-6.281732793333332,-113.07119028,6.1899894602104775,-1.7739553666388888,4.00000005,0.1652216210371227,0.0,46,18,282.1438222208706,1051.7472,mp-1076391,K2W2O5,https://materialsproject.org/materials/mp-1076391,-8.554366608296691,30.475351994852538,5.4271200081442,31.090463238735882
-8.7751174675,-175.50234935,7.090627431458136,-2.7225065664760013,2.75e-07,1.2812191044202374e-08,1.2053000000000005,14,20,250.1420562179445,1068.1255199999998,mp-1227217,CaTaNO2,https://materialsproject.org/materials/mp-1227217,-13.115290598292164,49.72590078270989,26.107998070203422,52.20096817810489
-6.964538317142857,-48.75176822,6.07730302495596,-2.5342750113839294,3.9999998999999997,0.3258520993458012,2.2292000000000005,12,7,143.0595598997879,523.5747399999998,mp-1078132,La2Fe(SeO)2,https://materialsproject.org/materials/mp-1078132,-2.748090466958316,38.548091187787314,-1.7261583822131077,48.704773141765564
-5.509415770833333,-66.11298925,6.898065207653028,-1.8762880459375009,0.8688119000000001,0.04168625228832036,0.0,123,12,242.89039196280845,1008.9939,mvc-2597,Ba2TlBi2O7,https://materialsproject.org/materials/mvc-2597,9.079570285432194,23.37722961330791,3.1856071215368718,35.966226337366976
-6.894344866749999,-275.77379467,5.739000144396586,-2.4778971981919997,3.0000005625,0.06286495130686194,0.7625000000000002,194,40,556.1477444312322,1922.10596,mp-557535,BaMnO3,https://materialsproject.org/materials/mp-557535,-8.163714161437195,29.645020402628475,0.6484580480709407,23.69687818893577
-7.7315563003125,-247.40980161,5.7379538383456685,-2.62481008195875,7.000000575,0.21092467123066444,1.1994999999999996,55,32,386.7658516807261,1336.46036,mp-19393,NdMn2O5,https://materialsproject.org/materials/mp-19393,-2.95279267023579,27.392233013654288,0.2295495952090257,49.63221359664484
-7.764158286428571,-217.39643202,5.0656499718678925,-3.3885194938809513,1.05e-05,3.097138905242477e-07,2.3327,57,28,395.0991022867815,1205.2916,mp-1211326,KSmTiO4,https://materialsproject.org/materials/mp-1211326,-12.273144681298767,34.23460729302355,-0.5292748130545245,49.19400465172401
-9.285427926666664,-55.71256756,10.481104363380826,-2.3998378286979167,2.9999981,0.3323849838847439,0.0,129,6,105.18577514042966,663.9187999999998,mp-1018828,NpSeO,https://materialsproject.org/materials/mp-1018828,-8.334479809111361,15.541286774635944,-15.087064562859744,56.42825304004016
-7.712498748333334,-46.27499249,8.140659287143212,-4.295029006646668,0.00038695,5.5969380716512744e-05,5.0315,166,6,80.57156084293632,394.9956064,mp-1072208,DyOF,https://materialsproject.org/materials/mp-1072208,25.20572441726913,65.12816843399848,-11.265149267783187,36.54846883220704
-4.414226575625,-70.62762521,6.044278167876468,-0.3383218390279694,0.0,0.0,0.5512000000000001,161,16,255.2615118355177,929.1389999999999,mp-6476,Ag3SeNO3,https://materialsproject.org/materials/mp-6476,-2.2013711682009496,27.67578373679905,1.7223217459368183,49.99745675465826
-6.854227463,-137.08454926,6.870159481750189,-0.5957938313333331,0.0,0.0,0.0,127,20,201.2655376654456,832.69728,mp-569281,HoB4,https://materialsproject.org/materials/mp-569281,-2.126698153888632,17.022384977245874,9.489124550635363,24.34816796755407
-7.083011105714285,-198.32431096,4.693357995773557,-3.2451231425,0.0,0.0,3.4597,62,28,442.54652355050865,1250.81628,mp-559969,CaLaGaO4,https://materialsproject.org/materials/mp-559969,11.805125033647895,14.985608269550164,5.428213321063447,30.302028769002014
-6.673489975000002,-186.8577193,6.381169860814484,-0.5555855204761906,9.925e-06,3.1321760015288344e-07,0.0,14,28,369.2851002344612,1419.1,mp-570421,Sm2B5,https://materialsproject.org/materials/mp-570421,21.283424070507547,31.617019383335943,21.84208309297169,37.731835365006695
-8.230258410000001,-41.15129205,6.2169805194309555,-3.473079334312501,1.9999999,0.2534580519781245,0.0,164,5,91.96049680727673,344.2958000000001,mp-3972,Ce2SO2,https://materialsproject.org/materials/mp-3972,-13.698758227459694,24.15941233113268,-18.22585317456161,39.669419297052066
-8.1571777455,-489.43066473,5.189845568952738,-3.8078237980833327,0.0,0.0,4.485200000000002,14,60,964.4589673052819,3014.3182288000007,mp-781707,La4Al2O9,https://materialsproject.org/materials/mp-781707,9.845281203001939,23.792405297711248,34.405346299073,-1.5198098595488647
-9.689803936111113,-174.41647085,6.6019493234102775,-3.300071360231481,14.03728625,0.6779865622892814,0.0,46,18,241.29009671826037,959.318,mp-1076037,Eu2Ti2O5,https://materialsproject.org/materials/mp-1076037,-26.44883230076586,51.04048529123436,-12.969552208767205,65.31199902514399
-10.197913028,-152.96869542,10.935039626202308,-3.874736982499998,8.0000086,0.4567643063497861,0.0,139,15,204.11537659433014,1344.1477,mp-1217343,ThU4O10,https://materialsproject.org/materials/mp-1217343,27.52829792145977,64.46419724535907,-11.360542483977158,35.72722224197029
-7.286873483124999,-349.76992719,3.5124709366319915,-1.642459926110714,0.0,0.0,4.1352,14,48,580.3138380773312,1227.5143440000004,mp-1020629,SrMgP3N5O2,https://materialsproject.org/materials/mp-1020629,20.17388713269214,33.37040486144099,27.66905223770456,45.27540762502564
-7.1751173999999995,-645.760566,3.9046165989505295,-3.0238867147777784,8.495e-05,6.590248477328275e-07,0.0,161,90,1502.2389608446192,3532.3874,mp-560124,Sr9YbV7O28,https://materialsproject.org/materials/mp-560124,6.179748787582848,22.00167512068032,29.685022539797,0.4002365399682492
-6.979512665714287,-97.71317732,6.006107956362776,-0.8951092853057138,0.00035215,1.1636079189205369e-05,0.0,176,14,352.69430904733787,1275.6822,mp-1246178,Ba3WN3,https://materialsproject.org/materials/mp-1246178,3.065167746047642,20.85868346850653,4.195494617040998,36.2506086098856
-10.198210593863637,-448.72126613,7.004561788455472,-3.8690860576136377,14.0000001,0.2434586334481981,1.4405,5,44,670.1627527863285,2826.9112,mp-1229315,Ce2Gd2O7,https://materialsproject.org/materials/mp-1229315,30.675551226671104,62.71469542000987,-8.99215385132076,35.775996927832715
-7.146718646666668,-128.64093564,5.428735860489901,-3.2797203922685187,0.00657505,0.0002320208583088664,2.8109,140,18,330.2550431944956,1079.69,mp-1214495,Ba3TiO5,https://materialsproject.org/materials/mp-1214495,0.21959376053754434,28.43799873870645,-14.300518280133886,42.072951743233325
-6.91929848,-34.5964924,10.209805114829557,-1.0329632240000008,0.0,0.0,0.0,139,5,87.05307881861381,535.24485,mp-3999,Y(SiPt)2,https://materialsproject.org/materials/mp-3999,-58.73717194863713,29.154729485675936,-48.75118553066071,31.92633372866176
-5.501430283888888,-198.05149022,5.586766564567869,-1.3881715358188889,1.99999995,0.05524837449486141,0.0,15,36,421.87899961806136,1419.38216,mp-721072,Cu3As2H2PbO10,https://materialsproject.org/materials/mp-721072,13.478946096875772,24.68015945516138,3.2390247139998314,36.63948159729645
-7.1817355460000005,-35.90867773,7.486303470209157,-2.0020892872500005,1.1807221,0.22290539286467428,0.0,221,5,61.73117507366239,278.3062,mp-1016900,CaOsO3,https://materialsproject.org/materials/mp-1016900,-10.583175362830122,50.64236693658823,10.43478744691141,35.56380467300233
-8.7050383195,-174.10076639,6.792892615056332,-3.98159301375,3.25e-07,1.5163294084572192e-08,4.4572,62,20,249.78550372742177,1021.816448,mp-31120,DyScO3,https://materialsproject.org/materials/mp-31120,-20.676679565994736,44.5171762308619,-6.921582921505997,62.699122816472
-4.9030622725,-98.06124545,4.45390900030341,-0.5051273193571433,0.0,0.0,0.5277999999999996,105,20,513.8373850670422,1378.218096,mp-27809,Ba(GeP)2,https://materialsproject.org/materials/mp-27809,2.61557581950119,11.963661907971089,7.442869734164398,26.107479949987372
-6.930521079285714,-194.05459022,6.49428381834353,-2.3265036699382144,2.5e-07,4.853085915179939e-09,1.4081,62,28,600.3430073279258,2347.911,mp-18164,Tb3S3N,https://materialsproject.org/materials/mp-18164,15.0618067146905,20.83831764918261,11.088457750618781,12.142359387526286
-3.2499490166666667,-19.499694100000003,4.4316499423918865,-0.5327240749999996,1.7899999999999998e-05,1.188218842881405e-06,0.0,129,6,175.56341635093858,468.54400000000004,mp-754515,BaMgGe,https://materialsproject.org/materials/mp-754515,-3.95098769982581,19.18490436476567,4.196368765536973,22.281098726397815
-7.476193155,-717.71454288,6.8103138587325525,-3.152755213541667,0.000185325,1.6645596382896353e-06,0.03699999999999992,12,96,1297.5140717660602,5321.45156,mp-775959,LiLa7(CuO7)2,https://materialsproject.org/materials/mp-775959,-7.68902243887252,19.799727356807583,-10.012716772323039,45.52874001055705
-7.311191899777778,-658.00727098,3.902047109500296,-3.094420316555556,0.0,0.0,3.5781,161,90,1499.7336958557212,3524.1758200000004,mp-555221,Sr9TmV7O28,https://materialsproject.org/materials/mp-555221,6.507474582206638,22.051567576959528,29.74848001585055,0.3174439160681999
-6.039308386,-60.39308386,5.9837815129141205,-2.07134167125,0.99999985,0.08596556162381136,0.0,194,10,135.56664790312905,488.51679,mp-18965,BaCoO3,https://materialsproject.org/materials/mp-18965,-2.2050050236536127,-3.8749472400250764,-1.2954199818289862,-19.030705123964868
-6.253219879444446,-112.55795783,4.410676849926527,-2.7867751187500014,0.0,0.0,0.0,46,18,225.58707099716332,599.1980000000002,mp-16433,Ca2Ga2O5,https://materialsproject.org/materials/mp-16433,-12.360613701786168,42.838005221335045,-5.243320021539214,61.99403878303921
-7.682919328461537,-199.75590254,6.129429204076197,-3.39405195806,0.96645945,0.0259837204768752,0.0,176,26,433.4706817823236,1600.0393800000002,mp-1194221,La3Ta(ClO2)3,https://materialsproject.org/materials/mp-1194221,0.20955415490508014,11.164001151900349,8.190162653491772,30.20495979232561
-8.55344805525,-342.13792221,6.342989758963901,-3.9121799171875,0.0,0.0,3.8606,1,40,649.8901245138528,2482.47485,mp-765639,Sm11Y5O24,https://materialsproject.org/materials/mp-765639,24.68571655104481,62.599645286341236,-1.5449943223566618,37.79473370317685
-6.6576761000000015,-93.2074654,4.46665422178699,-1.1321932288771432,0.005197,0.00024217406281202506,2.0904,229,14,250.09356460276283,672.7222,mp-1214440,Ba4Li(BN2)3,https://materialsproject.org/materials/mp-1214440,-10.613223251632592,49.75270804138373,-21.365195617140426,35.911398381531875
-5.2522879309375,-168.07321379,5.893246068156627,-1.6560440971354176,0.0,0.0,1.6510000000000002,4,32,745.9542230888394,2647.3884,mp-1208370,TbAgS2,https://materialsproject.org/materials/mp-1208370,-3.589183287428875,8.841889637118172,1.3021214760748978,18.50733551409689
-8.879162313157895,-168.70408395,8.143601247515809,-4.046947032368422,2e-06,7.673979374498774e-08,2.4197,160,19,303.72937439178037,1489.54698,mp-1101415,Sm4Th3O12,https://materialsproject.org/materials/mp-1101415,-12.499920245972161,-23.60348260458729,-10.098563257036707,31.876081642075214
-7.3041200109523805,-153.38652023,6.111444239538982,-3.1962083830952386,1.4981265,0.059911381352394676,0.0,139,21,291.41813916447614,1072.53468,mp-1218777,Sr2La4Mg2RuO12,https://materialsproject.org/materials/mp-1218777,-22.860178991138266,38.34550960654029,-14.795030226544736,58.94162193120779
-6.506185977142858,-91.08660368,6.434336133981308,-2.4754416885267863,1.9999153000000003,0.07751248954703782,0.0,137,14,300.6888642338007,1165.1236,mp-1103370,Ce2Cd(SeO)2,https://materialsproject.org/materials/mp-1103370,-17.00636977347553,23.78236056261899,-12.983824571602545,44.926433131117136
-5.0719940975,-101.43988195,8.824400594423324,0.32987793554800005,2.525e-06,6.018107879631787e-08,0.0,59,20,488.9662023226087,2598.4536,mp-1080198,Pb3N2,https://materialsproject.org/materials/mp-1080198,29.754638106095317,60.98271872017873,-8.058523072173571,31.29554966769411
-5.102126252121212,-168.37016632,6.932488491533299,-1.9246190275378792,0.0294058,0.0005894594197732971,0.0,12,33,581.3752166701064,2427.1498,mp-1228271,Ba8Cu4Hg4O17,https://materialsproject.org/materials/mp-1228271,-12.464574249246885,25.418519879195628,-17.622823921950427,40.78087676778479
-8.181287362105264,-155.44445988,5.51664009053463,-3.3899636032894738,0.0,0.0,3.0929,146,19,262.62050397467226,872.47741,mp-1218518,Sr3LaNb3O12,https://materialsproject.org/materials/mp-1218518,-15.889025063704837,19.750287534464928,-14.231632536377466,46.352153279296886
-8.434260732666667,-126.51391099,7.918671075802687,-3.0007333538333323,1.0,0.058185895493555274,0.03230000000000022,12,15,200.2902021822541,955.13095,mp-1209366,Pr3(ReO5)2,https://materialsproject.org/materials/mp-1209366,5.974036834913683,5.685668018831213,9.003223819377427,30.03798739410853