energy_per_atom,energy,density,formation_energy_per_atom,total_magnetization_uB,total_magnetization_T,band_gap,sgr,num_sites,cell_volume,weight,mp_id,formula,URL,tsne_cry_lin1_0,tsne_cry_lin1_1,tsne_cry_lin2_0,tsne_cry_lin2_1
-7.126474648333333,-513.10617468,4.589582548968795,-2.127464075046296,12.999999875,0.20260874442856572,1.0237999999999996,55,72,747.7606211608188,2066.744,mp-22223,Fe3BO5,https://materialsproject.org/materials/mp-22223,-25.503009972907087,-40.11352260890024,7.026664505622133,-1.6849916494396873
-8.735653922786886,-1065.74977858,1.898128640180044,0.3567845886393421,0.0570683,0.0005003267869856819,0.0,58,122,1329.2865422352475,1519.4806,mp-29687,KC60,https://materialsproject.org/materials/mp-29687,59.80787421379717,37.2734455159275,-4.461627442842954,-1.6258415480104529
-5.31315685173913,-122.20260759,5.842258196976272,-1.338229934144022,2e-07,3.781102000840801e-09,1.2010999999999994,143,23,616.4374708732104,2168.8059,mp-1219892,Pr6Ge3Se14,https://materialsproject.org/materials/mp-1219892,51.295253281927394,-2.42023395487726,7.375321376546902,-6.200502849129392
-8.258939759499999,-165.17879519,4.676206346234257,-3.460208755833333,0.0,0.0,1.6976,13,20,239.7497159582885,675.1537400000001,mp-767402,LiLaTi2O6,https://materialsproject.org/materials/mp-767402,5.836784514294843,-41.278523074187866,5.983743868189714,-2.1518997843797
-6.996198874583333,-167.90877299,6.429643422130195,-2.1550483607916657,4.93438995,0.19378543310024293,2.5229,13,24,296.74934369613095,1149.01993856,mp-22076,NaFe(WO4)2,https://materialsproject.org/materials/mp-22076,-4.86956298101431,-40.03939672673521,7.606533413720845,-0.4395465575482018
-5.664952342777778,-407.87656868,3.843799554801204,-3.5334521951822233,2.0006471125,0.02074216190213997,2.4674,33,72,1124.071403266023,2601.9895078399995,mp-1214563,BaNaVF6,https://materialsproject.org/materials/mp-1214563,-20.994928363637786,-50.908635740310146,9.071382781188877,-0.037992070564828485
-4.363764394444444,-78.5477591,7.728416565017972,-0.328137592222222,5e-08,1.454868869717789e-09,0.0,127,18,400.5194218919645,1864.082,mp-569331,Li(Sn3Pd)2,https://materialsproject.org/materials/mp-569331,33.538585948245355,35.33873006555256,-8.604250342815693,-0.5045126942092143
-7.429008713035714,-416.02448793,4.0295642911047675,-2.6712363694642867,3.9999999875,0.07434962771650505,1.5331,8,56,626.9871198590347,1521.4848,mvc-5074,MgV2O4,https://materialsproject.org/materials/mvc-5074,-12.239695552051046,-26.95213475158988,8.238207383746227,-0.7594206604617287
-3.3212023109999995,-33.21202311,4.645216955416848,-1.1740211142413788,0.0,0.0,1.7212,225,10,421.70701846154634,1179.6895738,mp-1113323,Cs2YCuI6,https://materialsproject.org/materials/mp-1113323,48.3859889452609,-13.52167167522138,8.471897953907932,-0.2256759472991406
-6.037156035,-313.93211382,2.550866987555229,-1.277258759741153,3e-07,5.51327262713187e-09,2.1774,15,52,634.1459362198674,974.15471424,mp-758157,Na4H2RuN6O13,https://materialsproject.org/materials/mp-758157,-10.962811894067562,-52.693605683561536,9.175803631015551,1.1069775480707444
-4.303008557,-301.21059899,8.73611550098593,-0.5703210114047621,0.10586531,0.0007951001818624862,0.0,26,70,1551.7053172055394,8163.540000000001,mp-1202976,Nd(In2Pd)2,https://materialsproject.org/materials/mp-1202976,32.406914425073964,40.01207247894278,-8.604250342815693,-0.5045126942092143
-6.292181151666667,-37.75308691,6.892427941619792,-0.17753086666666582,1.9999997999999999,0.2373961127679004,0.0,10,6,98.18242995871857,407.5275,mp-1226236,CrFeAs4,https://materialsproject.org/materials/mp-1226236,18.429455204877,19.539649235516432,-8.604250342815693,-0.5045126942092143
-5.176301765882354,-87.99713002,7.408113137759744,-0.15455041794117655,1.9259278999999998,0.058062151733843465,0.0,204,17,386.56659844035914,1724.578,mp-13464,Ca(FeSb3)4,https://materialsproject.org/materials/mp-13464,43.95031472655144,23.52008873507361,-8.604250342815693,-0.5045126942092143
-7.6567179833333325,-45.94030789999999,5.974818475982246,-2.157936984326668,5.000000099999999,0.6924718563656965,0.3296999999999999,119,6,84.14829352636131,302.775645,mp-1176413,MnWO4,https://materialsproject.org/materials/mp-1176413,-15.62082880308269,-30.740433045482998,5.2066065378124655,-3.807198312896384
-6.85142519225,-548.11401538,4.6224525762082775,-1.4212185226874994,9.000363175,0.07144196517549037,0.0,31,80,1468.1961107922596,4087.0264,mp-530588,Dy(CrS2)3,https://materialsproject.org/materials/mp-530588,17.06541474372973,7.519230063440891,-8.604250342815693,-0.5045126942092143
-7.45437156,-67.08934404,5.945449233850722,-3.0537388493055557,2.0000006,0.18388690290180384,2.2417,71,9,126.7525645913177,453.8291,mp-19325,BaY2NiO5,https://materialsproject.org/materials/mp-19325,-31.780777106974025,-28.653503816465825,6.992723476511794,0.09358750468222532
-5.4670648707352925,-371.76041121,6.302124789282031,-1.2720128969669116,4.0000034,0.026894215677264997,0.12659999999999982,57,68,1733.3206245336262,6578.347519999998,mp-1200263,La4Fe(SbSe5)2,https://materialsproject.org/materials/mp-1200263,20.2556451057026,2.3681302263649657,-5.775155343002433,-3.1275428612450367
-8.47722362388889,-152.59002523,5.22990144259741,-3.1984054963888897,0.0,0.0,1.7859,51,18,266.158727614578,838.27232,mp-640553,BaNb2O6,https://materialsproject.org/materials/mp-640553,-0.3103252870071952,-46.72831404140084,8.735979088745808,1.2010544601955448
-7.185057327179487,-280.21723576,2.9553009681285713,-2.4279459064102555,14.000173133333336,0.2752126262592491,1.4143,1,39,592.8467990026797,1055.1036,mp-850744,Fe3(SiO4)2,https://materialsproject.org/materials/mp-850744,-21.913750768005443,-79.43652009466787,5.660154771035519,-4.503542711463101
-3.3306152033333336,-19.98369122,5.173144442924584,-0.4705788948333337,0.0,0.0,0.6331999999999995,129,6,137.4718253754572,428.27153856,mp-7434,NaCuTe,https://materialsproject.org/materials/mp-7434,34.77877607554801,19.056009729874493,-11.331317304034787,-0.2898140723071255
-4.713508488,-47.13508488,2.6379843534855496,-0.7842755838660714,0.9738825000000001,0.05635017142165881,0.0,5,10,201.41357957786065,319.971924,mp-557500,LiNi(PS3)2,https://materialsproject.org/materials/mp-557500,23.594405085380988,-0.8885225255280386,4.460404037799438,-5.150532064966689
-5.536029606666666,-99.64853292,4.023360574680425,-0.7061617883405171,15.00000065,0.3250157007513038,0.4219999999999999,72,18,537.8539521612212,1303.17947,mp-4052,Rb2Mn3Se4,https://materialsproject.org/materials/mp-4052,26.177681094156238,15.925140969260529,-8.604250342815693,-0.5045126942092143
-8.328042143333333,-549.65078146,2.832411092705694,0.1967032933484847,3.866666666666667e-05,6.149500915461975e-07,0.0,44,66,732.7811542222616,1249.9179,mp-1223585,KBaC20,https://materialsproject.org/materials/mp-1223585,59.64189746876069,37.51997267324169,-8.604250342815693,-0.5045126942092143
-3.2760209710000003,-32.76020971,3.61490186257905,-1.6477120401916323,0.0,0.0,1.8337000000000003,225,10,321.78224884810436,700.5022000000001,mp-1113806,Rb2AgBiCl6,https://materialsproject.org/materials/mp-1113806,6.230198102488264,-7.869762811494915,9.506023472688453,-4.234512508204841
-9.308711504166666,-335.11361415,5.683235003847951,-3.6738806294444446,0.9999998,0.027729808961679387,1.7672999999999996,25,36,420.27200612351197,1438.3911,mp-766222,Zr11VO24,https://materialsproject.org/materials/mp-766222,-2.9147882838428765,-41.04851136635961,8.274936539084814,-0.2474924877051117
-2.7695704573913047,-191.10036156,4.420918475247952,0.14754698137681133,15.6396937,0.06838638041462693,0.0,160,69,2665.238345672255,7095.769,mp-1100877,Zn7(Ga11Te20)2,https://materialsproject.org/materials/mp-1100877,58.71745383403471,16.787713055175733,5.543486119685004,-5.930296926828599
-6.5461163007500005,-261.84465203,4.663633626306409,-1.7195348380000013,5.9998151625,0.15371909562332306,0.8159000000000001,8,40,454.870191914867,1277.5056,mp-705547,Fe2O3,https://materialsproject.org/materials/mp-705547,-28.08067087697228,-34.09471809059912,5.371668208647919,-3.658374476045144
-5.22342248875,-125.36213973,2.351420130131724,-3.1423435823608337,2.00000035,0.07795597979205741,2.6046,15,24,298.99096498068536,423.3886448,mp-764769,Li4VF7,https://materialsproject.org/materials/mp-764769,-20.951207251821767,-52.09277277898279,9.212925982134617,1.8972349975527785
-3.95585719,-39.5585719,4.008591219406611,-2.1539949761973793,0.0,0.0,2.3805,225,10,291.86666096058923,704.5749038,mp-1112958,Cs2DyCuCl6,https://materialsproject.org/materials/mp-1112958,13.22513234603462,-12.306666515172761,8.55703422887253,1.0067984947564377
-6.477008228896104,-997.45926725,3.339841897746227,-1.6591317424675334,8.5205036,0.032885926266921404,0.0,31,154,3019.483168674142,6073.085999999998,mp-686174,Ti24Ga5S48,https://materialsproject.org/materials/mp-686174,20.153269772657524,14.090508221618848,-8.604250342815693,-0.5045126942092143
-3.2820194839999997,-32.82019484,4.0225369089549,-1.0918494335999998,0.0,0.0,1.7749,225,10,409.53750176565774,992.0752699999999,mp-1112213,K2YCuI6,https://materialsproject.org/materials/mp-1112213,48.39513087414526,-13.564413669071744,8.530067508177313,-0.08517453983958632
-6.486427794411764,-220.53854501,4.746417127332247,-2.02819864882353,42.0000018,0.9928709309454834,1.9535,12,34,492.98526743925737,1409.129,mp-1228526,Ba3Fe10SnO20,https://materialsproject.org/materials/mp-1228526,-29.699386759594194,-32.22213334559289,8.262591977751102,-1.088865687474463
-7.051195205,-28.20478082,13.315036282030585,0.0953797920312498,0.034043000000000004,0.00477794799801456,0.0,225,4,83.03550545487552,665.8204000000002,mp-861726,PuBiPd2,https://materialsproject.org/materials/mp-861726,28.992266754144765,40.799143398779975,-8.604250342815693,-0.5045126942092143
-4.340767066875,-69.45227307,6.2518505779725455,-0.6091734976562506,0.0,0.0,0.4641000000000002,62,16,357.67399639109595,1346.6255999999996,mp-22982,CuBiS2,https://materialsproject.org/materials/mp-22982,58.29088703914067,9.426989725658363,4.6302792003162825,-6.313747806038339
-7.0919676355,-283.67870542,2.8320896205392216,-2.718732937071428,3.9999995999999998,0.09752359569265692,1.9338,9,40,477.9997507015921,815.240172,mp-705293,Li3V2(PO4)3,https://materialsproject.org/materials/mp-705293,-16.338004061796454,-49.33227547266842,8.619059088036211,1.545800605301653
-7.415133958611111,-266.94482251,5.059949107572511,-2.5753151280324085,20.0009151,0.5615376394624838,1.5311,15,36,415.0958790740866,1264.8688,mp-1227611,BaTi2Fe4O11,https://materialsproject.org/materials/mp-1227611,-3.745183943030752,-38.111527954091116,7.1451751314397685,-2.4159177879503955
-4.2373339955,-84.74667991,3.8348840603660057,-1.0800690715312506,5.000351,0.14109922158969385,0.7744999999999997,8,20,413.0030894783484,953.79809,mp-1221530,MnZn4S5,https://materialsproject.org/materials/mp-1221530,40.019149110146934,4.2512433198982045,4.872590648167543,-6.200621657792006
-5.095111358625,-407.60890869,2.18772200656708,-1.0405604700589293,5.999999900000001,0.035396127488211526,1.2934,14,80,1975.481286568413,2602.65117536,mp-559281,Na3Cr2(PS4)3,https://materialsproject.org/materials/mp-559281,23.97650288240736,-1.779638512601465,6.150508003717363,-4.63589177684629
-7.418243719375,-118.69189951,3.847861789798949,-0.918073173151206,7.5e-07,3.0795502707639124e-08,0.07719999999999994,122,16,283.8254878447427,657.6908,mp-1029312,RbVN2,https://materialsproject.org/materials/mp-1029312,33.697928977429854,-8.045072194877148,5.900265705574934,-6.16715785822507
-6.2495453916666674,-74.9945447,10.66664897554656,-0.08739463333333458,1.275e-06,5.4282361063091694e-08,0.9567999999999994,14,12,273.73408772222086,1758.36,mp-1103213,SbTeOs,https://materialsproject.org/materials/mp-1103213,50.3946804416228,20.86838980669288,7.105145724082688,-6.00273698524096
-5.713288788571428,-79.98604304,3.4139806963467003,-1.242861065416667,9.0000027,0.3744187472877304,0.6710000000000003,166,14,280.13184483631017,575.9363,mp-1246882,Mg2Cr3InS8,https://materialsproject.org/materials/mp-1246882,19.12628652041376,8.860548001493973,3.4440685729306684,-3.9291144965512883
-6.644107466785713,-186.03500907,3.3897254653235063,-2.4468663941632665,4.000044375,0.13687766507217544,3.4401,62,28,340.5725559007898,695.2245251200002,mp-1192859,NaFePO4,https://materialsproject.org/materials/mp-1192859,-1.5233294741406482,-95.5944365263992,5.769655333404661,-5.4240112304129955
-7.1083095080000005,-568.66476064,2.866085408069281,-2.735074809571429,4.00000005,0.049347129408450624,2.0608,14,80,944.6600082265177,1630.480344,mp-643154,Li3V2(PO4)3,https://materialsproject.org/materials/mp-643154,-16.543958513266773,-48.487065669761975,7.794534752469026,0.9856021434541375
-6.8513717540000005,-1096.21948064,4.621929866086232,-1.4211650844375,8.99897595625,0.035711438210639004,0.0,33,160,2936.724308392625,8174.052799999998,mp-532220,Dy(CrS2)3,https://materialsproject.org/materials/mp-532220,17.070813150231892,7.5204867354842175,-8.604250342815693,-0.5045126942092143
-6.18626089,-37.11756534,7.424134646386544,-0.2677561033333333,0.0,0.0,0.2832999999999997,58,6,92.01160874245942,411.3764,mp-2008,FeAs2,https://materialsproject.org/materials/mp-2008,19.2865187664995,19.25911412475844,4.907905624003839,-6.590315919949965
-3.406354842857143,-23.844483899999997,2.726320007108085,-1.5793007993971433,0.0,0.0,1.5295999999999998,38,7,225.89426528577286,370.8796,mp-1223847,K2PdBrCl3,https://materialsproject.org/materials/mp-1223847,10.55202356705374,-9.47475368417821,9.044419025106421,-4.734135544097362
-6.829428457678572,-764.89598726,4.013244778090226,-2.172047363616071,4.00000005,0.02981252885731544,1.5368000000000002,62,112,1563.6466096536205,3779.072,mp-560714,BaV4As4O19,https://materialsproject.org/materials/mp-560714,-13.587139218610279,-43.990645269023034,8.763931267960832,1.6698061333597451
-5.821335830774647,-826.62968797,5.210847718515238,-1.665093751632922,0.00067285,1.8492000287219555e-06,0.2641,167,142,4240.448496875847,13306.721999999998,mp-620609,Ba15(ZrSe3)14,https://materialsproject.org/materials/mp-620609,28.206072015677915,1.5243522629796111,-5.704466635086532,-3.036930868417496
-5.878938757999999,-117.57877516,3.2606386016818987,-3.214315331333,3.9999998,0.1892699426838802,2.1015,15,20,246.2950857299332,483.6256448,mp-756227,LiV2F7,https://materialsproject.org/materials/mp-756227,-21.376528618631877,-51.2812069552665,9.295150713739904,1.3627247728028968
-3.44473138125,-137.78925525,4.38214662601452,-0.7906173923873336,7.105e-05,6.198170699629611e-07,1.3006000000000002,15,40,1335.9123880532154,3525.46,mp-1203469,In2Te9RuCl8,https://materialsproject.org/materials/mp-1203469,65.9357806956303,17.80595972136042,8.677535764569416,-6.365295945625907
-3.0041814744444446,-27.03763327,4.232345769033392,-0.9984496717777778,0.0,0.0,1.2017,225,9,295.3197687751873,752.7046,mp-27691,K2PtBr6,https://materialsproject.org/materials/mp-27691,9.426781005578516,-6.506247015377786,7.633626515866901,-4.525130905546781
-6.976681657916667,-167.44035979,7.394767164651103,-0.9395386495833336,6.94511325,0.120787259831849,0.0,40,24,670.0938474880504,2984.0840000000003,mp-1226688,Gd3Cu2Te7,https://materialsproject.org/materials/mp-1226688,56.136536458442706,21.43259894843032,-8.604250342815693,-0.5045126942092143
-7.408976702142858,-103.72567383,4.0254199742481545,-2.6512043585714293,4.00000065,0.29709269234717484,1.3309000000000006,74,14,156.90815649853246,380.3712,mvc-6900,MgV2O4,https://materialsproject.org/materials/mvc-6900,-12.237368122474553,-27.01636361582972,8.091487655719206,-1.6097850480852118
-7.762966873928571,-434.72614494,3.7988581714325353,-3.0090637860714287,3.000000025,0.058058414532816426,2.4439,198,56,602.189964889051,1377.64558,mp-768110,Li2Ti3CoO8,https://materialsproject.org/materials/mp-768110,-28.551119295578648,-46.089527769580386,8.241932617238827,0.6042788854514393
-3.3611241,-6.7222482,6.693283060597086,0.07847817833333304,5.45e-05,1.08215551010503e-05,0.0,25,2,58.692722457501354,236.578,mp-19744,InSb,https://materialsproject.org/materials/mp-19744,38.17656734787675,27.45800820809515,-8.604250342815693,-0.5045126942092143
-6.961641291875,-334.15878201,2.728697738439994,-2.641918989861111,2.0,0.050560692052001234,2.2652,14,48,460.99308769641004,757.5316,mp-772628,Li3V(BO3)2,https://materialsproject.org/materials/mp-772628,-21.890171094533528,-54.21017073840065,8.768062059224672,3.28553986331034
-6.648699072142858,-93.08178701,4.121112553381667,-1.3625015691933504,4.8112462,0.21603537797554465,0.0,12,14,259.5434848540359,644.1329519,mp-985699,CsV5S8,https://materialsproject.org/materials/mp-985699,19.6195256627918,13.57298623660084,-8.604250342815693,-0.5045126942092143
-6.7132635429,-671.32635429,4.972142481297246,-2.6487358752312513,5e-07,2.3426260142233857e-09,1.9464999999999997,122,100,2487.393357241272,7447.987600000001,mp-773116,La20S29O,https://materialsproject.org/materials/mp-773116,47.22793944409357,1.0484596946831182,7.398593821031228,-4.639130068145096
-3.8663886260000004,-38.66388626,7.28581423269135,-0.31751628957812483,0.0026523000000000002,9.317224324280676e-05,0.3632,160,10,331.7519780618402,1455.6016,mp-1227438,Bi4(TeSe)3,https://materialsproject.org/materials/mp-1227438,67.72919964822522,23.8386253918055,5.769839008386666,-7.024458814167444
-5.052872383055554,-181.90340579,8.587099430575273,-0.410810867083333,0.0001449,2.068634233004062e-06,0.0,164,36,816.3231365902777,4221.4291699999985,mp-1213064,Dy7Co6Sn23,https://materialsproject.org/materials/mp-1213064,-0.06700412711446009,47.85864750095399,-8.604250342815693,-0.5045126942092143
-5.093549126458334,-244.49035807,2.3864447953917622,-1.149594593929941,0.001955375,1.6399871415287412e-05,1.3724,9,48,1389.5271693046107,1996.9599035999997,mp-645687,CsTi(PS4)2,https://materialsproject.org/materials/mp-645687,63.31647541285668,0.2673741150345128,7.4620555087277,-5.964137173422536
-5.999989417222222,-323.99942853,4.230261580687852,-2.2087240188688892,4.927461355555555,0.08946553324989276,0.0,6,54,641.8667806017694,1635.1704576,mp-759490,FeOF,https://materialsproject.org/materials/mp-759490,-43.070299864909884,-77.2819625573388,-8.604250342815693,-0.5045126942092143
-3.9723347336363632,-87.39136414,2.2459258510830318,-2.0312656780054543,5.00376675,0.096670454463745,2.495,167,22,603.2269335523863,815.88142856,mp-1191678,K3NaMnCl6,https://materialsproject.org/materials/mp-1191678,17.297463646369525,-8.28098445161011,8.527848526187135,-0.6658411331798286
-7.332574231041666,-351.96356309,6.8149911908797955,-3.0011116628125003,9.999999475,0.1900530895162267,1.5329000000000002,136,48,613.2004583764616,2516.626,mp-540740,SrTb2Fe2O7,https://materialsproject.org/materials/mp-540740,-21.333671514288906,-33.082502189349675,7.6605854896662615,-3.164641162234657
-6.23305886,-87.26282404,9.172930053885207,-0.7308392185714284,1.7045635,0.06485371687461626,0.0,148,14,306.3061670982847,1692.056,mp-1103851,Ce3Pd4,https://materialsproject.org/materials/mp-1103851,11.848924890064184,53.819211819480635,-8.604250342815693,-0.5045126942092143
-5.955994572222222,-214.4158046,4.35338627960825,-2.1647291738688894,4.499999766666667,0.12612357120096182,0.3609,6,36,415.8087838606721,1090.1136384000001,mp-764890,FeOF,https://materialsproject.org/materials/mp-764890,-42.6484665281653,-76.75472538987735,0.6772720809446685,-2.266944521851473
-6.006456203333332,-72.07747444,4.343684369404752,-2.2151908049800006,4.999999525,0.4194749604210011,1.6943,92,12,138.9125068839279,363.3712128,mp-675006,FeOF,https://materialsproject.org/materials/mp-675006,-42.12000529315371,-76.16454843833961,4.319433089830494,-0.2440079073368332
-5.873430795499999,-117.46861591,6.81137401053604,-1.8931915056562496,0.0,0.0,0.3125,62,20,524.244175417844,2150.4,mp-15081,Sm2Se3,https://materialsproject.org/materials/mp-15081,49.83577446962488,3.676369604346765,5.642705323387228,-6.645350084202139