energy_per_atom,energy,density,formation_energy_per_atom,total_magnetization_uB,total_magnetization_T,band_gap,sgr,num_sites,cell_volume,weight,mp_id,formula,URL,tsne_xrd_lin1_0,tsne_xrd_lin1_1,tsne_xrd_lin2_0,tsne_xrd_lin2_1
-7.683731346428572,-107.57223885,5.14378421044895,-3.6204603192857143,0.0,0.0,3.788,227,14,277.26001962199865,858.8570800000001,mp-754211,SrLa2O4,https://materialsproject.org/materials/mp-754211,-7.020803764583102,-9.131484653693349,-10.455513112671094,43.196723984501475
-7.337532604000001,-36.68766302,8.58538860568148,-3.1872587875000007,0.0,0.0,0.5903,164,5,94.66857540713764,489.45944,mp-768908,Ho2TeO2,https://materialsproject.org/materials/mp-768908,-13.188127445560276,23.698238512791967,-18.242355678326984,38.56942402320421
-6.549664273125,-209.58925674,6.94287932629075,-2.06639629871375,3.000000625,0.10044832161470564,0.4922,55,32,348.0615807158604,1455.28018,mp-1207564,YbMnFeO5,https://materialsproject.org/materials/mp-1207564,-2.0469616882153607,27.334877856719828,1.1118848226128866,49.6873759610216
-7.8022288111538485,-202.85794909,4.242614461936518,-3.4631310778205133,0.0,0.0,3.722,100,26,396.62990083913843,1013.3744,mp-6081,Ba2Ti(SiO4)2,https://materialsproject.org/materials/mp-6081,3.6494896643840136,25.365872115107337,-5.854517045739665,29.241983137746054
-9.64982386313433,-646.53819883,7.503548318661666,-3.4657442707276127,0.0012997,1.5994807940190638e-05,2.3312,10,67,946.9815481082485,4279.16576,mp-765640,Sm3Ta17O47,https://materialsproject.org/materials/mp-765640,14.403931316197538,15.2228708776386,47.77470402757661,4.889307830932048
-6.694892875,-40.16935725,6.736535543124697,-0.9332647882142856,0.95389205,0.0963034728197642,0.0,129,6,115.43425601624081,468.29791399999993,mp-1018813,NdCoP,https://materialsproject.org/materials/mp-1018813,-32.50004461995661,-12.849447825935632,-41.23642995016337,-10.634978977964039
-7.3931538156249985,-709.7427663,3.918820733575677,-2.4335670889756926,8.999999975,0.1145177437048329,2.146,29,96,915.8980894002644,2161.4911399999996,mp-562349,Co3B7BrO13,https://materialsproject.org/materials/mp-562349,-5.4347347553322685,6.977151525177505,-4.302638329979153,27.157067022069697
-7.531589798333332,-180.75815516,3.902078027670577,-3.563657120937501,0.0,0.0,4.2654999999999985,35,24,318.25034042447305,747.8521316000001,mp-1227113,CaPrAl3O7,https://materialsproject.org/materials/mp-1227113,-2.4377736397130385,14.637256993797484,6.3686952140278965,30.322409681954927
-8.147230528333333,-48.88338317,6.108129658483392,-2.8902647190033353,5.99999975,0.6322252793013659,0.0,129,6,110.60042679582695,406.8328,mp-542757,EuClO,https://materialsproject.org/materials/mp-542757,-7.176492429909384,10.464826500670105,-3.3451202100295108,24.024284811923533
-5.664907805,-67.97889366,6.5689389204764765,-2.136497984104168,0.0006415,3.5053193569598967e-05,0.0,107,12,213.2782149150861,843.7089,mp-1223506,KBa2Bi2O7,https://materialsproject.org/materials/mp-1223506,-19.634645593473948,6.07866717029578,-11.919503496326337,28.779178318049635
-8.78100789764706,-447.83140278,4.188474376924953,-2.9952569801862743,1.0112591999999998,0.015648451980562673,0.0,71,51,753.1275447108557,1899.65748928,mp-707376,NaNb14O36,https://materialsproject.org/materials/mp-707376,19.53243464128144,-8.55273581989573,47.781978114122715,1.9673319727178435
-5.01532366275,-200.61294651,3.213653332627193,-0.7287554692500002,0.013684225,0.00016348656855426488,2.1281000000000003,198,40,975.4736791074472,1887.841336,mp-1195664,Sr2P7Br,https://materialsproject.org/materials/mp-1195664,4.247369953965577,26.76993888273716,10.95658160538487,39.5667912237732
-7.638019060909091,-84.01820967,3.58966083417871,-2.605174219768702,10.0000009,0.8876457819953371,3.2709000000000006,12,11,131.2918515224437,283.81941400000005,mp-18721,Mn2P2O7,https://materialsproject.org/materials/mp-18721,2.2471402670658898,27.400240135830803,31.09389570724513,-1.5883859721040268
-8.90031021475,-356.01240859,6.111447586932157,-4.026158175000001,0.0,0.0,4.0603,1,40,599.5601311903249,2206.621,mp-766009,Y11Tm5O24,https://materialsproject.org/materials/mp-766009,17.151459784684338,58.88709720849832,-2.974996303128264,38.50809377006471
-7.973570973999999,-159.47141948,5.662830099285466,-2.8728056843459995,6.00000015,0.3075462790606253,1.2372999999999998,14,20,227.36217325420466,775.3586799999999,mp-1189894,Y2MnCoO6,https://materialsproject.org/materials/mp-1189894,-6.748955205988848,57.396985162960654,15.386833911431632,61.82073441601807
-3.085180124166667,-37.02216149,4.2121741727851045,-0.6260120691666667,0.0,0.0,0.15579999999999972,62,12,463.5282690461551,1175.8,mp-978,Sr2Sn,https://materialsproject.org/materials/mp-978,-2.071727185380058,24.02064050034639,1.804298316046148,22.26866833496305
-6.833261309375,-109.33218095,3.463901211644431,-2.5991317926116078,5.00000005,0.3179991648956739,1.9023,1,16,183.24049519003756,382.241524,mvc-3257,MgFePO5,https://materialsproject.org/materials/mvc-3257,6.726447877289266,25.622513428250734,50.60254844881226,3.168122202790256
-9.845882554,-49.22941277,9.187810138234088,-3.1424368303333337,4.4969754,0.8711490504378476,0.0,221,5,60.159673669926825,332.8652,mp-977152,NpTiO3,https://materialsproject.org/materials/mp-977152,-30.019384112387925,52.547066805416755,-18.19605774073376,64.96220068857244
-7.520687325142857,-263.22405638,3.813556536745128,-3.473758254107142,0.0,0.0,4.4268,148,35,526.4635829387095,1209.0644000000002,mp-555314,Sr7Zr(Si2O7)3,https://materialsproject.org/materials/mp-555314,13.904162634066152,21.466276468656787,35.467782445903296,2.570855469197608
-6.850700297222222,-369.93781605,5.655684260141503,-2.533581757770369,15.000001199999998,0.2197607124366518,1.2986000000000004,64,54,795.4605881779898,2709.28525,mp-30895,Ba6Mn5O16,https://materialsproject.org/materials/mp-30895,8.623230644175868,5.110553817603157,16.98524578133792,12.995531386264991
-4.883674695714285,-136.74289148,6.2953107964009325,-0.6855649248214287,0.0191818,0.000654904196615488,0.0,227,28,341.3414371286055,1294.068,mp-647533,Sb2O5,https://materialsproject.org/materials/mp-647533,31.301756390397387,62.99385301578,-9.32581942209174,35.423681427317405
-5.3922709504999995,-323.53625703,3.46984905672378,-3.6511315863508047,0.0,0.0,6.8327,140,60,901.8169738714156,1884.4295140000002,mp-13997,RbAlF4,https://materialsproject.org/materials/mp-13997,9.56025965191225,5.258074390918718,16.641825641865992,10.383440125677199
-7.258563799999999,-72.585638,6.5540861603530844,-0.635983315,8.4235967,0.5837077757938791,0.0,115,10,168.18200070438309,663.808135,mp-1226880,Ce2Mn3Si4Pd,https://materialsproject.org/materials/mp-1226880,-59.21915103459304,25.803507202935286,-59.66344437969615,28.21014958578438
-10.711856175,-235.66083585,8.656713272699317,-3.161690455568184,19.0000017,0.7457231621815444,0.0,63,22,296.92956008336824,1547.9516,mp-16825,Gd3OsO7,https://materialsproject.org/materials/mp-16825,15.625019230951722,60.004732211177036,-4.005482968652212,39.227672837142244
-6.1037704958536585,-250.25459033,6.27858307220295,-1.989038995945122,0.0,0.0,0.3784000000000001,12,41,576.0057996550457,2177.9074,mp-1200668,Cu2Si2Pb7(S2O13)2,https://materialsproject.org/materials/mp-1200668,13.2043556046458,25.3784331693543,25.04234374302441,36.25152278546699
-9.207120565,-73.65696452,11.21124222531935,0.3439229993749997,0.1661312,0.02055981292225277,0.0,122,8,94.1693279440077,635.79062,mp-22753,UFeC2,https://materialsproject.org/materials/mp-22753,-44.201653941655024,0.13521032604381525,-58.1923136612198,23.31299831909454
-4.536176423,-45.36176423,4.5499556013194695,-3.0678613144053792,0.0,0.0,5.8414,225,10,172.4474183777889,472.51409228,mp-1112570,Cs2NaGaF6,https://materialsproject.org/materials/mp-1112570,-18.540573785385703,-49.42600371588119,-25.15548140748567,-8.412126149667902
-5.5079199616666665,-33.04751977,7.2575509950813215,-0.6451389216666664,0.0001053,9.491251798373608e-06,0.0,187,6,129.29517060761367,565.0974,mp-1220397,Nd2NiGe3,https://materialsproject.org/materials/mp-1220397,-55.14696504556336,23.19670182913939,-52.47317990518975,32.58858690499254
-4.2446792825,-50.93615139,6.960586375038159,-1.1840999165033337,3.75e-06,1.7706345244089981e-07,0.0057999999999998044,62,12,246.81966998065812,1034.6096,mp-1095473,PbClO,https://materialsproject.org/materials/mp-1095473,5.276541801397532,5.2988142950773645,10.767009965470463,8.631091069112816
-4.7276547942307685,-122.91902465,4.937903997019443,-0.6870166424038462,0.00255235,6.664476063919523e-05,0.0,59,26,446.32544159441255,1327.22696,mp-1180685,La(IO3)3,https://materialsproject.org/materials/mp-1180685,6.5172802741105205,-5.093140832343571,11.676385930679686,7.648073386364738
-7.504099072000001,-75.04099072,4.4037251850448795,-3.1011083080833326,0.0,0.0,3.1907000000000005,146,10,106.12592615372591,281.4444,mp-1221954,MgTi2ZnO6,https://materialsproject.org/materials/mp-1221954,-1.074423509743411,54.60296804161005,19.073790270956284,63.632584719679315
-8.114500005909091,-178.51900013,7.896836343870023,-2.397769923181819,1.0000118,0.04095527024142112,0.0,13,22,284.5592819147667,1353.24616,mvc-683,Ta(WO4)2,https://materialsproject.org/materials/mvc-683,20.113937907478054,18.2493619196498,31.366265622566274,38.783784665435135
-6.058503844,-30.29251922,5.967175364139773,-0.630089207999999,0.0001296,1.714580041012318e-05,0.0,107,5,88.08960552416029,316.5515000000001,mp-1068653,CaSi3Ir,https://materialsproject.org/materials/mp-1068653,-6.614828437641328,9.311795693465283,4.383297470096674,24.474413939284172
-6.694582111875,-107.11331379,4.0865865698562205,-2.2829450821066075,3.99999975,0.24797616691484345,1.0385,15,16,187.98684065767856,462.635614,mvc-3247,MnZnPO5,https://materialsproject.org/materials/mvc-3247,5.708292097545452,-23.362165140449022,2.1736962351880647,22.473645291379672
-5.344728603333333,-32.06837162,6.799728341257974,-1.2792776425000003,0.00040385,2.481882531085225e-05,0.0,129,6,189.63403785030368,776.5309400000001,mp-1018747,LaSbTe,https://materialsproject.org/materials/mp-1018747,-44.569811093597814,28.14753961208044,-25.035220708879603,31.43260593285785
-7.207322533928571,-201.80503095,7.235095939449493,-2.914449906785715,1.99999215,0.06174676795757105,1.3812999999999995,138,28,377.47786372765137,1644.6999999999996,mp-505052,Nd2NiO4,https://materialsproject.org/materials/mp-505052,-23.82041858351813,38.806662963174425,-40.37144861939739,26.74391564127973
-6.076374115833333,-145.83297878,3.2942913379637946,-2.0867434334482757,0.0,0.0,3.2556,62,24,465.64473992190017,923.778,mp-555692,Rb2CO3,https://materialsproject.org/materials/mp-555692,1.2187138013915584,31.74779587352992,2.3689019281930643,27.7245750643883
-4.567558702222223,-41.10802832,6.169646840082559,-0.6645358880555565,0.0004088333333333333,2.18849075567982e-05,0.0,189,9,217.71031636677472,808.89141,mp-1078841,LaMgPd,https://materialsproject.org/materials/mp-1078841,-37.796234592423474,13.632566820692453,-2.9560933074800158,20.28899559907037
-8.947971145357142,-250.54319207,7.0684749846146575,-2.9339152014583334,18.000000399999998,0.5619298818790601,0.0,173,28,373.30844529255387,1589.0752,mp-556626,Eu3BWO9,https://materialsproject.org/materials/mp-556626,5.2040903609726135,19.884264834056612,1.966152954642008,36.878735414080666
-7.252213345833334,-261.07968045,3.1889011485222394,-2.510177364786112,29.0000011,0.8951742534879864,2.6097,6,36,377.5442489625155,725.036425,mp-774362,Li6Mn5Fe(BO3)6,https://materialsproject.org/materials/mp-774362,13.164293691784142,3.515804720760843,66.54534197764953,38.02678018833754
-8.53243901,-51.19463406,5.8518182669173315,-3.537350273586666,6.9999991999999995,0.7204082300902713,2.9960000000000004,99,6,113.23918950015852,399.06027000000006,mp-1222800,LaGd(ClO)2,https://materialsproject.org/materials/mp-1222800,-7.334403238822102,10.373611999308922,-3.420791076352129,23.85167709104464
-8.63703143909091,-190.01469166,7.477424437092672,-3.7660823864772737,0.0,0.0,2.5817,20,22,302.7655640404488,1363.3564600000002,mp-754415,Tb3NbO7,https://materialsproject.org/materials/mp-754415,15.358842260167851,63.41371725759589,-5.058011484098005,39.470600651343815
-3.67895056,-29.43160448,5.354322748883956,-0.4885691076302083,0.0,0.0,0.07760000000000034,140,8,212.4152341380513,684.922,mp-1095059,InGaSe2,https://materialsproject.org/materials/mp-1095059,-1.2839575079504355,25.95045230985497,-1.2651058436711442,20.256710172186946
-5.665386529285714,-158.63082282,5.5690001216334535,-1.5547280028571433,2.032133675,0.05422086735552975,2.0341,135,28,436.7804985424026,1464.844,mp-21275,Ni(SbO2)2,https://materialsproject.org/materials/mp-21275,-9.219761247201268,-23.179034829415716,-8.724543412439683,32.42025532882407
-6.03200874125,-193.02427972,5.384485112328306,-1.7337925065429696,2.3e-06,5.244988106195755e-08,2.4252,33,32,511.04689723174164,1657.1272,mp-1208048,TlVSeO5,https://materialsproject.org/materials/mp-1208048,10.955106815801237,-9.699178947697332,15.083081639988404,-9.791670060343773
-8.092029513863636,-356.04929861,6.183359313428615,-3.39239096875,0.0,0.0,0.018800000000000597,19,44,671.0005539381327,2498.60884,mp-29150,La3MoO7,https://materialsproject.org/materials/mp-29150,22.046959730138134,56.24389609897848,-1.3216457743840064,35.414306136623225
-6.1738576625000015,-74.08629195,4.383810044189695,-2.5793229653600007,0.0,0.0,3.4185,72,12,301.64986569724414,796.3532799999999,mp-1103604,La2NCl3,https://materialsproject.org/materials/mp-1103604,10.19433649647456,12.86556520480828,49.322177009110135,2.819745664110297
-7.084948278333332,-170.03875868,5.988140320852307,-2.6372596507737502,0.0,0.0,4.1964000000000015,145,24,260.88686812259374,940.7952096,mp-558753,BiB2O4F,https://materialsproject.org/materials/mp-558753,4.523940942277288,-4.035948693342206,11.320660629142141,-11.540244789044788
-6.8393673260000005,-136.78734652,7.341585114361358,-0.979357546,1.45e-06,4.9816553438974714e-08,0.0,72,20,339.21242546239347,1499.7279999999998,mp-1208907,Sm2Si5Rh3,https://materialsproject.org/materials/mp-1208907,-45.1986042713341,23.212113145319826,-32.64302332593643,19.613697040207384
-6.605529041111112,-118.89952274,4.312478883016248,-2.6923839104166682,1.00000005,0.04917270592952228,0.0,46,18,237.0027261051353,615.5045,mvc-6231,Ca2YNiO5,https://materialsproject.org/materials/mvc-6231,-24.381563171397588,49.74414791095935,-4.035912211982284,62.22983519277565
-6.714592257857142,-94.00429161,5.7159406197360685,-2.7836285108928576,8.9999999,0.5529787247110604,0.0,38,14,189.67561879064255,652.9052,mp-1218432,Sr3Sm(FeO4)2,https://materialsproject.org/materials/mp-1218432,-23.015281075589122,39.07052200497096,-14.21991000251922,59.473095251680114
-6.531122574375,-104.49796119,7.480349210224383,-1.8881668323437504,0.0,0.0,3.0671000000000004,12,16,301.1193689548878,1356.474,mp-22681,Pb2WO5,https://materialsproject.org/materials/mp-22681,19.296603795569066,-12.67354145375707,35.07792536226933,-3.3195167380931907
-7.76063771875,-186.25530525,6.090225633687932,-2.393395220944998,9.013286025,0.2962261833158396,0.0,55,24,354.5986987820072,1300.53316,mp-1213099,ErMn2O3,https://materialsproject.org/materials/mp-1213099,2.1641935187659063,18.945648609424094,4.3968735425034575,47.2757935172736
-6.837502054,-136.75004108,7.093668314169188,-0.9677429809999999,2e-07,6.749347996233834e-09,0.0,72,20,345.3389802707672,1475.256,mp-1209907,Nd2Si5Rh3,https://materialsproject.org/materials/mp-1209907,-45.14896622231574,23.288084066885084,-27.7300326196633,30.701481225284557
-3.2585605437500003,-78.20545305,3.117618587175243,-1.5897989782378736,0.0,0.0,0.16699999999999993,68,24,672.8896997028946,1263.3328,mp-27804,Rb3Cu2Cl7,https://materialsproject.org/materials/mp-27804,2.8454175955226213,12.739254599864267,3.5685127786414927,20.785886257207782
-4.7518160830000005,-47.51816083,7.686920639423456,-0.34409403800000005,3e-07,1.5817226631326618e-08,0.0,127,10,221.03871388195907,1023.2262,mp-11990,Pr2CdNi2,https://materialsproject.org/materials/mp-11990,-44.15768909248344,35.12944666104634,-38.09524621713193,38.449342501194884
-8.18631867892857,-229.21692301,7.231434054060153,-3.3667517677083327,0.0,0.0,3.8085,173,28,362.68606748923975,1579.4512,mp-561186,Sm3BWO9,https://materialsproject.org/materials/mp-561186,3.619721914062192,18.28410657448996,2.958435855823484,37.074194108358
-5.323197617575758,-175.66552138,5.182655548085736,-1.931672809932424,5.0000003,0.0913135181379534,0.0,191,33,638.1347312780682,1991.662,mp-559813,Ba9Cu7Cl2O15,https://materialsproject.org/materials/mp-559813,-13.457331386941929,18.098572524319188,-14.140778183447013,26.41119892304358
-7.339859710000002,-36.69929855,6.090751321444714,-0.5492968489999995,3.5546288,0.4950158629377474,0.0,139,5,83.68595307584273,306.95474,mp-5423,Pr(MnSi)2,https://materialsproject.org/materials/mp-5423,-59.41454716343193,16.35344714826842,-60.34009651719494,26.79065063145818
-6.47280513625,-51.78244109,7.198163501287462,-2.9843890521767236,8e-07,6.17199719938971e-08,2.8477,194,8,151.05729177857762,654.8085037999999,mp-754138,CsDyO2,https://materialsproject.org/materials/mp-754138,0.17849822269289622,63.50998092675579,-11.129301950854378,50.77431405748626
-8.867556299090909,-390.17247716,7.816436557724717,-3.8139734989772736,0.0,0.0,3.4923999999999995,62,44,632.2473716509521,2976.0947200000005,mp-770927,Sm3TaO7,https://materialsproject.org/materials/mp-770927,19.664488371089508,56.19293221082866,-2.613052570673948,37.632774402310545
-6.715705013888888,-241.76538050000002,4.8747426234764095,-1.1325112538355548,8.6475e-05,1.3256808104744447e-06,1.6155,52,36,760.2020359987149,2231.678496,mp-1247132,Ba3Sc2N4,https://materialsproject.org/materials/mp-1247132,5.008296506502124,23.194201503630442,3.298599263273322,24.647176906546502
-7.6235175003125,-243.95256001,5.7580922814006055,-1.6632877015104173,7.000000175,0.10739686702361018,0.9583,4,32,759.5980935779527,2633.9856,mp-1200242,GdAgS2,https://materialsproject.org/materials/mp-1200242,-3.6264401710919865,8.822878415399508,1.1786063990021254,18.684419686589628
-8.008126706842107,-152.15440743,7.702544332262661,-3.145687549736842,7.699999999999999e-06,3.5015412739252283e-07,0.0,12,19,256.27657002630514,1188.75955,mp-677244,Tb5(RuO6)2,https://materialsproject.org/materials/mp-677244,9.681036940557721,22.71490588759271,1.7620716533524052,35.52111427448305
-7.842289516428571,-109.79205323,6.46377768655432,-3.615592124285714,3.0299999999999998e-05,1.915629388518153e-06,2.516,65,14,184.3353232755087,717.5396186,mp-1222363,LiLa4AlO8,https://materialsproject.org/materials/mp-1222363,-7.1637596260594885,19.058390609567827,-9.626937135971117,44.897844393613354
-6.758166113571429,-189.22865118,3.3338589554104603,-2.479557737448981,3.99999985,0.1483152839728442,3.6406,19,28,314.3051484206055,631.029448,mp-765590,LiFePO4,https://materialsproject.org/materials/mp-765590,0.6758931865317965,17.124462782209502,46.50386129904104,26.613694273233556
-7.39942685763158,-281.17822059,2.8477782961056453,-3.179903503684211,1.0005018,0.0242986276824796,0.5989,53,38,479.8589012773706,822.9446772000001,mp-1214160,Ca2Al(SiO3)4,https://materialsproject.org/materials/mp-1214160,29.282238689081158,11.970812879254005,46.54407087886287,24.05044385719814
-6.48289567,-32.41447835,4.68081755250197,-0.4762002160985226,3.5887860000000003,0.38688663950060576,0.0,139,5,108.10387392245406,304.7290659,mp-11181,Cs(MnP)2,https://materialsproject.org/materials/mp-11181,-9.748198571903814,20.53215249202827,-1.37369715268356,18.820700318681528
-5.164318335714285,-36.15022835,3.8106622358512987,-2.9937948237728067,4.9999995,0.4429785981572797,3.0223,139,7,131.54206157625066,301.8672578,mp-1206523,Rb2MnF4,https://materialsproject.org/materials/mp-1206523,-24.201187148999576,-17.80344035692769,-35.66060854875786,-18.319889879414067