energy_per_atom,energy,density,formation_energy_per_atom,total_magnetization_uB,total_magnetization_T,band_gap,sgr,num_sites,cell_volume,weight,mp_id,formula,URL,tsne_xrd_lin1_0,tsne_xrd_lin1_1,tsne_xrd_lin2_0,tsne_xrd_lin2_1
-7.315510993333333,-263.35839576,9.94103640501691,-0.5790968962962969,5.735e-05,1.5882103448565518e-06,0.0,142,36,420.82625696954835,2519.332000000001,mp-1006099,Lu(BRh)4,https://materialsproject.org/materials/mp-1006099,-58.18999403693612,-12.01349110001595,-57.85843395746414,-1.4167343301785775
-7.010493178333332,-168.25183628,8.921875257920723,-0.1454303195833333,17.962269,0.6178743360001049,0.005700000000000038,166,24,338.79615027108923,1820.310705,mp-542327,Ce5Co19,https://materialsproject.org/materials/mp-542327,-63.67861729116794,-16.587444424605373,-53.27313911873811,1.5287070248218102
-7.563378245,-30.25351298,6.86823442315303,-0.2692292349999992,2.0012638,0.4927032798472923,0.0,216,4,47.33651856226245,195.7908236,mp-13079,Mn2AlCo,https://materialsproject.org/materials/mp-13079,-50.6379967975434,-52.09800416117538,-70.66860349908463,-44.2657921972438
-5.834157831428572,-122.51731446,8.411890799342894,-0.5274276940476189,2e-07,7.816388367668178e-09,0.0,174,21,298.19564290755386,1510.5873,mp-861597,Pr2Ni12As7,https://materialsproject.org/materials/mp-861597,-51.41873996766966,-0.9864423430478048,-55.54895341821378,18.204891354436334
-8.682293387619048,-182.32816114,7.810412863579312,-0.7035625316666658,1.3178056999999999,0.06012370274840961,0.0,174,21,255.43657964170558,1201.456334,mp-1191833,Gd2Fe12P7,https://materialsproject.org/materials/mp-1191833,-63.81924758631522,-30.13830129007984,-65.92582027820836,-17.37349547674026
-6.079653780666666,-182.38961342,9.3774042701586,-0.2973953673333322,5.11349485,0.11735687686661984,0.0,186,30,507.7929967732518,2867.61112,mp-1213577,Dy3(Co2Sn)4,https://materialsproject.org/materials/mp-1213577,-52.505793340013284,-3.2622204934341146,-44.2695605410672,4.083028396180636
-2.736426841666667,-16.41856105,8.596271896021827,-0.11180970388888883,1.4e-06,1.4985115233755727e-07,0.0,189,6,108.87931408649142,563.646,mp-1185833,MgAg5,https://materialsproject.org/materials/mp-1185833,-48.24373239500007,-32.76520299985553,-57.62251443689065,-27.92293058389991
-3.92746219,-47.12954628,2.6684603870256502,0.2241942400000004,1.1375e-05,6.617807485387282e-07,0.0,11,12,200.31556838209931,321.904,mp-1100460,MgSi2,https://materialsproject.org/materials/mp-1100460,-61.953221834063825,-26.20848441594749,-61.77001372508666,-21.765604726351782
-8.076101040625,-258.4352333,7.8273517477327506,0.03734839523437472,65.5828267,1.7555252304472695,0.0,12,32,435.37198843597855,2052.231,mp-13494,Nd3Fe29,https://materialsproject.org/materials/mp-13494,-52.97332352308833,-25.213027600889397,-51.563517923278596,-10.656216512275801
-9.510464966388888,-342.37673879,9.359108240627982,-0.8607722384920637,20.9740103,0.4475465970487312,0.0,189,36,546.1609499176218,3078.265144,mp-1199296,Gd5P12Ru19,https://materialsproject.org/materials/mp-1199296,-51.00306604445842,2.3039337201197605,-54.724448279158274,20.50980734866551
-6.0268871825,-96.43019492,3.579244844046797,-2.4413379990750004,12.999999699999998,0.9704281309146052,0.6642000000000001,1,16,156.11958652133134,336.5113446000001,mp-759593,Li5Mn3O5F3,https://materialsproject.org/materials/mp-759593,-1.6205470919320304,-62.21576652780116,-25.761915615216605,-72.54084633618784
-4.809601506666667,-57.71521808,3.2473755564499616,-2.769327707475,1.9999784999999999,0.22301133046374508,1.9047,123,12,104.51432639883708,204.389816,mp-753377,Li5NiOF5,https://materialsproject.org/materials/mp-753377,-9.344679012140164,-56.525668559361456,-32.17196789838379,-26.63093614348124
-6.956421018333334,-41.73852611,7.880142651797242,0.26570645833333256,3.7128611000000005,0.4492277214704981,0.0,194,6,96.32068922478302,457.093,mp-1077808,VFeSb,https://materialsproject.org/materials/mp-1077808,-36.003000651153116,-58.44875342771425,-52.671268059458406,-32.56747155820254
-8.898267529444443,-320.33763106,10.990169650965383,-0.21938375094907292,0.04975555,0.0013874170147493029,0.0,142,36,417.9380794166692,2766.0959999999995,mp-1202529,Pu(BRu)4,https://materialsproject.org/materials/mp-1202529,-58.216417317974965,-12.021390546782387,-57.88768990045613,-1.4026727307251408
-6.298687591666668,-37.79212555,9.291086588801967,-0.11246568916666652,5.241569,0.7362791495439813,0.0,187,6,82.96525125514506,464.2091,mp-1223858,HoCo4Cu,https://materialsproject.org/materials/mp-1223858,-53.28126550310542,-17.133574739059007,-54.013488751334144,-14.306101873254102
-5.0774566425,-20.30982657,8.555489544667292,0.1119702775000011,2.5430454,0.6194986213598961,0.0,65,4,47.84000284956654,246.483,mp-1224953,FeCu3,https://materialsproject.org/materials/mp-1224953,-49.99989522342002,-51.70800409971866,-69.66037160045606,-43.62959652645688
-4.98435511,-29.90613066,6.833753112102483,-0.7231865000000001,1.75e-06,1.935827353709833e-07,0.0,63,6,105.35347231712109,433.569824,mp-1071720,ScZnPd,https://materialsproject.org/materials/mp-1071720,-57.19303947301386,-29.58684177251285,-50.42681830483517,-25.937981685623456
-4.47784898775,-179.11395951,4.92291908959637,-2.753792618583,1.999819275,0.04326275970285383,0.5718,14,40,538.7086613137623,1597.0832896,mvc-10388,BaZnCuF7,https://materialsproject.org/materials/mvc-10388,10.996857289935928,-12.158812141794233,12.006213592917588,-7.224220545144106
-6.862120560499999,-274.48482242,7.3804306302857725,-0.6980304780000004,0.000559875,1.1284470170918013e-05,0.0,128,40,578.2123055588753,2569.922,mp-680269,Er2Fe3Si5,https://materialsproject.org/materials/mp-680269,-35.824758402528275,1.1137751164783205,-22.19714814336035,15.975883029039636
-8.184333636666667,-171.87100637,7.515646634469224,-0.7122205916666671,16.2026938,0.7059671917428684,0.0,174,21,267.4731138269767,1210.5908740000002,mp-1191019,Er2Mn12P7,https://materialsproject.org/materials/mp-1191019,-62.98021710392079,-29.53232779240013,-65.11600655953676,-17.50015640721267
-6.9768716425,-27.90748657,9.51746985288088,-0.24952651874999976,1.5399999999999998e-05,3.595775012828e-06,0.0,225,4,49.912076494537935,286.073782,mp-1183409,BeAsRu2,https://materialsproject.org/materials/mp-1183409,-37.734490007638094,-30.091936107303926,-62.025455121776794,-41.7596069463479
-3.6569810508333336,-87.76754522,7.585219952742526,-0.1877195333333332,5e-08,1.6770830385048593e-09,0.0,194,24,347.4504393935508,1587.128,mp-13227,YbMg2Cu9,https://materialsproject.org/materials/mp-13227,-56.90473404207565,-19.366321847542647,-57.298842262651746,-21.74276009791856
-5.807861083055554,-418.16599798,9.120222797884164,-0.616582242222222,1.5e-07,1.6374696889875923e-09,0.0,175,72,1067.567679353361,5863.430399999998,mp-570035,ErNi3Ge2,https://materialsproject.org/materials/mp-570035,-55.81014955038985,-6.3919345432282535,-43.74709827176454,0.2558594680136192
-3.04779266,-24.38234128,8.177007754171399,-0.06018284601562485,1.245e-05,1.0044200094760369e-06,0.0,194,8,144.4546156483452,711.3392,mp-1183254,Ag3S,https://materialsproject.org/materials/mp-1183254,-47.069048611574935,-32.08539541887688,-57.07347775336775,-27.96133134339939
-2.948741438571429,-41.28238014,9.62060778205902,-0.4549344985714287,3.7000000000000006e-06,1.3468539312132586e-07,0.0,136,14,320.1537944031386,1854.864,mp-1104117,Sr(Cd2Pt)2,https://materialsproject.org/materials/mp-1104117,-46.53046314528174,-16.190296984790972,-44.505692523302336,-14.406857860863948
-7.883692984166667,-94.60431581,6.601247659211143,-0.8560818291666669,2.84e-05,1.8454444299481861e-06,0.0,62,12,179.34728034589904,712.97078,mp-1102565,ZrCoSi,https://materialsproject.org/materials/mp-1102565,-52.10838603926289,-8.673374962599585,-58.06166839019488,1.3311251330549914
-5.336102755,-85.37764408,4.0967726759715815,-2.3391198725215507,0.0040647,0.00024294377380299555,0.7731000000000003,123,16,194.98452806383176,481.05300000000005,mp-1033567,RbMg6SbO8,https://materialsproject.org/materials/mp-1033567,-33.16663315534193,-7.105730018464673,-44.763174024417886,-10.187993780418298
-6.210867385625,-198.74775634,4.243003942512268,-2.88258787125,2.0198307,0.06964273542833486,0.0,123,32,337.9999028273005,863.65625,mp-1035801,YHfMg14O16,https://materialsproject.org/materials/mp-1035801,-18.98952564284419,-57.319605498414795,-35.746104262453024,-56.57390208843086
-7.100283464285713,-149.10595275,8.397920593169577,-0.8076716045238092,4.9175977,0.2296857098371025,0.0,174,21,249.5148791008196,1261.883094,mp-979046,Tm2Co12P7,https://materialsproject.org/materials/mp-979046,-63.86385417387853,-30.16853432187213,-65.77513418539941,-17.507565805720773
-4.070597485833333,-97.69433966,8.603089427315465,-0.14039392951388882,1.5e-06,4.787936716096458e-08,0.0,127,24,365.10710553191376,1891.584,mp-1210539,NdIn2Cu9,https://materialsproject.org/materials/mp-1210539,-56.099124269085706,-20.270627310412284,-50.41847901641383,-21.922017442694912
-6.753201044615384,-87.79161358,8.60431823684041,-0.3903850692307698,6.372146,0.4807816207982408,0.0,71,13,154.45973600428212,800.355,mp-1225143,Gd(SiNi5)2,https://materialsproject.org/materials/mp-1225143,-57.3604275630391,-23.00165632239869,-55.277065705000574,-8.17404233672165
-7.364335644264706,-500.77482381,7.878312292316233,-0.4457933783823536,2.2e-06,2.481476657102545e-08,0.0,61,68,1033.2131243808763,4902.008,mp-680655,Zr7Ni10,https://materialsproject.org/materials/mp-680655,-61.89131490699336,-27.053726119348454,-62.98273064525024,-14.415139706803167
-3.89119945375,-31.12959563,9.397324822526024,0.34526344374999995,2.9618716,0.2574036543166273,0.0,194,8,134.10005217697986,758.8992000000002,mp-1184294,FeAg3,https://materialsproject.org/materials/mp-1184294,-50.029666915930136,-34.94168286730429,-59.00596270291248,-27.34700986257637
-4.463311749090909,-49.09642924,6.377357869581128,-0.4614555990909091,2.9100000000000003e-05,1.8431922931569125e-06,0.0,123,11,183.9923518238237,706.6290190000001,mp-1206867,Sc2Ga8Co,https://materialsproject.org/materials/mp-1206867,-50.94786823909199,-32.71074707947212,-55.505175377778045,-29.136931419679406
-6.11810593,-48.94484744,9.244493762248746,0.60768190875,0.00036005,2.8585173086532752e-05,0.0,194,8,146.7909957605605,817.2095999999998,mp-985288,As3W,https://materialsproject.org/materials/mp-985288,-46.430217785700634,-31.278276162326797,-60.61911706490076,-30.438984488128032
-5.14445042875,-164.62241372,6.719479901832563,-0.3685210436206239,0.0001535,4.122438154151626e-06,0.0,44,32,433.9419721279135,1755.9745902,mp-1215380,Zr6Al7Cu16H3,https://materialsproject.org/materials/mp-1215380,-56.982837610801056,-17.777141672579795,-62.181274735337965,-20.50740043666969
-5.807954980714285,-162.62273946,4.107110721267907,-1.8674417858721424,9.80415315,0.452069863422621,0.0,8,28,252.7446421337313,625.12847,mp-1174825,Li4MnCo2O7,https://materialsproject.org/materials/mp-1174825,-1.952465871186684,-76.1747971837191,-19.946553059538054,-76.78026428285442
-7.884994712083333,-189.23987309,10.546802390637325,-0.5956571519444438,0.00025475,1.1953277751907007e-05,0.0,55,24,248.37312931475492,1577.5252799999996,mp-975064,HoReB4,https://materialsproject.org/materials/mp-975064,-37.59110326893621,-11.66409531540625,-38.114103922842936,-10.620637162442288
-5.751724280714287,-80.52413993,5.333595577899064,-1.0052458107142863,1e-07,2.500495410263379e-09,0.0,11,14,466.07023251173104,1497.0019200000004,mp-28747,Y3RuI3,https://materialsproject.org/materials/mp-28747,-0.2508636092803989,-11.867037711420146,-0.0023766912716613802,-0.8110742940957437
-6.786740149000001,-135.73480298,7.8795848943793025,-0.5060571056666674,9.5e-07,3.167456706711403e-08,0.0,136,20,349.53473903756986,1658.6112,mp-1188079,Zr2InNi2,https://materialsproject.org/materials/mp-1188079,-55.01796787797875,-9.408567789083037,-57.09135625804925,-18.6727124043452
-7.875525877333332,-118.13288816,5.925743406697041,-1.3083710454999995,0.5827034000000001,0.026722448769028486,0.0,156,15,254.12578111708908,906.86466,mp-1220475,Nb7S8,https://materialsproject.org/materials/mp-1220475,-61.6270335949055,-29.508652135748196,-56.38826006455582,-20.533933562373395
-2.157856310797101,-297.78417089,9.280542872143217,-0.25450570188405786,0.00282255,1.1999304647756152e-05,0.0,64,138,2741.340560091497,15321.006,mp-1214676,Cd53Pd16,https://materialsproject.org/materials/mp-1214676,-76.52748194561372,2.721458600215988,-65.71488236932024,12.191234921028393
-8.25851939875,-132.13631038,7.383216907610631,-0.15573650993999874,7.0475e-05,4.912134655714328e-06,0.0,33,16,167.20230050914742,743.42778,mp-1247541,MnRhN2,https://materialsproject.org/materials/mp-1247541,2.3201619804317786,-5.226585637628934,-21.86720643293967,16.116905159784267
-7.00594778,-28.02379112,9.441874375479957,-0.2848765412500001,5e-07,1.1674979643395953e-07,0.0,225,4,49.91042866251125,283.792182,mp-862713,BeGeRu2,https://materialsproject.org/materials/mp-862713,-37.730442086344034,-30.088689749572342,-62.030526954786225,-41.74966820165615
-4.391799360749999,-175.67197443,3.3244539850667287,-1.1108097911875001,6.4025e-05,7.32313494056416e-07,0.0517000000000003,194,40,1018.8962829703805,2039.864,mp-1100344,CaSnS3,https://materialsproject.org/materials/mp-1100344,-5.965423426745968,-2.092707715341521,-1.1580099000755195,-50.662063555537955
-8.299551493181818,-182.59013285,8.140766410028649,-0.08820289755681833,34.6935467,1.50706319558625,0.0,166,22,268.2839323631304,1315.25774,mp-1190608,Ho2Fe17C3,https://materialsproject.org/materials/mp-1190608,-52.046794649606646,-23.36574146515338,-56.207516072945396,-11.108740955035627
-6.209004085416668,-149.01609805,9.035775443022162,-0.3917309179166679,8.333333333333333e-08,2.7855093691735863e-09,0.0,194,24,348.65151599475854,1897.1772,mp-580354,CeNi3,https://materialsproject.org/materials/mp-580354,-63.50354029932529,-16.511754214006185,-53.336995912316674,1.8105074450727767
-8.342839423333333,-50.05703654,9.006840344422159,-0.07060938166666612,14.005134400000001,1.9589817437519224,0.0,191,6,83.3171334886483,451.915975,mp-1077071,GdCo5,https://materialsproject.org/materials/mp-1077071,-53.132471725484095,-16.976695913796608,-54.11924867226285,-14.409872267630545
-5.461666728333332,-65.54000074,7.6611627977815715,-0.2681240574999997,1.31e-05,8.927143826164473e-07,0.0,47,12,171.0157823077502,789.0087,mp-1216156,Y2(CuNi)5,https://materialsproject.org/materials/mp-1216156,-52.61077892136093,-16.56162912679456,-55.12381230390599,-15.662852182794056
-7.618278925555557,-274.25804132,6.777269716900423,-0.6511136432800002,3.825e-06,8.289713876214365e-08,0.0,52,36,537.7362647333922,2194.6992,mp-1247515,Ca3(ReN2)2,https://materialsproject.org/materials/mp-1247515,12.142195445063964,-49.5401355790134,-2.391353184041076,-50.584331124577425
-7.370636884166667,-88.44764261,5.340660044647836,-0.9075624500520832,9.209999999999999e-05,3.1625346226984827e-06,1.3682,156,12,339.3921311877699,1091.56,mp-1027140,MoW3(SeS)4,https://materialsproject.org/materials/mp-1027140,-7.065961161067951,-81.98990260301622,-21.69698221806437,-51.024727687982036
-6.690935233333334,-40.1456114,7.964178227318407,-0.2494392366666661,3.2099322999999997,0.443306552476098,0.0,65,6,84.38575683301794,404.72593,mp-1219690,PrCo4Si,https://materialsproject.org/materials/mp-1219690,-53.97767561098146,-15.842169173881473,-53.97253511036911,-4.7555266050071605
-8.0995289275,-291.58304139,9.57576153556385,-0.50134817712963,4.0025e-05,1.1023667031710884e-06,0.0,142,36,423.13863542856626,2440.096,mp-1202990,Dy(BRu)4,https://materialsproject.org/materials/mp-1202990,-58.15881887189821,-12.003733634820097,-57.86040891245931,-1.3821037739535884
-7.1241166297435905,-277.84054856,7.683859248621707,-0.7744693558424915,40.347645899999996,0.874422442862978,0.0,174,39,537.7424636990763,2488.3109059999997,mp-1212839,Eu6Ni20P13,https://materialsproject.org/materials/mp-1212839,-51.46354916237581,-0.2972557068675699,-55.81489706491094,19.777172431085067
-8.433188206666667,-101.19825848,11.515671436111205,-0.7520188840476187,2.75e-07,2.0532336429095806e-08,0.0,62,12,156.08880282676387,1082.460168,mp-1102041,TaNiP,https://materialsproject.org/materials/mp-1102041,-63.05857963025061,-24.75732790045573,-59.21684282405744,2.2107322710970374
-7.085966837142857,-892.83182148,5.856950862333492,-0.6329445082242923,2.95e-06,1.1093375351416367e-08,0.0,176,126,3099.1010391315776,10930.958,mp-568072,Rb5Mo27Se31,https://materialsproject.org/materials/mp-568072,-5.22963268594683,-51.68012193518385,-1.2452363785024678,-55.25851367722724
-4.97579670875,-39.80637367,11.567135256536233,-0.2153413818750005,0.00044400000000000006,3.927148152156487e-05,0.0,166,8,131.7598562248058,917.8249,mp-1216622,TlAsPd6,https://materialsproject.org/materials/mp-1216622,-38.61641924498201,-62.045405221711455,-53.32156935467623,-33.11185724035393
-5.999943056923077,-155.99851948,6.897241693865247,-0.17764208846153906,1.545e-05,4.71129629407555e-07,0.0,8,26,382.1778328025486,1587.42,mp-1216505,V6Ga7,https://materialsproject.org/materials/mp-1216505,-59.53193844810993,-30.39503138167192,-50.63760295940307,-24.85743863448945
-7.698207479019607,-392.60858143,7.169108482863963,0.15418164656862735,3.4966666666666665e-05,4.0794853892914034e-07,0.0,164,51,998.9098117216683,4312.6314,mp-29735,Nb10Ge7,https://materialsproject.org/materials/mp-29735,-57.08336511137247,-6.759557673084732,-41.37279434483077,0.5054779056310718
-5.902485109166666,-70.82982131,8.577437162483733,-0.2796307837500009,2.3375347,0.16172755803970176,0.0,47,12,168.4424171866766,870.08147,mp-1222868,LaNdNi10,https://materialsproject.org/materials/mp-1222868,-52.72215245820901,-16.98393113894144,-54.33778814043522,-14.968185982226476
-5.6479818,-90.3677088,3.7186045859079515,-2.5560732881249995,0.0,0.0,0.0,123,16,195.64816878985692,438.1337386,mp-1033059,BaMg6AlO8,https://materialsproject.org/materials/mp-1033059,-33.859603374032595,-7.5268286916573475,-44.648398310458965,-10.30693956809448
-5.42563955625,-43.40511645,17.270662585345956,-0.4818663812499997,1.885e-05,1.484814922050163e-06,0.0,59,8,147.9505072992043,1538.779414,mp-1079296,HfAu3,https://materialsproject.org/materials/mp-1079296,-62.24356047464075,-20.613709791946427,-59.37856374953932,-28.749617866345467
-6.44034756,-38.64208536,7.049924952305148,-0.6060596875000014,1.7e-06,2.3911630347952946e-07,0.0,65,6,82.8547021890858,351.76495,mp-1072437,YSiNi4,https://materialsproject.org/materials/mp-1072437,-54.12970852153821,-15.912780266384015,-54.4045002216312,-5.160071147624243
-1.4551053391666666,-17.46126407,4.022991977750669,-0.016524446666666453,3.3333333333333334e-08,1.7484160230830873e-09,0.0,38,12,222.1832908319951,538.2840000000001,mp-1094474,MgZn,https://materialsproject.org/materials/mp-1094474,-48.845208393933,-30.45633844307085,-56.26080103607318,-26.398737087556945
-6.3151655290476185,-132.61847611,8.013019535507109,-0.7740340164285713,2.4e-06,1.0788951563736243e-07,0.0,174,21,259.2444250853348,1250.997774,mp-28412,Ho2Ni12P7,https://materialsproject.org/materials/mp-28412,-63.56029030933711,-30.075330478773036,-65.86360692301125,-17.41310843136558
-6.271851780555554,-112.89333205,8.980367593489268,-0.25549999722222183,4.2611717,0.19277719926121697,0.0,191,18,257.60292809061946,1393.14339,mp-1208354,TbGaCo4,https://materialsproject.org/materials/mp-1208354,-51.62391707566805,-16.99467205368454,-53.922259294695905,-16.33325173230729
-3.8728036919999997,-19.36401846,7.215862373491674,-0.3636559588125003,0.0,0.0,0.8087,160,5,162.28898394975505,705.2257999999998,mp-1227335,Bi2Te2S,https://materialsproject.org/materials/mp-1227335,-22.296027088634023,-35.82133414111965,-32.74010192255861,-22.756975441059545
-9.062966750789473,-344.39273653,8.05598812002439,-0.011180335526316148,25.53958995,0.5712554961037188,0.0,194,38,521.0278720677272,2527.73,mp-1196805,Gd2Fe17,https://materialsproject.org/materials/mp-1196805,-54.00453792257679,-22.55109531706687,-55.16486811648798,-9.739851325452948