energy_per_atom,energy,density,formation_energy_per_atom,total_magnetization_uB,total_magnetization_T,band_gap,sgr,num_sites,cell_volume,weight,mp_id,formula,URL,tsne_xrd_lin1_0,tsne_xrd_lin1_1,tsne_xrd_lin2_0,tsne_xrd_lin2_1
-7.518647438695653,-345.85778218,7.390619654255795,-3.6268717105978268,0.0,0.0,2.529,45,46,795.7810819789156,3541.8109200000004,mp-772408,Ba4Tm6O13,https://materialsproject.org/materials/mp-772408,-21.253851205481,12.930393907569098,-28.468200782121052,47.90677649646885
-7.113837032307693,-184.95976284,4.713451561241845,-2.9121322531730773,8.0,0.2570263876105905,1.3778999999999997,46,26,362.7352002539524,1029.6263772,mp-1267614,Sr2YAlFe2O7,https://materialsproject.org/materials/mp-1267614,-21.480350283802654,42.416533002573416,-8.891401278031367,61.76121685050207
-7.558467013055557,-272.10481247,5.590234002929959,-2.954503171111112,0.0,0.0,1.6015,15,36,476.94162403424906,1605.6324,mp-768519,Y2TeO6,https://materialsproject.org/materials/mp-768519,21.33172086235359,55.94284837108872,-1.5613129225079831,35.577187382408425
-6.961117322500002,-167.06681574,2.8484391057015714,-2.652880702207977,4.99999975,0.20586954639108196,3.8567,2,24,283.04487949173665,485.52673799999997,mp-1177902,Li2MnP2O7,https://materialsproject.org/materials/mp-1177902,58.917286821908725,-17.90869327264561,65.96380621405415,-12.035032625544527
-5.920665501923077,-153.93730305,3.1826337319147986,-2.1354647169423084,0.0,0.0,3.0938,194,26,522.8714149307349,1002.1494,mp-557902,K3Mo2BrO7,https://materialsproject.org/materials/mp-557902,-19.349148724600024,5.073532215527846,-6.80781640952052,0.2502102461312441
-4.278714241896552,-496.33085206,2.3164277735136034,-1.094707678399015,0.000236225,1.0974890529020498e-06,2.5348,1,116,2508.4363653726723,3499.2321920000004,mp-1147611,Li6Zn3(PS4)4,https://materialsproject.org/materials/mp-1147611,-16.746343294652238,-1.065680532253285,-9.590813675508764,-3.4636755824725247
-4.986628073333333,-119.67907376,7.643031393224063,-1.5533050163541668,0.00061035,2.2542210298586723e-05,0.0,36,24,315.54396572982733,1452.3672,mvc-14357,Zn3Bi2O7,https://materialsproject.org/materials/mvc-14357,-25.457134865192856,43.62415781365136,-9.972780801237867,63.02531842597705
-3.33908986,-10.01726958,7.931005412212074,-0.04937624916666709,0.0,0.0,0.03190000000000004,12,3,48.697833703662646,232.5888,mp-1181027,HgO2,https://materialsproject.org/materials/mp-1181027,7.324384720533413,-19.173271546641526,12.90213658162367,-11.195270939407578
-1.43767431,-5.75069724,2.151525922494016,0.1029492905,2.0399999999999998e-05,1.020136098600628e-06,0.0,139,4,233.05019956292276,301.9583,mp-974738,KSr3,https://materialsproject.org/materials/mp-974738,-14.853579798576591,-41.974483686715004,-13.62761951764816,-30.047665791075286
-7.302214953571428,-102.23100935,3.7502893603625145,-2.73675224618,0.0,0.0,2.7862,12,14,251.75942909790547,568.5929,mp-560118,YMoClO4,https://materialsproject.org/materials/mp-560118,18.90921333351948,-3.4701559123283796,37.36116416039359,-16.919730231239598
-5.916692599375,-94.66708159,7.483202669657923,-1.74423827859375,0.0,0.0,2.2765000000000004,12,16,253.45623446767087,1142.198,mp-554493,BiAsPbO5,https://materialsproject.org/materials/mp-554493,9.337567772411528,20.711707844802838,37.4583813089186,-4.1584255158037715
-1.2964877525,-5.18595101,2.5664753200115027,0.6449988766163792,0.6713901,0.029730245374170162,0.0,139,4,263.18059654674903,406.7634,mp-1186874,Rb3Sm,https://materialsproject.org/materials/mp-1186874,-4.945409920382791,-36.95568733641699,-10.456980638376566,-33.0801462166526
-6.180001981842105,-469.68015062,4.209757819515144,-2.1604387359836847,2.00002095,0.022916303238158343,0.0,6,76,1017.1088004702775,2578.549268,mp-1198745,Cd6P7NO24,https://materialsproject.org/materials/mp-1198745,7.601022377398433,29.16876942046299,31.636476867071423,-4.353482969675613
-5.87618719625,-141.02849271,5.652938869760317,-1.853354961953125,0.9999976999999999,0.02390300717500752,0.0,173,24,487.55530561007964,1659.7744899999998,mp-1192199,Tb3GaCoS7,https://materialsproject.org/materials/mp-1192199,7.077328622847498,-6.438858456140999,12.100425123893125,-11.888214539019813
-7.1243299375,-199.48123825,2.8358614515522538,-2.5954975272289795,5.0,0.15861260916236367,3.4921,37,28,367.3751044795568,627.4016280000002,mp-757345,LiMnPO4,https://materialsproject.org/materials/mp-757345,26.58937500929083,-23.800992266399568,6.432003665776594,-41.97893971295081
-7.315746305,-1111.99343836,3.128934653503581,-2.858490242057645,3.0000028625,0.017786893748188284,2.3967,1,152,1965.617390670062,3703.790288,mp-706337,K2TiCr(PO4)3,https://materialsproject.org/materials/mp-706337,7.970652158009203,30.338344697395616,70.42561815422323,-23.25104508677638
-6.7585366065,-270.34146426,3.946017429717,-2.328262609553573,0.0,0.0,0.0,14,40,644.5585245068594,1531.6948960000002,mp-26594,BiP2O7,https://materialsproject.org/materials/mp-26594,39.45629204466892,-35.46262840849711,49.91332177008172,-33.017224164772664
-8.535351239,-85.35351239,7.452341546252959,-3.3592283492500004,0.99999995,0.08926284425826718,0.41000000000000014,161,10,130.5589608609979,585.93622,mp-8007,LiUO3,https://materialsproject.org/materials/mp-8007,3.422112991091488,-36.928026412263385,-0.6565184017862137,-24.469799497979828
-4.952245525,-29.71347315,4.186370171702687,-0.759263966822917,0.3733224,0.0212867721787231,0.0,123,6,204.38624485285487,515.27634,mp-1211335,La2CuSe2O,https://materialsproject.org/materials/mp-1211335,-7.843102044051614,-34.37191508776677,16.582269028225976,-18.173604501932523
-7.037236260416668,-168.89367025,3.1348104953657745,-2.482213724416667,0.0,0.0,3.0522,12,24,441.5001924196217,833.4760000000001,mp-1223759,K2MgZr(MoO4)4,https://materialsproject.org/materials/mp-1223759,2.195287309112865,-17.84755761597821,33.84179430270496,1.6443239718722575
-5.263678395625,-168.43770866,7.8504795805935075,-1.498746544375,1.8425e-05,3.103144121646409e-07,2.3641,52,32,691.9631670877308,3271.3730800000003,mp-772910,Bi3IO4,https://materialsproject.org/materials/mp-772910,7.140350902685382,28.13156586657895,32.023543306200395,-5.3136034027904815
-5.179905051428571,-145.03734144,5.639468379071529,-1.382044105,4.275e-06,5.526980893521067e-08,0.0,214,28,901.4166660336183,3061.3618,mp-1209787,Pr3RhBr3,https://materialsproject.org/materials/mp-1209787,-27.86537086851265,-39.36084551779871,-35.03427490788061,-18.073604745552245
-7.05497833875,-395.07878697,4.20855212040293,-2.732699713858572,0.0002053125,2.231912073508397e-06,2.6382,55,56,1072.0517183524078,2717.0608,mp-1199278,NdMoClO4,https://materialsproject.org/materials/mp-1199278,35.0582857673802,-8.893030636734391,39.27171743386689,-11.665052346958433
-8.296323730500001,-331.85294922,6.371937428568401,-3.275975201208334,12.744188000000001,0.2986884392284123,0.0,38,40,497.2458686695297,1908.0668899999998,mp-1099746,La7SmTi2V6O24,https://materialsproject.org/materials/mp-1099746,-29.304051277499838,46.893036888597486,-14.557963962066175,65.48864113526307
-3.8248408455555554,-34.42356761,6.288936771821313,-0.08019733388888915,0.0009605000000000001,3.96174654226486e-05,0.0964999999999998,164,9,282.5453141594548,1070.08,mp-1224378,Ge(SbTe)4,https://materialsproject.org/materials/mp-1224378,-22.939887918154522,-36.40661435327575,-32.760426665344625,-22.808286217139262
-8.39852533,-50.39115198,4.7627911728512915,-2.0428965546875,6.99999975,0.3699723767045003,1.5051,59,6,220.49876053194905,632.43894,mp-556135,GdSI,https://materialsproject.org/materials/mp-556135,-4.791236287433791,-19.601398758232587,3.7769450829596467,-22.18292255219126
-6.80402591607143,-762.0509026000001,3.093186942963229,-2.67888066494898,1.9999997625,0.020737612334829698,2.6842,29,112,1123.9542142531045,2093.657792,mp-772643,Li3V(PO4)2,https://materialsproject.org/materials/mp-772643,44.77392142157115,-39.09892013406761,50.01638387896196,-30.129657869151703
-1.857444059512195,-76.15520644,4.987018588405367,-0.5300000269512195,2.0740125,0.014475664007389569,0.0,156,41,1669.7455813950749,5014.66816,mp-703595,Cd13I28,https://materialsproject.org/materials/mp-703595,-18.371323430293685,-29.925961658801988,-6.794821788483991,-22.77408819894851
-5.194765675,-93.50578215,4.889474085907074,-1.8788752374733335,6.99761755,0.421582825934451,0.02069999999999994,14,18,193.4393034169286,569.5839956,mp-759628,Co3(OF2)2,https://materialsproject.org/materials/mp-759628,46.30512604272829,56.130367601610786,69.88204923091449,25.5987481532342
-6.164805907083332,-147.95534177,3.1569001341631204,-2.73162113373,0.0,0.0,2.26,14,24,269.0570864000624,511.51242560000003,mp-765626,LiV(OF)2,https://materialsproject.org/materials/mp-765626,17.049220171252152,-34.42243252113375,28.579505139114925,-39.01894744250247
-4.143499306896552,-120.16147990000002,4.94743380277612,-0.5445607807866385,0.0,0.0,0.3870000000000005,121,29,592.1187212117698,1764.167,mp-1227581,Cd2Cu10Sb4S13,https://materialsproject.org/materials/mp-1227581,20.182613854290132,60.25439594724729,-12.829696294786705,7.263744777164204
-8.06378166388889,-145.14806995,5.735596496826968,-2.9591086372966675,9.9999996,0.4303525438915276,0.04209999999999958,46,18,270.80272840990955,935.36806,mp-1099627,La2Mn2O5,https://materialsproject.org/materials/mp-1099627,-22.53508916399868,32.144502842244144,-14.825971128803262,50.47188033296659
-6.81978144675,-272.79125787,3.366242263888469,-2.366597321303572,7.5e-08,1.4980239989456073e-09,0.0,14,40,583.4718659762364,1182.813296,mp-25950,SbP2O7,https://materialsproject.org/materials/mp-25950,50.339835377304894,-35.82296407294632,50.21594053591035,-32.99106945730237
-3.160019950909091,-34.76021946,5.325851067279219,-0.3663987165625002,0.0001216,3.5779442698842245e-06,0.8885999999999998,8,11,396.07499990186113,1270.33235,mp-1219041,Sn3SbSe2I5,https://materialsproject.org/materials/mp-1219041,10.94484192161124,18.27935155772843,9.410981728060305,-1.3933408373084932
-5.96284397328125,-381.62201429,2.6796683438553086,-2.2364113601222098,1.0800000000000002e-05,1.3915130449395482e-07,5.1114000000000015,14,64,904.5111003548848,1459.640336,mp-1179721,RbP(HO2)2,https://materialsproject.org/materials/mp-1179721,7.686579890365444,-25.255718272907814,21.98284809835195,-16.666300785631066
-5.075747024,-25.37873512,5.5081386421914456,-0.35354584495200003,0.0,0.0,0.987,164,5,95.07444070308031,315.3694,mp-1246360,Ca2PbN2,https://materialsproject.org/materials/mp-1246360,-31.609460957240874,-15.303778241435756,2.1699985775861244,-38.489141884289424
-6.068721944705883,-103.16827306,4.957870178588211,-1.82370197382353,0.0,0.0,1.5985,3,17,225.95717848377197,674.6401799999999,mp-758389,LiNb(TeO4)3,https://materialsproject.org/materials/mp-758389,18.095231723139047,-43.76219328288658,49.83771829528165,-10.757794651002062
-1.2604923275,-5.04196931,3.145306043478762,0.09364431724137924,0.4090667,0.019596812549338097,0.0,139,4,243.26863392170705,460.7867,mp-974758,Rb3Tl,https://materialsproject.org/materials/mp-974758,-21.298507206893138,-45.732173387201264,-15.119777756911807,-28.929904675420605
-4.649826575,-37.1986126,2.9802584082815287,-2.5546054844936896,0.0870084,0.007197981838548753,3.2289999999999996,225,8,140.87303248339737,252.8323812,mp-34418,AgPF6,https://materialsproject.org/materials/mp-34418,1.4580928455135111,-38.32078952878479,4.015865941618455,-33.56596145370037
-4.698861823636364,-51.68748006,2.610307396618343,-0.4387013306490905,1.1e-06,1.002310625683208e-07,0.0,38,11,127.89918535561256,201.0529,mp-1222476,Li6Ni2N3,https://materialsproject.org/materials/mp-1222476,-2.068443929865709,-16.86500910681323,-2.478407070278223,-49.69938009624737
-5.187978768333333,-311.27872610000003,4.865020816223267,-1.6947669450775855,8.175e-06,7.583260644799963e-08,2.6091,122,60,1256.3458382642555,3680.8220151999994,mp-1203081,Cs2Te4O9,https://materialsproject.org/materials/mp-1203081,7.101568779199625,-17.651239974963335,17.93318750717698,-12.933483810111241
-8.478013390370371,-228.90636154,3.3349365257787342,-3.3948005858549393,0.0,0.0,2.7846,12,27,365.0379420682461,733.1224,mp-762279,K2Ti8O17,https://materialsproject.org/materials/mp-762279,29.871257800809087,-29.0405091807899,6.753373498242798,-41.44725805376838
-3.6180327375,-14.47213095,2.043799447729336,0.5098457984374996,8e-07,8.94675131703367e-08,0.0,14,4,104.20823702003729,128.26,mp-1094073,S,https://materialsproject.org/materials/mp-1094073,6.423685295138376,-34.44923555486482,48.76920753585059,-7.571289622673339
-7.535108180508474,-444.57138265,3.6666916602911535,-2.419924555444914,14.014010699999998,0.2319471691158253,0.0,12,59,704.1266726544479,1554.8056,mp-1198472,Li2V18O39,https://materialsproject.org/materials/mp-1198472,18.749702219318927,2.3026116488125665,20.46535008647536,-24.377838897682214
-7.344254282173914,-168.91784849,6.059078089517039,-2.954759166304349,0.0001183,4.298661315564129e-06,0.0,150,23,320.72214147275366,1170.27089,mp-1211938,La3TaGa5O14,https://materialsproject.org/materials/mp-1211938,3.507616176282459,15.206531394926994,28.605129565956393,-1.2946665618976756
-4.286882578181818,-47.15570836,5.430398514607316,-0.8075330440151518,3.0,0.11584489534267167,0.0,8,11,301.8017687724622,986.971,mp-1229084,AgW2(Br3O)2,https://materialsproject.org/materials/mp-1229084,-2.0863518464498223,-8.648626387176996,11.308294172974383,-37.28608480601656
-3.3994494575,-13.59779783,7.9197163121558924,-0.1465122654166664,0.0,0.0,0.0,166,4,119.94230546103506,572.0486000000002,mp-29656,AgBiTe2,https://materialsproject.org/materials/mp-29656,-23.886548752527943,-38.27065525397767,-33.912838410048685,-21.8644972690545
-6.474800853958333,-310.79044099,3.3164398809085376,-2.437395876527777,0.0,0.0,0.07860000000000023,14,48,515.0220769552159,1028.6056,mp-770287,Li3Sn(BO3)2,https://materialsproject.org/materials/mp-770287,33.34458453947765,-26.127591248048617,9.620891143936056,-38.32606476639953
-4.97591953625,-39.80735629,4.436270861122495,-0.6602336614062505,3.9887362,0.2888731582977484,0.0,111,8,160.91834322502345,429.907,mp-628568,FeCu2SnS4,https://materialsproject.org/materials/mp-628568,25.75289026503354,65.60221272251782,-13.268623967578261,7.841991343393942
-7.186980586634616,-747.44598101,2.4718603387988485,-2.94427481275,0.9990945125,0.008870085138187803,0.3258000000000001,62,104,1312.6719734014605,1954.02921024,mp-1195937,NaBeSi3O8,https://materialsproject.org/materials/mp-1195937,61.73767570352435,-20.50039544919904,68.37140295735044,-30.209906963761824
-8.186893550869565,-376.59710334,5.5364521686847,-3.4574626288586963,13.99964855,0.20082952912354715,2.4623,194,46,812.3945303601363,2708.6285544,mp-1214525,Ba5Gd2ZrAl2O13,https://materialsproject.org/materials/mp-1214525,-19.13786868432151,16.766366483230225,-19.158419833586798,47.822411302247225
-5.956797068571428,-166.79031792,2.626433903841399,-2.5849763804757147,1.999999775,0.04603110709125228,2.481,14,28,506.35599262795637,800.890864,mp-1178609,ZrNF5,https://materialsproject.org/materials/mp-1178609,38.514464285034606,-37.70926964548187,44.81383351652364,-34.183150791319605
-8.282343137,-165.64686274,8.042554268204077,-3.8821354207499987,0.0,0.0,4.5279,62,20,298.02428881238257,1443.4328,mp-756452,SmDyO3,https://materialsproject.org/materials/mp-756452,-23.85513852490959,21.23483562365853,-23.191603369192467,55.20969811704628
-5.843799638095239,-122.71979240000002,8.999381764876757,-0.1523936695238096,2.0066666666666665e-05,5.199613925690605e-07,0.0,147,21,449.7607638660156,2437.502955,mp-1217743,Tb4Co3,https://materialsproject.org/materials/mp-1217743,-38.334078577831995,19.265166482664963,-4.495871008089239,44.42808103888605
-4.7504381360000005,-47.50438136,4.164532822585444,-2.6343594972329654,1.0,0.0714638499358903,0.0,225,10,163.0763635462471,408.98578848,mp-1114708,Rb2NaRuF6,https://materialsproject.org/materials/mp-1114708,-22.86066354949378,7.687081110304872,-27.4946221470714,-9.117676897124447
-5.303363033125,-84.85380853,3.6977616151419697,-2.116545520711206,0.0,0.0,3.5526,36,16,284.5244493067923,633.5916,mp-14363,Rb2LiAsO4,https://materialsproject.org/materials/mp-14363,4.1108416243336565,23.822801128634357,39.1932750877943,13.91552698592931
-8.250492037999999,-247.51476114,1.9921107256008184,0.3247490363813341,1.00000005,0.029241978092913595,0.7088999999999999,53,30,398.538885373392,478.11799,mp-1246287,Co(C4N3)2,https://materialsproject.org/materials/mp-1246287,65.26168988764012,-29.479847889790417,61.075386695373524,-30.445571443281864
-5.164653432857143,-36.15257403,2.6979034614709407,0.08845823305285754,2.0002814,0.1255147236558126,0.0,82,7,185.7264894505214,301.7527,mp-1078111,CuMoS4N,https://materialsproject.org/materials/mp-1078111,41.04733433690547,-41.29848963420711,31.33617596148305,-65.08348473060202
-7.0741733304545455,-311.26362654,3.350336780414065,-2.6128788195487016,3.000000075,0.06021415583622713,3.9664,14,44,580.630828518555,1171.49237312,mp-18435,NaMoP2O7,https://materialsproject.org/materials/mp-18435,47.657766597218775,-6.679385205668763,57.036479349883784,-5.320374421687284
-5.419782296666668,-16.25934689,5.975840058572273,-0.6027153074999999,0.051764300000000006,0.00941709749991946,0.0,187,3,64.06055635628401,230.53697000000003,mp-1222888,LaCuSi,https://materialsproject.org/materials/mp-1222888,-55.4099517270508,23.44090334656265,-53.27815821358177,31.952831968203164
-4.552768395,-27.31661037,4.5094347393480065,-3.01154748373,0.0,0.0,4.3112,129,6,171.98335050642535,467.0457464,mp-23046,SrIF,https://materialsproject.org/materials/mp-23046,-14.153948026429038,20.15062514575817,-20.796797006080386,45.15303118625749
-6.75563962,-54.04511696,2.9503224629706515,-3.6869868860125,5.000000099999999,0.39796043049746826,4.4382,225,8,146.42240927160634,260.1524642,mp-1206098,ZrMnF6,https://materialsproject.org/materials/mp-1206098,0.7179366529824409,-38.701123205188715,1.4991278397905907,-34.540666013589075
-2.596873485,-20.77498788,4.7871490238055525,-0.4830178212500002,4.585e-05,1.3061349770976674e-06,2.5272,148,8,409.0992731924262,1179.38762,mp-22849,BiI3,https://materialsproject.org/materials/mp-22849,-2.438564095425688,-29.602739524089547,-8.600126713407175,-23.972783954440235
-5.481696074117647,-93.18883326,2.5729497867543683,-1.9208488382508828,8e-07,3.973642643311518e-08,5.5306,148,17,234.6273345375121,363.5472192,mp-40886,ZnC2S2(OF)6,https://materialsproject.org/materials/mp-40886,3.1438566920552082,-28.550354435199875,17.966976348318102,-16.577700480155265
-9.059452970499999,-181.18905941,6.377305171538062,-3.0835697579760013,0.0,0.0,1.7332,62,20,287.6029204565357,1104.53988,mp-1222900,LaZrNO2,https://materialsproject.org/materials/mp-1222900,-21.75505323387704,29.8299000624692,-23.07981161010743,55.695793173783805
-5.795413421428571,-81.13578790000001,4.920392292089278,-2.2358844001785716,0.0,0.0,1.7644000000000002,20,14,398.0818191028862,1179.568,mp-20797,Yb(NdS2)2,https://materialsproject.org/materials/mp-20797,7.062488421540692,-9.659038823779131,15.80743620469094,-4.744857411770001
-4.521027816666667,-13.56308345,4.732379314265981,-0.45523857,5.0000008000000005,0.5378674127726782,1.1719,164,3,108.33586828707426,308.746985,mp-28013,MnI2,https://materialsproject.org/materials/mp-28013,-17.664086219616454,-36.082655979754044,-12.361111013963876,-29.099351366217924
-3.276306125,-19.65783675,3.7761417852028085,-1.7022488450000004,5e-08,1.9405118922432285e-09,3.8104,136,6,300.2832608020663,682.85788,mp-1187178,SrI2,https://materialsproject.org/materials/mp-1187178,3.2003254484425634,-25.471752796672984,-5.079139666561853,-25.854236950814084
-5.152857480769232,-133.9742945,2.037952362018224,-2.001758016721026,0.0,0.0,3.0810000000000004,148,26,273.2523225176413,335.3580992,mp-685281,TiZnH12(OF)6,https://materialsproject.org/materials/mp-685281,28.55545152308236,-41.247058076184395,6.592693908877307,-37.1189905328995