energy_per_atom,energy,density,formation_energy_per_atom,total_magnetization_uB,total_magnetization_T,band_gap,sgr,num_sites,cell_volume,weight,mp_id,formula,URL,tsne_xrd_lin1_0,tsne_xrd_lin1_1,tsne_xrd_lin2_0,tsne_xrd_lin2_1
-7.3879569866666674,-88.65548384,5.361522299261078,-0.9248825525520832,0.0001864,6.425615716089628e-06,1.5328,156,12,338.0715202382368,1091.56,mp-1029026,MoW3(SeS)4,https://materialsproject.org/materials/mp-1029026,-7.375548860372344,-81.99357214630867,-21.912454434458155,-50.756864691005546
-6.7637947325,-135.27589465,5.245470107820182,-1.102658332,8.999572525,0.2774874860594752,0.0,141,20,377.9687603974285,1193.9640000000004,mp-1237565,DyCr2O2,https://materialsproject.org/materials/mp-1237565,2.07915010982936,-0.4031472204694237,3.732119640025004,-21.747037418017264
-4.882815072142857,-136.71882202,8.886053686977633,-0.7061754164285716,7e-07,1.7240217705084182e-08,0.0,63,28,473.1869098373403,2532.16828,mp-1212406,Ho2(Ga3Rh)3,https://materialsproject.org/materials/mp-1212406,-45.9663009507055,-7.0264175944644345,-42.85560075249587,5.312645388277848
-2.81993396,-5.63986792,9.888476577052216,0.008739613333333285,1.8000000000000001e-06,5.79037650960601e-07,0.0,194,2,36.22789736696205,215.7364,mp-10597,Ag,https://materialsproject.org/materials/mp-10597,-48.009153952940366,-32.59918842003483,-57.783754348122,-28.334153965416174
-4.14309937875,-66.28959006,7.3388597186398865,-0.4959412699999994,3.5600000000000005e-05,1.3438732317150656e-06,0.0,194,16,308.7230968754729,1364.4217,mp-1216009,YLuGa6,https://materialsproject.org/materials/mp-1216009,-68.24516052464044,2.8170429930757197,-67.55011754021236,4.094697989356581
-5.512957970909091,-121.28507536,9.204501392293631,-0.5541208909090911,3.16e-05,1.0424513650478428e-06,0.0,229,22,353.2715857645645,1958.2128,mp-1191661,Dy3(GaNi3)2,https://materialsproject.org/materials/mp-1191661,-46.159982559628155,-19.34933532348645,-54.179484468599796,-19.609306433642672
-8.411519795833334,-100.93823755,4.207863059751337,-0.7631143954166669,0.0,0.0,0.0,194,12,153.59218339304002,389.2078772,mp-3747,Ti3AlC2,https://materialsproject.org/materials/mp-3747,-70.70089956333936,1.8054307415348783,-54.29744009612439,-29.495629397881483
-5.920321416249998,-236.81285665,8.205927674832107,-0.42457983824999984,0.0,0.0,0.0,62,40,1067.7694106611475,5276.6230399999995,mp-28934,Ta2Te5Pd3,https://materialsproject.org/materials/mp-28934,31.941661729265046,-51.51594428090004,0.9222173046689984,-53.42545563432682
-5.114907055,-40.91925644,7.682172747946716,-0.4871729474999995,0.000336,2.3105174536047554e-05,0.0,194,8,169.47570586280887,784.0475999999999,mp-1184175,ErAs3,https://materialsproject.org/materials/mp-1184175,-70.44222241384624,-0.09233876086769836,-56.97674014851219,-30.53323793197711
-8.472271103666667,-254.16813311,6.5303046217637615,-0.9531468562380959,0.23659629999999998,0.0051014942842615525,0.0,127,30,540.4903840928422,2125.554876,mp-1207414,Zr9(CoP2)2,https://materialsproject.org/materials/mp-1207414,-31.86747772752413,20.8835450314797,-53.04862341654447,19.467822435327857
-7.83349113,-47.00094678,8.063458535581322,0.002426112916666057,10.2273372,1.3472964350172956,0.0,191,6,88.4660918575645,429.585,mp-1566,SmFe5,https://materialsproject.org/materials/mp-1566,-51.60571850001151,-15.054536177097996,-58.24648308740221,-8.936811875793811
-10.1066104975,-80.85288398,13.47050936158507,-0.19323187250000015,1.25e-06,1.2204089045190386e-07,0.0,194,8,119.36639360592571,968.31576,mp-1187258,TaRu3,https://materialsproject.org/materials/mp-1187258,-53.17150529568571,-45.549483512944505,-64.3408826201627,-35.42802003204541
-4.179580586666667,-25.07748352,8.81996689926336,-0.3584763691666666,1.9699999999999998e-05,2.451915554535344e-06,0.0,65,6,93.63498493851436,497.343,mp-1225514,ErGa2Cu3,https://materialsproject.org/materials/mp-1225514,-49.18159347614796,-16.662166701357968,-49.457835419644454,-18.998926531614288
-6.196931635909093,-136.33249599,4.180042906208799,-2.6927668834090923,0.0,0.0,1.7922000000000002,167,22,288.1906634126061,725.4568,mp-10299,Ca4PdO6,https://materialsproject.org/materials/mp-10299,19.379965663603908,-50.15048016106432,-18.517333522339076,-55.4960338036332
-5.670463996666666,-34.02278398,8.167259059927959,-0.3079637008333336,0.43281629999999993,0.05426833273044377,0.0,191,6,92.94682443763331,457.15323499999994,mp-1219978,PrGa2Co3,https://materialsproject.org/materials/mp-1219978,-71.42815370146548,-10.775096190736294,-55.06010656199282,-17.990731592014413
-6.9242884759615375,-360.06300075,7.626137449396242,-0.5332680255769239,13.90155215,0.21686267297844816,0.0,137,52,747.0607411138799,3430.9268,mp-1202253,Eu2Si3Ni8,https://materialsproject.org/materials/mp-1202253,-54.75171673300285,-5.913570439650707,-23.065271444614783,16.67171026139989
-6.254637648571429,-87.56492708,4.396881315436416,-1.27312714327381,3.00000025,0.12201865486702125,0.4882999999999997,10,14,286.53157395725987,758.6966,mp-1247190,ZrCrAgS4,https://materialsproject.org/materials/mp-1247190,-29.86315042162282,-8.578360720002458,-38.7705120052096,-29.201044028260842
-9.55180129125,-76.41441033,13.812491667190105,-0.26873642124999897,1.15e-06,1.1396847978574131e-07,0.0,194,8,117.5954484401257,978.168,mp-867281,Tc3Pt,https://materialsproject.org/materials/mp-867281,-53.927415111769285,-45.9890007242307,-64.5465909666513,-35.42799952728765
-6.00354694,-96.05675104,4.697989607156766,-1.874995725,20.999998899999998,1.6069102939974564,1.1938999999999995,12,16,152.30181069751097,430.8916,mp-756803,Li3Fe4NiO8,https://materialsproject.org/materials/mp-756803,-6.541151306860577,-61.85880104945071,-24.029000974479857,-63.867151963763106
-5.105694640833334,-61.26833569,10.347337977777087,-0.6433771241666667,0.0,0.0,0.0,62,12,181.38264885798938,1130.252,mp-1869,GaPd2,https://materialsproject.org/materials/mp-1869,-57.909067609542376,-31.708100615612068,-62.97269146308277,-30.028262740212774
-5.0068217850000005,-60.08186142,3.1792399646919507,-2.831403164141667,2.9961167,0.3266945524546002,0.07979999999999965,123,12,106.87946225488442,204.629611,mp-752884,Li5CoOF5,https://materialsproject.org/materials/mp-752884,-8.456878969354701,-65.08073707733729,-25.72758574178004,-61.89347279742116
-6.168361787916666,-148.04068291,3.833605646381975,-2.034095887034999,17.999999,0.9326507779690244,0.0,8,24,224.9214381280201,519.265175,mp-1175312,Li7Mn4CoO12,https://materialsproject.org/materials/mp-1175312,3.658431524227218,-76.42751466284128,-24.400103403653315,-73.1982793557633
-6.892699824166668,-165.42479578,7.947248754807947,-0.09383655083333292,3.5606057625,0.10535282332868504,0.0,216,24,393.872028054383,1885.04992,mp-1221866,MnCoSb,https://materialsproject.org/materials/mp-1221866,-37.60625966760467,-29.714396267098603,-61.06502001990275,-41.09630380113679
-7.873823549666668,-236.21470649,9.120245433006911,-0.791549632666667,1.04e-05,2.903642989588645e-07,0.0,139,30,417.41451710560113,2292.5825600000007,mp-976184,Hf4Co4Si7,https://materialsproject.org/materials/mp-976184,-64.39164915921862,-18.678525172275947,-52.2425029621644,-13.843220252557405
-6.959873774999998,-41.75924265,8.545042026165191,-0.5157223503472217,2e-07,3.679365404881018e-08,0.0,139,6,63.348232589780274,325.9865,mp-6544,LuNi2B2C,https://materialsproject.org/materials/mp-6544,-40.04083102904181,-17.821304965881428,-53.85463392785837,-21.314852536833627
-6.4795938168965534,-187.90822069,5.242240988251777,-0.5411610982758617,2.3097736,0.059576423999802224,0.0,225,29,451.8272386479213,1426.3966176,mp-1193118,Ti6Al16Ru7,https://materialsproject.org/materials/mp-1193118,-32.068768940695485,-39.561335207802074,-56.67541331808778,-41.07781370368276
-4.333027303,-43.33027303,2.788911968232654,-0.9899004104250004,2.99999225,0.17368278450810384,0.007500000000000284,72,10,201.29861516036323,338.08546712,mp-8765,Na2CoS2,https://materialsproject.org/materials/mp-8765,1.4846402128324316,-50.077620460540075,3.644280583121775,-52.458562558390064
-4.745975951428571,-33.22183166,8.449658394392587,-0.33371487428571456,0.00015030000000000002,1.5215221810528049e-05,0.0,123,7,115.12194545226492,585.7984,mp-1025176,HfGa5Ni,https://materialsproject.org/materials/mp-1025176,-44.813329815146325,-34.8657587357545,-55.393994222837286,-28.726841780854983
-7.224904155,-173.39769972,2.8654874120758667,-2.4342135006461105,4.999998000000001,0.2082915775790879,2.5819,14,24,279.7535129933124,482.75298,mp-754744,LiMnBO3,https://materialsproject.org/materials/mp-754744,28.033200246696893,-38.738562909538594,31.79328819050444,-50.96766862825932
-4.895146170909091,-107.69321576,5.134322509018844,-1.2443097968181815,5.0000005,0.2494718342148637,0.0,12,22,233.57478359518575,722.2042,mp-756733,Li4Ni5BiO12,https://materialsproject.org/materials/mp-756733,3.7692154726871774,-58.21124382437853,-9.64542551800296,-59.1587977320631
-6.9929234103636375,-384.61078757,9.73255734612522,-0.9498823672857146,0.027547199999999997,0.00039916440665034136,0.0,143,55,804.2722441028593,4713.906478,mp-1215876,Yb6P19Rh30,https://materialsproject.org/materials/mp-1215876,-51.37640813845736,0.0460956160465478,-56.07818151657976,20.355174135540505
-3.7284428875,-74.56885775,14.412109056319348,-0.04198593750000015,0.0,0.0,0.0,74,20,300.15821386357965,2605.12569,mp-582681,CuAu,https://materialsproject.org/materials/mp-582681,-58.356858954346535,-37.82815309908652,-64.90275400740163,-29.003736908199176
-9.55600102125,-76.44800817,12.595897912225325,-0.8503265962499995,1e-07,7.797130557642914e-09,0.0,63,8,149.46607199152422,1133.764,mp-568992,ZrIr,https://materialsproject.org/materials/mp-568992,-54.473709920932635,14.012858095579679,-53.476609878951606,2.5161162366487417
-6.9231653674999984,-387.69726058,4.4521653982988125,-2.4692441808333325,1.25e-07,2.465399762302197e-09,3.391,56,56,590.8810890813247,1584.2448000000004,mp-778103,Cd(BO2)2,https://materialsproject.org/materials/mp-778103,20.485521026386518,-2.417969064443535,9.512104397549312,-38.45369009864217
-5.114123723863637,-225.02144385,10.580586077539298,-0.3566044452272731,1.375e-06,2.1646779736421685e-08,0.08560000000000034,161,44,740.2643375775616,4716.8,mp-1224632,Ge(TePd4)2,https://materialsproject.org/materials/mp-1224632,-56.68571652783378,-31.34506668164199,-62.59244986670433,-21.102181294667133
-5.171133961111111,-46.54020565,7.972132133923282,-0.4966069888888885,1e-07,6.41543723593966e-09,0.0,38,9,181.65659399289154,872.1206400000001,mp-10862,Ho2Ge6Pd,https://materialsproject.org/materials/mp-10862,-46.325982394450186,13.349107895638154,-42.098446169485136,29.508211377669955
-6.4975992175,-25.99039687,6.7281881364665335,-0.2622692175000001,3.2969739000000002,0.7928282796925055,0.0,225,4,48.46339159211246,196.3644386,mp-10885,AlCrNi2,https://materialsproject.org/materials/mp-10885,-49.31434034292612,-51.257800225253646,-69.10295340406873,-44.30367711552148
-8.09338874,-194.24132976,9.521128798802158,-0.5780076056944452,3.75e-07,1.6950982249747173e-08,0.0,55,24,257.8183508967493,1478.2679999999998,mp-22361,CeReB4,https://materialsproject.org/materials/mp-22361,-36.68362218369971,-11.25950258090049,-38.1277960374825,-11.795603098745852
-7.27663254,-116.42612064,6.001750939929418,-0.32195047,0.368671175,0.014630137331643771,0.0,140,16,293.67583200553275,1061.444,mp-569837,Ti3Sb,https://materialsproject.org/materials/mp-569837,-49.245343757111314,-7.185656824914213,-40.36465287152803,-9.985499006497854
-7.9573498325,-63.65879866,10.401388342203706,0.21924183750000026,0.1070392,0.008087108620299523,0.0,223,8,154.25065107593045,966.2048800000001,mp-569366,Nb3Tl,https://materialsproject.org/materials/mp-569366,-69.05898037280292,-11.091606216439553,-65.14376896370575,-0.21071303106788708
-4.714022785714286,-32.9981595,11.35358005737868,-0.3079882221428574,0.023965900000000002,0.002364570996512311,0.0,123,7,118.11874176950056,807.6116,mp-1077915,HgAsPd5,https://materialsproject.org/materials/mp-1077915,-51.34237109446082,-32.849650370091915,-58.45058388232368,-26.821376056632232
-5.818876289047619,-122.19640207,9.003798305955321,-0.532743319285715,3.8e-06,1.536024495689661e-07,0.0,174,21,288.31210869357307,1563.29,mp-542718,Er2Ni12As7,https://materialsproject.org/materials/mp-542718,-51.741552551332795,-1.3025646328083411,-55.694938690713606,18.164424883996393
-10.172088285,-81.37670628,15.779765014149653,0.2722407220833336,0.0939493,0.006827533223621053,0.0,194,8,160.3641010121596,1523.90746,mp-1187772,U3Ti,https://materialsproject.org/materials/mp-1187772,-48.538875854531746,-29.57795378461154,-53.063534970468766,-23.175390023552648
-2.9412055675,-23.52964454,2.1773843583127808,0.1931064046550004,0.0,0.0,0.4286999999999997,129,8,102.08146489523813,133.85447712,mp-571587,Na2LiN,https://materialsproject.org/materials/mp-571587,-49.08134791833585,-34.79196925805744,-57.972391766520396,-28.77693654939443
-10.0177217528125,-320.56709609,9.739152473120644,-1.3063235013281247,5.429999999999999e-05,1.1498952195156992e-06,0.0,194,32,550.3246786402973,3227.6844,mp-1207437,Zr9Re4O3,https://materialsproject.org/materials/mp-1207437,-68.7296915741508,-5.059666964803402,-64.13231306531246,3.408780278748261
-6.178902327857143,-86.50463259,3.476476727624308,-2.5541182866171432,11.999999800000001,0.8991387124546295,0.7538,12,14,155.53637386840919,325.6283478000001,mp-753615,Li3Mn3(OF)4,https://materialsproject.org/materials/mp-753615,-1.616240144298429,-62.14252431539879,-27.487006667263127,-77.58110046617803
-5.625144164583332,-135.00345995,3.57735108983079,-2.389118050198334,4.99999985,0.25995941698235503,1.8959,5,24,224.15161101336025,482.8968128000001,mp-850404,Li2FeO2F,https://materialsproject.org/materials/mp-850404,-6.139309844567864,-65.13925175534156,-22.859819980584746,-67.97772807525256
-6.080562112999999,-121.61124226,6.220462208744036,-2.224837619747001,0.000537,1.3669289438922708e-05,0.0,121,20,457.83160937718606,1715.0600832000002,mp-1223105,La4Bi4S8O3F,https://materialsproject.org/materials/mp-1223105,-4.297072764392478,-23.514089509150434,-0.5423796680458207,-19.825127781846188
-6.768829065714287,-189.52721384,4.447897103426891,-3.9502095314538095,0.0,0.0,3.3404000000000003,57,28,413.93030947658923,1108.7480512,mp-16915,BaTiOF4,https://materialsproject.org/materials/mp-16915,10.384016454297248,-17.935181503993572,10.611371119960005,-14.200956117542253
-8.0712287725,-290.56423581,9.074238140793275,-0.4553089474074075,0.001043075,2.8063642913505957e-05,0.0,142,36,433.1605718510428,2367.064,mp-1198170,Nd(BRu)4,https://materialsproject.org/materials/mp-1198170,-58.11959715596336,-11.954965958200779,-57.939945363791296,-1.2295084196556767
-5.319284584,-79.78926876,4.187916545691978,-1.4012510195666663,14.9999994,1.018904368860229,0.0,44,15,171.56758763484768,432.69728784,mp-1221243,Na3(CoO2)4,https://materialsproject.org/materials/mp-1221243,8.151618478728878,-54.03718188370034,-5.1644528216083785,-56.38398516504228
-6.985143502000001,-69.85143502,8.876126517884472,-0.3575115679999996,0.0,0.0,0.0,12,10,278.634239814148,1489.39152,mp-542634,Ta2Te3,https://materialsproject.org/materials/mp-542634,32.23120327490827,-51.67843231746931,-1.4150030351567433,-53.20895511086385
-6.831630965714285,-143.46425028,8.875400711142015,-0.6509437921428562,0.13619610000000001,0.00607189104775059,0.003899999999999793,174,21,261.40755140163947,1397.1949539999998,mp-504856,U2Ni12P7,https://materialsproject.org/materials/mp-504856,-63.42788092423992,-30.0130985252647,-65.77613430716522,-17.473382557672828
-2.5520113115625,-81.66436197,3.1380376160407746,-0.1253033509375001,2.5e-07,4.258437417037901e-09,0.0,101,32,684.174946773438,1292.9335999999996,mp-1210716,Mg6NiSn,https://materialsproject.org/materials/mp-1210716,-13.327535114140511,-18.46564758279766,2.3368186815042056,-15.977024776405749
-8.42686660125,-67.41493281,6.319747803530163,-0.6988500841066667,0.0015857999999999998,0.00026086319707018657,0.0,194,8,70.84562377479698,269.62719,mp-1246050,TiCoN2,https://materialsproject.org/materials/mp-1246050,-47.19544791738786,-33.41156120175265,-66.03647336672988,-20.999346026096752
-8.859395735,-35.43758294,14.912998375428396,-0.22358177499999954,0.00011140000000000001,2.326659673076455e-05,0.0,225,4,55.799429142402474,501.1245,mp-1187713,VGaOs2,https://materialsproject.org/materials/mp-1187713,-34.09010233215441,-39.26969403619975,-59.30740081504219,-46.48035613257128
-5.74817674,-45.98541392,4.339505559628546,-2.520932000625,2.5e-06,3.7982531080521156e-07,0.0,221,8,76.70674150080751,200.4586,mp-1099249,Mg3CuO4,https://materialsproject.org/materials/mp-1099249,-30.605263765210573,-70.46605556154275,-47.86674932211564,-59.88343347361384
-7.018557550952384,-147.38970857,7.576565531764207,-2.419363151130953,3.6000000000000003e-06,1.4635168787978e-07,1.5009999999999994,160,21,286.66996458338326,1307.9932,mp-1217292,Ti3TePb4O13,https://materialsproject.org/materials/mp-1217292,10.189150567391208,61.65473685555421,-0.8820314206147434,72.17292584890424
-1.843604485,-25.81046279,5.2622750496008965,-0.021379750714285755,5.575e-05,1.9413418168372675e-06,0.0,72,14,334.6727018576683,1060.5832,mp-570849,Mg5Tl2,https://materialsproject.org/materials/mp-570849,11.372139072492907,-11.925828080438961,11.481235241692374,-6.126818410046576
-6.41810306,-51.34482448,6.8567043574996065,-0.629007755,5.75e-06,4.298022935430034e-07,0.0,141,8,155.91092334530208,643.788,mp-30682,ZrGa,https://materialsproject.org/materials/mp-30682,-47.68864522846492,-11.271856021730695,-43.50648192714798,23.684719373265548
-7.645541901666667,-45.87325141,7.630937593332258,0.1050855300800002,6.65e-06,1.3601773571854016e-06,0.0,58,6,56.97751865086976,261.8378,mp-20304,RhN2,https://materialsproject.org/materials/mp-20304,-37.04825309559926,-8.751686199273385,-29.03432497106489,42.1215608857271
-8.298364249999999,-365.128027,8.13272466422209,-0.08701565437499942,35.16229265,0.7629581713591963,0.0,194,44,537.0984301338268,2630.51548,mp-1212484,Ho2Fe17C3,https://materialsproject.org/materials/mp-1212484,-52.18311713408318,-22.748613967715322,-56.09730962542918,-10.616903781762506
-6.301547598095239,-132.33249956,8.23599728950553,-0.7653868440476198,0.00014280000000000003,6.493859431313414e-06,0.0,174,21,256.27294017125524,1271.071134,mp-974057,Lu2Ni12P7,https://materialsproject.org/materials/mp-974057,-63.600032972632,-30.053792203347697,-65.86036756979472,-17.31205871074402
-8.26408219631579,-314.03512346,7.2748182309403315,-0.01398256000000156,39.3442693,0.8910661974378247,0.0,194,38,514.5753078387038,2254.3534,mp-1196012,Y2Fe17,https://materialsproject.org/materials/mp-1196012,-56.79239819777951,-25.296631428905656,-59.92349371628584,-12.122300074095008
-5.885388211538461,-153.0200935,3.2351324478623225,-2.9918848501846163,14.999998800000002,0.514955011165651,3.3421000000000003,58,26,339.4684075562562,661.3667212,mp-765343,Li2Mn3F8,https://materialsproject.org/materials/mp-765343,-4.477631609478405,-63.58005305685821,-21.260393437452947,-61.13226181804062
-7.3670910425,-29.46836417,8.761291045708418,-0.19839543750000035,4.47008455,0.8517096410980751,0.0,123,4,61.164805904222014,322.71609,mp-238,MnPd,https://materialsproject.org/materials/mp-238,-41.873603642219635,-35.16044978456874,-70.19685098280762,-24.08407464051482
-5.51330060375,-44.10640483,6.138802184034567,-0.05313745666666758,0.00047759999999999995,3.773720990565736e-05,0.0,194,8,147.49318641440124,545.2636,mp-1187559,TiAs3,https://materialsproject.org/materials/mp-1187559,-48.21684801732703,-32.11416646826261,-59.72244692515091,-29.175786986507163
-5.63964380125,-45.11715041,8.664545286188227,-0.2175947702083336,2.08204495,0.16526660764392986,0.0,51,8,146.819052273153,766.0887799999999,mp-1079575,SmInCo2,https://materialsproject.org/materials/mp-1079575,-46.0354449022868,9.999370158253422,-44.26638156977343,19.966443528792933