energy_per_atom,energy,density,formation_energy_per_atom,total_magnetization_uB,total_magnetization_T,band_gap,sgr,num_sites,cell_volume,weight,mp_id,formula,URL,tsne_xrd_lin1_0,tsne_xrd_lin1_1,tsne_xrd_lin2_0,tsne_xrd_lin2_1
-8.9977706375,-431.8929906,7.243244617326381,-2.7783443610975014,10.000059575,0.18864193977595087,0.6527999999999996,136,48,617.7912618737982,2694.79556,mp-510248,BaGd2Mn2O7,https://materialsproject.org/materials/mp-510248,-26.746380992116126,46.97064843811842,-12.774638177492106,64.0338782753282
-7.090282975,-85.08339570000001,6.248073791633098,-2.5218027462356325,3.0,0.11941658200536714,0.03259999999999952,36,12,292.77503785954707,1101.6182076,mp-754973,Cs2NpO3,https://materialsproject.org/materials/mp-754973,4.984299671621486,-4.153322772623189,11.79803605233934,-10.754214996006628
-7.171178465714285,-50.19824926,5.887595576598902,-2.9935875332142863,5.0000004,0.5964835853006747,0.8220000000000001,107,7,97.6897436247999,346.36807000000005,mp-1218154,SrLaFeO4,https://materialsproject.org/materials/mp-1218154,-22.89242062634025,38.02180873132353,-15.013751619857938,58.68284350286678
-3.5701432559375,-114.24458419,7.124289523771237,-0.5863370393359375,0.0,0.0,0.6965999999999992,130,32,962.5683693886763,4129.7528,mp-9622,Tl4SnS3,https://materialsproject.org/materials/mp-9622,-9.918935475419378,38.542749783857786,-7.2998841087703585,45.706158725556485
-5.047297656111111,-90.85135781,4.119950493876117,-3.1827364875941,1.9999993999999999,0.08694329125069114,5.089499999999999,74,18,268.08419853205453,665.1416194,mp-1225930,CsAlNiF6,https://materialsproject.org/materials/mp-1225930,-6.346203202752646,-9.977907150436675,1.677543069926308,6.888671695033161
-5.535634835,-44.28507868,3.854518054227227,-0.7173720611899999,0.23186285,0.015429852561536391,0.0,12,8,175.12446483035174,406.5068,mp-29973,SrN,https://materialsproject.org/materials/mp-29973,5.734514745442784,21.49645414874476,3.560958918240487,15.97636728432049
-9.202421111875,-147.23873779,3.8800583072282295,-2.6679746107512496,0.0,0.0,1.6488999999999998,8,16,187.97413188175233,439.2252,mp-849335,Ti3N2O3,https://materialsproject.org/materials/mp-849335,17.757520449592004,2.9605714989478797,63.51882427353051,33.294189762352225
-6.901371199166666,-248.44936317,7.461054957596434,-2.6250618584722227,1.999999575,0.048760138723762975,0.3307000000000002,33,36,478.0159614431689,2147.79856,mp-5029,Ho2Cu2O5,https://materialsproject.org/materials/mp-5029,2.7516831481607165,39.071144458565996,10.599550302004083,56.044832338610256
-7.85887362125,-62.87098897,7.741006660744678,-2.9495855455859368,1.8985805,0.14719648703129146,0.0,107,8,150.31731102533118,700.7407099999998,mp-1225609,Er2US3O2,https://materialsproject.org/materials/mp-1225609,-1.850706293180072,9.652514136530915,-8.436369207221947,29.59689936191432
-5.23528812734375,-335.05844015,2.530351469496587,-0.6734879634151785,5.584375e-05,4.763757913190839e-07,1.0202999999999998,92,64,1366.1623690837594,2081.776384,mp-1195298,CaSiP2,https://materialsproject.org/materials/mp-1195298,2.901385240018881,37.95069424228293,5.034112911929042,47.2445698775362
-7.964060844,-39.82030422,6.686511198986706,-2.99575154675,2.0130516,0.3884650310009997,0.02009999999999934,221,5,60.39213793955253,243.1817,mp-19253,NdVO3,https://materialsproject.org/materials/mp-19253,-29.64493147561597,51.736068400755215,-17.207255166479634,66.65106590340339
-7.395884051666666,-133.12591293,5.561457900163777,-0.8878386659523806,21.000002399999996,0.569818709966053,0.08619999999999982,15,18,429.49693281936834,1438.466096,mp-1189104,Eu3(GaP2)2,https://materialsproject.org/materials/mp-1189104,15.372731993670373,-4.3171308182536325,14.058040968346367,4.9117506460173885
-4.8489785,-29.093871000000004,8.04372384727774,-0.5739655591666661,1.7100000000000002e-05,1.4511371735530041e-06,0.0,194,6,137.32988944307525,665.232,mp-1077108,SmCuSn,https://materialsproject.org/materials/mp-1077108,-52.79794418828072,21.720068669614815,-49.207568166285924,26.93242569362781
-6.4459922480000005,-32.22996124,9.089842009576332,-2.361767766583334,1.0000021000000001,0.19117905455844664,0.0,221,5,60.95902750964208,333.6916,mp-1183139,AcNiO3,https://materialsproject.org/materials/mp-1183139,-30.253803117238878,50.619181670521705,-17.75851412482551,66.18851414825258
-8.100557359722224,-291.62006495,7.5428549992762575,-3.2783556394444457,0.0,0.0,3.7485,19,36,511.2316581529705,2322.2256,mp-770406,Sm2WO6,https://materialsproject.org/materials/mp-770406,13.019025876342326,16.368736702473498,39.23085758514849,1.1539539204586429
-7.320963890833332,-87.85156669,5.838608239621464,-2.7348669441666664,0.0,0.0,4.3435000000000015,88,12,163.77022550703643,575.8312000000002,mp-19426,CaWO4,https://materialsproject.org/materials/mp-19426,26.86713205487586,57.67597413768865,38.36661272173432,-6.905082741704534
-5.48034643,-27.40173215,4.043053017687551,-2.899969083782965,4.0,0.5836728226877409,0.9994000000000004,123,5,79.86710581379596,194.4591096,mp-1206325,RbCrF3,https://materialsproject.org/materials/mp-1206325,-17.712518803053747,11.924683246645296,-45.26543937048501,18.662312193726283
-5.0920891644444435,-91.65760496,3.7597116812003684,-1.2348330343981944,1.9999997999999999,0.12012113854255993,3.0545,15,18,194.03851392940442,439.33256,mp-23968,NiH2SeO5,https://materialsproject.org/materials/mp-23968,22.42452116664504,-1.8357806712789144,55.20647459129003,3.0666032593862904
-7.3790431513333345,-221.37129454,5.771593532487053,-2.9993455392500015,1.3333333333333334e-07,3.5759406435234332e-09,2.0506999999999995,185,30,434.53610054245763,1510.3323,mp-504607,YInO3,https://materialsproject.org/materials/mp-504607,10.328692003271113,57.32345837041056,-1.1169437104804658,68.81354853597564
-8.288102969166667,-99.45723563,6.555215028815395,-2.990140019334168,0.9343445,0.060390239418003075,0.0,123,12,180.30912657118532,711.7960300000002,mp-1102721,LaTa2CuClO7,https://materialsproject.org/materials/mp-1102721,1.6312351927877893,10.46746244999615,7.434153893027058,23.72244908047916
-7.813043691363638,-171.88696121,7.796313995270045,-3.0181327871590926,1.99999985,0.07424824685374573,0.0,63,22,313.9215912117365,1473.8776,mp-9559,Nd3IrO7,https://materialsproject.org/materials/mp-9559,19.77097688387617,55.80872741551842,-1.5271011801704293,37.0775556285909
-7.734785702999999,-77.34785703,10.786485501788187,-1.0338097745000001,1.5e-07,9.797342210315695e-09,0.0,129,10,178.4269323616517,1159.02094,mp-10152,La(SiIr)2,https://materialsproject.org/materials/mp-10152,-46.29078557276162,28.36279121630493,-27.599098499607692,33.61458279965589
-5.511900467,-110.23800934,3.3019706487139,-2.188629053948,0.0,0.0,3.9730000000000003,26,20,244.67708074458747,486.53872,mp-625184,Sr(HO)2,https://materialsproject.org/materials/mp-625184,1.7667222755775038,0.029970602615547674,-2.1328934088501863,-11.77682918727774
-7.084944671000001,-141.69889342,6.69415860770396,-2.545370867,2.9534846000000003,0.1147292925564892,0.0,166,20,300.01144490810964,1209.44112,mp-560380,Ba4Ho(RuO4)3,https://materialsproject.org/materials/mp-560380,-17.67100834345966,16.995664039726368,-16.36609977510719,47.33904555728524
-5.532399220769231,-71.92118987,6.420372895491486,-0.9686447368131884,0.0002069,1.1546996070337794e-05,0.0,139,13,208.81846557795376,807.3838579999998,mp-1210896,La3Ni4(P2O)2,https://materialsproject.org/materials/mp-1210896,-36.74422868435715,-2.489759122107458,-28.232189888756857,12.95200071100201
-5.2137877634375,-166.84120843,5.758896190834178,-1.8978098071875,0.0,0.0,1.0707,136,32,338.86218075437966,1175.204,mp-557738,Li3BiO4,https://materialsproject.org/materials/mp-557738,4.6029679145365066,-0.3620317887097733,10.305104942218977,-16.255130435262235
-7.501317240909091,-330.0579586,6.8967653511175,-2.8071040143892048,0.0,0.0,1.6363000000000003,62,44,813.6739766287446,3379.455920000001,mp-555559,Sm3NbSe3O4,https://materialsproject.org/materials/mp-555559,0.4321880379150341,30.100916835089322,2.2594734221148243,28.08633311285852
-6.504779600416667,-156.11471041,3.0455651283852085,-2.7760505844270833,0.0,0.0,5.9558,14,24,296.91275241109287,544.5624,mp-12372,CaSO4,https://materialsproject.org/materials/mp-12372,9.164897027177924,15.028373738205648,3.8078800105908472,29.980671921457628
-6.226345240833332,-149.43228578,5.273387808876395,-2.617416329918333,0.0,0.0,3.8477,62,24,473.57184027136236,1503.9260799999995,mp-559805,HoTeClO3,https://materialsproject.org/materials/mp-559805,16.1567210852535,-1.0744990080100507,35.86000132153881,-14.641497990251743
-7.57519841,-75.75198409999999,6.843614483314035,0.009784555048000243,3.87844425,0.2699042347239469,0.0,140,10,167.4654736428684,690.17898,mp-1245942,Mn2PbN2,https://materialsproject.org/materials/mp-1245942,-24.30610063364527,6.421308286765043,-37.05725755312086,10.879765659145788
-7.59048947388889,-273.25762106,6.1846276294466245,-3.546176930416667,7.5e-08,1.7908800462499431e-09,3.8305,33,36,488.05885116215654,1817.760488,mp-1218277,SrLa2BeO5,https://materialsproject.org/materials/mp-1218277,20.129739171263658,42.83106648537112,24.833486926725268,45.42845942977424
-6.875032455833333,-247.50116841,4.515214561929684,-2.754152804953703,0.0,0.0,3.2532,15,36,443.7455580865489,1206.6,mp-1195626,SrCdB2O5,https://materialsproject.org/materials/mp-1195626,0.28404448158862605,31.99922578826728,-1.9745837308238536,32.222682925057995
-6.791620374,-271.66481496,4.6870763531799176,-2.427289792043,26.972761199999997,0.6890630800691008,0.0,8,40,456.18799673327726,1287.646915,mp-1120829,Sr3Ca5Mn7FeO24,https://materialsproject.org/materials/mp-1120829,-13.255214898057652,66.44868646631129,-11.744567696586106,74.29298236855324
-4.939718378333334,-29.63831027,4.128868158839547,-0.6414739049999998,3.99999945,0.2736244651518924,0.3125,136,6,170.3658064881949,423.6082,mp-1183765,CrBr2,https://materialsproject.org/materials/mp-1183765,-14.08494441410551,8.130292855753058,-10.896313162785454,-8.146178041549486
-7.252515800555555,-261.09056882,3.187705501268886,-2.5104798195083333,28.999999900000002,0.8948385796412271,2.6076,8,36,377.6858585761112,725.036425,mp-774368,Li6Mn5Fe(BO3)6,https://materialsproject.org/materials/mp-774368,13.225635691970705,4.217237764811908,66.41882944225691,38.806796673833006
-8.2037813045,-164.07562609,5.703409234241272,-3.815144412,0.0,0.0,4.2116,36,20,314.2623994565555,1079.3886972,mp-1178155,La3AlO6,https://materialsproject.org/materials/mp-1178155,5.0353979272403215,24.24836915348555,-12.871591174596231,42.14523316453375
-8.58676212125,-137.38819394,6.99335101148456,-3.8067507325520835,0.0,0.0,2.9311000000000003,15,16,215.0609487713744,905.728,mp-755107,Dy2TiO5,https://materialsproject.org/materials/mp-755107,11.364720393240633,52.36052308248303,16.168957200654564,60.7705671218545
-6.5304891000000005,-235.09760759999998,4.473860890995838,-2.081110287289272,0.0,0.0,2.3111,173,36,544.070042626328,1465.8455038,mp-18398,CsV3(TeO6)2,https://materialsproject.org/materials/mp-18398,6.060019588301178,27.04781907186823,32.6173121482916,-2.519089603335363
-6.146839843043479,-141.37731639,4.060427132884517,-1.893601423994566,1e-07,2.3886207522273035e-09,2.1455,143,23,487.8993352834557,1193.0341,mp-1216118,Y6Zn(GeS7)2,https://materialsproject.org/materials/mp-1216118,9.409892917187417,-2.1310723841228434,10.892863354249954,4.311583773786796
-8.10092535,-81.0092535,4.995441074512689,-3.583800631916666,0.0,0.0,1.8614,99,10,136.39729840035474,410.3274,mp-1205663,Sr2ZrTiO6,https://materialsproject.org/materials/mp-1205663,-25.97296042730445,30.787548361469806,-22.426711724236945,58.53457452664525
-5.97970769,-191.35064608,7.49438900154219,-1.9512168472656244,20.0201644,0.4981237520310228,0.0,38,32,468.39021773923133,2113.9512000000004,mp-1218774,Sr4Fe4Bi5PbO18,https://materialsproject.org/materials/mp-1218774,-18.692380701560683,36.47447923115578,-11.6458491759167,45.463686894406464
-4.23002328625,-33.84018629,6.60725397441317,-0.5291981112499999,5e-08,4.057742290104739e-09,0.0,63,8,143.60282072347766,571.3929544,mp-12782,YbAl2Ni,https://materialsproject.org/materials/mp-12782,2.4828989316571124,0.26949109589085324,-0.2024769630636215,10.893694168073184
-7.815111666,-156.30223332,5.651966336191262,-3.2789835851000007,0.0,0.0,2.0734000000000004,229,20,337.8954799423193,1150.0927299999996,mp-22634,K4SrU3O12,https://materialsproject.org/materials/mp-22634,-23.62177030277014,5.927386994567655,-27.948837182181443,-7.142400997669365
-8.046258359166666,-96.55510031,5.049219913262915,-3.2097224904166666,0.0,0.0,3.0044,141,12,174.49804935993674,530.5982,mp-19323,SmVO4,https://materialsproject.org/materials/mp-19323,-14.700571422015074,1.1585350687111702,27.29433424655021,-0.26837412009645
-6.32073324,-101.13173184,2.978583691163037,-2.423608090776563,5.0000004,0.29536024967401736,3.9079000000000006,2,16,197.2856150708704,353.8800964,mp-942702,LiMnSO4F,https://materialsproject.org/materials/mp-942702,30.059003755960173,6.155977177564327,54.64061084455842,3.172501874099253
-5.883741235,-94.13985976,4.020440079150929,-2.383538877176724,0.0,0.0,3.9983,36,16,320.2515319679364,775.3820076000001,mp-541190,Cs2LiVO4,https://materialsproject.org/materials/mp-541190,8.879342695407619,17.815605553576763,30.956221930141826,1.1120870039172228
-8.831123173636364,-194.28470982,7.476892233289946,-3.764245883068182,0.0,0.0,3.4700999999999995,63,22,322.3271905456065,1451.3393600000004,mp-1192039,Nd3TaO7,https://materialsproject.org/materials/mp-1192039,20.63759904178692,55.615672025090284,-2.0519346671229517,37.32036177423574
-7.8145563290625,-250.06580253,6.12385454786912,-2.818874080781251,1.999999925,0.04642507539662958,0.0,62,32,502.0590375337695,1851.5292,mp-1209517,Pr2RuO5,https://materialsproject.org/materials/mp-1209517,9.426484730351293,23.59755659054707,38.690780570325366,-1.5993811314909432
-5.99070402125,-95.85126434,4.4834391571558685,-2.0670711223437497,9.000000000000001e-07,3.8943432596982156e-08,0.0,59,16,269.3306058520512,727.19,mvc-4397,CaSb2O5,https://materialsproject.org/materials/mvc-4397,27.111055551613354,-3.035163540647316,51.79314958289764,-1.661630438747589
-6.8043358575,-136.08671715,7.830126029087973,-0.9719835420000004,6.3e-06,2.2221204624925905e-07,0.0,72,20,330.4078662988815,1558.00928,mp-1212337,Ho2Si5Rh3,https://materialsproject.org/materials/mp-1212337,-45.274483986645144,23.23203628878214,-32.524583109474385,19.49996457045276
-5.4479992625,-21.79199705,8.957711896904788,-0.8529205624999996,3e-07,3.930866085215622e-08,0.0,63,4,88.94272549547125,479.798,mp-2264,ErGe,https://materialsproject.org/materials/mp-2264,-32.85768535327955,21.698931995867195,-39.868274350832586,24.624503959058842
-6.8210258625,-81.85231035,5.439992112777658,-2.7127131509375,4.0000008000000005,0.2694672795531666,0.0,139,12,172.99417016711698,566.7358,mp-1208726,Sr3Mo2O7,https://materialsproject.org/materials/mp-1208726,-22.856474863882895,29.052630970978303,-20.484777878507096,58.48017426256737
-5.111681517857143,-143.1270825,4.8998553083258365,-1.5270906460714286,4.265e-05,5.3565894171163e-07,0.0,214,28,927.9148051956794,2738.05564,mp-29995,La3SiBr3,https://materialsproject.org/materials/mp-29995,-25.624401500338998,-41.9628331825471,-35.71051246478704,-19.01428384595266
-6.767210644736843,-257.1540045,3.947126434285212,-2.473223143233084,9.0000014,0.22841024014621655,2.1803,74,38,459.20270125185664,1091.531772,mp-1195488,SrFeNi2(PO4)3,https://materialsproject.org/materials/mp-1195488,2.6935721587342867,34.089242116474324,20.19881000910813,35.460671416797084
-9.452457458,-47.26228729,6.7354872230538465,-2.9527551703125,11.9999999,1.5414890879481806,0.0,164,5,90.72316969266217,367.9918,mp-21071,Eu2SO2,https://materialsproject.org/materials/mp-21071,-13.660439204458141,24.322742838086704,-15.055603540063215,38.94516468757585
-6.0166702462,-300.83351231,7.048427591423931,-2.11695832316663,0.0,0.0,2.5958,15,50,774.255845954696,3286.4546608,mp-561255,ZnBi6P2(O7F)2,https://materialsproject.org/materials/mp-561255,10.891531617561748,23.27527173683239,41.568435142271206,-0.7931780731565964
-7.571334647857142,-211.99737014,6.377765174620356,-2.8024881240848205,3.00000205,0.07948100466629067,1.3701,176,28,439.8814327436399,1689.4878199999996,mp-866693,La3CrW(SO2)3,https://materialsproject.org/materials/mp-866693,0.3274870424338591,11.696868574782984,8.454099128131281,29.06754694121913
-5.423209843076923,-282.00691184,2.9503533734526433,-2.394359980471442,0.0,0.0,4.9911,186,52,703.3329146467256,1249.64278912,mp-554294,Na7SnS3(O4F)3,https://materialsproject.org/materials/mp-554294,5.342456207607161,4.422969495900683,9.871943197243016,11.625646491870839
-6.480851935882352,-110.17448291,4.695716346052179,-2.628473450552941,10.9999995,0.5075815737669792,0.0,139,17,252.5598116569454,714.1953350000001,mp-23597,Sr4Mn3(ClO4)2,https://materialsproject.org/materials/mp-23597,-23.987888850702628,43.936904362217795,-42.86443981918754,36.75777913786605
-2.590592507,-25.90592507,3.412774740356736,-1.3652429728163793,0.0,0.0,1.1930999999999998,225,10,303.8270681224885,624.431777,mp-989516,Cs2ICl6F,https://materialsproject.org/materials/mp-989516,-16.17254204312207,-18.981208691716922,-14.55136899593701,-19.211939780500746
-6.290757811153847,-163.55970309,5.194412485157269,-2.4751862285576935,1.5e-06,5.1600398470426866e-08,0.0,46,26,338.7783365444025,1059.7489,mp-1214167,Ca2PrGaCu2O7,https://materialsproject.org/materials/mp-1214167,-12.645230095632265,42.89566791523274,-6.925305318046572,65.26692689032438
-3.28338139375,-26.26705115,4.890521932969332,-0.7219121206718748,5.6e-06,2.6944930488491664e-07,1.4736,121,8,242.20794614485413,713.3366,mp-568968,K2SnHgSe4,https://materialsproject.org/materials/mp-568968,-3.677677497853892,11.854173218289066,-15.132495606776494,16.617603517458793
-8.559053048571428,-119.82674268,7.294297683718995,-3.9125106049107146,2.1600000000000003e-05,1.2433588087649577e-06,1.8973000000000004,119,14,202.45788851356065,889.3426000000002,mp-675192,Ce3Dy2O9,https://materialsproject.org/materials/mp-675192,25.204734596363878,63.69009425917504,-9.247945264852886,36.39058885224011
-7.1049404815,-142.09880963,4.860629096061102,-2.7023637957499997,2.000000025,0.09269040312049542,1.2568,14,20,251.46216924065982,736.0648,mp-607467,CaMoO3,https://materialsproject.org/materials/mp-607467,-13.874086768417115,49.69278644777697,27.591245603395052,54.93563534890757
-7.1814960178125,-459.61574514,3.303745998538712,-2.7768559092187504,3.002558025,0.04387610593840489,2.5827000000000004,130,64,797.5184888978557,1586.7127799999996,mp-1262937,ZnCo(Si2O5)2,https://materialsproject.org/materials/mp-1262937,20.332153054961992,-4.772270828767321,50.2580527478707,1.257181021951834
-6.437593636521739,-148.06465364,3.6247888740116734,-2.0798680744293483,8.75e-05,2.0913023243358843e-06,2.505,143,23,487.60557272502416,1064.3936772000004,mp-1216157,Y6Al2SiS14,https://materialsproject.org/materials/mp-1216157,7.045419261510581,-0.049258644898921664,10.81790321049115,3.323392576038785
-8.572988239999999,-85.72988240000001,6.944878790512303,-0.8246609714279984,3.81e-05,2.556569320355764e-06,1.0637000000000003,12,10,173.67800837598094,726.3742000000002,mp-989636,BaWN3,https://materialsproject.org/materials/mp-989636,9.194738194158203,23.42306935026503,1.4782170193924646,23.887743985282153
-7.234548828918919,-267.67830667,5.1300129076987755,-2.90594556222973,6.999999400000001,0.13945695871747132,0.0,166,37,584.9722177058974,1807.1933,mp-28902,Ba8V7O22,https://materialsproject.org/materials/mp-28902,-17.13084720908421,17.650603555855128,-15.62593889681954,47.03193145241786
-4.9890499225,-79.82479876,3.0930100825059275,-1.355395335867457,4e-07,1.0494744965203966e-08,1.2783,70,16,444.1866786167565,827.3661999999998,mp-15219,Rb2VCuS4,https://materialsproject.org/materials/mp-15219,5.92374336444426,-6.11871317105778,10.347122394269153,-20.312671098978733