energy_per_atom,energy,density,formation_energy_per_atom,total_magnetization_uB,total_magnetization_T,band_gap,sgr,num_sites,cell_volume,weight,mp_id,formula,URL,tsne_xrd_lin1_0,tsne_xrd_lin1_1,tsne_xrd_lin2_0,tsne_xrd_lin2_1
-8.853582756375001,-708.28662051,6.076609074336607,-0.2723540984460001,13.5227576,0.1971550002006193,0.0,14,80,799.3461632403926,2925.143,mp-1245332,Mn10FeN9,https://materialsproject.org/materials/mp-1245332,-34.667310641683066,1.4895247662193227,-22.633242822319545,16.10724563799252
-8.598376355416667,-206.36103253,7.0454886947998485,-0.0800847587499997,0.0004544375,1.1787246058881352e-05,0.0,227,24,449.3029189027303,1906.344,mp-17682,Zr2Fe,https://materialsproject.org/materials/mp-17682,-69.23122094347745,-3.4532793269348536,-65.06582720311592,4.340786319112248
-4.07269473125,-32.58155785,8.896313305104718,0.004123832500000368,0.0,0.0,0.0,59,8,115.4825405375881,618.696,mp-581786,Cu3Sn,https://materialsproject.org/materials/mp-581786,-54.662702270822535,-46.8809237286165,-64.09402984846223,-33.44645249059107
-7.082915995238095,-148.74123590000002,7.868621418957758,-0.7676211985714284,5.065462999999999,0.22840421894940055,0.0,174,21,258.45947231860214,1224.734674,mp-1005690,Sm2Co12P7,https://materialsproject.org/materials/mp-1005690,-63.82934874218258,-29.799224814955387,-64.9561492144633,-16.09578100369885
-6.826770826875,-109.22833323,6.367135969458697,-0.5106675097916673,1.1524101,0.04450305833042535,0.0,193,16,301.78289883439635,1157.15,mp-30676,Zr3Ti2Ga3,https://materialsproject.org/materials/mp-30676,-54.689238240717685,-8.673382199627053,-58.01013056309691,-18.430627629440984
-6.2715538466666665,-37.62932308,8.666096244648784,-0.22335286375000032,3.8294288,0.528163432924784,0.0,187,6,84.49735156780741,440.9786,mp-1219065,SmFeNi4,https://materialsproject.org/materials/mp-1219065,-52.665302955426654,-16.88620033525116,-54.87446249208314,-16.138157588376178
-7.101422736666668,-42.60853642,7.670420079782388,-0.0985300949999998,7.071619500000001,0.9924752199418192,0.0,191,6,83.03795404053255,383.571825,mp-2827,YCo5,https://materialsproject.org/materials/mp-2827,-53.630780942215516,-17.2936102987075,-56.0645541600634,-15.907866212344432
-8.05880695368421,-153.11733212,8.120917522862296,0.0011360882894728929,38.9646856,1.7594131574531715,0.0,160,19,258.0956996377982,1262.225,mp-1219083,SmDyFe17,https://materialsproject.org/materials/mp-1219083,-53.5483499538488,-23.974567990023818,-56.065038096508815,-11.395108585254777
-6.240187500555557,-224.64675002,8.971554885243911,-0.4185370116666671,0.00900725,0.0002769138951213438,0.0,55,36,379.07478379385736,2048.064,mp-1200067,Yb2B6Ru,https://materialsproject.org/materials/mp-1200067,-35.64941957861007,-10.500007103718842,-37.659262273446714,-12.45260146092558
-8.07459562763158,-306.83463385,8.383286795482107,-0.024493144473684413,38.4125319,0.8801570068972628,0.0,194,38,508.61622566491616,2567.766,mp-1724,Er2Fe17,https://materialsproject.org/materials/mp-1724,-54.36394144147865,-22.639724217762275,-55.74851662579114,-9.375613728503886
-8.274400425833333,-99.29280511,7.356572653547668,-0.7249168675000005,8.75e-06,6.277117161350113e-07,0.0,62,12,162.45206858296783,719.7003,mp-1095573,NbCoSi,https://materialsproject.org/materials/mp-1095573,-63.54486991776886,-24.93918485065293,-58.203536035988066,0.8534183701008606
-7.755028356388888,-279.18102083,7.896915791068428,-0.7376947915476203,1.5470538,0.04036250972991096,0.0,62,36,446.6884074474122,2124.286544,mp-1203752,TbFe5P3,https://materialsproject.org/materials/mp-1203752,-64.49090704786782,-28.965942737864108,-65.05802849696421,-15.516557712549806
-7.098400127857143,-99.37760179,6.8462772679078805,-0.41205613071428665,0.0,0.0,0.0,148,14,183.54669858014228,756.7492,mp-567653,Ti3Ni4,https://materialsproject.org/materials/mp-567653,-42.060818700641,-36.54373043735511,-62.77111276728665,-30.682052154374013
-8.182552501904759,-171.83360254,7.386664175370346,-0.7068172945238086,16.3844396,0.7071945823517545,0.0,174,21,270.00393544519113,1201.0728740000004,mp-1190617,Dy2Mn12P7,https://materialsproject.org/materials/mp-1190617,-62.95458653922048,-29.45783070727992,-64.99593943745394,-17.400517228064402
-10.7552689275,-129.06322713,15.198777689953443,-0.14648278916666632,7.15e-06,3.578069535298192e-07,0.0,164,12,232.8813409068012,2131.54382,mp-1216012,YThRe4,https://materialsproject.org/materials/mp-1216012,-65.69283792632308,-10.79290102509183,-64.20295784086503,1.1621333015873947
-8.6472143375,-103.76657205,8.91619437520617,-0.4302596730555545,0.0,0.0,0.0,62,12,123.42713159037024,662.73678,mp-21347,CoBMo,https://materialsproject.org/materials/mp-21347,-56.575200591012475,-21.244511820703952,-57.56548416802512,-9.32476416498486
-8.067493687105264,-306.56476011,8.190818260171993,-0.011069783421054294,39.1265558,0.8874557469459821,0.0,194,38,513.8097501645071,2534.4314,mp-1194635,Tb2Fe17,https://materialsproject.org/materials/mp-1194635,-54.168367994810254,-22.676782720618448,-54.95238086977546,-9.591291109051914
-8.143246674444445,-293.15688028,8.193711090623415,-0.8251618640476184,8.26880375,0.2181849929986069,0.0,62,36,441.66728962289255,2179.349044,mp-1198946,GdCo5P3,https://materialsproject.org/materials/mp-1198946,-64.62586970853377,-28.992057358539988,-65.08731969870638,-15.496536013633252
-7.756920223888887,-279.24912806,8.002528544580901,-0.7420334134920634,1.52553885,0.040063814410157376,0.0,62,36,443.7602567979345,2138.585144,mp-1201079,DyFe5P3,https://materialsproject.org/materials/mp-1201079,-64.51437605404232,-28.990318559795195,-65.08145681661439,-15.562968968415976
-4.15954079625,-99.82897911,7.979622354417317,0.07688884249999954,0.0,0.0,0.0,165,24,331.5736487223656,1593.3575999999996,mp-8066,Cu3As,https://materialsproject.org/materials/mp-8066,-58.39462407014762,-32.13411533205407,-62.80434288622493,-30.820034980754272
-7.525784835833334,-90.30941803,11.225126233340216,-0.7407080041666667,1.7e-06,1.0806729604665231e-07,0.0185000000000004,62,12,183.32937750935062,1239.2936,mp-1102702,HfNiGe,https://materialsproject.org/materials/mp-1102702,-51.97038570284525,-8.407834190168245,-58.156486003023254,0.9345910032319514
-8.294066249285715,-116.11692749,7.811166550231981,-0.09348016395833372,22.3080315,1.4679435874730271,0.0,44,14,177.10438348440888,833.0980500000002,mp-1217503,TbTiFe11C,https://materialsproject.org/materials/mp-1217503,-52.711096444395935,-24.193596402568392,-56.37818411408393,-11.404461756976128
-6.3961214391666665,-76.75345727,6.220071562983912,-0.8182748591666673,0.0,0.0,0.0,62,12,188.25203661824656,705.1572480000001,mp-7066,ScNiGe,https://materialsproject.org/materials/mp-7066,-51.294509438284244,-8.057482349994988,-60.36829988246966,-16.544994908940794
-7.4034964950000015,-148.0699299,7.532678674561682,-0.3790705490000008,0.0,0.0,0.0,87,20,323.31375446597684,1466.6434,mp-30814,Zr9Ni11,https://materialsproject.org/materials/mp-30814,-37.630606814208825,-57.33703934399679,-60.336675302184794,-30.397150849255013
-7.301065652631579,-277.4404948,8.518766264658293,-0.11759224894736887,28.57097775,0.6427150843503036,0.0,194,38,518.0647434943069,2657.73484,mp-1197720,Tm2Ga3Fe14,https://materialsproject.org/materials/mp-1197720,-53.92234945179838,-22.762949313641357,-55.638813551847925,-10.006271051225998
-8.267842602142858,-115.74979643,7.855283045745763,-0.11164319249142908,28.4412373,1.8789223545001348,0.0,139,14,176.40751407959095,834.5067,mp-1208661,SmFe12N,https://materialsproject.org/materials/mp-1208661,-52.764936764000794,-24.235310811255477,-56.42098326433878,-11.351977796554468
-5.16719609875,-82.67513758,5.058101748358408,-1.4347525818750009,6.9999993,0.5654802892534728,0.0,12,16,144.26399434323253,439.4368,mp-757010,Li3Fe(NiO2)4,https://materialsproject.org/materials/mp-757010,-9.50256109254549,-64.33065030852632,-26.452455732840967,-62.658690736622155
-7.852343994827587,-227.71797585,8.186502436776957,-0.06680871586206942,51.3345573,1.3838706347496608,0.0,44,29,432.306489365677,2131.2827,mp-1216220,Y2Er4Fe23,https://materialsproject.org/materials/mp-1216220,-56.5937005641088,-17.59967896813638,-50.39918423642723,-14.270893043692586
-3.160585765652174,-72.69347261,6.7847470063948485,-0.3247154121324639,1.6e-06,3.8471271315684234e-08,0.0,229,23,484.6864425947258,1980.3659,mp-542496,Ca6Ag16N,https://materialsproject.org/materials/mp-542496,-71.69034000729468,0.6062352561388458,-57.17188997367897,-30.648366440859935
-6.3895533365,-127.79106673,11.237334924980896,-0.21777363716666612,1.55e-06,5.1028911849023006e-08,0.0,136,20,353.9914872359437,2395.56,mp-1212597,Hf2InCu2,https://materialsproject.org/materials/mp-1212597,-54.6608848566113,-9.111449487215813,-56.947592907819825,-18.604566791138748
-6.403041597760417,-1229.38398677,7.01944987045753,-0.20196611578125,0.1011263,0.0003994670382125528,0.0,118,192,2950.262068386771,12471.382,mp-680383,V17Ge31,https://materialsproject.org/materials/mp-680383,-64.32139455791348,-26.358906906767626,-61.524158140092936,-12.760542769628993
-4.66429587,-37.31436696,15.284403541263494,0.06072168749999918,2.6098258999999997,0.21808750182929693,0.0,194,8,139.4627377937073,1283.682414,mp-1187741,VAu3,https://materialsproject.org/materials/mp-1187741,-49.25852708526574,-33.765144167342285,-58.449743145932615,-27.34576765385748
-6.444822325277778,-232.01360371,10.555345020919468,-0.4064305247222227,0.0018866,5.8119112646587916e-05,0.0,55,36,378.3016911081816,2404.704,mp-1198720,Yb2B6Os,https://materialsproject.org/materials/mp-1198720,-35.68428679309386,-10.5125945735956,-37.74647719018938,-12.230986715290994
-6.7987704933333335,-40.79262296,9.17246750053685,-0.1062012266666675,7.0894728,0.9982850312286236,0.0,191,6,82.76311136591463,457.165975,mp-2551,DyCo5,https://materialsproject.org/materials/mp-2551,-53.53718988705718,-17.239853537194733,-54.831634042123135,-16.162451005897058
-7.28325741047619,-152.94840562,10.363812891482935,-0.8907346945238092,0.0,0.0,0.01890000000000036,38,21,331.1919243463631,2067.046334,mp-29933,Hf5P7Pd9,https://materialsproject.org/materials/mp-29933,-51.608694163758706,3.216818902083779,-41.259942574271015,15.388493560926907
-4.043943517142857,-56.61520924,8.809619294903962,0.06136031357142865,0.0,0.0,0.0,38,14,200.6089472842204,1064.286,mp-30596,Cu11Sb3,https://materialsproject.org/materials/mp-30596,-54.58922501286558,-47.025552754044895,-63.42339119456538,-33.36266007689121
-6.7961081483333325,-40.77664889,9.060571983026579,-0.09986875000000002,7.072328999999999,0.9914747708981922,0.0,191,6,83.13008326392969,453.591325,mp-1200,TbCo5,https://materialsproject.org/materials/mp-1200,-53.053876900049325,-17.071984656915586,-54.75153613046388,-16.216048358503222
-7.532312148055557,-271.16323733,10.605234593734133,-0.6915616588888898,9.9e-06,3.0650974711580877e-07,0.0,55,36,376.4162227596262,2404.028,mp-1201869,Lu2ReB6,https://materialsproject.org/materials/mp-1201869,-35.68592990227261,-10.571860173223165,-37.715665173030686,-12.165339237148324
-7.3172386071428575,-102.44134050000001,8.975637029995053,-0.6950766528571434,0.0,0.0,0.0,148,14,258.76743785899725,1398.7040000000004,mp-12712,Zr3Pd4,https://materialsproject.org/materials/mp-12712,-75.9562620331142,2.5332414979356965,-55.68790374001457,7.6193458794729185
-8.05975523875,-128.95608382,5.344121074533726,-0.8456587285416672,0.15803665,0.006532803023100657,0.0,193,16,281.9263567301297,907.325,mp-1215386,Zr3Ti2Si3,https://materialsproject.org/materials/mp-1215386,-53.787260351339924,-19.81890765509189,-55.752682926324795,-14.015125717720414
-6.406637430779222,-493.31108217,7.819994775154385,-0.2613198212012999,0.1581777,0.0018989290570731907,0.0,229,77,970.7646288881157,4571.632549999998,mp-570148,Y11(Ni10C)6,https://materialsproject.org/materials/mp-570148,-56.23867386178235,-31.45721036903605,-63.36750325394433,-31.232794073020028
-5.117356595333335,-153.52069786,2.560302367125745,-0.12010595677777758,8.7e-05,3.537601823832494e-06,0.0,2,30,286.60761886262014,441.906,mp-35040,LiMg9B20,https://materialsproject.org/materials/mp-35040,-36.94431718674424,-41.40841581903903,-62.68883392627906,-30.473914719026524
-4.07011599368421,-77.33220388,8.69013645539533,-0.25900813789473665,3.41e-05,1.4324648483033284e-06,0.0,166,19,277.42642984572154,1451.862,mp-1225618,Er2Ga6Cu11,https://materialsproject.org/materials/mp-1225618,-51.61615595665227,-22.52991830766712,-56.45257077062347,-13.572815223688917
-8.01855549,-32.07422196,6.558829099800018,-1.229776637031251,9.5e-07,1.7495956729719114e-07,0.0,194,4,63.27954341088182,249.94276000000002,mp-647,NbS,https://materialsproject.org/materials/mp-647,-40.759578454463856,-19.913058940588407,-55.496489533057975,-16.424036127660447
-2.5955459566666668,-15.57327574,7.2259809090707625,-0.17498525444444427,1.0199999999999999e-05,1.077479886643879e-06,0.0,63,6,110.32360061065106,480.0828,mp-1185823,MgAg2,https://materialsproject.org/materials/mp-1185823,-48.74121808279372,-29.702641140360974,-55.7728076607262,-27.05799932752128
-7.660826568157893,-291.11140959,8.51810845201379,0.06942609026315656,38.26386885,0.8828997762517632,0.0,194,38,505.0738691086384,2590.89,mp-1195706,Yb2Fe17,https://materialsproject.org/materials/mp-1195706,-54.674605716269646,-22.65391418384529,-54.69413277543154,-9.361935111624641
-6.961693470555557,-250.62096494,9.250586390416348,-0.6872673461111111,7.6425e-05,2.3960191101817336e-06,0.0,55,36,371.72570805385584,2070.822,mp-1211036,Lu2B6Rh,https://materialsproject.org/materials/mp-1211036,-35.733878957749475,-10.618660086422484,-37.700188085560924,-12.214836367289694
-7.1013901675,-255.65004603,8.491527146758047,-0.850553165992063,1.1271958999999998,0.030176691572717417,0.0,62,36,435.316575321341,2226.085884,mp-1195792,TmCo5P3,https://materialsproject.org/materials/mp-1195792,-64.75648211899365,-28.94627819715954,-65.02996614932847,-15.316220888170752
-7.634086141,-76.34086141,8.136715910799454,-0.35393517899999977,0.0,0.0,0.0,127,10,170.67808382383126,836.3302799999999,mp-11393,Nb3Ga2,https://materialsproject.org/materials/mp-11393,-54.55987575786094,-8.469411287032214,-60.476298024526976,-16.617404755034247
-8.46452348909091,-186.21951676,7.180030929343183,-0.08141831482954584,34.7470783,1.5052729796403124,0.0,166,22,269.01745174630423,1163.2088,mp-1190821,Y2Fe17C3,https://materialsproject.org/materials/mp-1190821,-54.158554808570706,-25.335422556126556,-59.88416308956765,-12.01419977790565
-6.4293809325,-77.15257119,8.585991669507129,-0.15420019395833387,7.1983976,0.500216687825734,0.0,47,12,167.7085029963337,867.1544449999999,mp-1223140,LaCe(CoNi)5,https://materialsproject.org/materials/mp-1223140,-52.42465860497926,-17.473456115536894,-53.91658470715246,-14.576156104075448
-6.04205627,-96.67290032,5.066702531142887,-1.78562372625,9.000000300000002,0.7331033105377723,0.0,12,16,143.07204038175257,436.54708,mp-756763,Li3Cr(CoO2)4,https://materialsproject.org/materials/mp-756763,-9.519271830061433,-64.36494853082894,-26.717983969441413,-62.58316190929246
-5.6467895725,-45.17431658,10.106546887215206,0.2249349369049991,4.7e-06,5.001578314136073e-07,0.0,182,8,109.51363947700527,666.5334,mp-1079760,Pd3N,https://materialsproject.org/materials/mp-1079760,-47.86849674080638,-32.391774709767105,-66.23836508412164,5.225074704325299
-6.357470958333334,-76.2896515,8.313691859788657,-0.16636683354166712,7.48128,0.5277268059258654,0.0,47,12,165.212986573025,827.15903,mp-1219012,SmY(Co2Ni3)2,https://materialsproject.org/materials/mp-1219012,-53.57278149610813,-17.1421064350352,-55.062696885282364,-14.152787139425516
-7.056947653333332,-254.05011552,7.788137215233343,-0.7742309515476182,1.487340125,0.038215540488456316,0.0,62,36,453.5735445325688,2127.3170440000004,mp-1200320,NdCo5P3,https://materialsproject.org/materials/mp-1200320,-64.38974700878438,-28.903996996197833,-65.21607851574582,-15.696804756215215
-7.780701319375,-124.49122111,8.152624055830708,-0.3234885943750001,1.25e-06,5.3080944619933474e-08,0.0,140,16,274.44087647658506,1347.4018,mp-570293,Nb5Ga3,https://materialsproject.org/materials/mp-570293,-63.229414433558816,-18.723363638592197,-57.90771374137832,-10.446641595436164
-6.5959773944736835,-250.64714099,9.25218704574008,-0.10295960236842093,19.9543194,0.4869185340896408,0.0,194,38,477.5930971999777,2661.0519600000002,mp-1204922,Ho2Co12Ni5,https://materialsproject.org/materials/mp-1204922,-56.99404345916229,-22.96296417262402,-54.41236062873908,-8.280508538018593
-7.833682910909091,-172.34102404,7.827161677120287,-0.10332294232954614,30.638015399999997,1.2809726308925649,0.0,166,22,278.73930118669944,1313.8730999999998,mp-1191783,Sm2Ga2(Fe5C)3,https://materialsproject.org/materials/mp-1191783,-51.57411510807315,-22.790903798636275,-57.229336972215435,-10.323454895856845
-8.345562951818183,-183.60238494,8.116938974928916,-0.08632877572090986,22.9590417,1.0323711775794189,0.0,166,22,259.1763165212112,1266.88882,mp-1191093,Gd2Fe17H3,https://materialsproject.org/materials/mp-1191093,-52.523700223776935,-23.382818260983925,-56.077277710132144,-11.272117487427964
-8.304595797727272,-182.70110755,7.684958281015072,-0.2498352296427271,38.3881023,1.617711008016094,0.0,166,22,276.5496608992581,1279.8691,mp-4383,Nd2Fe17N3,https://materialsproject.org/materials/mp-4383,-51.55748645417082,-22.812233721895424,-57.29329289383994,-10.491113422234804
-6.296300468589744,-491.11143655,8.631426036437661,-0.4860860801282048,0.0020233,1.8307288630665076e-05,0.0,122,78,1287.993527060234,6694.946999999999,mp-1203373,Ge22Rh17,https://materialsproject.org/materials/mp-1203373,-43.01004179678016,-17.823204276149596,-59.18727275597959,-13.978876359139068
-3.01708332625,-24.13666661,11.632756508934856,0.4731401712499999,3.65e-06,2.8247618749563107e-07,0.0,194,8,150.58733550947818,1054.9260000000002,mp-1183653,Cd3Os,https://materialsproject.org/materials/mp-1183653,-47.64553075275032,-31.35649579222929,-59.03610325415604,-28.586498501636
-3.647543768571429,-51.06561276,2.3173898633279197,0.14020959428571445,4.525e-05,1.986284259172785e-06,0.0,8,14,265.4939385050288,370.514,mp-1075120,Mg3Si4,https://materialsproject.org/materials/mp-1075120,-57.28097430703875,-5.719221703698678,-35.286822424476796,5.2967359124631885
-8.219560808999999,-82.19560809,12.943909978141534,-0.2520708529999993,0.0217298,0.0014872441913686767,0.0,127,10,170.27499462728858,1327.29442,mp-1207894,U2GaCo2,https://materialsproject.org/materials/mp-1207894,-54.71439059054448,-9.742347296009877,-56.85069573541503,-18.57181239143736
-5.393707006666666,-32.36224204,8.598404532954536,-0.3403443441666667,0.00047389999999999997,6.495096604099445e-05,0.0,187,6,85.03124175597681,440.2986,mp-1226673,CeZnNi4,https://materialsproject.org/materials/mp-1226673,-52.599259713976714,-16.459811181431938,-54.91998263901979,-15.367420201872495
-8.185056343684211,-311.03214106,7.966794774432173,0.008931616842104225,36.84716085,0.8377669174200499,0.0,194,38,512.5759806238782,2459.194,mp-1195962,Ce2Fe17,https://materialsproject.org/materials/mp-1195962,-38.554225576449426,-33.416880995373525,-59.876670419235936,-30.355545022354587
-9.61964639625,-76.95717117,14.084708988500486,0.5011569337500017,2.285e-05,1.9612904232937483e-06,0.0,194,8,135.7755979890925,1151.65,mp-978264,MgW3,https://materialsproject.org/materials/mp-978264,-50.03388295977247,-34.687027457662296,-61.281086576467686,-28.30956061351117
-6.536251899375,-104.58003039,6.93425052997004,-0.32180182437500005,1.822875175,0.05490295356807871,0.0,53,16,386.9355650493194,1615.80552,mp-616481,NbFeTe2,https://materialsproject.org/materials/mp-616481,-10.43456788451866,-3.547093857204504,-33.400762183570535,-14.125448674982314
-7.722293641,-77.22293641,5.7200113857048525,0.5188537030000007,0.03224345,0.002360364355122588,0.0,194,10,159.1988346948554,548.3876772000001,mp-1237224,ZrAlCr3,https://materialsproject.org/materials/mp-1237224,-32.14929773544779,3.0885701640762937,-42.32830236887618,-1.2247574036252498