energy_per_atom,energy,density,formation_energy_per_atom,total_magnetization_uB,total_magnetization_T,band_gap,sgr,num_sites,cell_volume,weight,mp_id,formula,URL,tsne_xrd_lin1_0,tsne_xrd_lin1_1,tsne_xrd_lin2_0,tsne_xrd_lin2_1
-5.7159154435,-228.63661774,4.247410889906062,-3.482353201631,15.0025707,0.2992067690250945,2.1172000000000004,15,40,584.3481792286667,1494.6753795999996,mp-1214779,Ba2CaMnFe2F14,https://materialsproject.org/materials/mp-1214779,12.770484677320075,-16.372045098967313,17.09514110751263,-10.425898869267254
-7.213868529148936,-339.05182087,7.876822026843274,-0.6656157207598784,60.701010600000004,1.0276383278321948,0.0,187,47,688.3876263982123,3265.389544,mp-1213589,Eu9(Ni13P6)2,https://materialsproject.org/materials/mp-1213589,-51.03115344478361,0.06829792017932976,-55.76708308412724,20.132616517998624
-7.016516062232142,-785.84979897,8.544300033572847,-0.1202431784821434,30.8494971,0.2758800703789528,0.0,220,112,1303.1823462653458,6705.52194,mp-1210590,Nd2Co23B3,https://materialsproject.org/materials/mp-1210590,-57.67567948072261,-24.84453766481069,-60.14812560795708,-12.455988543448555
-5.28411524875,-84.54584398,5.116782634135246,-1.430412784375,8.6795735,0.6792905993379879,0.0,12,16,148.9087466627273,458.8472,mp-1177754,Li3Fe(CuO2)4,https://materialsproject.org/materials/mp-1177754,-6.854461479874041,-62.384120548538114,-24.637543447632567,-63.27794594651734
-6.281640579375,-100.50624927,4.775353246757655,-2.0081190672916667,12.570975099999998,0.9743142683992227,0.08289999999999997,12,16,150.36519819250543,432.41798,mp-756324,Li3Ti(CoO2)4,https://materialsproject.org/materials/mp-756324,-6.708597875679003,-62.27048894899783,-24.215757322052976,-63.65029544080122
-5.8945355315,-117.89071063,3.962768525614184,-1.9374967959710008,7.00000005,0.4533992162356719,0.3727999999999998,12,20,179.92632335786288,429.38248,mp-1174247,Li3MnCoO5,https://materialsproject.org/materials/mp-1174247,4.288365397884261,-71.55477926819167,-22.616245226615213,-73.005068821669
-7.805311226666666,-234.15933680000003,6.708995155441443,-0.6806609470000002,1.455e-05,4.260750465030475e-07,0.0,139,30,397.97365237048837,1607.9136,mp-984586,Nb4Co4Si7,https://materialsproject.org/materials/mp-984586,-64.73923175681351,-18.103215344726745,-63.15582015791188,-16.108083362250678
-8.742560664166666,-104.91072797,6.64687662576971,-1.0370388082142852,1.98677825,0.13080640207670613,0.0,62,12,177.01000904095687,708.543228,mp-20147,ZrMnP,https://materialsproject.org/materials/mp-20147,-52.44433149826865,-8.182088793599263,-58.472405929206865,1.474273600148029
-6.110599215,-12.22119843,8.37805138648984,0.16896235500000056,2.5411033,1.2514747372366908,0.0,65,2,23.663428090729624,119.391,mp-1224945,FeCu,https://materialsproject.org/materials/mp-1224945,-50.47091320420945,-51.9731284646975,-69.59278900264667,-43.82690167331349
-7.105291868888888,-255.79050728,8.342293534289585,-0.8403142418253972,1.3208738000000002,0.03514661879203654,0.0,62,36,437.98093104378233,2200.349044,mp-1204813,DyCo5P3,https://materialsproject.org/materials/mp-1204813,-64.68360319772502,-29.0113073710427,-64.97867554624862,-15.400699485710314
-3.09994655875,-24.79957247,6.206657959386003,-0.16801767374999965,2.6e-06,2.3127178564007826e-07,0.0,47,8,131.01714212476884,489.7076,mp-1222558,Li3Ag3Ge2,https://materialsproject.org/materials/mp-1222558,-50.42086102574707,-39.78796793710377,-57.19178892846819,-26.511457259080075
-5.916326249642857,-165.65713499,3.4133318220669797,-1.0277292595833336,3.000003975,0.05347375148583935,0.2456999999999998,62,28,653.8206067671364,1343.9652,mp-1238898,TiCrAgS4,https://materialsproject.org/materials/mp-1238898,22.03550449645229,-41.82237683084245,2.5894036577248984,-69.0663019675626
-4.993552118181818,-54.9290733,10.401779255778873,-0.4100656013873105,0.0006037000000000001,3.799405352820325e-05,0.0,123,11,185.17526428107345,1159.956,mp-1102524,In2Pd8Se,https://materialsproject.org/materials/mp-1102524,-56.0992341066563,-35.06313194257541,-63.515410271880796,-31.03977140784984
-3.338660932,-16.69330466,4.3871350355016085,-0.29189237599999984,0.0,0.0,0.0,71,5,104.83405564817636,276.971,mp-30472,Ca2GaCu2,https://materialsproject.org/materials/mp-30472,-36.023148918985804,-8.639643586737641,-39.42704547876693,-15.133462261190804
-4.76301378875,-76.20822062,3.54819497562693,-2.5347337859150003,1.9999999,0.1632806031042355,3.1373,12,16,142.74891160729854,305.0220192,mp-753094,Li3NiOF3,https://materialsproject.org/materials/mp-753094,-9.049194027108065,-64.86556437561599,-26.19531942197873,-61.82620703998284
-5.11863039375,-163.7961726,3.75167663762606,-0.3771597631250003,0.0007519,1.544609578808393e-05,0.0,123,32,567.3078441768897,1281.7257132000002,mp-1200402,Y5Mg5Al12(Fe2Si3)2,https://materialsproject.org/materials/mp-1200402,-35.54415583554105,0.7625867938782366,-27.37897363744431,12.02999008112732
-8.552769493103451,-248.03031529999998,6.795935200339465,0.049542157931034767,1.8335983,0.04866662591014497,0.008799999999999919,225,29,439.08680652136223,1797.0101350000002,mp-1355,Y6Mn23,https://materialsproject.org/materials/mp-1355,-57.19544720627166,-17.483311826321476,-51.37825235764527,-14.807626659583747
-2.27858121,-9.11432484,6.837724280678116,0.6641569556550002,4.52e-05,1.031753670969033e-05,0.0,139,4,51.055183280807384,210.23370000000003,mp-981366,Zn3N,https://materialsproject.org/materials/mp-981366,-68.6589304700734,-43.93452719541422,-65.11969814657937,-29.3501741411702
-7.82587497,-375.64199856,5.7211326547658015,-0.6865235825000001,0.9914676416666668,0.01639611048304612,0.0,55,48,704.7176296980941,2427.9965399999996,mp-1197723,ZrMnSi2,https://materialsproject.org/materials/mp-1197723,-59.346829630737744,-10.148591299158232,-54.45776649061553,-8.832249512189415
-9.110522958620688,-264.20516580000003,8.75049765444628,-0.28898666387930977,3.4e-06,9.193336450068999e-08,0.0,87,29,431.0058752000267,2271.26,mp-1210708,Mo21S8,https://materialsproject.org/materials/mp-1210708,-57.92837150245546,-22.17956549248785,-62.40483822668408,-4.563192864783633
-7.406486430833334,-177.75567434,8.559804608938633,-0.6485636494444442,2.25e-06,1.0845632868388849e-07,0.0,55,24,241.77146743262958,1246.292,mp-1191359,ErB4Ru,https://materialsproject.org/materials/mp-1191359,-37.623414087414396,-11.757061240466676,-37.977666203052955,-10.588933095789075
-8.3611784303125,-267.55770977,9.287156625191693,-0.6085879494531241,0.044004800000000004,0.0008938723288477377,0.0,194,32,573.7226368385446,3208.7484000000004,mp-1207430,Zr9W4O3,https://materialsproject.org/materials/mp-1207430,-68.58035853266281,-4.699323882029637,-64.09413962356064,3.5239038856082674
-8.1044769,-48.6268614,15.679138748065018,-0.6851527247222222,1e-06,1.4374316098246016e-07,0.0,191,6,81.07561217456282,765.5319999999999,mp-5197,ErB2Ir3,https://materialsproject.org/materials/mp-5197,-63.242396512825316,9.186775978021917,-54.6305087352832,7.489339693195849
-7.880634871666667,-189.13523692,10.248960710786255,-0.5830634940277785,2.385e-05,1.1042916326545842e-06,0.0,55,24,251.69931257868146,1553.5054,mp-1192121,TbReB4,https://materialsproject.org/materials/mp-1192121,-37.40932458149643,-11.61772910118376,-38.83979246608271,-11.62317127050369
-6.055513364444446,-435.99696224,5.927118569674628,-2.1443070123263888,8.99344965,0.10126735033696577,0.15849999999999964,43,72,1034.9855545849637,3694.2715299999995,mp-30201,Ba8(CoO3)7,https://materialsproject.org/materials/mp-30201,0.21849167710474465,-3.0654774597508254,5.011199175690488,7.14206605607381
-6.33000067125,-50.64000537,9.779435573395789,-0.4989736637499984,2e-07,1.7616752546874254e-08,0.0,129,8,132.306618277697,779.1952,mp-1080723,HfCuGeAs,https://materialsproject.org/materials/mp-1080723,-62.456511789814606,-30.329921983958698,-65.87601999713137,-18.063018808145603
-6.677316926730769,-347.22048019,3.431408883956564,-1.5618863741069224,7.5e-08,1.2956299524443026e-09,3.324,14,52,674.6176686429695,1394.0588,mp-1196716,Dy(NO3)3,https://materialsproject.org/materials/mp-1196716,40.09816075123421,-31.89553869839682,12.905460945994164,-56.401695837275035
-5.591054369999998,-33.54632622,9.619634977433195,0.5118643258733341,6.5e-07,9.672479656287591e-08,0.0,58,6,78.31644388354523,453.6934,mp-510087,Pd2N,https://materialsproject.org/materials/mp-510087,-66.31357257697145,-15.750061219849144,-59.310327309909184,-29.091409243321642
-2.2213056165,-133.27833699,7.615493991522388,-0.07290366425000011,0.9218983,0.012744377490237331,0.0,171,60,843.0276418085441,3866.257755000001,mp-1207538,Zn17Co3,https://materialsproject.org/materials/mp-1207538,-57.99136793025654,-31.662656584097963,-63.282572635554715,-29.92666685379539
-5.7057182825,-45.64574626,10.080104805147064,0.15022599328124994,0.20439145,0.015953865274892846,0.0,194,8,149.3049587804918,906.3380000000001,mp-21349,PuGa3,https://materialsproject.org/materials/mp-21349,-46.38980759906557,-30.7238006819836,-53.67385193166781,-23.224513767327885
-6.944429817222222,-249.99947342,8.737762826911002,-0.6607720538888889,0.002304975,7.035269161256967e-05,0.0,55,36,381.823741685121,2009.158,mp-1212905,Er2B6Rh,https://materialsproject.org/materials/mp-1212905,-35.6601424658204,-10.492700907356141,-37.71524904444719,-12.281137585083039
-5.907800218888888,-106.34040394,9.586499987485213,-0.3852752477777778,1.30371145,0.06018502506653608,0.0,166,18,252.4471438905421,1457.4089999999999,mp-1189379,Tb2Ni7,https://materialsproject.org/materials/mp-1189379,-63.589660359688956,-16.526579445745767,-53.271980900809545,2.179829361694099
-9.422144277222225,-339.19719398,9.4457392005975,-0.5938478788888896,14.001547875,0.40739286167404815,0.0,55,36,400.5346219882972,2278.384,mp-1202304,Gd2B6Os,https://materialsproject.org/materials/mp-1202304,-35.618302671086774,-10.356278662084641,-37.771937132358005,-12.284559391676073
-10.409140250555557,-187.36452451,14.403497693792907,-0.5009297480555546,4.083333333333333e-06,1.7405983996275772e-07,0.0,46,18,273.3969602913611,2371.44228,mp-1188590,TaReSi,https://materialsproject.org/materials/mp-1188590,-50.48274892347242,-7.672199999263022,-58.608240442600746,1.434824574923187
-6.463503748275862,-187.4416087,10.507580052672743,-0.6016095874137928,1.771049,0.04337614029696184,0.0,225,29,475.835784836364,3010.99973,mp-630265,U3(Si3Pd10)2,https://materialsproject.org/materials/mp-630265,-69.46377758235319,-2.6028780375373164,-55.572953955412906,-0.9744352168183328
-1.3843799708333335,-16.61255965,4.953331462587856,-0.001050434166666688,1.9875e-05,1.1135165558235176e-06,0.0,63,12,208.01175891212728,620.4920000000002,mp-1094460,MgZn2,https://materialsproject.org/materials/mp-1094460,-49.674492310006116,-34.29556501106449,-57.242514415805275,-27.57514730383966
-4.7959387725,-38.36751018,5.4162578308627864,-0.5394278512499993,1e-07,7.787828300452734e-09,0.0,63,8,149.6446033855446,488.1028,mp-13512,CaNiGe2,https://materialsproject.org/materials/mp-13512,-21.778265615563523,24.228636322846175,-42.020209034273,23.700808704264695
-5.344948084545455,-235.17771572,10.74228047973176,-0.4533867881818187,0.032743375,0.0005072548222831724,0.0,146,44,752.2716322432301,4866.56,mp-680057,Sb3Pd8,https://materialsproject.org/materials/mp-680057,-56.849018312343134,-31.33945611211192,-62.62685527985207,-21.017116997407893
-7.5598141625,-90.71776995,10.180914077747977,-0.9084950808333344,2.22e-05,1.1209748484337249e-06,0.0,62,12,230.79932463455398,1415.0514,mp-1102373,YGeIr,https://materialsproject.org/materials/mp-1102373,-30.680777372506004,5.599389894928143,-39.00437866116468,8.015655942048024
-4.257026057142856,-29.799182399999996,6.800054563503294,-0.3460394957142857,0.0,0.0,0.0,166,7,120.05776746092613,491.6472,mp-10441,Sr(Cu2As)2,https://materialsproject.org/materials/mp-10441,-51.54280493879034,-21.30379689827186,-57.783838076063844,-30.400311849455342
-5.8386595125,-46.7092761,6.302989904236928,-1.369058986445312,0.0,0.0,1.2608,11,8,247.07535852711484,937.83612,mp-1079673,ThSe3,https://materialsproject.org/materials/mp-1079673,0.9536965541983166,-10.576184117935489,10.607929891072828,-17.806740213577694
-5.6010976675,-89.61756268,3.70261876864087,-2.652540199375,0.0,0.0,0.2402999999999995,123,16,202.36632771189946,451.2302,mp-1031857,BaCaMg6O8,https://materialsproject.org/materials/mp-1031857,-33.172225241534335,-7.535762045697669,-44.73219490286395,-10.401080757868735
-6.353749208125,-101.65998733,4.572803324898356,-1.9746075318750007,0.9999998999999999,0.07565645501680385,0.00590000000000046,12,16,154.0392502472494,424.1943,mp-754129,Li3Cr(FeO2)4,https://materialsproject.org/materials/mp-754129,-6.3527821609516,-61.66227273309038,-23.744717473554058,-63.97554294015753
-9.16050943857143,-192.37069821,8.87574857581234,-0.5978284073015873,0.00026619999999999997,1.2344788973714815e-05,0.0,175,21,251.30539283101547,1343.2526599999999,mp-1191941,Nb7(B4Ru3)2,https://materialsproject.org/materials/mp-1191941,-62.187374474607324,-19.097751213005463,-62.39943393126542,-5.160708703301329
-5.877280291,-58.77280291,15.46190108098299,-0.07528862850000095,3.4962512,0.2957491666217472,0.0,123,10,137.77059259832728,1282.8336,mp-1220122,Ni4GePt5,https://materialsproject.org/materials/mp-1220122,-63.99977001277971,-43.406802878287,-73.65418618867405,-32.928159294633325
-7.13611263625,-57.08890109,4.248868308764443,-0.2762413262500001,6e-07,5.2443091960105587e-08,0.0,194,8,133.3338405915328,341.1650772,mp-1823,Ti3Al,https://materialsproject.org/materials/mp-1823,-49.90656407412502,-34.86277903623098,-59.84835673827079,-27.59215227209344
-3.19604652,-25.56837216,16.06926160294344,-0.03366190416666681,9.9e-06,7.98907515104373e-07,0.0,194,8,144.41626729880966,1397.535814,mp-985287,AgAu3,https://materialsproject.org/materials/mp-985287,-48.38581515510951,-32.9672617752734,-60.64837270755209,-25.02078060331461
-6.40154218375,-51.21233747,5.613225265270391,-0.5271800437499996,0.0,0.0,0.19459999999999944,129,8,124.80374440122064,421.88199999999995,mp-19953,ZrCuSi2,https://materialsproject.org/materials/mp-19953,-61.82226460150997,-31.0165733223522,-65.60970371248662,-18.992338771119297
-5.336516554285715,-149.42246352,10.108313592852456,-0.38424545214285744,7.5e-08,1.8252019184550158e-09,0.0,227,28,478.88118520160276,2915.1264,mp-541021,SbAsPd5,https://materialsproject.org/materials/mp-541021,-43.98277083430775,-37.747264885611095,-58.583004658233,-17.714673501710184
-5.991717131034482,-173.7597968,9.491067030299464,-0.8051644169827586,1.31e-05,3.196755777327616e-07,0.0,225,29,477.57244892870006,2729.639,mp-1209902,Nd3(Si3Pd10)2,https://materialsproject.org/materials/mp-1209902,-69.6279361877165,-2.590364633900969,-59.039424603237656,-17.06529481838334
-8.423310903684209,-160.04290717,6.731528046206567,-0.05322337468631657,7.8359917,0.5151314323862854,0.0,12,19,177.27738803669132,718.6508,mp-1245508,Cr2Fe9N8,https://materialsproject.org/materials/mp-1245508,-64.63719270327775,-28.39051165696071,-64.20867116489924,-14.488283683970986
-5.609511266,-224.38045064,4.67147993046591,-3.3717600304289994,5.000000575,0.10375791266526067,3.625,15,40,561.5989091056114,1579.9074695999998,mp-622203,BaMnGaF7,https://materialsproject.org/materials/mp-622203,12.685791217286866,-16.759269010413128,17.139772755124493,-11.072310962920456
-5.418309126666667,-130.03941904,8.973898699808169,-0.1965287260416678,1.62e-05,4.3572934834209936e-07,0.0,225,24,433.2869705330011,2341.573000000001,mp-981247,Zn7Sb8Ru9,https://materialsproject.org/materials/mp-981247,-38.07198276519964,-37.69805134339508,-61.926506732221775,-32.46248182760411
-7.076870706666668,-84.92244848,4.501348994941729,-0.9633434492187511,0.0015998,5.5189320283239407e-05,1.4068,156,12,337.8221135440056,915.76,mp-1027267,Mo3W(SeS)4,https://materialsproject.org/materials/mp-1027267,-7.361866514785862,-82.00724671413343,-22.034953378400782,-50.58979932215014
-5.820558908333332,-34.92335345,8.62235107612544,-0.4742226083333338,3.5799999999999996e-05,4.872538727073326e-06,0.0,65,6,85.62590103993614,444.6126,mp-1226588,CeGaNi4,https://materialsproject.org/materials/mp-1226588,-50.867403864091905,-16.316231741621376,-55.92096798434874,-13.208669059947285
-5.6285175672413805,-163.22700945,7.738534834793921,-0.5491372927586204,0.13151229999999997,0.003364195790194305,0.0,225,29,455.5777838660754,2123.1085000000007,mp-1193834,Ti6Ga16Rh7,https://materialsproject.org/materials/mp-1193834,-38.51860292219642,-39.62045605417737,-61.971379755734795,-32.459674387601474
-4.5780831528571415,-32.04658207,2.8907395609923845,0.2633889207857142,6.08e-05,6.441185753826e-06,0.0,175,7,110.00569852387,191.50276928,mp-1268190,NaSi6,https://materialsproject.org/materials/mp-1268190,-73.8163337692105,-35.74099322717893,-59.231625005568525,-18.77962055543912
-5.958151530625,-95.33042449,4.900700383202637,-1.7108005338099996,15.876980599999998,1.2425285272976705,0.0,12,16,148.91518081077106,439.489025,mp-756302,Li3Mn(CoO2)4,https://materialsproject.org/materials/mp-756302,-6.8820187687272485,-62.589984760495796,-24.840586006290394,-63.092805795921926
-9.114244334,-91.14244334,7.750683348629486,-0.29311962066666697,0.0014751,0.00016474574090662004,0.0,38,10,104.34813580854164,487.0523,mp-1226327,Cr3B4Mo3,https://materialsproject.org/materials/mp-1226327,-57.41525990602405,-25.448264395363196,-59.587909894339006,-11.078810915298124
-3.47826560375,-27.82612483,10.34856975069402,-0.06222493625000025,7.2000000000000005e-06,6.080200047893468e-07,0.0,194,8,138.00412108397782,860.0492,mp-1183206,Ag3Pd,https://materialsproject.org/materials/mp-1183206,-49.56468436126213,-34.54969034338943,-59.3151430597019,-27.36306476637407
-5.5605108275,-133.45225986,4.9252072838489385,-1.5725897811216665,8.006924099999999,0.4229987261741107,0.0,5,24,220.599274457296,654.30389,mp-764735,Li5Mn2Cu5O12,https://materialsproject.org/materials/mp-764735,-9.429126634137235,-62.3615410388134,-30.036304773619307,-61.593607642347116
-5.116790196666667,-15.35037059,2.637300953915517,-0.12966081444444436,1.6e-06,6.448221299070665e-07,0.0,191,3,28.917282412101606,45.927,mp-763,MgB2,https://materialsproject.org/materials/mp-763,-36.867793549531854,-41.33218498292084,-59.80009950761411,-51.459226176074594
-5.69818089625,-91.17089434,7.1198783203391125,-0.5986922550000005,2.25e-06,9.033638402084283e-08,0.0,63,16,290.2667183602271,1244.5739999999998,mp-1207393,Zr3Ga5,https://materialsproject.org/materials/mp-1207393,-55.12145080069614,-8.175360962676082,-48.98238980129407,-4.731188368910409
-5.750166853500001,-460.01334828,4.670492540026838,-1.4221038915000002,6.52e-05,3.1200863112779325e-07,0.3668999999999998,134,80,2435.333344543513,6849.7072,mp-1196369,Y4RuBr5,https://materialsproject.org/materials/mp-1196369,-13.231133246540375,16.018366935763787,-6.203187078996336,-1.8084884399678172
-6.072808700666668,-182.18426102,9.408912168159238,-0.2960267103333337,5.4508515,0.12488464305344575,0.0,186,30,508.6660368594569,2882.19304,mp-1212440,Ho3(Co2Sn)4,https://materialsproject.org/materials/mp-1212440,-52.45635369096893,-3.238204906640198,-44.193722315566575,4.139810799843063
-7.1070934275,-85.28512113,7.541136448680178,-0.15775163499999914,3.582724366666667,0.2378794034498349,0.0,166,12,175.52298024055858,797.116305,mp-2588,YCo3,https://materialsproject.org/materials/mp-2588,-62.78246732711962,-16.476842436127427,-61.04355290750463,-6.029156766984327
-3.564913845,-14.25965538,6.873682977175813,-0.013451479999999629,1.5e-06,3.662421384424804e-07,0.0,225,4,47.730982658580686,197.579,mp-974058,LiCu3,https://materialsproject.org/materials/mp-974058,-50.736328011964254,-51.42645269285674,-61.882608250946404,-40.59674731654439
-5.065777171071429,-141.84176079,8.361927473776321,-0.695385880357143,1.25e-06,3.015216662889077e-08,0.0,63,28,483.1354623697742,2432.911,mp-1213907,Ce2(Ga3Rh)3,https://materialsproject.org/materials/mp-1213907,-45.938656506060184,-7.16221194073492,-51.17231969664128,-2.4151391986682773