energy_per_atom,energy,density,formation_energy_per_atom,total_magnetization_uB,total_magnetization_T,band_gap,sgr,num_sites,cell_volume,weight,mp_id,formula,URL,tsne_xrd_lin1_0,tsne_xrd_lin1_1,tsne_xrd_lin2_0,tsne_xrd_lin2_1
-6.43494783625,-205.91833076,3.935247718988931,-2.14922312771,25.9998931,1.0214115499499383,0.4924000000000004,2,32,296.65264533368423,703.025715,mp-1100552,Li9Mn7O16,https://materialsproject.org/materials/mp-1100552,2.3249778069359497,-78.26396864998941,-28.68968468085307,-78.74705922265709
-5.827992303214287,-163.18378449,4.121001521415209,-1.8874791083721425,11.0000001,0.5089258641410844,0.9731,2,28,251.89270716259952,625.12847,mp-1174425,Li4MnCo2O7,https://materialsproject.org/materials/mp-1174425,1.4701814033049605,-72.83440958960357,-21.004332725379925,-75.63348761015203
-5.857432445,-140.57837868,4.092214981617511,-1.910033608204999,15.9999997,0.8715366491100783,0.4642,1,24,213.94973241243972,527.2554749999998,mp-1174988,Li7Mn2(CoO4)3,https://materialsproject.org/materials/mp-1174988,16.645160845100058,-75.92677111286706,-9.531618932136563,-83.85782812098131
-5.828437726250002,-139.88250543,4.053688940550225,-1.881038889455,14.007344400000001,0.7558114481470868,0.0,2,24,215.98309913054268,527.2554749999998,mp-1174888,Li7Mn2(CoO4)3,https://materialsproject.org/materials/mp-1174888,18.06019197895945,-73.20645014603474,-9.153706382954823,-78.39344427991955
-6.3955892796875,-204.65885695,4.252283129755839,-2.1500530178125,9.9999991,0.4028112070781089,0.0,2,32,289.31825924679475,740.8818,mp-768717,Li4Cr3NiO8,https://materialsproject.org/materials/mp-768717,16.005825918787018,-68.99196105434181,-10.704362113238297,-70.69624037780585
-5.412466836875,-86.59946939,3.986948110668264,-1.721268849375,9.9999996,0.8241939068485258,0.14219999999999988,2,16,141.3995445678409,339.49978500000003,mp-1174177,Li5Co3O8,https://materialsproject.org/materials/mp-1174177,20.090109191787924,-78.75656386043566,-9.583825460287425,-84.70013941434846
-5.862165235416667,-140.69196565,4.058712743723345,-1.9147663986216668,16.000000099999998,0.8644015548273468,1.0566,1,24,215.7157590532164,527.2554749999998,mp-1175063,Li7Mn2(CoO4)3,https://materialsproject.org/materials/mp-1175063,2.0430234269202088,-73.62866888515805,-21.57997436330613,-77.22956428954808
-5.650331587142857,-79.10464222,5.189021206570855,-1.6162126600000002,1.0000001,0.08160363982014637,0.0,166,14,142.8130652462515,446.276785,mp-755343,Li2Co3TeO8,https://materialsproject.org/materials/mp-755343,18.504408355816146,-69.90449099728252,-8.404262787742113,-73.44967106675419
-5.022317023181818,-110.49097451,4.6771761361278665,-1.361066954318182,5.0000003,0.2584755374766362,0.0,12,22,225.43846093862945,634.9838,mp-1177306,Li4Ni5SbO12,https://materialsproject.org/materials/mp-1177306,3.8259866936937335,-60.92308795253541,-5.1829608254475525,-66.08235153570885
-5.7656465334375,-184.50068907,4.1701084213425395,-1.8302975700599988,22.0000002,0.8905518109616835,0.0,8,32,287.89950699247686,723.001465,mp-1100652,Li9Mn2Co5O16,https://materialsproject.org/materials/mp-1100652,15.600952879622808,-76.39290458718307,-14.263998572553295,-83.80249304340633
-5.796697909375,-185.4943331,4.179343627150484,-1.8613489459974997,26.000000699999998,1.0548011627542986,0.7288999999999999,8,32,287.26332786094815,723.001465,mp-1100688,Li9Mn2Co5O16,https://materialsproject.org/materials/mp-1100688,1.39874493564148,-72.53810237900312,-20.76810877960253,-74.87858792703312
-6.3380339475,-101.40854316,4.214688951139873,-2.01838371018,13.9999997,1.0911956828937917,0.0,12,16,149.5212140932715,379.50653000000005,mp-1174259,Li4Mn3CoO8,https://materialsproject.org/materials/mp-1174259,5.327024590555631,-74.75785936382249,-27.035768279213357,-74.9894645561476
-5.7909991575,-185.31197304,4.157130393834093,-1.8556501941224992,23.9999997,0.9684875516999436,0.6423999999999999,1,32,288.7982923004765,723.001465,mp-1175631,Li9Mn2Co5O16,https://materialsproject.org/materials/mp-1175631,16.286571048500992,-74.98093322620426,-11.329174542379274,-82.4076297109374
-5.79177591125,-185.33682916,4.186362773494409,-1.8564269478724995,21.999999399999997,0.8940229934136428,0.3742999999999999,1,32,286.7816822304583,723.001465,mp-1176104,Li9Mn2Co5O16,https://materialsproject.org/materials/mp-1176104,16.092232788432618,-75.80125678819593,-10.897362614195252,-83.05044813251394
-5.7609010821875,-184.34883463,4.1368850990379045,-1.8255521188099992,23.9502,0.9617711882618448,0.0,8,32,290.21162779911515,723.001465,mp-1100623,Li9Mn2Co5O16,https://materialsproject.org/materials/mp-1100623,5.422611476726869,-72.46022460775418,-23.828993197827128,-75.60993344831665
-5.4422283825,-108.84456765,4.023780572958467,-1.7094301238749998,7.00000005,0.4519692814340074,0.2357,2,20,180.49557202602156,437.37278,mp-1173982,Li3Co2O5,https://materialsproject.org/materials/mp-1173982,14.14976527547211,-80.60800728985855,-15.936675312552026,-85.30000289375828
-6.593041175625,-105.48865881,4.294803691941119,-2.383979153125,9.0000001,0.7111368938783456,3.0531,10,16,147.49141131803896,381.4705,mp-754247,Li4Cr3GaO8,https://materialsproject.org/materials/mp-754247,13.709399622437324,-67.8507152389679,-12.911866717474206,-68.62443118932755
-5.85693714875,-93.71099438,4.415950788164689,-1.81758750756,13.9999999,1.1197277477710417,0.7112000000000003,10,16,145.7112284438905,387.49683,mp-1174232,Li4MnCo3O8,https://materialsproject.org/materials/mp-1174232,5.745886239244183,-68.30239858546537,-20.668829678430253,-73.55895482119881
-6.2126027879166665,-149.10246691,3.967244190598489,-2.078336887035,15.9999999,0.8579224896842257,0.5538999999999996,5,24,217.3448504237026,519.265175,mp-1175265,Li7Mn4CoO12,https://materialsproject.org/materials/mp-1175265,18.595133915531616,-83.17394712516045,-18.280887376412434,-83.42842508013415
-6.8993078175,-27.59723127,4.068720515683002,-2.4031810943750003,2.9999999,0.9420459062619421,2.9998,166,4,37.113046105155675,90.9359,mp-18793,LiCrO2,https://materialsproject.org/materials/mp-18793,0.8962374159839732,-67.81434793851443,-14.652937556432418,-65.86312369977713
-5.869844769166666,-140.87627446,4.089576659922845,-1.922445932371667,16.000083800000002,0.8709793324371002,0.6797,2,24,214.08775848886071,527.2554749999998,mp-1174886,Li7Mn2(CoO4)3,https://materialsproject.org/materials/mp-1174886,13.761996024452426,-74.9724647770638,-9.735864973015874,-81.39246218921926
-6.9192373325,-221.41559464,3.954763261542385,-2.465579081875,9.00000005,0.34638569699217,1.8654,2,32,302.8028710380366,721.1596000000002,mp-769614,Li4V3CrO8,https://materialsproject.org/materials/mp-769614,2.8723697016821275,-66.31828737057045,-10.55537208306253,-65.4584139271548
-7.0421139458064514,-436.61106464,4.097189005785536,-1.8414601533741928,30.99999975,0.5086142634933385,0.0,88,62,710.3143402909425,1752.6189,mp-766948,LiMn10O20,https://materialsproject.org/materials/mp-766948,20.392180373807925,-69.04945610769771,-9.104057308424666,-70.8659114445241
-5.8702980858333325,-140.88715406,4.1002386885176625,-1.9228992490383339,17.9999999,0.9824011920532524,0.8902000000000001,5,24,213.53105679995645,527.2554749999998,mp-1174887,Li7Mn2(CoO4)3,https://materialsproject.org/materials/mp-1174887,21.501082044028497,-74.97754269200566,-13.881494230650118,-77.10601751843255
-5.86223814875,-140.69371557,4.123757150693876,-1.9148393119550005,13.9999994,0.7684725120912301,0.5644,6,24,212.31325422349977,527.2554749999998,mp-1175146,Li7Mn2(CoO4)3,https://materialsproject.org/materials/mp-1175146,6.499382533129397,-71.19633918819858,-22.27922796864501,-73.32072710681851
-5.364403230833333,-64.37283877,3.830249880894269,-1.7425390285416675,3.0,0.3337579468500194,0.08909999999999972,2,12,104.75314415027252,241.62679,mp-1173881,Li2CoO3,https://materialsproject.org/materials/mp-1173881,16.310628667521968,-82.564541755963,-16.85491729481841,-88.43072400907037
-5.86693584125,-140.80646019,4.089523807080049,-1.9195370044550009,18.0,0.97983395371009,0.8584,1,24,214.0905253505243,527.2554749999998,mp-1174938,Li7Mn2(CoO4)3,https://materialsproject.org/materials/mp-1174938,16.43295712711239,-73.1072373628853,-10.726754657339812,-78.51193821032119
-6.341474413333334,-152.19538592,3.91368890189489,-2.113774980408333,17.999988100000003,0.9595154607348604,0.0,10,24,218.6239157230938,515.270025,mp-1175368,Li7Mn5O12,https://materialsproject.org/materials/mp-1175368,15.1443611872789,-78.26669996629238,-18.268847282601644,-84.3495582756042
-5.4463428139999985,-108.92685628,4.077280461442408,-1.7135445553749995,7.0000000999999985,0.4579786347969332,0.3917999999999999,2,20,178.12720588919186,437.37278,mp-1174108,Li3Co2O5,https://materialsproject.org/materials/mp-1174108,19.198447359572718,-78.9977317216031,-10.715258815961214,-87.2837641585993
-5.864242939444443,-211.11274582,4.425601321233673,-1.6892587937500003,4.6838386,0.1549943627268211,0.0,6,36,352.1789919858129,938.61317,mp-759196,Li3Fe2Co3O10,https://materialsproject.org/materials/mp-759196,7.961985528406338,-66.7050794325055,-5.674100260456437,-69.46136519199304
-5.7740822203125,-184.77063105,4.157330816802717,-1.838733256934999,23.7106103,0.9568557631425708,0.0,8,32,288.7843694702696,723.001465,mp-1100692,Li9Mn2Co5O16,https://materialsproject.org/materials/mp-1100692,6.378280392767093,-71.80622167510322,-21.662807365729947,-74.57433316981532
-6.212476774166666,-149.09944258,3.95787486149852,-2.0782108732849993,15.999999800000003,0.8558963529041023,0.5408,1,24,217.85936275748367,519.265175,mp-1175226,Li7Mn4CoO12,https://materialsproject.org/materials/mp-1175226,14.233155901464302,-81.64407228594817,-16.456138218761684,-85.26745350973302
-6.3475375141666674,-152.34090034,3.912240503774629,-2.119838081241666,17.999896399999997,0.9591554719251542,0.06610000000000005,12,24,218.7048551408704,515.270025,mp-1175347,Li7Mn5O12,https://materialsproject.org/materials/mp-1175347,15.172082441755366,-78.15521787978008,-12.327360336147859,-84.08227055553456
-6.498876040833332,-155.97302498,3.6709464914408927,-2.4422667699116665,11.9999991,0.6698148882491171,1.2898000000000005,12,24,208.78718767750885,461.56493499999993,mp-767011,Li7Mn3(SiO6)2,https://materialsproject.org/materials/mp-767011,6.916892698454088,-73.99102461901242,-19.247030307298488,-83.73372915487836
-5.748436560625,-183.94996994,4.119190133446355,-1.813087597247499,24.003244199999997,0.9597783336678176,0.0,2,32,291.45830119893606,723.001465,mp-1175857,Li9Mn2Co5O16,https://materialsproject.org/materials/mp-1175857,14.954985645738768,-80.16837416578883,-14.286885119696526,-86.29285810047311
-6.28583275625,-100.5733241,4.6346632130288485,-2.0818118612499994,8.0000003,0.6116070925457423,0.1926000000000001,166,16,152.43858812792308,425.465165,mp-756727,Li4NbCo3O8,https://materialsproject.org/materials/mp-756727,2.728353346044728,-64.56536922305507,-12.134848980598965,-63.96067614607436
-6.503971425,-78.0476571,4.183073611506784,-1.4751538310733339,8.0000003,0.6590685414064928,0.0,166,12,141.46104057361472,356.355335,mp-756525,Mn3CuO8,https://materialsproject.org/materials/mp-756525,22.01801891414956,-68.252115582708,-7.475827532177246,-71.06770725377166
-6.252354431875,-100.03767091,3.821647844091957,-2.1407055501800007,10.0000011,0.8189336878786324,0.0,12,16,142.30781108413714,327.514335,mp-1174498,Li5Mn3O8,https://materialsproject.org/materials/mp-1174498,18.30126929103905,-71.59599016839705,-12.44256722498646,-76.43569434069781
-5.480782724166668,-131.53878538,4.175131338565752,-1.7202509514583335,15.9999997,0.8759215383336388,0.0,2,24,212.87869370065772,535.245775,mp-1174246,Li7Co5O12,https://materialsproject.org/materials/mp-1174246,21.904454345127803,-75.28275983837709,-11.933234399219376,-78.7819461819268
-7.497290022083334,-359.86992106,3.9927023459077033,-2.1519861712122235,8.999999800000001,0.18506991009664295,1.7275,212,48,566.7403229809363,1362.70534,mp-774302,TiMn3O8,https://materialsproject.org/materials/mp-774302,19.520981494961802,-69.21462486818044,-9.049006410540432,-71.58816662949774
-5.8284805467857135,-163.19745531,4.1594791065347465,-1.887967351943572,9.9999999,0.4669796997066152,0.8336999999999999,1,28,249.56255407549477,625.12847,mp-1174610,Li4MnCo2O7,https://materialsproject.org/materials/mp-1174610,13.739184257126768,-75.13073988545962,-10.240394646282608,-80.56781770034392
-5.7946153984375,-185.42769275,4.199492153194222,-1.8592664350599997,22.0000014,0.8968269330837016,0.7215000000000003,5,32,285.8850820084312,723.001465,mp-1175757,Li9Mn2Co5O16,https://materialsproject.org/materials/mp-1175757,13.069790227377208,-76.04157863887191,-14.387038846536715,-79.48931050795822
-6.75490559875,-162.11773437,3.615264893039343,-2.771541275625,1.9999990666666667,0.1085680883150288,1.6532,2,24,214.6866453092532,467.40791579999996,mp-755460,Li2AlVO4,https://materialsproject.org/materials/mp-755460,13.176386419199734,-72.30850212950759,-12.545747263364351,-79.2069507292746
-5.7963856259375,-185.48434003,4.2302750099044735,-1.8610366625599992,21.999999600000002,0.9034007242860981,0.4297,1,32,283.80475401688005,723.001465,mp-1175778,Li9Mn2Co5O16,https://materialsproject.org/materials/mp-1175778,13.993006008299576,-74.56683534812255,-10.083070103440068,-79.27654726921159
-7.108476455,-227.47124656,3.621398458935565,-2.8856430797916666,0.0011904,4.92780677725703e-05,0.0,2,32,281.52481077955736,613.9653999999998,mp-766170,Li9Ti5(SiO8)2,https://materialsproject.org/materials/mp-766170,7.135584981614637,-67.86918946667143,-12.217008845335195,-74.5192191946127
-5.50867488,-176.27759616,4.283778810730071,-1.7134762146874998,21.999999300000002,0.9048270134956616,0.0,2,32,283.35738546083667,730.991765,mp-1175519,Li9Co7O16,https://materialsproject.org/materials/mp-1175519,19.060321436708666,-73.62209019395777,-9.10555911524961,-77.78155497020352
-5.738544724166666,-137.72507338,3.966943091651265,-1.791145887371666,18.9667196,1.0015103294654342,0.0,12,24,220.706039906108,527.2554749999998,mp-1174571,Li7Mn2(CoO4)3,https://materialsproject.org/materials/mp-1174571,6.791529992920941,-79.77094335538251,-24.77667146361684,-74.76975936606743
-5.7858270196875,-185.14646463,4.18304090186307,-1.8504780563099992,24.000001100000002,0.9745239851115228,0.5966,1,32,287.0094237125377,723.001465,mp-1175936,Li9Mn2Co5O16,https://materialsproject.org/materials/mp-1175936,13.600990279303947,-75.76763824235466,-11.809302156106991,-81.98689866606301
-5.8348615636363625,-64.1834772,4.3950915894044,-1.620777103863636,4.0000010999999995,0.4447632985109992,0.0,12,11,104.81141781656515,277.4134,mp-758515,Li2(FeO2)3,https://materialsproject.org/materials/mp-758515,8.007972747605656,-67.89857526945103,-5.283571533677823,-68.89268059850548
-5.8066867090625,-185.81397469,4.232107697550971,-1.871337745685,20.0000003,0.8216292143346412,0.8186999999999998,1,32,283.68185415140516,723.001465,mp-1175851,Li9Mn2Co5O16,https://materialsproject.org/materials/mp-1175851,16.317883149180588,-74.37008010165479,-10.640944728567026,-81.71928317702081
-6.4152120439285705,-179.62593723,3.9154285205126387,-2.154355310652143,10.999755699999998,0.4962127816383724,0.967,2,28,258.34051470192827,609.14787,mp-1174244,Li4Mn3O7,https://materialsproject.org/materials/mp-1174244,10.811442021806226,-82.40266340398462,-18.128666255903386,-86.43025555393865
-7.038294437999999,-105.57441657,3.986025745419245,-2.384724011333333,9.9999992,0.7863681852352034,1.3912,12,15,148.2011106126931,355.74800000000005,mp-755473,Li3VCr3O8,https://materialsproject.org/materials/mp-755473,4.248498509453088,-66.52570084316403,-8.993894183702187,-66.26240650768217
-10.01880196,-30.05640588,8.795755761035139,0.07193406666666627,3.4e-05,7.413689789671957e-06,0.0,69,3,53.44682789655304,283.10400000000004,mp-1215231,ZrMo2,https://materialsproject.org/materials/mp-1215231,-44.71293038131086,-65.65573165525059,-53.43365400836468,-37.43435708973232
-5.7932539625,-185.38412680000002,4.189321066823672,-1.857904999122499,24.0000003,0.9759870440300674,0.8386,1,32,286.5791710540733,723.001465,mp-1175768,Li9Mn2Co5O16,https://materialsproject.org/materials/mp-1175768,16.199407133095598,-75.60131799564216,-10.689342109759886,-82.05435721037134
-4.8989723079999985,-24.49486154,3.778451904731483,-1.189660270948,1.9999997,0.572077120724394,3.1137,5,5,40.74297888261287,92.70808000000001,mp-625074,Ni(HO)2,https://materialsproject.org/materials/mp-625074,18.318493081760174,-48.13646237350706,1.749227643573517,-69.25859582389957
-5.577192331,-55.77192331,3.8149006408591415,-1.1805965122499995,2.00000005,0.24167612740455724,0.049299999999999684,12,10,96.4436594467837,221.5684,mp-761189,LiFeO3,https://materialsproject.org/materials/mp-761189,22.528210814084762,-79.96117829397069,-4.6997160877825,-76.7249132966164
-6.131016732916668,-147.14440159,3.3162969938536264,-2.616594873531666,1.9999999,0.10047674085425108,0.9758999999999998,6,24,231.97536247242599,463.28281280000004,mp-763205,Li2VO2F,https://materialsproject.org/materials/mp-763205,12.067862259655445,-61.98671665081128,-0.6422427175673356,-75.40507958466951
-5.791805691875,-185.33778214,4.156954450117525,-1.8564567284974995,25.999998100000003,1.0491503786718213,0.6082000000000001,2,32,288.8105157312347,723.001465,mp-1175481,Li9Mn2Co5O16,https://materialsproject.org/materials/mp-1175481,12.823008152389686,-72.07377663002785,-12.246581584158536,-81.30606245087444
-5.774861571071428,-161.69612399,4.110570279565693,-1.8343483762292847,8.9999119,0.4153358266899185,0.07089999999999996,2,28,252.53192594973567,625.12847,mp-1174491,Li4MnCo2O7,https://materialsproject.org/materials/mp-1174491,18.4574386679537,-83.81256375420166,-17.73860910358387,-87.4941178638732
-6.845186184166668,-82.14223421,4.067188858821832,-1.6807403735733335,12.9999994,1.0643168531530354,0.0,166,12,142.34749229236618,348.654335,mp-1176616,Mn3FeO8,https://materialsproject.org/materials/mp-1176616,22.056284484623323,-67.79024339512915,-7.5322806904067505,-71.10945414536776
-5.7826452396875,-185.04464767,4.20467571845056,-1.847296276309999,19.9999999,0.8163035028593296,0.1029,1,32,285.53264008956893,723.001465,mp-1176146,Li9Mn2Co5O16,https://materialsproject.org/materials/mp-1176146,12.929177357947125,-77.74147588068274,-13.192548660114515,-84.34924655779542
-5.795456995,-162.27279586,4.107164691494655,-1.8549438001578584,9.000000199999999,0.4149957944880236,0.2860999999999998,1,28,252.7413209409695,625.12847,mp-1174730,Li4MnCo2O7,https://materialsproject.org/materials/mp-1174730,12.695626796931991,-83.70227787615369,-16.873276434352093,-88.11191843913772
-6.01296526375,-96.20744422,3.9349475140818972,-2.04146668012,8.0000007,0.6664404473118416,0.8727,12,16,139.89626037012937,331.5094850000001,mp-1173973,Li5Mn2CoO8,https://materialsproject.org/materials/mp-1173973,19.370271785103725,-71.82743530116066,-12.298855075334101,-76.123879000605
-4.570250258333333,-27.42150155,4.734852386735404,-0.5478879708333331,0.0,0.0,1.351,164,6,63.612516895092725,181.3844,mp-510753,NiO2,https://materialsproject.org/materials/mp-510753,27.15715000100241,-68.26978283983375,-5.260070643822632,-74.8007033375476
-7.050463261428571,-98.70648566,3.9504641826278015,-2.194979152925713,10.999999800000001,0.8644426828960159,0.5876999999999999,12,14,148.29752475649587,352.80354500000004,mp-754425,Li2MnCr3O8,https://materialsproject.org/materials/mp-754425,5.089551559892018,-65.73026315320051,-8.410900338573244,-66.60382654936025
-5.7874155609375,-185.19729795,4.1915075526004975,-1.8520665975599997,21.999999600000002,0.8951217001268785,0.6472000000000002,1,32,286.42967799612666,723.001465,mp-1176091,Li9Mn2Co5O16,https://materialsproject.org/materials/mp-1176091,12.876665417701002,-77.7637962633378,-13.078346816340597,-85.11522345537612
-5.1937083275,-290.84766634,4.997140411398938,-1.4367524353571426,3.000001425,0.0598188015613753,0.2237,212,56,584.468595360431,1758.8696,mp-774819,Li2Ni3SbO8,https://materialsproject.org/materials/mp-774819,14.840330690292973,-68.71683301554529,-10.054449783042157,-70.9955015795954