energy_per_atom,energy,density,formation_energy_per_atom,total_magnetization_uB,total_magnetization_T,band_gap,sgr,num_sites,cell_volume,weight,mp_id,formula,URL,tsne_xrd_lin1_0,tsne_xrd_lin1_1,tsne_xrd_lin2_0,tsne_xrd_lin2_1
-6.569088414642858,-367.86895122,8.743512706451591,-2.077033186785713,0.0,0.0,1.7271999999999998,60,56,930.4160816778368,4899.074720000001,mp-554207,TaBi4BrO8,https://materialsproject.org/materials/mp-554207,20.87642844998809,59.000162572140134,32.96559969307082,-4.648087240212654
-4.5019764338888875,-81.03557581,4.9417402558069465,-0.9636998064950508,0.0,0.0,1.3973999999999998,132,18,508.47685967881256,1513.2198076,mp-10489,Cs2Ti(CuSe2)2,https://materialsproject.org/materials/mp-10489,4.778502962143851,18.27741012039295,-11.572696442092646,8.209343411049913
-3.538086153,-35.38086153,2.562170022001102,-1.1093509102379997,0.12261269999999999,0.007464713576998158,2.2182,12,10,191.42547573982856,295.3647,mp-34326,Li6Br3N,https://materialsproject.org/materials/mp-34326,6.769406292732568,-13.577078745379259,13.478005516069851,-10.52968667361306
-1.647138515625,-26.35421625,4.068644505481362,-0.2515797824999999,0.0325529,0.0005994452205679702,0.0,140,16,632.8745181673222,1550.6660000000004,mp-542484,Sr5Cd3,https://materialsproject.org/materials/mp-542484,5.3909734654792745,27.47372300174606,33.12575463535463,-6.054846071967812
-3.763741238,-37.63741238,5.7422069205567965,-0.019155462000000508,4.235e-05,1.602116921059686e-06,0.4691999999999998,12,10,308.06093901776853,1065.2864,mp-484,Te3As2,https://materialsproject.org/materials/mp-484,-25.241169370364183,-37.55612004727665,-0.22362687512877166,-0.9413636409202262
-8.779693925,-122.91571495,6.651325163609544,-3.9433115770535694,1.9999999,0.11054229440976393,0.0,82,14,210.85258365737488,844.5746,mp-760323,Ce5O9,https://materialsproject.org/materials/mp-760323,29.55988962924749,63.49317394880181,-10.611846826838178,33.427834688543896
-5.478919658214287,-153.40975043,3.1119957381957315,-3.0536989518885713,4.999999475,0.1885244900115699,4.1274,59,28,309.08619745285273,579.2546312000001,mp-752628,Li2MnF4,https://materialsproject.org/materials/mp-752628,0.3435154630582872,-23.745989420115947,5.100102978062221,-31.194673832083353
-4.615767771071427,-129.24149759,4.066920417937293,-1.7791693135406403,0.0,0.0,3.1610000000000005,198,28,696.0135939987551,1704.6464,mp-768232,Rb3SbO3,https://materialsproject.org/materials/mp-768232,-18.523486233550653,6.986781662057214,-20.835053709449564,-7.611598254825206
-6.2098124727499995,-248.39249891,6.097342957113242,-2.219232637437499,0.0,0.0,3.0040000000000004,2,40,640.4591507640233,2351.70568,mp-5572,Ho2Te5O13,https://materialsproject.org/materials/mp-5572,1.7706222305850017,-17.290189677791947,28.08646244548527,-6.22071687404303
-5.782586265,-231.30345060000002,3.9250051285375807,-1.9613464091783408,0.0,0.0,3.1248,62,40,747.6976575514863,1767.3279999999993,mp-556349,Rb2MoSeO6,https://materialsproject.org/materials/mp-556349,21.666395764473876,-16.94830571429143,30.59081084098398,-5.526354384921926
-3.704248484,-18.52124242,6.480839353255613,-0.19510075081250025,6.2e-06,3.998739297228058e-07,0.109,12,5,180.69495463222043,705.2257999999998,mp-632485,Bi2Te2S,https://materialsproject.org/materials/mp-632485,2.7884278698940053,17.017070907899427,16.825144484640795,-21.23730130904856
-6.969701179736843,-529.69728966,3.388054855385412,-2.21773815336421,20.00034605,0.18240526735512855,2.7483,161,76,1277.8431879738964,2607.2273600000003,mp-743574,K3LiMn4(MoO4)6,https://materialsproject.org/materials/mp-743574,30.626057659091007,-13.433117707046211,45.87921427815551,-6.57197141200071
-6.581944545769232,-342.26111638,3.6589437563004257,-2.4063055280769223,0.0,0.0,4.0741000000000005,88,52,811.0895475532924,1787.2094327999998,mp-19479,Na5La(MoO4)4,https://materialsproject.org/materials/mp-19479,29.446963624636048,-20.492170441093453,39.21008743659402,-7.0772114391243415
-4.715587858214286,-132.03646003,3.0719477850171675,-1.8387886068214288,0.0,0.0,3.2396,198,28,620.6653399876849,1148.2124,mp-17250,K3SbO3,https://materialsproject.org/materials/mp-17250,-15.227406013378227,16.240072325041538,-13.508821314432511,-8.748181842611258
-3.485432816785714,-97.59211887,5.644499060516343,-0.4174425909449404,2.25e-07,3.2009006431526508e-09,0.2159999999999993,58,28,819.195865837089,2784.6079999999997,mp-19932,In4Se3,https://materialsproject.org/materials/mp-19932,0.08021214114451973,-13.202378848510321,0.3026556424344289,-0.7560229258775517
-8.218415933636363,-180.80515054,5.009864050427232,-3.1628342424177123,0.0,0.0,1.3643999999999998,74,22,347.48568184181437,1048.36802,mp-1190185,RbPrNb2O7,https://materialsproject.org/materials/mp-1190185,-11.147718828277895,-24.41159261594539,-10.563162004627406,32.996856256686804
-5.222164550714285,-73.11030371,5.612159218921571,-1.1360257739285715,0.0,0.0,0.052100000000000264,11,14,531.7005346222779,1796.9996399999998,mp-29824,La3RuI3,https://materialsproject.org/materials/mp-29824,-0.06728743953252098,-14.677322532036705,19.69567692646913,-14.146733979221557
-6.218222835555554,-111.92801104,3.5071378868144083,-2.071555952708334,1.9999999333333331,0.13186129549750744,2.5265,174,18,176.76247362989338,373.3308,mp-1176612,LiNiBO3,https://materialsproject.org/materials/mp-1176612,13.165613020065795,2.7009329765415195,25.046927739695324,-1.8402196825465509
-6.675131222916666,-160.20314935,7.649032386806903,-2.4105333637499995,6.195e-05,2.008795778970993e-06,0.5491999999999999,52,24,359.4040370942547,1655.5426,mp-770111,PrBiO4,https://materialsproject.org/materials/mp-770111,-10.765772987996423,-24.61322343025631,21.752001958823037,-18.69027806530607
-5.604794297670455,-986.44379639,7.233348004067173,-1.63513734596591,0.0,0.0,2.5594,60,176,2883.938527123145,12562.5056,mp-667426,Bi2Te2O7,https://materialsproject.org/materials/mp-667426,-11.057631379463778,-25.45900047156673,-0.3685755517259047,-29.00492506752706
-6.418028847307693,-166.86875003,3.3096173548116337,-2.4796662425091567,1.000008,0.03644815882291018,0.1782999999999999,14,26,319.7461375676522,637.2854480000001,mp-1210850,Li2In(PO4)2,https://materialsproject.org/materials/mp-1210850,27.815064544916357,-20.969241040121688,48.693150894456714,-15.368632829325492
-5.398983957333334,-80.98475936,2.7005479087973834,0.677247664505334,5.0,0.2247154483622726,0.2897000000000001,107,15,259.30715617227435,421.7133,mp-1212030,IrN7ClO6,https://materialsproject.org/materials/mp-1212030,41.27983258272124,-41.061412838937336,33.27824080028069,-57.86361007875565
-6.42923008,-38.57538048,5.934580831641653,-2.9257067454166674,6.5e-07,4.7141041500040615e-08,3.5881,129,6,160.69102126556268,574.29174,mp-755336,NdIO,https://materialsproject.org/materials/mp-755336,-16.309137598971393,22.34428109927561,-16.063488049652538,40.6009095949796
-6.072210837999999,-30.36105419,4.01902362911109,-0.3447164480000005,6.8942915,0.7419501102756692,0.0,164,5,108.29100041787882,262.09807720000003,mp-20595,Eu(AlSi)2,https://materialsproject.org/materials/mp-20595,-29.852608614037052,-17.719590690591673,-11.756648857490015,-23.45710310991904
-7.39910691,-177.57856584,4.8291754990417335,-2.427437829683908,6.0013442,0.16816973100901744,0.0,49,24,415.88967057023575,1209.4893037999998,mp-1213374,CsEu(MoO4)2,https://materialsproject.org/materials/mp-1213374,6.080264176850894,-18.562792646106328,31.67010812446503,-8.580786118843209
-6.666535822777778,-239.99528962,2.1456127719482643,-1.8309653105266663,2.51e-05,5.318831979131775e-07,4.9948,92,36,549.9647797466195,710.61952,mp-1197098,SrH2(CO2)2,https://materialsproject.org/materials/mp-1197098,29.141121252591272,-37.327627243656465,20.773094970842024,-58.63151955082546
-4.538066638,-22.69033319,5.516552026344807,-0.4042934279519997,5.400000000000001e-06,5.036857697141079e-07,0.39700000000000013,139,5,124.94287819078652,415.0784,mp-1247299,Ba2CdN2,https://materialsproject.org/materials/mp-1247299,-19.839586803042536,13.862605229431471,-20.25673536892894,45.18557526375885
-4.860482061388889,-174.97735421,4.919047172617276,-3.1402502567588884,0.999893225,0.02031800206781681,0.9803,14,36,573.5219619970101,1698.9552895999998,mp-1207670,YbSnF7,https://materialsproject.org/materials/mp-1207670,10.79573177240442,-25.3709238797777,24.866603805229197,-15.644063458236275
-5.4311034769230755,-70.60434520000001,4.409752585200104,-1.0938651773125,14.6706095,0.5029045328066212,0.0,12,13,339.96956124408706,902.82830784,mp-1210417,Na3Eu2(SiSe3)2,https://materialsproject.org/materials/mp-1210417,-25.59948764803678,-37.720748684545185,-34.985115758498004,-23.69512692955985
-7.091096540952381,-297.82605472,3.0335556680709557,-2.5415063091156456,3.999998583333333,0.09222027115478107,2.9311,173,42,505.48802336607423,923.450772,mp-757829,LiCrPO4,https://materialsproject.org/materials/mp-757829,70.77503840795421,6.558109635848784,62.7801583137858,-10.030420064398612
-8.247905266444446,-371.15573699,1.740201662605808,-0.034393590729777976,2e-07,3.040982985467141e-09,3.3547,157,45,766.4669502101442,803.2374,mp-1246085,Sr(C4N3)2,https://materialsproject.org/materials/mp-1246085,40.61131576511127,-41.12579142102593,25.653441668335553,-50.190918652861185
-6.439926898624999,-515.19415189,7.144696140258057,-2.1434712283095,0.000313825,2.704509297109165e-06,2.7661,57,80,1352.310706107704,5818.501612799999,mp-1195003,B3Pb6O10F,https://materialsproject.org/materials/mp-1195003,9.044793243482024,20.991073111709262,35.595490619479214,-1.7316001327146509
-4.98946391975,-199.57855679,3.2621023727712783,-1.2198052911073334,1.85e-06,5.6968299126661803e-08,3.5032,14,40,378.4564426138028,743.4716255999998,mp-733932,InH5(NF)2,https://materialsproject.org/materials/mp-733932,35.125855628810314,-34.49662071700737,24.4473926834058,-55.780361645856246
-6.384688936184211,-485.23635915,3.3741214882559283,-2.2741573014366936,10.000001199999998,0.10404404694842688,4.4962,198,76,1120.1088878082776,2275.99796,mp-12436,Rb2Mn2(SO4)3,https://materialsproject.org/materials/mp-12436,7.435241547328043,-23.685578969534497,20.619659650921022,-18.03525884140217
-6.344476929821428,-355.29070807,5.062995065047952,-1.8636826973214289,11.9868628,0.1419739572084736,0.21019999999999994,176,56,983.9528195009599,3000.07898,mp-1212141,La7(BrO6)3,https://materialsproject.org/materials/mp-1212141,7.644008047192769,-15.898146888688036,9.260936628176543,-21.51399239009068
-3.2386650066666665,-29.14798506,3.106390365446289,-0.5263470457466666,0.0,0.0,2.7383,164,9,109.90074166278131,205.59264,mp-644225,Sr2MgH6,https://materialsproject.org/materials/mp-644225,26.475915854110216,63.88541969999486,-20.682209223527718,-8.71949072634148
-4.096857783,-81.93715566,6.230453191587678,-1.2802591692500005,0.9999872999999999,0.015222640789858926,0.0942999999999996,148,20,765.5647221013539,2872.44988,mp-1188549,Ho7PtI12,https://materialsproject.org/materials/mp-1188549,-24.942875583283424,-38.08670692527571,-34.18254984801607,-23.768490620133342
-6.840359864,-136.80719728,5.24448547330472,-3.01096378625,1.007548475,0.033527521259345314,0.0,62,20,350.22079617266127,1106.1034,mp-20464,SrPrO3,https://materialsproject.org/materials/mp-20464,-18.66861506159108,6.947635836450728,-16.677077210679688,37.89416311344712
-6.255796060909091,-137.62751334,5.728096164358585,-2.4615512633636367,3.00000015,0.09540855072066017,0.5326,167,22,366.4471978843081,1264.07433856,mp-9745,Ba3NaRuO6,https://materialsproject.org/materials/mp-9745,-16.38001364148835,14.848628554792885,-17.409968389007677,44.95257885964586
-6.935572391666668,-249.68060609999998,4.270345234295319,-2.4583116441203714,2.5e-08,5.898917925476568e-10,3.0802000000000005,14,36,493.9068876610185,1270.1616,mp-768789,LiBiB2O5,https://materialsproject.org/materials/mp-768789,43.04447703950915,-38.913439697214585,37.53939604160264,-54.6156569476822
-4.796459330999999,-95.92918662,4.773954820594575,-1.1984477909999995,1.0,0.015222247798711704,0.0,148,20,765.5942096505619,2201.0395900000008,mp-567678,Y7FeI12,https://materialsproject.org/materials/mp-567678,-24.811671858906934,-38.078535489128704,-33.38868319334394,-23.28794032866023
-8.357109989,-167.14219978,6.205835668027505,-0.7119365039279998,1.3225e-05,3.939241788148681e-07,1.7867000000000002,15,20,391.25551287760817,1462.2164,mp-989637,BaReN3,https://materialsproject.org/materials/mp-989637,20.06383613743827,-12.93941214377919,43.48053081121693,-2.327942306959
-8.960818305,-125.45145627,7.2429156591105235,-4.019037339910712,2.0000001,0.10855892888821372,0.0,82,14,214.70486996538918,936.4966599999999,mp-753456,Ce4ThO9,https://materialsproject.org/materials/mp-753456,-12.815132981291034,-24.21007894684648,-10.924606606662367,32.77794165596446
-6.411337390833332,-230.80814607,7.710126141377022,-1.912856937777777,0.0,0.0,2.1289,29,36,525.4171422963567,2439.5888,mp-23064,Bi2MoO6,https://materialsproject.org/materials/mp-23064,-11.681419188673791,-24.883694519571492,-10.84493857916209,32.78531215149105
-7.0769789138888894,-1019.0849636,5.297195633423023,-1.0212273150788889,0.0,0.0,1.2879999999999998,159,144,3182.1048830521668,10151.0604,mp-629082,Ba3MoN4,https://materialsproject.org/materials/mp-629082,8.808167128718937,28.39712332347252,35.76567142148004,-1.0482746916615109
-5.6129173875,-44.903339100000004,7.142312185468611,-1.6874531856249997,0.0,0.0,2.6080000000000005,44,8,169.2757440026735,728.0889999999998,mp-29047,Tl3VO4,https://materialsproject.org/materials/mp-29047,-20.661755132773145,13.58133016122713,-14.82986551174577,41.57408297588157
-6.585418604375,-210.73339534,5.961791883336764,-2.2108420679166656,0.0,0.0,3.0162999999999998,76,32,550.8059335192831,1977.5448,mp-28244,TlBO2,https://materialsproject.org/materials/mp-28244,10.593177098810665,-22.136266463929548,31.264894223828808,-9.086315111870533
-2.75126321,-66.03031704,1.9871422733091109,-1.1871880869,1.000005775,0.016455900714441925,1.0087000000000002,19,24,708.2038398880184,847.4969600000003,mp-1211419,KZnHCl3,https://materialsproject.org/materials/mp-1211419,24.74884985249093,-15.23454635987956,23.4208592464148,-13.17819003384233
-7.72278745,-154.455749,3.065333899051048,-2.5840717718,0.0,0.0,4.2169,15,20,268.71469426506957,496.0439,mp-1211274,KY(CO3)2,https://materialsproject.org/materials/mp-1211274,31.147573485020512,-17.597908388448747,43.77368062441194,-29.43381419819186
-3.4216520459375,-109.49286547,3.5312389451073347,-1.43646876890875,0.0,0.0,2.3883,62,32,684.7909603293613,1456.25032,mp-1211598,KHgH2Cl3O,https://materialsproject.org/materials/mp-1211598,43.229491463425035,-43.687908409284574,26.022631824790764,-69.53204641223101
-5.86237563203125,-375.19204045,7.079475920789199,-1.996018054375,0.0,0.0,0.05010000000000003,61,64,1009.5995362527176,4304.2864,mp-1239330,CaBi2O5,https://materialsproject.org/materials/mp-1239330,6.854968628989988,27.03337167450129,33.74731769151634,-5.136837493329345
-8.034717743333333,-289.24983876,7.054556828458005,-3.1975532791666663,4.36e-05,9.608542015710344e-07,3.0289,15,36,528.8182361619598,2246.6068,mp-1209470,Pr2WO6,https://materialsproject.org/materials/mp-1209470,1.6604686600055805,-17.318534676761743,28.162548203426127,-6.3154407516155215
-6.570797763,-65.70797763,3.427018021458525,-1.3699954780000003,0.37402555,0.036404580112606506,0.0,2,10,119.73542814693305,247.1098,mp-1178374,CuCO3,https://materialsproject.org/materials/mp-1178374,12.403539938549265,-17.925230903528938,27.824816083838943,-14.699414207894524
-4.2794822075,-496.41993607,2.322754260550867,-1.0954756440024631,0.000290175,1.3518198970277346e-06,2.6879000000000004,1,116,2501.604135885957,3499.2321920000004,mp-1147598,Li6Zn3(PS4)4,https://materialsproject.org/materials/mp-1147598,-16.748935701608822,-1.0500536304581185,-9.624254210235565,-3.4109247997448953
-6.567018038333334,-118.20632469,6.655887771954268,-0.3319393749466665,1.15e-06,4.008035652381844e-08,0.0,15,18,334.3826165937215,1340.2956,mp-1246404,Ba3(RuN2)2,https://materialsproject.org/materials/mp-1246404,2.909229525991007,28.530203334417585,20.739561374531977,-16.288958208585083
-3.294778965185185,-88.95903206,7.607768634919179,-0.562006673206019,4.4444444444444434e-08,5.981193981332254e-10,1.0118999999999998,143,27,865.9783246498482,3967.4844,mp-1187792,Tl2S,https://materialsproject.org/materials/mp-1187792,-11.113429566342392,-19.84597894162518,-20.47415213854435,-7.026111525881222
-6.396956434342106,-486.16868901,2.894129264569232,-2.2765509204003957,9.999999925,0.10662074498379223,4.4313,198,76,1093.0391348255703,1905.0419600000002,mp-6531,K2Mn2(SO4)3,https://materialsproject.org/materials/mp-6531,7.38957504344038,-22.357621004164663,69.31446472269846,-23.11775681741345
-3.3458436833333334,-20.0750621,5.061926628229012,-1.4559190696822224,0.0,0.0,0.0,14,6,95.7005328154241,291.7300128,mp-7715,AgF2,https://materialsproject.org/materials/mp-7715,-0.8417453194330614,-22.813753531056644,16.037909558214153,-16.505816883216742
-4.3379387176470585,-73.7449582,6.073986789724238,-1.2897500452941175,1.0,0.017653000398371706,0.007600000000000051,2,17,660.1747300495531,2414.8138,mp-1105727,Tb6IrI10,https://materialsproject.org/materials/mp-1105727,-24.73634850550773,-38.00802232693969,-34.57005899777773,-23.799895317724022
-7.2266887375,-260.16079455,6.95340346702903,-0.5322270724466662,0.006400875,0.0001402709292493758,0.0,52,36,531.8009387279367,2226.8832,mp-1245620,Ca3(OsN2)2,https://materialsproject.org/materials/mp-1245620,11.880309235788724,-48.98562207193936,-2.3724895789168765,-50.44045201853734
-3.6553728635000002,-73.10745727,3.133901832599786,-1.64318983235,0.0,0.0,3.3731,163,20,628.7877518361868,1186.69843968,mp-29417,Na3ScBr6,https://materialsproject.org/materials/mp-29417,2.6034590208834256,-23.303273310498554,-10.710590947211953,-27.467196490222644
-7.614685741538461,-98.99091464,3.096221942632371,-3.4544737507692314,2.5e-06,1.4469084741470366e-07,4.3301,164,13,201.36147138522102,375.4562772,mp-1227986,BaAl2(SiO4)2,https://materialsproject.org/materials/mp-1227986,4.8558994013648284,-3.3991183588538645,42.195727118172044,-29.64562832258989
-6.607477194444446,-237.869179,8.948786105733292,-1.9670764013888893,1.0925e-05,2.458242351443409e-07,1.9157,29,36,517.9337080636317,2791.1888,mp-23480,Bi2WO6,https://materialsproject.org/materials/mp-23480,-11.112735356262329,-24.362089131013626,-10.751896332743168,32.99867439323638
-7.918669345,-31.67467738,4.479560910440275,0.13390448137499966,22.0054849,1.4446625745709063,0.0,139,4,177.51781688700282,478.88176928,mp-1186172,NaEu3,https://materialsproject.org/materials/mp-1186172,-9.478564687482708,-24.98670546120448,-2.175953753810332,-29.495928321226426
-3.80558277,-22.83349662,3.1952674525846483,-2.052141318333333,6.3e-06,3.5339770858922833e-07,4.4509,136,6,207.7563217945662,399.772,mp-571166,CaBr2,https://materialsproject.org/materials/mp-571166,5.781408456653796,-23.622587553391977,16.920254524054855,-18.87780977212704
-7.8022682105882355,-265.27711916,6.759917402142481,-2.7413396552941167,5e-08,1.1476088148477005e-09,3.9793,15,34,507.7542374099971,2067.0256,mp-1209910,Pm2(WO4)3,https://materialsproject.org/materials/mp-1209910,11.223435870559426,21.61595275338729,40.025863230110616,-4.158966642035933
-6.568203496458334,-315.27376783,3.620807547165081,-2.683571121760417,0.0,0.0,5.658499999999999,14,48,688.7691353949713,1501.862,mp-14665,KNd(SO4)2,https://materialsproject.org/materials/mp-14665,7.796788386861653,23.357805760598605,29.868954968490648,0.013748728692028823
-7.030900346428572,-98.43260485,6.646903344972202,-4.0535090035414285,1.0,0.061546628235679864,0.0,3,14,189.35342368281985,757.9550224,mp-753772,Nd4O3F7,https://materialsproject.org/materials/mp-753772,2.5466555020545725,-18.213794483443746,14.022717411043308,-9.395224494122292
-4.108524288333333,-49.30229146,5.508181475033449,-0.5662920252777776,0.0,0.0,0.0964999999999998,88,12,180.13919823632102,597.5405400000001,mp-30037,AgIO4,https://materialsproject.org/materials/mp-30037,-9.229998373198132,-25.41953459717637,-2.088503524499264,-29.07907643655693