energy_per_atom,energy,density,formation_energy_per_atom,total_magnetization_uB,total_magnetization_T,band_gap,sgr,num_sites,cell_volume,weight,mp_id,formula,URL,tsne_xrd_lin1_0,tsne_xrd_lin1_1,tsne_xrd_lin2_0,tsne_xrd_lin2_1
-8.51462953125,-136.2340725,6.281334056589764,-3.3439730952316804,0.0,0.0,2.1782000000000004,123,16,242.1278959371587,915.8990919,mp-10347,CsCa2Ta3O10,https://materialsproject.org/materials/mp-10347,3.6568086941873705,17.6438224778158,10.649773797449614,30.03208225826995
-7.187429380714287,-100.62401133,7.034161522001207,-2.8892465014285724,2.00000015,0.12204371421239082,1.6753999999999998,64,14,190.98182518983575,809.0126,mp-19434,Pr2NiO4,https://materialsproject.org/materials/mp-19434,-23.71943608177632,38.93424389753653,-15.108693223931828,59.373448213122884
-6.24773389125,-149.94561339,4.6192589410710045,-2.593860294270834,5.55e-06,1.890971651693653e-07,0.0,36,24,342.04669028102813,951.4996,mvc-14203,Ca3Sb2O7,https://materialsproject.org/materials/mvc-14203,-16.312306717127687,42.798555528785904,-14.721934094074525,50.50047789654912
-6.540325445714287,-91.56455624,5.11005566808318,-0.8625630581628566,8.605e-05,2.821376106572077e-06,0.5240999999999998,176,14,355.4408330540466,1093.81496,mp-1245926,Ba3NbN3,https://materialsproject.org/materials/mp-1245926,2.11188394896979,25.855643601504394,-16.061018913088862,41.98798940926276
-5.231992756666666,-62.78391308,6.816776923212657,-1.4384209228645826,0.0,0.0,1.6092999999999993,36,12,260.2578799805994,1068.4,mp-1225628,ErCuPbS3,https://materialsproject.org/materials/mp-1225628,8.725604349463874,8.70136501618377,17.768658365801283,28.880483413919578
-4.3204760515,-86.40952103,3.752264218236078,-1.9024299951379304,0.0,0.0,2.2799,60,20,402.25301117367655,908.9576,mp-756372,Rb2MgO2,https://materialsproject.org/materials/mp-756372,7.13302037021499,19.329894955488427,0.019162185857021168,20.47196980661129
-8.008809383157898,-152.16737828,7.748098122115732,-3.634639113421053,3.0706022,0.12800084210307758,0.0141,148,19,279.56844925088114,1304.47025,mp-22083,Tb7O12,https://materialsproject.org/materials/mp-22083,24.219414420985757,64.38376487953641,-8.194444952934477,37.1640298630704
-6.72673576875,-53.81388615,6.417582348240904,-2.295623461953125,0.99494735,0.08901047654968097,0.0,129,8,130.26759671053776,503.4528,mp-635469,CeCuSO,https://materialsproject.org/materials/mp-635469,-19.30687795819998,26.29691852520465,-23.62984872430725,45.09894323572846
-8.440437255,-84.40437255,6.177763999489253,-3.450332130033334,0.2937517,0.028508047796138282,0.0,123,10,120.08543564015137,446.75822928,mp-1209938,NaThTi2O6,https://materialsproject.org/materials/mp-1209938,-4.846804547942779,12.35395470387516,-20.089307756194643,50.54724985760742
-5.522222851578949,-104.92223418,6.8984902710347535,-0.1108543338596498,0.612847,0.01374104205515575,0.0,204,19,519.7683410763665,2159.30897,mp-1210767,Pr12InCo6,https://materialsproject.org/materials/mp-1210767,-10.36612415167956,21.47045026649957,-11.325409608469233,47.916608503364365
-7.428673174166666,-89.14407809,6.337733505484308,-2.606745011458333,0.0,0.0,4.3579,82,12,168.08402832324396,641.52167,mp-1222367,LiLa(WO4)2,https://materialsproject.org/materials/mp-1222367,27.086784302479984,57.95704091295715,-7.199421634758974,33.84422120325977
-10.226280740750001,-409.05122963,5.9078372146706295,-3.9610743060000018,21.0000001,0.3928255956064601,3.228800000000001,1,40,623.012767310459,2216.5441,mp-757331,Gd3Y5O12,https://materialsproject.org/materials/mp-757331,17.340050315607947,58.58376011354925,-3.0411888468083528,38.4573548992981
-6.6758282242857145,-46.73079757,5.197339987600074,-2.7112329965657134,3.0000011000000004,0.3719839177117421,0.02370000000000028,139,7,93.98849109450815,294.1756450000001,mp-18978,Sr2MnO4,https://materialsproject.org/materials/mp-18978,-23.303987655940233,39.43752819081112,-14.412188052040428,59.119036139474964
-5.192881166666667,-31.157287,6.394770284527767,-0.6126039866666672,8.5e-07,8.579300612822774e-08,0.0,63,6,115.46343348629286,444.6520772,mp-1206326,ErAlSi,https://materialsproject.org/materials/mp-1206326,-8.373664154929003,22.51894754103724,-2.9926251639652786,23.25206456439117
-6.469275075,-25.8771003,5.625138228710246,-2.9106604688362068,0.0,0.0,3.4456,166,4,77.25629659831232,261.7086,mp-7973,RbNdO2,https://materialsproject.org/materials/mp-7973,-1.2577506734691304,66.57192000396813,-10.763889327230169,49.95725611271273
-7.416802973571428,-623.01144978,4.599594675121987,-1.05193567268653,0.0,0.0,3.9118,205,84,1106.0221921518216,3063.6158880000007,mp-2983,Ba(PN2)2,https://materialsproject.org/materials/mp-2983,-13.166419317726824,18.55973183691928,-2.353867174532821,-21.011190241189848
-4.6747296600000015,-51.42202626,7.560105741080317,-1.2691521468181817,0.0046415,0.00019075229450696843,0.0,139,11,283.57374039272565,1291.05514,mp-546846,BaBi4(IO2)2,https://materialsproject.org/materials/mp-546846,-15.357113685641586,21.904833290341035,-16.104304882699456,40.56441376712045
-8.090631930833334,-97.08758317,12.990263900481295,0.16562515758000038,0.0,0.0,0.3378999999999994,14,12,112.60777449833536,880.9216,mp-415,IrN2,https://materialsproject.org/materials/mp-415,-12.183723423380599,20.086753223858658,-19.997389499295746,43.089885597722215
-8.789581064545455,-193.37078342,6.530608710570977,-3.688431203295457,3.135e-05,1.2071272163450436e-06,2.5237,51,22,302.6648108605927,1190.3276,mp-675436,Sm2Zr2O7,https://materialsproject.org/materials/mp-675436,16.17308231494373,61.58580304717751,-6.541645832970239,41.31306499538371
-6.92111670875,-166.10680101,7.439694714404743,-2.1206708318055547,1.05e-06,4.3475089695909513e-08,1.5255999999999998,13,24,281.4661935554099,1261.0498772,mvc-641,AlAg(WO4)2,https://materialsproject.org/materials/mvc-641,19.8541703028162,18.328927105027873,31.306977759830932,38.73348108191863
-7.320625824166667,-263.54252967,5.797707426496746,-0.8972982607800001,0.00047599999999999997,7.405817756444023e-06,0.0,52,36,749.0509507760318,2615.28224,mp-1246466,Ba3(NbN2)2,https://materialsproject.org/materials/mp-1246466,5.6459613933513575,23.422960731748162,0.7925023960929118,33.97882045661006
-4.471904460909091,-196.76379628,2.6036066431379683,-1.5703868883731664,4.00004965,0.06440893974136673,3.8562,54,44,723.7634698186937,1134.80944,mp-745034,RbFeH4Cl3O2,https://materialsproject.org/materials/mp-745034,-0.5112768217960885,29.16815507568037,3.871490676818672,16.4292553725837
-7.333455746999999,-73.33455747,5.412847288616001,-2.6786605582499994,7.25e-06,5.323852925767214e-07,1.6291000000000002,194,10,158.70455247198947,517.3281,mvc-14740,YSbO3,https://materialsproject.org/materials/mvc-14740,10.179751706735516,55.52119097561638,-7.768990348134056,42.26472677074671
-4.925821766,-49.25821766,6.433660591123853,0.30825356,0.2136931,0.007586777463622274,0.0,227,10,328.25441905871435,1271.8023899999996,mp-1210260,Nd4Co,https://materialsproject.org/materials/mp-1210260,28.01398414209228,64.27619136129765,-11.591632371938493,34.44557396964107
-6.703573062727273,-294.95721476,7.962279793649522,-2.4996840101136373,1.125e-06,1.8616114175345478e-08,1.0930999999999995,92,44,704.2728007380383,3376.986000000001,mp-769210,Tb2Pb2O7,https://materialsproject.org/materials/mp-769210,4.888941195233249,8.126951963987766,9.969064234022225,12.99062426250884
-8.70122535,-174.024507,9.407428340391544,-0.4920498447083333,4.893090975,0.2811716886518483,0.0,127,20,202.80988969442745,1148.976,mp-20467,PuB4,https://materialsproject.org/materials/mp-20467,-2.110371285218124,17.010756747087537,9.673508104856603,24.381436335687514
-5.348829498333333,-32.09297699,9.862218347031577,-0.7385991433333329,1.00003665,0.08446931733705251,0.0,186,6,137.97308018400852,819.445138,mp-4219,CeGeAu,https://materialsproject.org/materials/mp-4219,-52.18063325454625,22.359962172724433,-49.049044641897275,28.62692851130041
-7.0517842795000005,-141.03568559,7.270810863846528,-2.588776132750001,0.0,0.0,0.7341000000000006,63,20,361.1342253065236,1581.2568,mp-1214439,CePbO3,https://materialsproject.org/materials/mp-1214439,6.102762514200388,20.08097229447648,35.84055165093079,-2.2460348614531127
-3.071443671875,-49.14309875,4.720866785819017,-1.3570360147916667,1e-07,1.7917418091533739e-09,2.7625,140,16,650.4321500465751,1849.1607,mp-23504,Sr2InI5,https://materialsproject.org/materials/mp-23504,4.423303007815769,26.732567763906555,2.0388706918593256,22.741431430300665
-6.401132473076923,-83.21472215,6.8805400567171215,-1.8572254865161533,5.0000012,0.3530211234237439,0.0,156,13,165.06190134614755,683.943585,mp-1223416,La2MnPbO9,https://materialsproject.org/materials/mp-1223416,-0.3733793435327757,9.476040460672865,-11.332926769348342,43.6443720792324
-7.635473614285713,-106.89663059999998,5.780742301312918,-3.2192577575,2.00000005,0.11881364211088127,0.14800000000000058,63,14,196.17385439687652,682.9291400000001,mp-1218174,SrLaVO4,https://materialsproject.org/materials/mp-1218174,-22.953695441772183,38.17631879460331,-14.643592387264324,58.86537751784466
-5.317765290714285,-74.44871407,5.208622701792995,-0.6517844060199991,0.0,0.0,0.2805,176,14,333.93254379492464,1047.4482,mp-1029573,Ba3GaN3,https://materialsproject.org/materials/mp-1029573,4.5433099730215725,16.001171530865754,1.4136312571976684,22.04318316701584
-6.819968666538463,-177.31918533,5.53017354130612,-2.278100345865386,7.00000035,0.21506695488120428,0.5758999999999994,186,26,379.3165599610674,1263.2563,mp-1214367,BaTbFe4O7,https://materialsproject.org/materials/mp-1214367,8.274697811234692,55.09307606288501,0.5099803895355985,38.62524237172227
-8.03517905590909,-176.77393923,7.429978317123799,-3.2140475676136373,2.9999982999999997,0.116774363337371,0.2416999999999998,63,22,299.399401602904,1339.6439400000004,mp-1190489,LaTb2RuO7,https://materialsproject.org/materials/mp-1190489,16.478494027504542,59.46032616732146,-3.033403523651897,38.27743668055778
-6.3857162117307675,-332.05724301,4.883131247638119,-2.3175250397527467,0.0,0.0,3.0693,220,52,726.8996699438029,2137.5868960000003,mp-28708,In3(PO4)2,https://materialsproject.org/materials/mp-28708,-13.853402487153911,10.780007345245881,-14.961842203990908,26.1621925964569
-9.032997353999999,-90.32997354,5.3595349825487215,-1.1037271229279997,6.35e-05,4.3135041958816355e-06,1.2207999999999997,11,10,171.56193188918076,553.73114,mp-989534,LaMoN3,https://materialsproject.org/materials/mp-989534,4.520355037280215,17.22682223617996,3.001222412351064,36.92499974798565
-4.209152486071429,-117.85626961,2.8444555415440003,0.25922860217100663,0.00047265,7.900950323348749e-06,0.0,166,28,697.1685037016783,1194.229564,mp-673817,Rb3P11,https://materialsproject.org/materials/mp-673817,3.702243076759756,-8.481332834497168,-3.942784462292917,-11.530889054684422
-6.743711823541666,-323.69816753,4.448314032340492,-2.530485251145834,0.0,0.0,0.0,62,48,645.9306639119478,1730.3432,mp-22407,BaCu2Si2O7,https://materialsproject.org/materials/mp-22407,3.5171966368021232,28.19796686140501,58.06629062056864,37.243062499682175
-6.7964678635,-135.92935727,7.893817277705315,-2.08739441175,0.68416565,0.03380680425346065,0.0,62,20,235.84929058901542,1121.1728,mp-555735,CaIrO3,https://materialsproject.org/materials/mp-555735,-23.643352029785518,51.1723414052159,-6.308444696459201,67.37614265687857
-7.4710335146875,-239.07307247,6.403277217752306,-2.60318978527625,7.999999525,0.2544142916719889,1.0612,55,32,366.4594155936786,1413.12018,mp-1212984,DyMnFeO5,https://materialsproject.org/materials/mp-1212984,-2.069873576704781,27.321647760456706,1.1831133285901263,49.670887802562675
-7.97260315,-255.12330079999998,5.066913568438514,-2.65307085945875,6.99999975,0.2232286351418158,1.0827000000000004,55,32,365.4479652333822,1115.11576,mp-510598,YMn2O5,https://materialsproject.org/materials/mp-510598,-2.1697668610814023,27.457039391203494,1.2614282410784454,49.79871333290489
-7.468189372307693,-194.17292368,5.452956855061218,-3.3133464611369234,0.9573149999999999,0.025728743455054468,0.0,176,26,433.62440288747337,1423.95638,mp-1211272,La3Nb(ClO2)3,https://materialsproject.org/materials/mp-1211272,0.2463318737393727,11.11906095063518,8.014243446008118,30.105360596165706
-5.187805167021278,-243.82684285,7.554322536409762,-1.6097872172304255,6.670000000000001e-05,8.084577211088398e-07,0.5838999999999999,8,47,961.4926050351653,4374.137,mp-1229189,Bi14Pb4Cl8O21,https://materialsproject.org/materials/mp-1229189,1.1315117332037348,24.891329151657356,-0.6487507983558474,25.703775066054092
-5.746519104615384,-74.70474836,6.631719651984401,-0.8381960119999996,10.347043699999999,0.5348981894186032,0.03180000000000005,44,13,225.4356433985564,900.32570784,mp-37950,Na3(W2O3)2,https://materialsproject.org/materials/mp-37950,5.939800002184013,6.548044271262183,7.825163711319482,25.39163633760917
-6.289290305,-138.36438671,6.8048389356141135,-2.307043592132727,3.9999995999999998,0.12866623480309325,0.0,3,22,362.3037116144178,1484.70969,mp-1173263,Sr2MnBiPbO6,https://materialsproject.org/materials/mp-1173263,10.696009365393019,34.37606401811746,5.001274858192163,48.0259220875581
-4.6923985508333335,-56.30878261,4.91018456536633,-1.3659936292,0.0,0.0,1.1216999999999997,12,12,358.8939631537353,1061.2431,mp-1227976,Ba6Br2N3Cl,https://materialsproject.org/materials/mp-1227976,-13.713959187234945,20.766238324254605,-14.796189470232296,43.36528550623788
-6.079293176,-60.79293176,6.742514445240572,-1.063815911770834,0.0,0.0,0.0,36,10,189.64021044815186,770.02216,mp-561242,TaAgS3,https://materialsproject.org/materials/mp-561242,4.525538241361028,-8.248502160964703,10.276267374759426,3.3711914620883974
-5.540208941875,-88.64334307,5.05330084537642,-1.7225151416574995,0.0,0.0,2.6809000000000003,13,16,305.42543497631,929.4612,mp-29591,Sb3ClO4,https://materialsproject.org/materials/mp-29591,4.2396784707598085,21.59103748148644,30.86340127867848,4.354972722777525
-4.230491183333333,-50.765894200000005,9.525161454692777,-2.239258743293333,0.0,0.0,2.2346999999999992,11,12,170.62113356903743,978.7146256000001,mp-674849,TlBiF4,https://materialsproject.org/materials/mp-674849,8.564898986408943,19.1663624582042,12.385646094784105,7.888857413928045
-7.921005041489363,-372.28723695,5.426999052282999,-3.358398921501774,0.0,0.0,3.9691,189,47,576.9568251207079,1885.61910784,mp-1210255,Na3Nd9B8O27,https://materialsproject.org/materials/mp-1210255,3.4928471569805883,21.40120455556067,-5.618936464985694,29.010133880038552
-7.34233071090909,-80.76563782,5.355722926067315,-3.336236126590909,0.0,0.0,2.8493000000000004,139,11,212.62854510523843,685.7891,mp-1178535,Ba3Y2O6,https://materialsproject.org/materials/mp-1178535,-20.18379227207653,6.301286725160924,-12.764976621875476,29.205969543547262
-3.9182761571428566,-82.2837993,3.2471929105669664,-0.6510730856547615,4e-07,7.800388054191717e-09,0.0,71,21,597.6146156624662,1168.6385544000002,mp-556496,Sr10Al4Si6O,https://materialsproject.org/materials/mp-556496,1.835561065338531,27.97858354211369,30.65858463575747,0.4951402438027493
-4.63043787,-180.58707693,6.858596939568626,-1.6569873688625645,5.5e-06,8.001912119795263e-08,1.2934,65,39,801.0254960250462,3308.5106,mp-1226996,CdBi12(Cl7O6)2,https://materialsproject.org/materials/mp-1226996,-6.634048473543008,16.146430598966447,4.067938870518985,23.418074430858827
-1.463810855,-5.85524342,4.592910704433441,-0.12484822249999986,0.14546779999999998,0.01011766564306795,0.0,221,4,167.55753978520494,463.4500000000001,mp-1187119,Sr3Hg,https://materialsproject.org/materials/mp-1187119,30.616633789943585,64.64571877579533,-18.739774972192734,-9.954010573315793
-7.4744042611764705,-254.12974488,8.980765703485435,-2.42767125389706,0.0,0.0,2.8001000000000005,2,34,508.03383049325305,2747.62152,mp-29680,Ta2Bi4O11,https://materialsproject.org/materials/mp-29680,11.802087999034226,22.862019213820723,23.209501127174,37.049795860289116
-7.315300139,-219.45900417,4.0355124056447895,-2.6653853707857147,4.00000005,0.12479503223075747,0.6880999999999995,70,30,373.54259091615336,907.799048,mvc-9150,CaMo2(PO5)2,https://materialsproject.org/materials/mvc-9150,5.123780842842984,6.351841287065705,34.66966530358569,36.580637052437794
-7.586288517857143,-106.20803925,5.528977590775856,-3.5691591935714286,0.0,0.0,3.6062,227,14,264.354802083368,880.2031999999998,mp-753418,SrNd2O4,https://materialsproject.org/materials/mp-753418,-20.789302068889533,-5.4046857378814535,-10.51007867229573,43.239363425560576
-7.34365842875,-117.49853486,3.5147452472123724,-2.89879175109375,1.0000006,0.0672761739424782,1.2984999999999998,9,16,173.227326734765,366.658,mvc-3270,MgVSiO5,https://materialsproject.org/materials/mvc-3270,22.37738151972457,22.4562657481503,52.20476975852705,40.71891079628536
-7.8311722449999985,-109.63641143,4.7957482678977446,-3.3929177912380952,0.0,0.0,2.4214,129,14,189.57996763572342,547.51967856,mp-6514,NaLaTiO4,https://materialsproject.org/materials/mp-6514,-7.554499443262852,19.875444124139744,3.425473654654376,47.62201960689827
-5.902943212777778,-106.25297783,6.454313314354162,-2.243703722083334,0.0,0.0,2.1187,55,18,297.46945576000763,1156.2276,mvc-3807,Ca2Bi2O5,https://materialsproject.org/materials/mvc-3807,9.96399028505177,9.494904489047322,12.670085276951525,6.794118432560519
-7.676473583214286,-214.94126033,5.8780029141275625,-3.6132025560714287,0.0,0.0,3.4349,62,28,485.2551902254648,1717.7141600000002,mp-752555,SrLa2O4,https://materialsproject.org/materials/mp-752555,0.07058463939447282,22.71626599678515,0.6144514047285664,46.04293459175035
-7.14289361642857,-100.00051063,6.0508107414247885,-3.006967516785714,1.3355597,0.08028631497589292,0.0,123,14,193.8649103037536,706.42114,mp-1218801,Sr2La2MgRuO8,https://materialsproject.org/materials/mp-1218801,-22.852244863769396,38.366423610453054,-14.44160312948472,58.87323292719143
-5.626067815,-22.50427126,8.791723303826604,-0.41599949937500025,1.9699999999999998e-05,2.794303193247979e-06,0.0,38,4,82.16183432570394,435.0058,mp-1219097,SmErNi2,https://materialsproject.org/materials/mp-1219097,-35.56409780468043,13.781779909866085,-39.080259602937325,25.25913726650811
-6.7689778999999985,-81.2277348,9.0220969311761,-1.866889263333332,1.00000085,0.06930474839271246,1.3225999999999996,88,12,168.15694377068397,913.6360000000001,mp-1214148,BiWO4,https://materialsproject.org/materials/mp-1214148,28.852525231349066,63.055556950140115,-12.551070719397151,36.225421610184156
-2.715593095555556,-48.88067572,3.4573663911830934,-1.033685045111111,3.355e-05,5.940265565591324e-07,2.1407,128,18,658.2094164008242,1370.4412,mp-23411,K2TeBr6,https://materialsproject.org/materials/mp-23411,1.730430893047387,20.137307838501968,-9.935508597427392,-9.484597269310406
-3.0928746216666667,-18.55724773,4.296059702088052,-0.6266651685316669,0.46428450000000004,0.023230957262576984,0.0,123,6,232.9134169865576,602.5814032000001,mp-1214559,Ba2ZnSb2F,https://materialsproject.org/materials/mp-1214559,-6.3613805278334254,-27.966062856591808,-1.5530816678468042,-23.638683837234744
-7.53615636,-180.86775264,6.897769977409,-3.3175721846875006,0.0,0.0,4.3777,113,24,260.2489845000809,1081.057168,mp-1208014,Tm2Be2GeO7,https://materialsproject.org/materials/mp-1208014,-2.194809202423716,12.887850432973568,7.634125422561224,30.918464787753773
-5.551961108666665,-83.27941663,3.2323086557753364,-2.4481880701666663,0.0,0.0,2.5181,148,15,149.82488413534603,291.6404,mp-8611,Li8CeO6,https://materialsproject.org/materials/mp-8611,-1.9125241120744658,-0.7370978479573105,5.7649198798521635,-28.5090023219067
-8.570033410454545,-188.54073503,8.00972837034462,-3.5164506103409106,7.5e-07,2.8332874313723404e-08,1.5993,67,22,308.4949476935409,1488.0473600000007,mp-1173331,Sm3TaO7,https://materialsproject.org/materials/mp-1173331,16.22233181683131,61.844358188433674,-7.587623424008789,37.80244596853709