energy_per_atom,energy,density,formation_energy_per_atom,total_magnetization_uB,total_magnetization_T,band_gap,sgr,num_sites,cell_volume,weight,mp_id,formula,URL,tsne_xrd_lin1_0,tsne_xrd_lin1_1,tsne_xrd_lin2_0,tsne_xrd_lin2_1
-6.973662181666668,-41.84197309,8.181112969386524,-0.02641390083333424,8.037864599999999,1.0671118231347445,0.0,187,6,87.782547855471,432.48543,mp-1219989,PrFeCo4,https://materialsproject.org/materials/mp-1219989,-51.946805594612954,-15.33650497802546,-54.601221856267955,-14.4421403307704
-7.917442068461539,-102.92674689,7.5209775936928125,-0.2086698682692313,20.552582100000002,1.429570722341536,0.0,71,13,167.5475856447537,758.863,mp-1220494,Nd(Fe5Si)2,https://materialsproject.org/materials/mp-1220494,-54.663125005860756,-24.098612004989146,-52.10503381488,-10.159097263289274
-6.686866250294116,-227.35345251,11.40177912321362,-0.17671816970588214,4.15e-06,8.809130652441172e-08,0.0,64,34,549.0254454645882,3769.78,mp-1200988,Hf7Cu10,https://materialsproject.org/materials/mp-1200988,-52.37504839540904,-6.8791158442339535,-59.01796253689887,-0.7297071570840873
-10.92012019,-65.52072114,10.984637843645034,-0.1302898100000031,1.1e-06,1.142873539031169e-07,0.0,74,6,112.1687641896313,742.008,mp-1215220,ZrMoW,https://materialsproject.org/materials/mp-1215220,-72.91516889169814,-7.73471347037954,-51.74666367856618,-16.81544627254825
-6.735143492083334,-161.64344381,8.70960514002741,-0.4836495998611123,0.0001947,9.375378000255867e-06,0.0,55,24,242.02185886856472,1269.4160000000002,mp-982045,YbB4Ru,https://materialsproject.org/materials/mp-982045,-37.648245322041575,-11.751833030592428,-38.14593227231993,-11.013999506010137
-2.9674460516666668,-17.80467631,7.291508198017894,-0.3347534995833336,0.008551799999999998,0.0009529462032599724,0.0,187,6,104.58432048003756,459.23487,mp-1222733,LaZn4Ni,https://materialsproject.org/materials/mp-1222733,-47.884973580975895,-18.050803050517157,-55.60338527488751,-18.086011067267414
-6.0846638025,-24.33865521,3.3548318497398064,-1.8775989974479168,0.05281709999999999,0.008177410908818315,0.0,164,4,75.27246843313038,152.075,mvc-16021,CaTiS2,https://materialsproject.org/materials/mvc-16021,-45.732533409944175,-27.16296315384696,-54.1909869586785,-24.788661803379327
-5.243270880769232,-272.6500858,5.683734344762372,-1.1556943243733415,0.00161985,1.1555944326342614e-05,1.318,163,52,1633.6039953738284,5591.540403800001,mp-1213395,CsLa(TaBr3)6,https://materialsproject.org/materials/mp-1213395,30.26252860170143,-51.924121135034724,-1.898101415121608,-48.14072158023293
-4.125060671428572,-115.50169879999999,8.572433531946414,-0.4347980578571433,0.00031115,8.136328308738007e-06,0.0,63,28,445.67550821267054,2300.77317,mp-1193258,Yb2(Ga3Co)3,https://materialsproject.org/materials/mp-1193258,-52.203741059253225,-5.871144406960519,-47.47689783360306,-0.4703675295358721
-5.081381081428573,-71.13933514,3.645152663306512,-2.5383691458628577,9.0000001,0.6642697460884874,2.637,160,14,157.8975781089867,346.61080739999994,mp-758755,Li3Co3OF7,https://materialsproject.org/materials/mp-758755,-3.4103777927917376,-60.84232019907203,-22.69394816703315,-63.90959196778852
-8.201511700000001,-82.015117,4.125751871468308,-0.7356853129583328,0.0070916,0.0006235110375714657,0.0,166,10,132.54932272407706,329.3301772,mp-1079706,Ti5Al2C3,https://materialsproject.org/materials/mp-1079706,-70.73223146851156,1.9435265931877432,-54.916980366231044,-32.35879781010012
-10.2636308175,-41.05452327,11.659547623081679,-0.296559066875,1.5399999999999998e-05,3.2381917633306512e-06,0.0,225,4,55.423708851887824,389.16,mp-981365,V2ReRu,https://materialsproject.org/materials/mp-981365,-34.68375558053547,-38.373263577432496,-59.53021512282933,-46.260504355973865
-8.357910577142857,-117.01074808,8.304678167676427,0.1415048596514278,19.136731,1.2193876264291217,0.0,71,14,182.89565825934216,914.6967,mp-1219146,SmFe10Mo2N,https://materialsproject.org/materials/mp-1219146,-58.12414475092637,-31.567751443794254,-64.4741364843306,-18.91442426920636
-3.7780616325,-75.56123265,2.4389949976301275,0.1188626505000002,7.075e-06,2.2787160150610399e-07,0.0,8,20,361.83757748176964,531.466,mp-1073003,Mg2Si3,https://materialsproject.org/materials/mp-1073003,-57.5766842265359,-5.81964150994175,-38.21135541270022,1.6459221482311126
-5.09461941875,-40.75695535,15.01747087826496,-0.5025227062499997,0.0,0.0,0.0,59,8,150.8500405647381,1364.2474140000004,mp-1079681,ZrAu3,https://materialsproject.org/materials/mp-1079681,-62.24863809725413,-20.545432922347594,-67.98454448335686,11.838624059592089
-6.008868033333332,-36.05320820000001,5.324287138116318,-2.110890485208334,1e-06,8.966448327619998e-08,0.0,129,6,129.9741474744335,416.744,mp-7698,NdS2,https://materialsproject.org/materials/mp-7698,-4.157821926222779,-22.744486354424218,1.4482543348579606,-19.997208505118664
-4.902429905,-68.63401867,5.085644090426453,-3.1253453368610598,4.0000003,0.22015482549369428,4.9542,160,14,211.74308799237926,648.4942288,mp-1219599,RbBa2Ni2F9,https://materialsproject.org/materials/mp-1219599,-14.117863742627534,3.475864148963587,-2.346145848564519,-17.526979884807222
-5.367716732857144,-37.57401713,16.352641386802112,-0.2467566471428577,6e-07,5.9221606038088265e-08,0.0,123,7,118.07242881995873,1162.7526,mp-1025311,CdAsPt5,https://materialsproject.org/materials/mp-1025311,-51.44816510104801,-32.85282459858232,-60.18429443341663,-29.522543726444727
-8.091178837222222,-291.28243814,9.905326801162678,-0.5018397624074077,9.5e-07,2.6523307649108844e-08,0.0,142,36,417.42009256163396,2489.964,mp-568184,Lu(BRu)4,https://materialsproject.org/materials/mp-568184,-58.20664927471953,-12.016845085963267,-57.889123559535506,-1.3924372905823237
-7.5714627775,-30.28585111,12.713552822093144,-0.7641837541666671,0.0,0.0,0.042600000000000186,225,4,59.638096408475754,456.606,mp-864908,MgTiIr2,https://materialsproject.org/materials/mp-864908,-32.42133115852176,-46.75804875164506,-53.324552666769506,-31.25046156655593
-6.336295596666666,-38.01777358,7.720636559083965,-0.5400039824999988,1.23e-05,1.2966370987032714e-06,0.0,38,6,110.55136155354441,514.0059120000002,mp-1224337,HfScGe4,https://materialsproject.org/materials/mp-1224337,-52.391862112073966,0.1948087203443711,-79.16353233876094,5.643741242163867
-5.7864442921875,-185.16621735,4.14864790801761,-1.85109532881,23.9999991,0.9665113610130294,0.5408,10,32,289.3887804480798,723.001465,mp-1100698,Li9Mn2Co5O16,https://materialsproject.org/materials/mp-1100698,-1.883578671039384,-76.22049790996617,-20.489064992191427,-77.85826430539858
-7.686308313888889,-276.70709930000004,9.872917931020202,-0.4299726790740739,2.1425e-05,5.980646393373034e-07,0.0,142,36,417.49389836650965,2482.256,mp-1200533,Yb(BRu)4,https://materialsproject.org/materials/mp-1200533,-58.232737179660255,-12.018656602001176,-57.89390902927392,-1.3999433147910572
-4.80328281090909,-105.67222184,6.998384577145907,-0.10338983181818276,0.0,0.0,0.0,11,22,439.6347733666617,1852.852082,mp-3245,SnP7Au3,https://materialsproject.org/materials/mp-3245,-10.745642387468589,-2.5229489257760296,-32.42816839171647,-14.495377740050886
-5.812945895,-116.2589179,4.011226598077909,-2.431252968714,0.0,0.0,0.4729000000000001,1,20,350.6602175235704,847.0608384,mp-677041,ZrCuF3,https://materialsproject.org/materials/mp-677041,14.407000409011886,0.9773569915979023,-2.7849985414481937,-3.2950481358627632
-4.066468424166667,-97.59524218,8.561278055705705,-0.13471604430555514,4e-07,1.27507312210271e-08,0.0,127,24,365.596751136628,1884.9153,mp-1210043,PrIn2Cu9,https://materialsproject.org/materials/mp-1210043,-56.15791848410903,-20.249606316661907,-50.27946797143484,-21.970832604795994
-1.3929535825,-11.14362866,5.555201461135863,-0.0372497237499998,3.745e-05,3.3103838966311197e-06,0.0,139,8,131.84112156191838,441.06400000000014,mp-1094476,MgZn3,https://materialsproject.org/materials/mp-1094476,-50.013328792020744,-41.11028618253694,-63.13511173835736,-25.874284506016952
-5.2182825375,-41.746260299999996,11.447816183635672,-0.2695521825000009,1.2e-06,1.0477993653634332e-07,0.0,166,8,133.46904177805953,920.1404,mp-1224414,GeBiPd6,https://materialsproject.org/materials/mp-1224414,-38.66629210539893,-62.18542811229005,-53.420322228336744,-32.932484437386705
-7.7484054825,-30.99362193,7.8490185111272925,0.3514972653515622,0.11752280000000001,0.027554562091429657,0.0,139,4,49.70568281607977,234.9483,mp-984712,Cr3Se,https://materialsproject.org/materials/mp-984712,-76.94016996681401,-25.904765115789534,-63.240482037399,-28.461703056489547
-6.179664548333334,-74.15597458,4.330995598638165,-0.650430753333333,5e-08,2.7945034580359865e-09,0.0,194,12,208.51763019020058,543.8528796,mp-10911,Sc2Al3Ru,https://materialsproject.org/materials/mp-10911,-65.43279638372867,-16.828010000904253,-55.86778619305975,-16.55442903302883
-7.055399456666668,-84.66479348,5.258582694320099,-0.7629184649739583,0.0006464,2.1737702953519225e-05,0.6985999999999999,156,12,346.5493794395143,1097.4499999999996,mp-1030535,MoWSe3S,https://materialsproject.org/materials/mp-1030535,-8.461080233562036,-80.26566067573783,-24.016620091143604,-50.305199741100644
-3.340664432,-33.40664432,4.347217771955293,-0.2894676648999997,0.0,0.0,0.060999999999999936,8,10,217.7188948970957,569.9784385600002,mp-1221272,Na2Zn3SiAs4,https://materialsproject.org/materials/mp-1221272,-21.885005052799652,-32.65579313200828,2.9401579354113885,-14.477650305270505
-7.8811354540476195,-331.00768907,7.930525078588588,-0.01802992404761908,8.388156083333334,0.18527935560427486,0.0,185,42,527.6147145410939,2519.82135,mp-704981,Mn5Ge2,https://materialsproject.org/materials/mp-704981,-51.4137728483275,-52.07256405418252,-68.93554946735479,-13.630426269881925
-7.052888600526315,-268.00976682,8.822122374420006,-0.04784553499999932,47.3829524,1.094126570315499,0.0,8,38,504.6984611894408,2681.3651950000008,mp-1224958,La4TaCo33,https://materialsproject.org/materials/mp-1224958,-54.08701271460777,-26.065770632659678,-51.373801798205136,-11.582877580880199
-7.5361059642857136,-158.25822525,8.132679508077056,-0.14393859892857244,25.562338699999998,1.0946478502543262,0.0,12,21,272.14702050407834,1332.8711,mp-1217860,Tb2Ga3(Fe7C)2,https://materialsproject.org/materials/mp-1217860,-51.136928866331175,-25.49029059958685,-50.67455120503997,-10.369280836748462
-4.828445054444446,-43.45600549,8.634653563824601,-0.5843887183333334,1.8333333333333333e-06,1.2146558090829762e-07,0.0,189,9,175.89991548708667,914.6637300000001,mp-1079093,TmSiAg,https://materialsproject.org/materials/mp-1079093,-42.603477297016724,11.986099232160068,-39.20810836126321,17.508737801509067
-4.646700543333334,-69.70050815,2.88824931517268,-2.8525985939679996,1.0000002000000001,0.07881832815847971,0.4071,12,15,147.859861730889,257.1792256,mp-753268,Li6CuF8,https://materialsproject.org/materials/mp-753268,-4.40059553638064,-64.10240005353863,4.260474079845838,-10.528258906204602
-4.966045394285715,-34.76231776,10.082525143526446,-0.3757500374181553,1.7199999999999998e-05,1.676727409066048e-06,0.0,123,7,119.54830165249051,725.878,mp-1077979,InPd5Se,https://materialsproject.org/materials/mp-1077979,-51.51782050764408,-32.98174699862583,-60.42952808490681,-29.490571683668605
-9.10807373,-54.64844238,14.956658391848805,-0.03571929499999982,5.55e-06,5.587040488173722e-07,0.0,227,6,115.7680164026317,1042.7352999999996,mp-2498,PrOs2,https://materialsproject.org/materials/mp-2498,-73.67626361419141,-6.184446605320642,-76.60981181335127,-9.406345059847693
-8.695951687500001,-104.35142025,12.803927953034501,-0.4919194336111114,0.6716329000000001,0.06400135188854426,0.0,65,12,122.29824978717556,943.00582,mp-1095488,UB4Os,https://materialsproject.org/materials/mp-1095488,-37.53320434679356,-11.289606735545824,-38.096340650325686,-10.786248135396534
-2.0637905659999998,-10.31895283,3.6120960226082874,0.2142285217999998,0.0,0.0,0.0,123,5,199.57548847800393,434.1276,mp-1207257,K2CdSb2,https://materialsproject.org/materials/mp-1207257,-0.6097786896799209,-28.03432883978399,11.304064605259347,-12.238559730930678
-6.454207355277778,-232.35146479,6.590342720084886,-0.7170275725000003,0.0,0.0,0.0,62,36,470.2980016643769,1866.5174,mp-21661,YSi3Ni5,https://materialsproject.org/materials/mp-21661,-63.1469103342652,-29.33781919997657,-67.58742040792569,-16.554013578809304
-6.56874012142857,-91.9623617,4.545324110495622,-1.9819650235714292,8.06129615,0.6344252399377623,0.0,88,14,148.08185672452498,405.3382772,mp-1248448,Al(FeO2)2,https://materialsproject.org/materials/mp-1248448,-32.16562283545882,3.280633405828842,-46.56044183576695,-11.26650569331321
-6.161651646,-61.61651646,3.290025756095236,-0.7088893220000003,4.210000000000001e-05,2.8084848654571186e-06,0.0,127,10,174.69779985618882,346.1287252,mp-10676,Sc2AlSi2,https://materialsproject.org/materials/mp-10676,-70.33378421468471,-3.9804952677391423,-58.326811883827666,-17.95858213508096
-6.185099774166668,-148.44239458,3.8615783941663984,-2.050833873285,17.9999997,0.9394561062808175,0.4175,6,24,223.2921378736035,519.265175,mp-1175309,Li7Mn4CoO12,https://materialsproject.org/materials/mp-1175309,3.3758815590880067,-77.40440685966225,-27.723101983662485,-77.69036079190475
-8.103235785,-64.82588628,12.482286279059664,0.5909898424999991,0.54623925,0.047738011088710175,0.0,194,8,133.3509179715268,1002.4,mp-1187592,Tc3Pb,https://materialsproject.org/materials/mp-1187592,-49.51974888100519,-34.24804227258475,-60.87864890053028,-28.312090372191157
-5.239334633333333,-31.4360078,8.728182523828371,-0.03363220041666596,2.0294223999999996,0.2709194907469047,0.0,191,6,87.29907189504696,458.86439000000007,mp-1219079,SmCo2Cu3,https://materialsproject.org/materials/mp-1219079,-51.50757217929429,-17.15916929757354,-53.69247277364502,-15.215021288550014
-5.549100277999999,-55.49100278,9.812145579994995,-0.6089537190000002,1e-06,6.034194334032514e-08,0.0,127,10,193.13373297958648,1141.2296,mp-1080713,Er2Ni2Sn,https://materialsproject.org/materials/mp-1080713,-44.56352991792204,33.606283742894256,-56.099995622686905,24.24103726446591
-6.54153537,-104.66456592,4.58119314794128,-1.9447773583649999,17.8349615,1.3270228055464024,0.0,12,16,156.62865451021852,432.11638000000005,mp-753827,Li3Mn4CuO8,https://materialsproject.org/materials/mp-753827,-5.860409299667465,-60.41900186657317,-23.31223754645209,-63.8924392242724
-8.873500045,-17.74700009,7.331956169660039,-0.1039819400000006,1.3126162000000001,0.6325132164591578,0.0,65,2,24.184971662641825,106.7865,mp-1216347,VFe,https://materialsproject.org/materials/mp-1216347,-49.36642273005434,-50.825920325963644,-68.93527198883477,-44.115259199373924
-5.482251495714286,-38.37576047,16.398448310858008,-0.3101353428571433,0.00013000000000000002,1.340933731006157e-05,0.0,123,7,112.98309419779994,1115.7506,mp-1025356,ZnAsPt5,https://materialsproject.org/materials/mp-1025356,-52.23012803365289,-33.4074664979157,-59.904013142357044,-24.93531699799036
-7.311968465,-146.23936930000002,6.714510866154377,0.01217285404800066,0.025169475,0.0014801066797374158,0.0,62,20,198.17942581906368,801.3529799999999,mp-1245849,Mn(NiN)2,https://materialsproject.org/materials/mp-1245849,-61.96642260636783,-23.94790871811873,-48.78770444062378,-3.068194284921183
-6.007396494545453,-132.16272288,7.127419969532673,-0.5407575281818179,1.465e-05,4.831851107646383e-07,0.0,229,22,353.3470819243928,1516.6479,mp-1191954,Y3(GaNi3)2,https://materialsproject.org/materials/mp-1191954,-50.145754339781035,-31.834571486341005,-58.76405554750495,-17.808095671135106
-6.7094570719444455,-241.54045459,8.639204403878868,-0.7863245604365079,0.05888045,0.0015919851188890145,0.0,62,36,431.03203038501573,2242.5090440000004,mp-1199692,YbCo5P3,https://materialsproject.org/materials/mp-1199692,-64.68769027383513,-29.03370103559383,-65.16276401857958,-15.364900155807122
-8.201084338055558,-295.23903617,9.510284691061829,-0.8677755893253981,0.0,0.0,0.0,189,36,542.0624896464212,3104.515144,mp-8760,Dy5P12Ru19,https://materialsproject.org/materials/mp-8760,-51.09185232211375,2.3535452522441043,-55.14650724515318,20.64434568266293
-3.73160446,-14.92641784,14.40035395565517,-0.04514750999999961,0.0,0.0,0.0,123,4,60.080646985112544,521.025138,mp-522,CuAu,https://materialsproject.org/materials/mp-522,-58.33336428628214,-37.80530615087347,-61.75153222175962,-29.311519611974212
-4.369420715,-26.21652429,9.039158419237944,-0.1903335258333332,7.2999999999999996e-06,9.594836940567095e-07,0.0,191,6,88.66713771860876,482.66032,mp-30585,HoCu5,https://materialsproject.org/materials/mp-30585,-50.80311507301161,-16.192682384963568,-54.06370905882592,-16.940137918432487
-8.99368401125,-71.94947209,12.693693797619824,0.2989925837500014,0.0069236,0.0005437777501411001,0.0,194,8,148.38430376814284,1134.29728,mp-1185998,MgTa3,https://materialsproject.org/materials/mp-1185998,-47.68216095514735,-31.82108219825655,-58.75817531335511,-28.70809025534367
-9.163204239642855,-256.56971871,7.136656603001282,-0.3173836385044645,0.00010290000000000001,2.0835054608045156e-06,0.0,194,28,575.5700129690745,2473.682,mp-1207420,Zr9Mo4S,https://materialsproject.org/materials/mp-1207420,-68.18066937355735,-4.862375704538319,-64.06837011678347,3.584419874758965
-7.623829263846153,-99.10978043,8.222872849677438,0.026268812307692384,21.8906504,1.5196205929102515,0.0,139,13,167.88075843752847,831.33374,mp-1226889,Ce(MnCo2)4,https://materialsproject.org/materials/mp-1226889,-54.74462658692654,-24.50594639905679,-57.40953019805802,-11.99715797388611
-4.756104052954545,-209.26857833,4.742700524618403,-1.6395429685681824,0.0014995999999999998,2.1153325803731117e-05,2.6313,52,44,826.1790933058832,2359.66750848,mp-780428,Na4Bi2O5,https://materialsproject.org/materials/mp-780428,25.206080874330663,0.4440074923616682,9.46457575914168,-38.468581599238746
-6.9368815941666675,-166.48515826,8.596124861043437,-0.31954871208333196,9.34741465,0.3740415647440129,0.0,141,24,291.2386912444523,1507.65751,mp-1191958,ErCo9Si2,https://materialsproject.org/materials/mp-1191958,-67.31050043877178,-28.768833543633267,-69.37972174296459,-17.645985835921298
-4.6404563844444455,-83.52821492,9.325879855604132,0.02070885388888952,0.05736985,0.002474415611119112,0.0,160,18,270.20195996486115,1517.50182,mp-1216918,U(GaCu3)2,https://materialsproject.org/materials/mp-1216918,-50.539757957753785,-15.765974734343047,-54.140686328909766,-17.464583998501936
-5.990011744482758,-173.71034059,10.06410225635922,-0.8331401306896546,1.4999999999999999e-05,3.778858884159316e-07,0.0,225,29,462.6025394099511,2803.71563,mp-1208056,Tm3(Si3Pd10)2,https://materialsproject.org/materials/mp-1208056,-69.45643711156934,-2.634974999410934,-58.966944388616234,-17.208496994845298
-10.2033806475,-81.62704518,13.924465590198906,-0.2185662799999992,1.25e-06,1.2561941057755586e-07,0.0,194,8,115.96600317357624,972.434,mp-862770,Tc3Ir,https://materialsproject.org/materials/mp-862770,-54.26566927402456,-46.403490431049754,-65.0210392187083,-35.850997504506076
-4.0623054053125,-129.99377297,8.389161688688192,0.10906229281250024,5e-08,1.2733885366795622e-09,0.0,40,32,457.6005059283937,2311.8304,mp-1225809,Cu6SbAs,https://materialsproject.org/materials/mp-1225809,-60.103994765112645,-31.09639764212475,-64.23312734838998,-29.11508474984
-7.080608859722222,-254.90191895,7.925084158445292,-0.8033084318253975,1.43498,0.03709183985468915,0.0,62,36,450.8633147571821,2151.789044,mp-1201674,SmCo5P3,https://materialsproject.org/materials/mp-1201674,-64.39721018353103,-28.827194522058768,-65.13419854221391,-15.62851539328181
-4.38176672875,-35.05413383,16.511705249189447,0.3899542737499999,1.9815901999999999,0.16592698895252242,0.0,194,8,139.1791696411571,1383.9394140000002,mp-974365,RuAu3,https://materialsproject.org/materials/mp-974365,-49.199799864184676,-33.97148384519505,-58.5446418369182,-27.94765398941279