energy_per_atom,energy,density,formation_energy_per_atom,total_magnetization_uB,total_magnetization_T,band_gap,sgr,num_sites,cell_volume,weight,mp_id,formula,URL,tsne_xrd_lin1_0,tsne_xrd_lin1_1,tsne_xrd_lin2_0,tsne_xrd_lin2_1
-6.453741087272728,-141.98230392,6.236006951962764,-2.506668484772727,0.0005288,2.1345673450663494e-05,0.0,38,22,288.7081293533987,1084.2177499999998,mp-1218853,Sr2CaPr3(CuO3)4,https://materialsproject.org/materials/mp-1218853,-23.55428957826564,46.57203821072922,-14.864984497547093,54.914036501952474
-7.256851982727272,-79.82537181,6.966254539271085,-3.053256034616477,0.0,0.0,1.3597,38,11,215.08453256086196,902.3176,mp-550117,Sm4Se3O4,https://materialsproject.org/materials/mp-550117,-6.668367798055264,35.762352010857356,-1.9402992062534117,49.16265296791584
-7.341805608,-73.41805608,8.616691739340817,-3.1915317914999997,6.92e-05,4.274922868553036e-06,0.6068000000000007,194,10,188.64931767391153,978.91888,mp-1178172,Ho2TeO2,https://materialsproject.org/materials/mp-1178172,-9.59618814068791,21.069617825750715,-25.19494585303502,35.10674566994088
-5.156483293333333,-30.93889976,6.5078015592776035,-0.6059504216666666,3.2e-06,3.262362243347562e-07,0.0,63,6,114.31289504480058,448.0024972,mp-571506,TmAlSi,https://materialsproject.org/materials/mp-571506,-8.407309008891911,22.505704729673443,-3.14311692867262,23.27260774133911
-7.8391319525,-31.35652781,6.83751656527177,-0.6891176000000003,7.1577774000000005,0.634495257074324,0.0,63,4,131.4701733655237,541.3480000000001,mp-567833,EuSn,https://materialsproject.org/materials/mp-567833,1.6005355148774347,27.410568175112896,3.9464560058251323,48.445845598318655
-7.2911325245,-145.82265049,6.0363354389777735,-2.1669208610833337,0.0,0.0,0.8182999999999998,65,20,273.7401971480149,995.0911199999999,mp-557680,NbAgO3,https://materialsproject.org/materials/mp-557680,0.4641412896227737,19.13106649180723,4.03123465758257,46.997719612292435
-6.2706036719444445,-225.74173219,9.01473345416322,-0.8189463983333335,4.26e-05,9.116191402813299e-07,0.0,189,36,544.5949271730211,2956.49665,mp-1195749,Tm5Zr3(Ni4As3)4,https://materialsproject.org/materials/mp-1195749,-49.478236627008755,0.9378958686992104,-54.456173895387046,18.72311755593657
-7.071408590714285,-197.99944054,6.5549293212508495,-2.588951165513393,1.164028,0.03144670274379678,0.0,176,28,431.38569469732704,1702.88242,mp-1193278,La3NiW(SO2)3,https://materialsproject.org/materials/mp-1193278,0.2840132676232249,11.641740331973526,8.277324251821954,29.308494446804453
-8.536213602777778,-153.65184485,6.147653319957888,-3.3384898552314817,1.10912705,0.05275596286421083,0.0,74,18,245.0118959058337,907.08388,mp-1097763,La2Ti2O5,https://materialsproject.org/materials/mp-1097763,-27.904634786944925,48.15384177579417,-13.116293687907712,65.31929280128692
-7.483198472857143,-104.76477862,6.168372727900692,-3.2216612409614283,2.9999998,0.18708066115490146,1.5913000000000004,38,14,186.88298283229648,694.210655,mp-754346,SrLiLa3MnO8,https://materialsproject.org/materials/mp-754346,-6.999802760784719,19.497295034636046,-9.500273472913717,45.11465771241864
-8.92855959590909,-392.85662222,5.93306332723338,-3.843570537840911,1e-07,1.7001489485573633e-09,4.0229,92,44,685.4731629513154,2449.178000000001,mp-771956,Tb2Zr2O7,https://materialsproject.org/materials/mp-771956,4.932125104486504,8.074611200228258,8.510672664796045,32.076641768873465
-8.575726246666667,-308.72614488,5.110668985775699,-2.8257826447488887,17.000000399999998,0.4517671594578844,2.3025,3,36,438.5425138756908,1349.7096849999998,mp-1221926,MnNb8(FeO8)3,https://materialsproject.org/materials/mp-1221926,14.247163821840994,54.63071937261279,2.691920601688848,39.07830762048215
-7.013410447142857,-98.18774626,6.656525151721021,-2.8367151594642857,3.4899999999999995e-05,2.146926844777324e-06,0.0,38,14,189.44607337308616,759.4236099999998,mp-1218244,SrLa3(CuO4)2,https://materialsproject.org/materials/mp-1218244,-21.65895424337142,37.88646409590353,-14.44977464648009,58.2978254506781
-5.5951427649999985,-67.14171318,8.946083270714832,-1.478117659166666,2.5e-08,1.6284023947789187e-09,1.0244999999999995,15,12,178.91868757264257,963.9168,mp-557993,BiO2,https://materialsproject.org/materials/mp-557993,18.713014700034837,52.01753686529328,35.86120257986982,-2.6102589027827596
-7.0675006975,-56.54000558,5.564904595107183,-2.6302786710416663,0.0,0.0,2.4155,194,8,136.5292943390513,457.5457,mp-30250,YAgO2,https://materialsproject.org/materials/mp-30250,1.2587499653350345,63.79274842559554,-0.7204810128153545,69.08140935608408
-7.245487594285714,-50.71841316,7.242830941824508,-2.878013887857142,6.9e-05,8.568041060012347e-06,0.0,139,7,93.85231276021221,409.3589,mp-10498,Pr2CuO4,https://materialsproject.org/materials/mp-10498,-8.108918797689984,19.946303479836157,-24.656355861198925,38.15692193460549
-5.777900802222222,-52.00110722,6.553332234554774,-1.9109774687500003,9.1e-06,8.098089484688389e-07,0.0,99,9,130.95927086359436,516.8319386,mvc-7237,BaAlCuBiO5,https://materialsproject.org/materials/mvc-7237,-0.9073452151676572,17.767490365654528,8.446453709970784,27.542968267846714
-8.7647141,-70.1177128,6.547066941336657,0.10462031999999866,22.50703205,0.8361794490683042,0.0,194,8,313.6867446826606,1236.7839999999999,mp-1184402,Eu3Dy,https://materialsproject.org/materials/mp-1184402,-22.790999562965606,65.5404249990856,-37.394936902829706,57.64668235197082
-7.30434156,-36.5217078,8.985364658034081,-3.194021149500001,0.0,0.0,0.4170000000000007,164,5,91.93435896802038,497.46722000000005,mp-754827,Tm2TeO2,https://materialsproject.org/materials/mp-754827,-13.177410469181545,23.999736339240734,-18.313149479621828,38.62671787840049
-7.39197802015625,-473.08659329,3.1856684717714785,-3.0326801324999995,1.0,0.013198162080928041,0.8594999999999997,130,64,883.0066414626291,1694.0079999999998,mp-14862,SrCu(Si2O5)2,https://materialsproject.org/materials/mp-14862,17.572131623699875,-6.62782269514582,47.173075901727024,4.441184453686806
-7.561653995,-45.36992397,7.569206376376574,-3.2215734691666666,0.99949665,0.13323388745566525,0.0,11,6,87.42669692748001,398.5156,mp-1206338,ErO2,https://materialsproject.org/materials/mp-1206338,0.7366585987802793,13.9668308321192,6.377551030113027,33.01833625247746
-6.61191826,-59.50726434,9.28810776932302,-2.584679271527778,1e-07,1.1448686495622871e-08,0.0,123,9,101.79390253209694,569.377,mp-1185464,Lu2Ga2O5,https://materialsproject.org/materials/mp-1185464,-28.66805024676754,46.74915948462003,-16.61019736665601,64.59278846314379
-5.8433322,-23.3733288,7.308710625412698,-0.8279516674999998,3.6000000000000003e-06,4.844531157860535e-07,0.0,63,4,86.60205046496823,381.171,mp-2620,DySi,https://materialsproject.org/materials/mp-2620,-11.635349098583589,22.07288580570281,-12.156349339990545,44.9874702887317
-6.790488453571428,-95.06683835,7.06551423993836,-2.728895258571428,2.00000005,0.13292423025699926,0.0,63,14,175.34899455695975,746.10159,mp-1218284,SrDyCoO4,https://materialsproject.org/materials/mp-1218284,-23.135000320606203,41.66981928534061,-11.821789524234259,60.18215115693697
-7.13805417125,-57.10443337,7.413423934144457,-3.0703969640300004,0.0,0.0,3.951,11,8,88.67217591024054,395.87412,mp-626173,HoHO2,https://materialsproject.org/materials/mp-626173,0.5158694643900654,13.832801077583632,6.2038040899726346,33.0073343499471
-9.66969909,-386.78796360000007,5.404168439264397,-3.975694485250001,20.9999999,0.3959624058309385,3.4795,5,40,618.0772605034633,2011.51165,mp-1224723,Gd3Y13O24,https://materialsproject.org/materials/mp-1224723,17.43644805311527,58.93986246145357,-2.9687959276879488,38.04063409278278
-6.7979494900000015,-156.35283827,5.5267693965912805,-2.6370111313768123,0.8693046999999998,0.02958315083786405,0.0,139,23,342.4561952989738,1139.7964,mvc-10499,Ba2Mg3Ti4Tl2O12,https://materialsproject.org/materials/mvc-10499,17.258268191926028,52.675771641930744,3.611091761127462,49.95003288866235
-7.581118235000001,-45.48670941,5.4549858468572685,-0.5340297050000006,6.92686845,0.6370650678127665,0.0,141,6,126.71574328263998,416.27,mp-1072248,EuSi2,https://materialsproject.org/materials/mp-1072248,-49.886458764426784,21.765443213917305,-29.92474037035805,28.75039946521399
-7.846333513999999,-39.23166757,8.430097382444304,-3.6716124223124993,0.0,0.0,3.0985,164,5,79.17158159213925,401.93222,mp-3556,Tm2SO2,https://materialsproject.org/materials/mp-3556,-16.4869518916916,29.248848593779133,-23.824805116067786,42.720362268776455
-6.054925898333334,-108.98866617,5.730189059719452,-2.483609089861111,4.99999965,0.1824969744107658,0.5822000000000003,140,18,319.29471692347323,1101.82239,mp-1214566,Ba3CoO5,https://materialsproject.org/materials/mp-1214566,0.288353055843921,28.508493602659698,-14.174715786703374,42.07666424429802
-7.905069951363638,-173.91153893,6.629002619975123,-3.0685272401136383,3.00000005,0.10976274384943112,0.4142000000000001,63,22,318.5251541118751,1271.5775,mp-5433,Pr3RuO7,https://materialsproject.org/materials/mp-5433,20.107859072750987,55.62414260032014,-1.3130696021254813,36.62601845341467
-3.886898349,-38.86898349,6.8576746168526475,0.5166512430000004,0.06208705,0.002146624383481253,0.0,227,10,337.0717801424206,1392.0350772,mp-1212928,Er4Al,https://materialsproject.org/materials/mp-1212928,-11.56083389352512,-25.196916101523534,-3.14655229910349,-27.255709025560094
-7.258192877222222,-261.29494358,7.039274886706708,-2.149849259375,4.000000075,0.08300341757580591,0.0054999999999996154,14,36,561.6185613287504,2380.7856,mp-16785,Pu(TeO3)2,https://materialsproject.org/materials/mp-16785,9.857204313402137,19.559752679936413,27.38843621080514,-5.3849527668344805
-6.690954761666667,-80.29145714,7.8462206347629175,-2.4294545495833337,0.0,0.0,0.5674000000000001,15,12,176.5971492566201,834.4399999999998,mp-756400,NdBiO4,https://materialsproject.org/materials/mp-756400,8.992470976559217,19.81379742932602,27.73998281318851,-3.2234824303970475
-6.170924596333332,-185.12773789,6.881972198935322,-2.1947988089999995,0.0005824,1.5007321674140604e-05,0.0,66,30,452.2677311058199,1874.3877,mp-1208863,Sr2YCu2(BiO4)2,https://materialsproject.org/materials/mp-1208863,-5.621225225902506,20.843778567609288,6.107574690106532,22.855957230011548
-3.776030806666667,-22.65618484,5.223881393885615,-0.05213151666666723,0.20374885,0.01220097915573035,0.0,139,6,194.61571607712588,612.2406,mp-1186691,Pr2Mg,https://materialsproject.org/materials/mp-1186691,-20.911592465676048,41.41366180533635,-53.56175985748738,54.47501753974071
-1.61677842,-3.23355684,5.373514829711636,-0.05019200999999973,0.00016369999999999997,3.128306814967216e-05,0.0,123,2,60.984120679608424,197.345,mp-1187573,YbMg,https://materialsproject.org/materials/mp-1187573,-11.116524435762182,51.27405046555569,3.34766539266892,22.70562644109185
-6.931400961785713,-194.07922693,8.440909017087671,-1.6638961027678576,6.01487875,0.1885781128102141,0.0,85,28,371.7175100916384,1889.5272,mvc-90,ZnW4O9,https://materialsproject.org/materials/mvc-90,0.1555173195890082,6.802389441006428,16.31088531690407,13.196596660586293
-6.833392581428571,-47.83374807,6.437604210799675,-2.7489920046428566,2.0000001,0.2546876199990382,0.0,107,7,91.51654371976886,354.792795,mp-1218151,SrNdCoO4,https://materialsproject.org/materials/mp-1218151,-23.43366265238264,40.591834685713216,-13.395558598817933,59.68560191434359
-7.286566885,-102.01193639,6.152773453457186,-3.1501416701785723,4.0000027000000005,0.24848561664598864,0.9491999999999994,38,14,187.6015649735845,695.11761,mp-766044,SrLiLa3FeO8,https://materialsproject.org/materials/mp-766044,-7.624981393636801,19.92248367777356,-9.722618851071033,45.300648911672894
-9.098727145714284,-254.76436008,5.198880718377271,-3.384937004238094,6.9999066999999995,0.2071665523322504,2.1472,57,28,393.77672295690917,1232.8516,mp-1211763,KGdTiO4,https://materialsproject.org/materials/mp-1211763,-12.223096682359744,34.33982505734583,-3.8305612111747385,62.35096968875793
-7.574988287692308,-196.94969548,6.12992202226036,-3.13240762642,2.04979325,0.06415583784861525,0.0,63,26,372.34995453139817,1374.53931,mp-753578,SrLa3MnO8,https://materialsproject.org/materials/mp-753578,-7.142287738539188,19.551274534613906,-9.391908018808707,44.91146154501311
-5.2337218850000005,-146.54421278,5.968607183559973,-1.759082800206667,0.00356255,6.281383550809324e-05,0.0,214,28,660.9720313947893,2375.7842,mp-1208487,Tb3BCl3,https://materialsproject.org/materials/mp-1208487,-11.784656180762953,11.404028717533054,-20.223645127371572,50.448804549439366
-8.974134200833333,-107.68961041,5.864249018540144,-3.4819470066666667,0.9999998,0.06928273026446638,0.0,88,12,168.2102076125002,594.03996,mp-557564,CeNbO4,https://materialsproject.org/materials/mp-557564,29.449727973113514,61.927898781340474,-8.674245883803806,36.34885322850985
-6.663194552999999,-133.26389106,7.273178973231848,-2.2045250318333336,15.0000009,0.6824456521559418,2.0504,146,20,256.15370473062757,1121.9560000000001,mp-1217793,SrTiFe3(BiO4)3,https://materialsproject.org/materials/mp-1217793,-29.030172229355458,35.88112468538873,6.059760330098113,58.60525349779004
-7.866162972307693,-204.52023728,6.303150447534327,-3.6205310569061537,0.0,0.0,1.5601000000000005,176,26,451.59931327003517,1714.2014399999998,mp-554303,La3U(ClO2)3,https://materialsproject.org/materials/mp-554303,0.3567955509273434,10.854855130255704,8.769785182366162,29.183992480374755
-5.88473571,-270.69784266,4.006872046661366,-0.8195071883173912,0.00017645,2.1996401950630585e-06,0.5273000000000003,136,46,934.8618622870758,2255.8168,mp-1245742,Sr11(CN5)2,https://materialsproject.org/materials/mp-1245742,19.627789750619733,55.04872304634457,4.682703372715729,36.72795613792069
-9.0482642005,-180.96528401,6.779909194346026,-2.8525426207500004,23.0,0.9004030336157023,0.0,36,20,297.69278840887995,1215.4668,mp-1189159,Eu3FeO6,https://materialsproject.org/materials/mp-1189159,-6.712654143754739,37.57846534638083,-13.199193013532607,42.77788368879854
-6.778507026904761,-284.69729513,4.038398315662976,-2.805701750294761,3.00000855,0.05280696599714182,1.0282,176,42,662.0773093047085,1610.1590064000002,mp-18859,Sr5Cr3O12F,https://materialsproject.org/materials/mp-18859,-2.058335815113711,21.860072612270407,7.189825970950293,40.156161988353404
-7.3124735834090915,-321.74883767,7.199141760266915,-2.44837437534091,0.0,0.0,2.6654,15,44,620.7342865742795,2691.1466800000007,mp-559052,LiNb3(Bi2O7)2,https://materialsproject.org/materials/mp-559052,10.55121927776871,23.812055899249806,-1.7174919767376615,37.67705337372667
-5.256722227368421,-99.87772232,7.125612971360633,-0.2776409596491237,2.4299999999999998e-05,5.529073830801274e-07,0.0,204,19,512.1902557994239,2197.8824,mp-1211308,Nd12InNi6,https://materialsproject.org/materials/mp-1211308,-10.360730571001264,21.60210617070782,-11.467712823698552,48.65416900394247
-4.78327147125,-76.53234354,2.8888531242626554,0.3377315542025858,0.0,0.0,3.5325,62,16,448.2522242509772,779.828,mp-10821,RbC,https://materialsproject.org/materials/mp-10821,8.511560955622418,18.84023853829903,20.47037406667139,-7.366449703702966
-6.34531427,-25.38125708,7.453546762388794,-2.3144731576562507,1.13e-05,1.5416657693870458e-06,0.0,166,4,85.4211947524033,383.42421,mp-1218978,SmTmS2,https://materialsproject.org/materials/mp-1218978,32.0919294292841,63.099820839510784,-56.22924921585846,14.19263380023747
-6.959856211,-139.19712422,8.411016324618787,-2.977999774916668,0.0,0.0,2.5273000000000003,62,20,261.98237458109986,1327.00164,mp-1101263,TmInO3,https://materialsproject.org/materials/mp-1101263,-15.09700878732001,38.851280426603175,-8.482691217723923,60.52933367824018
-4.7140680643750015,-678.82580127,4.146860995791855,-2.6850830792437503,0.017583322222222218,7.652535747656894e-05,0.0,143,144,2677.7682960489137,6687.1856880000005,mp-686295,KSn2F5,https://materialsproject.org/materials/mp-686295,-3.686307091049693,-29.40376582877839,-1.959216993219662,-21.828146889314798
-5.487092505,-76.81929507,5.8677662269366815,-2.5000487892261907,5e-08,1.9899235005292607e-09,1.8534000000000008,129,14,292.82695464071986,1034.7484,mp-555212,Ba2InBrO3,https://materialsproject.org/materials/mp-555212,-18.20520671720482,19.928777562376467,-47.95352136898815,19.86931652518629
-3.126199435,-12.50479774,6.83438537049592,-0.5735692857812502,0.0079352,0.000999187517379513,0.0,187,4,92.55253210703472,380.9243,mp-998928,TlCdS2,https://materialsproject.org/materials/mp-998928,-14.0349406038989,23.678802161291234,-20.24321392347349,-7.821756569763623
-7.747810461999999,-77.47810462,4.9318062271436585,-0.5678211054279998,0.0,0.0,0.0,20,10,153.29283256874118,455.2802,mp-989586,SrTcN3,https://materialsproject.org/materials/mp-989586,-1.8355739932243291,24.086455047239188,-4.8094590808169135,18.89376605908691
-3.82796709,-30.62373672,7.622652925879433,-0.17389002947265594,3.7000000000000006e-06,2.8462430404023445e-07,0.0,123,8,151.49809431725623,695.4473,mp-1025447,TlCu4Se3,https://materialsproject.org/materials/mp-1025447,-12.707217921872784,25.12744714451161,-13.107783725117722,50.8498877698875
-8.474845352625,-677.98762821,7.847365468605094,-4.026995918500002,0.00031460000000000006,3.014778947546215e-06,3.947,1,80,1216.1318760804684,5747.18875,mp-774100,Dy29Y3O48,https://materialsproject.org/materials/mp-774100,18.04637572661768,59.91627132862063,-5.1559586288525345,36.93452608962515
-5.6064518175,-179.40645816,6.584578410766517,-1.7898392192187496,0.0,0.0,0.5329999999999999,14,32,526.8296400703084,2089.0512,mp-1244743,MgBi2O5,https://materialsproject.org/materials/mp-1244743,6.362816723418213,5.994720820015648,28.369058443136602,1.3525038440831634
-8.796594682391305,-404.64335539,8.175552168294232,-3.017945878025362,0.0,0.0,2.638,127,46,619.6478028937956,3050.79424,mp-1212151,HoTa5Ag2O15,https://materialsproject.org/materials/mp-1212151,9.352507046939042,32.610886977538605,31.21303321835416,36.43562224220758
-8.3707112804,-209.26778201,7.7299014836336335,-3.1230509887999998,1.9999999,0.07075618685543619,0.09419999999999984,2,25,329.41470443191565,1533.44375,mp-699243,La5MgRe3O16,https://materialsproject.org/materials/mp-699243,25.481772860281577,35.19302855972051,32.9982422313872,37.345594115984156
-7.714375196666666,-46.28625118,8.531672853757877,-4.309583023313334,5e-08,7.401153322627273e-09,5.1887,166,6,78.7314102582509,404.5136064,mp-1072193,ErOF,https://materialsproject.org/materials/mp-1072193,22.02722117669746,64.64941032006989,-8.614369401993597,37.68011526118335
-7.803455850681818,-343.35205743,6.393817415793799,-3.3950897455681828,0.0,0.0,2.807300000000001,62,44,675.736843202288,2601.88884,mp-1211549,La3SbO7,https://materialsproject.org/materials/mp-1211549,22.086055241613924,56.202766171615146,-1.315020005476896,35.354008308038544
-3.7470002791666666,-44.96400335,4.4028156209428415,-0.5284303958333331,1.5e-07,6.351373597860166e-09,0.0,194,12,275.23333164859133,729.7639999999999,mp-541310,CaGaGe,https://materialsproject.org/materials/mp-541310,-29.712732178705764,13.178444874668033,-44.72449018522997,12.991383018132579
-7.566798765454546,-166.46957284,3.8010654638136536,-3.1748827132121225,0.0,0.0,3.8225,148,22,282.1173438014425,645.78216256,mp-1182298,BaNaSc(BO3)2,https://materialsproject.org/materials/mp-1182298,4.335717384447717,5.5328336485305405,10.126757970090633,9.479844256615149
-5.272765192666666,-158.18295578,4.126227576005928,-3.3178042137387123,0.9999998999999999,0.021419683144179143,0.1036999999999999,164,30,544.0819795842889,1351.97427684,mp-562050,Cs2NaTiF6,https://materialsproject.org/materials/mp-562050,4.837443737858543,-2.1064971807546007,10.189319889502755,-0.2613091750828925
-7.025573205,-98.35802487,6.452862275673075,-2.7114358689285707,0.8358662,0.050766287400012336,0.0,123,14,191.8840107262003,745.66214,mp-1218695,Sr2La2CuRuO8,https://materialsproject.org/materials/mp-1218695,-22.9437312747212,38.47671579316604,-14.906922653952579,58.69196242494032