energy_per_atom,energy,density,formation_energy_per_atom,total_magnetization_uB,total_magnetization_T,band_gap,sgr,num_sites,cell_volume,weight,mp_id,formula,URL,tsne_cry_lin1_0,tsne_cry_lin1_1,tsne_cry_lin2_0,tsne_cry_lin2_1
-7.426838320714286,-103.97573649,5.935553618805637,-0.7847147386160722,2.5e-07,1.0212689382615184e-08,0.0,1,14,285.28393295692825,1019.74,mp-1221501,Mo3(SeS)2,https://materialsproject.org/materials/mp-1221501,64.934107583508,33.90358613386136,-8.604250342815693,-0.5045126942092143
-6.360283735,-101.76453976,4.436390594489291,-1.7977059092150007,28.0914887,1.6538655177481831,0.0,38,16,197.9483974689624,528.8502031999999,mp-1176712,LiFe7O7F,https://materialsproject.org/materials/mp-1176712,-23.810082498715488,-39.084046232437956,5.204773337431119,-2.045737810599781
-6.475281843333334,-155.40676424,3.992094481271824,-1.843220923932292,0.999997275,0.036123696117047584,1.8886,14,24,322.61463437938147,775.5964,mp-28619,VSeO4,https://materialsproject.org/materials/mp-28619,-12.958747170743846,-48.95538178148188,7.322867431160513,1.2806629966712435
-4.181346326833332,-250.88077961,4.991347139810312,-0.8580319961354168,0.00020615,1.7585129389327212e-06,0.0,55,60,1366.2028863553885,4106.6140000000005,mp-1212832,In9Sn4S17,https://materialsproject.org/materials/mp-1212832,39.02125205401778,-2.1313901164793387,3.3195131191719485,-5.223654591246861
-7.1447953975229375,-778.78269833,1.534876443980061,-0.03701695535669742,4.8102939000000005,0.05287752252564031,0.0,2,109,1060.1759312468837,979.946285,mp-1200509,MnH36(C5N)12,https://materialsproject.org/materials/mp-1200509,46.00067896376579,-26.080264662493004,-6.080482459106434,-3.2959180426096837
-6.301840100833334,-75.62208121,4.312202108540253,-1.8772773433283352,19.9999998,1.571501050685444,0.9247,38,12,148.31761838066697,385.16140319999994,mp-766142,LiFe5O5F,https://materialsproject.org/materials/mp-766142,-23.779344710330786,-38.99239412858999,4.9956433865449466,-1.402866151729053
-3.5151179528571435,-98.42330268,4.554239314565155,-0.7949472784729065,4.0,0.03689280151765804,0.9283,194,28,1263.5597507531866,3465.4731714,mp-571531,Cs3Mo2I9,https://materialsproject.org/materials/mp-571531,10.417230158566786,-7.486847356581312,6.5796419652327325,-3.9453329583875067
-3.0523298860000003,-30.52329886,2.8282761462504555,-1.474285803856,0.0,0.0,0.9839,225,10,282.63028423153384,481.38373856,mp-1111534,Na2InAgCl6,https://materialsproject.org/materials/mp-1111534,14.423165882549071,-13.947592385967912,7.684254837004755,-3.5150479894125524
-6.317158354375,-303.22360101,2.5674701369191717,-2.0567885643019053,1.999999825,0.0495184845932167,1.9535,14,48,470.69549274637774,727.773688,mp-695981,VP(H2O3)2,https://materialsproject.org/materials/mp-695981,-17.584128869186433,-49.237390485127456,8.295363342956374,0.5980358307994847
-7.196761705,-43.18057023,9.585584250867978,-0.9324135583333336,2.115e-05,1.8678421964807773e-06,0.0,129,6,131.96161346180088,761.75816,mp-11106,PaAs2,https://materialsproject.org/materials/mp-11106,46.54993637467171,20.333601907285395,2.587213162556576,-4.797745925661651
-2.096875728333333,-12.58125437,3.861753816867608,-0.0366978583333335,0.01691595,0.0006010193440826825,0.7143999999999999,136,6,328.00870542739233,762.8178800000002,mp-862773,TeI2,https://materialsproject.org/materials/mp-862773,67.76623589624546,17.695155222719926,4.614569153463568,-6.3529867926284895
-3.910528143333333,-46.92633772,6.937292135854187,-0.2847802240624997,0.00020975,6.958443630272299e-06,0.8895999999999997,12,12,351.2912104956922,1467.6016,mp-1095302,BiSe2,https://materialsproject.org/materials/mp-1095302,70.24661205373472,17.088602990194328,6.533937446732867,-6.378524316536658
-3.592710810241936,-445.49614047,4.639687141219423,-0.14442235679032245,2.5e-08,6.355206080883075e-11,0.0,212,124,4584.455887125349,12809.3592,mp-571066,K6Sn25,https://materialsproject.org/materials/mp-571066,8.653081456468655,31.340917005174283,-8.604250342815693,-0.5045126942092143
-1.682348865,-26.91758184,3.496388410583554,0.0396298612499999,2.00007315,0.0241545836820211,0.0,129,16,964.9920837719507,2031.86258,mp-1105984,TeI7,https://materialsproject.org/materials/mp-1105984,56.15358919874278,27.78257521984725,-8.604250342815693,-0.5045126942092143
-4.819770374,-771.16325984,4.376606863614722,-0.5812191787156251,1.9425e-05,4.9374237369597336e-08,0.9008000000000004,36,160,4584.986427483897,12084.4392,mp-651347,K3Mo3Se14,https://materialsproject.org/materials/mp-651347,66.26204270945424,14.709023953428135,5.970351200928887,-6.1537313018157045
-5.3251601529411765,-181.05544519999998,7.605760775393016,-0.1877609098529413,1.8055279999999998,0.027154729914633684,0.0,12,34,774.8830618761102,3549.1940000000004,mp-1228062,CaCe(FeSb3)8,https://materialsproject.org/materials/mp-1228062,43.94997566229836,23.51715537062073,-8.604250342815693,-0.5045126942092143
-5.6197149325,-22.47885973,11.001602900134095,-0.8673401974999999,3.3e-06,5.000310199842915e-07,0.0,225,4,76.91205587736367,509.56699999999995,mp-865447,LuSbPd2,https://materialsproject.org/materials/mp-865447,28.646490751483256,41.35697580272885,-8.604250342815693,-0.5045126942092143
-6.013566184166668,-144.32558842,4.351117058154102,-2.222300785813333,5.00035325,0.21011123544264448,1.7566000000000002,4,24,277.35042601796965,726.7424255999998,mp-754616,FeOF,https://materialsproject.org/materials/mp-754616,-41.92231675275672,-76.31543404345167,4.457847446033621,-0.4292105758865645
-4.408801411944443,-158.71685083,4.911824365158387,-0.8520385111111118,1.999989125,0.0421937463422522,0.0,14,36,552.4042027011167,1633.99496,mp-780326,Ni(IO3)2,https://materialsproject.org/materials/mp-780326,-8.276628409471957,-37.83730967457587,4.651360397087854,-5.629296893352617
-6.170875672580645,-191.29714585,3.2333350800231044,-2.0905019672580645,34.9999982,1.0976446863254699,1.4919,1,31,371.606815159606,723.5779,mp-756759,Li7Fe7SiO16,https://materialsproject.org/materials/mp-756759,-30.431547542657427,-32.25841600584444,7.199421400123403,-1.3008849785980068
-8.18625424,-57.30377968,2.1830274641475143,-0.0061379346428570404,0.0001349,2.616036561659649e-05,0.0,191,7,60.09600021877828,79.0052,mp-1001581,LiC6,https://materialsproject.org/materials/mp-1001581,59.65627480905846,36.822483036862174,4.523067407140899,-4.722804057999035
-4.289276390384615,-111.52118615,2.9599871628168253,-1.6119616717011145,5.0007338,0.0709685231218019,0.5295000000000001,40,26,821.193298830605,1463.8148,mp-1219757,Rb3(MoCl4)2,https://materialsproject.org/materials/mp-1219757,11.495727940966615,-8.56465652573963,7.609188970998812,-4.701529186567637
-4.289567582857143,-60.05394616,6.910851662501278,-0.5122145389285713,1.1e-06,3.685574708373536e-08,0.5816999999999997,148,14,347.82828362399323,1447.596,mp-1219189,Sm(CuTe)3,https://materialsproject.org/materials/mp-1219189,55.4808308313232,20.34241609304933,6.07286160061767,-6.715385732261223
-6.038218111428571,-84.53505356,2.8916868337047026,-3.68075371085,2.0,0.1091037711966701,2.2978,15,14,213.6326663090704,372.023032,mvc-14225,CaVF5,https://materialsproject.org/materials/mvc-14225,-22.817449722503,-50.851823722265166,7.321905353037939,1.640831091282531
-6.408204137857143,-179.42971586,5.758978181029705,-1.2257356539880948,3.00000265,0.06496469038690493,0.5571000000000002,31,28,538.1727364931479,1866.4572,mp-1247338,HfCrAgS4,https://materialsproject.org/materials/mp-1247338,17.901548831588347,4.430180751745716,5.1960784167259435,-5.943395475793724
-5.74689381,-80.45651334,5.514528646770394,-0.5101822858630953,11.9629972,0.4547962148802972,0.0,216,14,306.549482342207,1018.0284,mp-20809,Cr4InCuSe8,https://materialsproject.org/materials/mp-20809,13.55258154052484,2.115759850750247,-8.604250342815693,-0.5045126942092143
-6.032661843571428,-168.91453162,2.9274529391062014,-3.675197442992857,2.000000125,0.05522661926885177,2.4541000000000004,14,28,422.0452258431732,744.0460639999999,mvc-3740,CaVF5,https://materialsproject.org/materials/mvc-3740,-22.76419483384216,-50.885639769020855,7.594233222330494,2.508952091445149
-3.661165278,-18.30582639,5.6847172218436155,-0.786220458137931,3e-07,1.92669649944946e-08,0.9322,71,5,181.46186660778844,621.2195999999999,mp-1070498,Rb2Te2Pt,https://materialsproject.org/materials/mp-1070498,65.00749193538617,17.397893210470354,7.191086418821036,-6.169938628098151
-3.801336034117647,-129.24542516,4.670440506298736,-0.5820186244684966,8.7e-05,8.298751406797369e-07,0.23649999999999996,12,34,1221.7544369171267,3436.3127114,mp-1226687,Cs3Sb5Se9,https://materialsproject.org/materials/mp-1226687,70.66599603242344,14.837815365572435,6.588971305361829,-7.165624827868532
-5.760980917857142,-80.65373285,3.101692961009609,-3.4603679222785715,2.00000015,0.1278702014148534,2.3599,15,14,182.2796166372632,340.477032,mvc-14334,MgVF5,https://materialsproject.org/materials/mvc-14334,-22.86724568467047,-50.80690470176813,8.059869470534933,0.8459287038429337
-3.91114955625,-62.5783929,8.22816396563389,0.07045976125000042,2.575e-06,6.578323345642292e-08,0.0,225,16,456.1833648572526,2260.4416,mp-1038778,Sn3Bi,https://materialsproject.org/materials/mp-1038778,-3.1923527742723845,36.96529364771996,-8.604250342815693,-0.5045126942092143
-3.6807362548837217,-158.27165896,5.795873461607812,0.000569353604651121,0.3972268,0.0032749732289719053,0.0,1,43,1413.540365961974,4933.76,mp-685371,Ge9(Sb5Te12)2,https://materialsproject.org/materials/mp-685371,67.18928551079861,25.925792079118157,-8.604250342815693,-0.5045126942092143
-6.164585856666666,-18.49375757,7.610021895272287,-0.2528987383333335,0.0,0.0,0.03739999999999988,216,3,69.02978397296239,316.35400000000004,mp-22689,ZrSnPd,https://materialsproject.org/materials/mp-22689,43.880754013917986,42.461446441708496,-8.604250342815693,-0.5045126942092143
-5.199285668571427,-72.78999936,5.991179924410057,-1.6829899191964282,0.0,0.0,1.4771,227,14,382.5300306924082,1380.158,mp-10191,Lu2MgSe4,https://materialsproject.org/materials/mp-10191,49.96267592355421,8.265376290603376,8.126536856426366,-6.162750982533341
-4.658583233076923,-60.56158203,3.521223228127901,-1.2933424475000002,0.0,0.0,1.039,166,13,326.71356957902384,692.806,mp-1100346,Ca2Sn3S8,https://materialsproject.org/materials/mp-1100346,42.889812060082676,0.6065023788581014,6.875894252036708,-3.597758891842876
-3.6279586191666655,-43.53550343,5.539275693022961,-0.06372716074999947,1.6e-05,5.04440804025662e-07,0.0,113,12,369.6470128365532,1233.07953856,mp-31284,NaSn5,https://materialsproject.org/materials/mp-31284,33.55642060746051,13.971229985351169,-8.604250342815693,-0.5045126942092143
-5.410450363333332,-32.46270218,6.467634135156804,-1.1597122266666666,2.1000000000000002e-06,1.385067773666898e-07,0.0,129,6,176.6955847769303,688.2117,mp-1077365,YTe2,https://materialsproject.org/materials/mp-1077365,-9.891533471648424,24.347466640253142,-8.604250342815693,-0.5045126942092143
-6.3511721933333325,-95.26758290000001,8.01774005164582,-0.38319699399999935,1.9e-06,5.988100322208655e-08,0.0,147,15,369.7787591457098,1785.43828,mp-1220601,Nb6Te8Pb,https://materialsproject.org/materials/mp-1220601,56.53598257337421,31.80016028006661,-8.604250342815693,-0.5045126942092143
-5.991676214666668,-179.75028644,4.249211496633259,-1.770719458869048,6.0000008000000005,0.20300159574334875,2.2332,2,30,344.4524546842189,881.4314479999998,mp-769618,Ni4P2O9,https://materialsproject.org/materials/mp-769618,-17.993911677811376,-39.829390799124106,8.714566414088914,-1.1715719401780489
-8.838612427500003,-1060.6334912999998,1.7432250770203512,0.3868611537499987,0.0,0.0,0.9768,58,120,1372.9198720673405,1441.2839999999999,mp-1147718,C,https://materialsproject.org/materials/mp-1147718,59.82738026607211,37.10727447467236,4.723944409203063,-5.760990392361113
-5.894869871666668,-35.36921923,7.948117182046221,-1.150843304166667,5e-07,3.7989660512754864e-08,0.0,186,6,153.38469224602431,734.1709400000002,mp-1025082,LaSbPd,https://materialsproject.org/materials/mp-1025082,5.771596340409316,35.75692143953036,-8.604250342815693,-0.5045126942092143
-6.011217345,-144.26921628,4.334892295375884,-2.2199519466466664,5.000199675,0.2093213282887008,1.6981,40,24,278.38850137531585,726.7424255999998,mp-762996,FeOF,https://materialsproject.org/materials/mp-762996,-42.00036502010872,-76.31759705946048,3.46423016060781,-1.1493614008498168
-6.5572902950000005,-183.60412826,7.358442895574172,-0.2773693314285716,8.1e-06,1.3038522162957963e-07,0.0,1,28,723.9925160070297,3208.27,mp-1217440,Te16(Mo3Ru)3,https://materialsproject.org/materials/mp-1217440,58.11331761361154,32.34464361737834,-8.604250342815693,-0.5045126942092143
-3.6575745133333335,-21.94544708,3.9402662968940936,-0.4017166760000001,0.0,0.0,0.34629999999999983,186,6,196.1578510721064,465.4598,mp-3481,KSnAs,https://materialsproject.org/materials/mp-3481,37.84681754401974,29.04256989453804,3.6864709571142567,-5.638275679218702
-6.881815665384615,-89.46360365,4.962878350060448,-1.174478036346153,1.0,0.049057090035034966,0.0,216,13,237.56127328866714,710.0029999999998,mp-2885,Ga(MoS2)4,https://materialsproject.org/materials/mp-2885,18.89722804949015,3.5837228794550637,-8.604250342815693,-0.5045126942092143
-6.012713693333334,-108.22884648,4.306591636388065,-2.221448294980001,5.0000002,0.2772619503734604,1.7494999999999998,31,18,210.1634433254317,545.0568192000001,mp-756807,FeOF,https://materialsproject.org/materials/mp-756807,-41.9769603336724,-76.28243237730679,4.318892147824752,-0.2315790955715851
-7.2641921825,-116.22707492,5.275790048906363,-0.01731181993999975,4.000000425,0.23659523066018665,0.0,14,16,197.0296016244283,625.9936,mp-1246992,FeGeN2,https://materialsproject.org/materials/mp-1246992,-24.335139801803454,-32.91065661642048,-11.336587259426029,-0.3357356184005746
-6.976865452999999,-69.76865453,6.7566291972862444,-0.8379101381562506,0.0,0.0,0.0,11,10,207.76568001904354,845.3855199999999,mp-2330,Nb2Se3,https://materialsproject.org/materials/mp-2330,48.5420191734391,23.873114142807573,-8.604250342815693,-0.5045126942092143
-4.64306067846154,-60.35978882,3.5248783708276354,-1.2778198928846152,4e-06,1.4283045642433587e-07,1.1176,12,13,326.37478208251497,692.806,mp-1100342,Ca2Sn3S8,https://materialsproject.org/materials/mp-1100342,42.91142604883435,0.6477980418654139,6.467788039397135,-4.318302099420203
-6.011731472962962,-324.63349954,4.31340448871205,-2.2204660746096296,4.9999995,0.09256684286423876,0.4042000000000003,6,54,629.4944953586354,1635.1704576,mp-759130,FeOF,https://materialsproject.org/materials/mp-759130,-41.74079162607133,-76.83472057427996,4.302037134263486,-0.39397489890425336
-4.236761525,-33.8940922,3.9258395769328267,-0.995722539531251,3.155e-05,2.253997346169278e-06,0.03340000000000032,141,8,163.12607652318178,385.662,mp-34121,LiSbS2,https://materialsproject.org/materials/mp-34121,68.86019568338236,19.004395954209976,2.323042419784888,-4.7042969963151915
-4.170887925,-16.6835517,5.924580591758971,-0.42143949679687465,0.0,0.0,0.2915000000000001,63,4,110.80573449988223,395.34,mp-2168,SnSe,https://materialsproject.org/materials/mp-2168,70.42283741114926,24.05304302466873,5.328187821246528,-6.8562796413411045
-4.0532188928125,-129.70300457,5.869372240043941,-0.27551507093749983,6.975e-06,7.717071117478928e-08,0.0,62,32,1053.3413590616146,3723.16,mp-866805,SrSn3Sb4,https://materialsproject.org/materials/mp-866805,36.816646827691216,28.119048307893426,-8.604250342815693,-0.5045126942092143
-3.83833001,-23.02998006,4.989100527655535,-0.2397200149999996,5e-08,3.2425475605284e-09,0.19199999999999973,166,6,179.70537910414745,539.9259999999998,mp-8211,GaGeTe,https://materialsproject.org/materials/mp-8211,39.59204951669342,11.969471980304814,3.6891879030836563,-5.245730429762297
-6.35827459375,-101.7323935,8.889784296504835,-0.3786386237499997,8e-07,2.5216431901640305e-08,0.0,53,16,369.7292247536927,1979.36512,mp-19810,TaNiTe2,https://materialsproject.org/materials/mp-19810,52.13603587339271,27.825559285884513,-8.604250342815693,-0.5045126942092143
-3.954766373333333,-35.59289736,2.8755649245818318,-1.7420277444721843,2.9999995999999998,0.12570075920713844,1.2634,225,9,278.13825371126075,481.6536,mp-1209302,Rb2TcCl6,https://materialsproject.org/materials/mp-1209302,7.015023220676134,-10.336722327178666,7.42124961924675,-2.2717723003692427
-4.244294785,-33.95435828,5.714196325421635,-0.25126527117187525,1.1952352,0.07726989179395652,0.0,82,8,180.26877113257183,620.3353999999998,mp-1225885,Cu2NiSnSe4,https://materialsproject.org/materials/mp-1225885,31.763978691040386,2.5952675853519165,-8.604250342815693,-0.5045126942092143
-5.205551605714286,-36.43886124,3.170696602937047,-1.7309563591457138,9.000000300000002,0.904027476580223,1.2116999999999998,25,7,116.02145860214802,221.5358,mp-755254,LiFe2(ClO)2,https://materialsproject.org/materials/mp-755254,-22.809431219496393,-30.378519921958944,3.1816787979613124,-2.4977625614962338
-4.220617434444445,-227.91334146,5.477770591518084,-0.11477958648148165,2.5e-07,2.1975053817870367e-09,1.2943000000000002,218,54,1325.8289227808937,4373.6320000000005,mp-1212667,Ge19(SbBr)4,https://materialsproject.org/materials/mp-1212667,39.456615176685325,12.232583742262552,5.983236231966455,-5.9518248860209635
-6.0123934000000006,-72.14872079999999,4.312411375346839,-2.2211280016466683,4.999999875,0.4164549179403193,1.7458,40,12,139.9198806301307,363.3712128,mp-754726,FeOF,https://materialsproject.org/materials/mp-754726,-41.91311400084653,-76.32896717913835,4.451519173501644,-0.35797053087410524
-5.977994156481482,-322.81168445,4.350985650456711,-2.1867287581281483,4.7777774499999985,0.08922342125957586,0.2900999999999998,6,54,624.057305639344,1635.1704576,mp-759331,FeOF,https://materialsproject.org/materials/mp-759331,-41.831752563603615,-76.75797818268255,4.233432376802711,-0.6108802789979925
-6.266188907586208,-181.71947832,6.118423567747688,-0.9572495999310348,4.39e-05,5.936573234496903e-07,0.0,2,29,861.7992624809714,3175.3863,mp-1224116,K(Zr3Te4)4,https://materialsproject.org/materials/mp-1224116,44.39729626018938,26.866569894281,-8.604250342815693,-0.5045126942092143
-3.942561791,-39.42561791,6.9076792079154075,-0.4042028299895833,0.0009004,3.5911550870023936e-05,0.7659999999999999,160,10,292.19901861636737,1215.5192,mp-1223998,In(BiSe2)3,https://materialsproject.org/materials/mp-1223998,70.41997685946933,21.94095430258625,5.552505948907244,-6.826066398820236
-6.88041883125,-220.1734026,2.966663840903921,-2.530751581458333,1.999975225,0.07455487220564176,2.3718,33,32,312.62666176095837,558.5284,mp-770151,Li2VBO4,https://materialsproject.org/materials/mp-770151,-21.73453828355775,-54.620273250293494,8.654641951424438,1.3862415108764314
-6.765312190666666,-101.47968286,5.61217662932054,-0.4071173699166659,25.3290782,1.0020079723818525,0.0,12,15,294.5951789887933,995.6527,mp-696673,Cr7Se8,https://materialsproject.org/materials/mp-696673,53.83456324002122,34.73270576687598,-8.604250342815693,-0.5045126942092143
-3.9040899347500004,-312.32719478,4.588283651018308,-0.9832214389290002,1.00035505,0.005599142767176476,0.7856000000000001,88,80,2082.140612059472,5753.2232,mp-699570,VTe4Cl4O,https://materialsproject.org/materials/mp-699570,66.64141196159571,19.956767461153085,6.118588077909407,-6.985559169993018
-6.294652405,-125.89304809999999,6.211503907526226,-1.2882936796562496,2.999967275,0.0764292425760798,0.05259999999999998,62,20,457.4402644852516,1711.1262800000002,mp-1105933,LaCrSe3,https://materialsproject.org/materials/mp-1105933,26.287630147556058,6.650057335300361,3.7800810242338123,-2.932664247914502
-6.881796205384616,-89.46335067,4.968699603174102,-1.1744585763461532,1.0,0.04911463199314276,0.17989999999999995,160,13,237.28295010307312,710.0029999999998,mp-559694,Ga(MoS2)4,https://materialsproject.org/materials/mp-559694,18.898055714922425,3.5836049414202127,-8.604250342815693,-0.5045126942092143