energy_per_atom,energy,density,formation_energy_per_atom,total_magnetization_uB,total_magnetization_T,band_gap,sgr,num_sites,cell_volume,weight,mp_id,formula,URL,tsne_xrd_lin1_0,tsne_xrd_lin1_1,tsne_xrd_lin2_0,tsne_xrd_lin2_1
-5.663904288333333,-101.95027719,4.7831904403162175,-1.1691069861111112,4.998949,0.2772073232574179,0.9924,12,18,210.1606651517766,605.3687749999998,mp-850192,Co5SnO12,https://materialsproject.org/materials/mp-850192,22.038897551925206,-66.0980092164191,-2.7854961823758835,-71.55378558595906
-5.79518227125,-185.44583268,4.185390057186758,-1.8598333078724991,26.0000005,1.0563271792875395,0.7271999999999998,1,32,286.84833246262997,723.001465,mp-1175727,Li9Mn2Co5O16,https://materialsproject.org/materials/mp-1175727,13.058473584179616,-72.41921601470877,-11.930825763437893,-81.10056188316595
-5.7854473875,-161.99252685,4.133791573360972,-1.8449341926578569,7.0000000999999985,0.32486706183914005,0.2120000000000002,1,28,251.113344983304,625.12847,mp-1174767,Li4MnCo2O7,https://materialsproject.org/materials/mp-1174767,18.88270293704688,-83.66532823873798,-11.595570856732476,-89.01149408251153
-5.7851057265625,-185.12338325,4.171907311667163,-1.849756763184999,23.9999999,0.9719301414886556,0.08519999999999994,1,32,287.7753672168534,723.001465,mp-1176162,Li9Mn2Co5O16,https://materialsproject.org/materials/mp-1176162,13.567760168063616,-75.57814472727019,-11.935016197855454,-82.05549022599665
-5.50004496,-66.00053952,4.484088027613244,-1.684268196121667,5.9999997,0.6530390364139611,0.0,12,12,107.07535268200064,289.144245,mp-756364,Li3Mn(NiO3)2,https://materialsproject.org/materials/mp-756364,18.47253883691511,-76.53002421589355,-8.394473922137642,-72.86937192744058
-6.609947965,-105.75916744,4.2049101081975735,-2.23237580375,7.999999799999999,0.6422563210364717,2.4281,2,16,145.1640299922719,367.5925,mp-755153,Li4Cr3FeO8,https://materialsproject.org/materials/mp-755153,15.437952082624145,-68.95365576387334,-10.717034454050268,-70.22550951274538
-6.379032690416667,-153.09678457,3.878209266663301,-2.151333257491667,17.9999999,0.9508175749439468,0.6153,2,24,220.62398746997775,515.270025,mp-1175308,Li7Mn5O12,https://materialsproject.org/materials/mp-1175308,12.779065509452169,-78.64008882159985,-15.793527754880413,-84.06005570004812
-6.197948065833334,-148.75075358,3.962734593126284,-2.0636821649516666,15.9998804,0.8569408821611866,0.4855,5,24,217.59218916543102,519.265175,mp-1175270,Li7Mn4CoO12,https://materialsproject.org/materials/mp-1175270,13.420688517449994,-81.22721596437825,-16.914214349422387,-84.75815763957746
-6.04809765625,-48.38478125,4.303626696282283,-1.868597716995,7.881589599999999,1.2414792691014522,0.0,166,8,73.98637898771611,191.75083999999998,mp-1173886,Li2MnCoO4,https://materialsproject.org/materials/mp-1173886,13.719197433771374,-67.6798422502599,-13.11954602935761,-68.49648774632361
-5.531093485625,-176.99499154,4.336838492958686,-1.7358948203124998,18.0000001,0.7494826938952767,0.653,2,32,279.89060825571516,730.991765,mp-1175467,Li9Co7O16,https://materialsproject.org/materials/mp-1175467,21.782031847502576,-72.4316970082562,-8.471279243754214,-77.24261643220355
-6.193590264166668,-148.64616634,3.954292357206294,-2.059324363285,16.000002,0.8551217485769312,0.3599000000000001,8,24,218.05673868007025,519.265175,mp-1175294,Li7Mn4CoO12,https://materialsproject.org/materials/mp-1175294,13.207571310560516,-79.8582719319182,-18.369089948621212,-83.69605191573045
-5.749760149375,-183.99232478,4.1341285656087265,-1.814411185997499,23.9968467,0.963002279838744,0.0,1,32,290.40513364705106,723.001465,mp-1176270,Li9Mn2Co5O16,https://materialsproject.org/materials/mp-1176270,14.876482103753489,-79.67109884925772,-13.553517441956739,-85.38280079053403
-5.5153724014285705,-154.43042724,4.266324677851404,-1.7350309758035725,8.9999999,0.4256371785691021,0.8186999999999998,2,28,246.4225097540497,633.11877,mp-1174191,Li4Co3O7,https://materialsproject.org/materials/mp-1174191,16.71893067427331,-73.44526994496542,-9.946475703371886,-80.66425375123049
-6.789747185,-81.47696622,4.071186810291335,-2.305729191121665,9.999999699999998,1.036178061301268,0.5589999999999997,12,12,112.47163840066423,275.74964500000004,mp-774249,Li3MnCr2O6,https://materialsproject.org/materials/mp-774249,4.433066152893334,-75.11419315284358,-10.86760107827014,-64.03471847044472
-5.898789203,-117.97578406,4.009245463765701,-1.941750467471,7.00000015,0.4587168705884646,0.5091999999999999,12,20,177.84053821995843,429.38248,mp-1174029,Li3MnCoO5,https://materialsproject.org/materials/mp-1174029,18.20992412054377,-71.63590725304819,-12.753688693431116,-76.43671658480751
-5.2304439339473685,-198.75686949,4.586964392003291,-1.4498403791294736,6.99998715,0.2359799942828021,0.0,2,38,345.70008318341087,954.93929,mp-758663,Li4Mn(Ni2O5)2,https://materialsproject.org/materials/mp-758663,22.662663528961282,-71.81952045252504,-8.162025856253923,-76.01098210307991
-5.7865419853125,-185.16934353,4.1749392238370575,-1.851193021934999,23.9999995,0.9726364705067696,0.573,1,32,287.5663798301439,723.001465,mp-1175895,Li9Mn2Co5O16,https://materialsproject.org/materials/mp-1175895,13.520031868692104,-75.87426811490516,-10.863498449416237,-82.16796982976061
-5.7753555096875,-184.81137631,4.163907714410092,-1.84000654631,24.000000399999998,0.9700664938090674,0.2915000000000001,1,32,288.3282341860885,723.001465,mp-1176229,Li9Mn2Co5O16,https://materialsproject.org/materials/mp-1176229,14.278024632415207,-80.03440784781837,-13.081448714093163,-86.5076326181564
-5.7756727671875,-184.82152855,4.119906395179695,-1.84032380381,23.9999998,0.9598154728184572,0.38519999999999976,1,32,291.4076300409075,723.001465,mp-1176174,Li9Mn2Co5O16,https://materialsproject.org/materials/mp-1176174,2.4931446709452567,-74.86835868338447,-26.647787323142506,-77.13419553977664
-5.8844333165,-117.68866633,3.96310267987104,-1.9273945809709998,5.99999975,0.3886606510999289,0.14250000000000007,1,20,179.9111526313571,429.38248,mp-1174255,Li3MnCoO5,https://materialsproject.org/materials/mp-1174255,14.558610806788652,-81.99376029246508,-16.58312484392362,-85.13240466760196
-5.977861298125,-95.64578077,3.9529501695493168,-2.0063627144950003,7.9999999000000015,0.6694893912377792,0.23690000000000036,10,16,139.25914022729918,331.5094850000001,mp-1174346,Li5Mn2CoO8,https://materialsproject.org/materials/mp-1174346,18.03741762256204,-74.21422876405907,-13.894647632841007,-77.84505641285911
-5.75763979625,-184.24447348,4.107672778986215,-1.8222908328725,24.000000399999998,0.9569654285651302,0.0118999999999998,1,32,292.27551054005767,723.001465,mp-1176079,Li9Mn2Co5O16,https://materialsproject.org/materials/mp-1176079,10.699292301656598,-81.58646528547911,-16.040546992204625,-87.79401458104496
-5.824451498571428,-163.08464196,4.148428422143302,-1.8839383037292856,11.0000005,0.5123129863864112,0.8361000000000001,2,28,250.2273448686276,625.12847,mp-1174419,Li4MnCo2O7,https://materialsproject.org/materials/mp-1174419,13.633346834443556,-75.22568544317808,-12.118809266543975,-81.15706227861371
-5.83341963125,-140.00207115,4.072738864852232,-1.8860207944550011,15.6902307,0.8505956024798192,0.0,1,24,214.97285471628444,527.2554749999998,mp-1175069,Li7Mn2(CoO4)3,https://materialsproject.org/materials/mp-1175069,15.951712152959571,-80.54581035458918,-13.176980387410367,-87.03599145033303
-5.7809346609375,-184.98990915,4.223751911176387,-1.845585697559999,20.000000399999998,0.820007010616555,0.3111999999999999,1,32,284.2430577972355,723.001465,mp-1175988,Li9Mn2Co5O16,https://materialsproject.org/materials/mp-1175988,18.976052593964038,-79.12526281094573,-10.792933975806008,-83.91349461537055
-5.8015156353125,-185.64850033,4.2176597443429715,-1.866166671934999,20.0000008,0.8188242824525692,0.8469000000000002,1,32,284.65363054001386,723.001465,mp-1176247,Li9Mn2Co5O16,https://materialsproject.org/materials/mp-1176247,16.35048870914547,-75.21945670421573,-9.315374827385886,-80.1013067629835
-5.496432526875,-175.88584086,4.236699783529619,-1.7012338615624998,25.999999300000002,1.057588888955097,0.26659999999999995,2,32,286.50610751790117,730.991765,mp-1175416,Li9Co7O16,https://materialsproject.org/materials/mp-1175416,15.163837608254116,-79.05038852029739,-12.083748886410458,-84.36338789984644
-6.339725965625,-101.43561545,4.191337374754147,-2.0200757283050006,15.999998499999998,1.2401712123986537,0.3651,12,16,150.35425513482951,379.50653000000005,mp-1174267,Li4Mn3CoO8,https://materialsproject.org/materials/mp-1174267,5.4307482111511804,-74.9512406574041,-27.252997300524484,-75.05193788001023
-6.1919524333333325,-148.6068584,3.955252986181808,-2.0576865324516658,16.0004083,0.8553512060773039,0.3767,2,24,218.0037783202111,519.265175,mp-1175170,Li7Mn4CoO12,https://materialsproject.org/materials/mp-1175170,10.866570203059952,-81.3696403899208,-17.514126820665087,-85.42961204101975
-5.483515258333332,-131.6043662,4.204472386255359,-1.7229834856249997,16.0000005,0.882077186547769,0.0,2,24,211.39311279295785,535.245775,mp-1174223,Li7Co5O12,https://materialsproject.org/materials/mp-1174223,20.105202081422227,-72.52832695361931,-8.487020840818433,-77.61588397798424
-5.153100226666667,-77.2965034,4.4596919610605585,-1.4127775740000004,7.0000000999999985,0.5754384291040716,0.0,12,15,141.76747753940907,380.7434,mp-753275,Li3FeNi3O8,https://materialsproject.org/materials/mp-753275,1.8713215004823316,-72.66930464377812,-22.412930820146986,-76.24178089412416
-5.524569715714287,-116.01596403,4.214502476938414,-1.4993866397619051,5.0000002,0.28749115279804704,0.008899999999999908,1,21,202.6856326759536,514.422775,mp-867624,Li4Co5O12,https://materialsproject.org/materials/mp-867624,9.018798997635011,-67.36806362645507,-4.2792848302317585,-70.07072805908611
-5.5115086375,-154.32224185,4.270828285272423,-1.7311672118750003,8.9999951,0.4260862614202599,0.7591000000000001,2,28,246.16265612156772,633.11877,mp-1174179,Li4Co3O7,https://materialsproject.org/materials/mp-1174179,19.28822158487541,-73.61014841241095,-9.09099352178405,-77.782765110266
-5.7836800125,-185.07776040000002,4.1847040026490365,-1.848331049122499,23.999998899999998,0.9749113487109456,0.4615,12,32,286.89535934911936,723.001465,mp-1176291,Li9Mn2Co5O16,https://materialsproject.org/materials/mp-1176291,18.215271648732745,-77.05684513814519,-14.097424612227691,-83.09077968776603
-5.825989029642857,-163.12769283,4.1424381451885495,-1.885475834800714,10.00000025,0.4650665478183297,0.8306,1,28,250.5891924194851,625.12847,mp-1174607,Li4MnCo2O7,https://materialsproject.org/materials/mp-1174607,15.701256169406939,-75.33350568829067,-11.408435070433415,-80.93687827743653
-5.7927554284375,-185.36817371,4.2140822021852085,-1.8574064650599995,19.999999399999997,0.8181296745160966,0.7077,1,32,284.8952870418944,723.001465,mp-1175830,Li9Mn2Co5O16,https://materialsproject.org/materials/mp-1175830,15.12108715865304,-79.94448260107295,-12.694707106999335,-85.97403565550488
-5.7674371828125,-184.55798985,4.185833904432002,-1.832088219435,23.9999338,0.9751719369996018,0.033600000000000296,1,32,286.8179163388486,723.001465,mp-1176024,Li9Mn2Co5O16,https://materialsproject.org/materials/mp-1176024,19.41175909796214,-82.67912858763903,-14.98398794406332,-83.8558298235537
-5.8274843875,-163.16956285,4.140697674642252,-1.8869711926578585,10.00000005,0.4648711379862036,0.9445,1,28,250.6945232460503,625.12847,mp-1174632,Li4MnCo2O7,https://materialsproject.org/materials/mp-1174632,16.13138464622425,-75.72483655525791,-10.499878170674961,-83.3700654540528
-5.7552899503125,-184.16927841,4.101513536305577,-1.8199409869349996,26.0000005,1.0351580534712412,0.0,1,32,292.7144206602094,723.001465,mp-1175981,Li9Mn2Co5O16,https://materialsproject.org/materials/mp-1175981,13.628519917692554,-82.44320401222541,-14.156329054760002,-87.90700225931623
-4.778501820000002,-33.44951274,4.575499571407988,-1.0581951950000013,0.9999998999999999,0.17051316436784497,0.0827,10,7,68.34700212361382,188.3254,mvc-16803,Li(NiO2)2,https://materialsproject.org/materials/mvc-16803,8.985234987478432,-68.17749535836253,-4.108157572903422,-70.28368156224998
-5.511803603214285,-154.33050089,4.252961197140942,-1.7314621775892856,9.00000025,0.424303964559955,0.7060999999999997,2,28,247.19680848452862,633.11877,mp-1174239,Li4Co3O7,https://materialsproject.org/materials/mp-1174239,13.958973066019453,-74.61920774459746,-10.663056435780527,-80.35089520135791
-5.7930946459375,-185.37902867,4.1963187214093765,-1.8577456825599992,24.0000003,0.9776172891474282,0.7519,1,32,286.10128026845143,723.001465,mp-1175891,Li9Mn2Co5O16,https://materialsproject.org/materials/mp-1175891,15.712630768328523,-75.51742737083747,-10.163321530561863,-81.19726377624704
-5.481601264166668,-131.55843034,4.266554068843802,-1.7210694914583335,11.5795111,0.6478024202778988,0.0,2,24,208.3171784632772,535.245775,mp-1174271,Li7Co5O12,https://materialsproject.org/materials/mp-1174271,22.1285853683764,-72.18784687605873,-8.097514104447843,-78.00606657768432
-5.7694464290625,-184.62228573,4.151028921784963,-1.8340974656849989,23.9999998,0.9670660944888646,0.21279999999999968,1,32,289.2227881884864,723.001465,mp-1176159,Li9Mn2Co5O16,https://materialsproject.org/materials/mp-1176159,12.771968106376894,-78.28215705473082,-13.442894615241272,-86.04557672560188
-5.790768765625,-185.3046005,4.194851885424228,-1.855419802247499,21.999999300000002,0.8958358903417781,0.5695000000000001,6,32,286.20132281220674,723.001465,mp-1100613,Li9Mn2Co5O16,https://materialsproject.org/materials/mp-1100613,17.589058898422458,-76.57590215723242,-13.600142331254798,-81.21559240923965
-5.1332635021428565,-71.86568903,4.4913890552891935,-1.2620587064285718,3.9997589999999996,0.3372878928815597,0.0,166,14,138.20078171912658,373.8024,mp-768413,Li2FeNi3O8,https://materialsproject.org/materials/mp-768413,23.35233646451899,-69.372827643571,-14.938434218906385,-71.80913648468926
-6.40080598375,-102.41289574,4.268369883126578,-2.1552697218749994,9.9999991,0.8086701531451345,0.4092000000000002,10,16,144.11393419638515,370.4409,mp-754209,Li4Cr3NiO8,https://materialsproject.org/materials/mp-754209,16.490546520224928,-69.07113405493149,-10.947137412614238,-70.63328405410526
-5.953790753030304,-196.47509485,4.242343099002001,-1.9265110475000005,2.0,0.07214420403714965,0.4798999999999998,12,33,323.07695200458784,825.3966,mp-758759,Li2Ti(NiO3)2,https://materialsproject.org/materials/mp-758759,6.349464398881827,-70.1937408564586,-22.93020967393712,-76.68332806042159
-6.994728349333331,-104.92092524,3.95446270601432,-2.3810447087306668,9.0000001,0.7004875928827369,0.8524999999999996,166,15,149.73367863205243,356.58074500000004,mp-759964,Li3MnV3O8,https://materialsproject.org/materials/mp-759964,1.8801156709485056,-67.35209082737906,-11.755907842083786,-65.74494607756775
-5.778208254375,-184.90266414,4.157522379666455,-1.8428592909975,26.0000013,1.049293844363732,0.33199999999999985,12,32,288.771063381747,723.001465,mp-1176283,Li9Mn2Co5O16,https://materialsproject.org/materials/mp-1176283,16.22940196017947,-71.2411668202754,-13.195413156045275,-77.80353742325832
-5.7962505690625,-185.48001821,4.182656380361904,-1.8609016056849992,22.0000005,0.8932315154904886,0.7696999999999998,2,32,287.0358091681951,723.001465,mp-1175532,Li9Mn2Co5O16,https://materialsproject.org/materials/mp-1175532,12.924182111668177,-77.31655559024846,-11.999576688028878,-82.40869832837636
-5.80495910625,-185.7586914,4.2469809594669465,-1.8696101428724996,22.0000001,0.906968401115052,0.6997,1,32,282.6883779484572,723.001465,mp-1175653,Li9Mn2Co5O16,https://materialsproject.org/materials/mp-1175653,21.91918915957313,-75.15152824455406,-10.44873410648592,-80.28446289099358
-5.40443139,-86.47090224,4.02960611197704,-1.7132334025000002,9.999999800000001,0.8330123138617727,0.3837999999999999,10,16,139.90266825049878,339.49978500000003,mp-1174016,Li5Co3O8,https://materialsproject.org/materials/mp-1174016,19.703973935041684,-71.36330891989894,-12.037148651552085,-75.91552985732676
-5.804295027916668,-139.30308067,4.027395096519698,-1.8568961911216668,18.0000005,0.9649481837860228,0.0,1,24,217.3931981612228,527.2554749999998,mp-1175067,Li7Mn2(CoO4)3,https://materialsproject.org/materials/mp-1175067,18.33187696134525,-79.30840062793858,-12.650916504442494,-83.03638349587109
-5.786088356875,-185.15482742,4.19037757965648,-1.8507393934974996,20.0000001,0.8135276439447977,0.4375,1,32,286.5069163309418,723.001465,mp-1176051,Li9Mn2Co5O16,https://materialsproject.org/materials/mp-1176051,12.852222581895205,-77.9810087321884,-12.738837097000443,-86.41924501964925
-5.775911423125,-184.82916554,4.179790983292516,-1.840562459747499,20.0000001,0.8114723425707203,0.2270000000000003,1,32,287.2325825402819,723.001465,mp-1176112,Li9Mn2Co5O16,https://materialsproject.org/materials/mp-1176112,15.092928376640536,-81.79075106300111,-12.86376374817241,-88.08345904768117
-5.7777962678125,-184.88948057,4.153635584303512,-1.842447304434999,25.999996499999998,1.048312684263829,0.2784,12,32,289.0412830501132,723.001465,mp-1176265,Li9Mn2Co5O16,https://materialsproject.org/materials/mp-1176265,16.284712827142826,-71.21904096207962,-13.111334611946207,-77.94019623983259
-5.7978536621875,-185.53131719,4.1914426163335765,-1.86250469881,24.0000003,0.9764813018828096,0.8348,1,32,286.4341155312971,723.001465,mp-1175795,Li9Mn2Co5O16,https://materialsproject.org/materials/mp-1175795,16.248308726611704,-75.30066183449566,-9.303954076117632,-80.97235303241602
-5.469358466666668,-131.2646032,4.1291098899241225,-1.708826693958334,18.0000003,0.9745498133421666,0.012900000000000134,12,24,215.25135660627544,535.245775,mp-1174342,Li7Co5O12,https://materialsproject.org/materials/mp-1174342,13.785546068193344,-78.12768060108492,-14.02735786010224,-84.03110856673635
-5.860185884166667,-140.64446122,4.094809572579711,-1.9127870473716664,15.9999992,0.8720892030689716,0.7894000000000001,1,24,213.81416761211307,527.2554749999998,mp-1174964,Li7Mn2(CoO4)3,https://materialsproject.org/materials/mp-1174964,16.60205447264191,-73.04809737018795,-10.264454476759123,-77.74703830133033
-5.766730843125,-184.53538698,4.136637732719168,-1.8313818797474992,21.5335156,0.8646723829616951,0.0,8,32,290.2289821304976,723.001465,mp-1100637,Li9Mn2Co5O16,https://materialsproject.org/materials/mp-1100637,5.4911249193678255,-72.14965514993223,-23.19776614965415,-75.25660737020209
-5.825478578333333,-139.81148588,4.05545397792109,-1.8780797415383328,13.9999992,0.7557440333355954,0.0,1,24,215.88909775769608,527.2554749999998,mp-1175079,Li7Mn2(CoO4)3,https://materialsproject.org/materials/mp-1175079,12.7998228668383,-79.21264548006478,-10.390579168419617,-85.93984826826649
-5.819719794166668,-139.67327506,4.0022840620626585,-1.8723209573716664,18.0000002,0.9589316617219577,0.0,8,24,218.75716133952326,527.2554749999998,mp-1175006,Li7Mn2(CoO4)3,https://materialsproject.org/materials/mp-1175006,12.183436983117938,-80.65275594285515,-18.278740864678475,-83.97878299839778
-5.7772071578125,-184.87062905,4.18275095787049,-1.841858194434999,19.9999999,0.8120469893825996,0.0,10,32,287.0293189104726,723.001465,mp-1100728,Li9Mn2Co5O16,https://materialsproject.org/materials/mp-1100728,16.506932496686876,-74.46958090661242,-13.32034794086285,-79.5001246326918
-5.93231252875,-47.45850023,4.436789831203019,-1.876737254375,2.9633287,0.4770587051697076,0.0,10,8,72.3911423016582,193.4217,mp-754778,Li2CrCuO4,https://materialsproject.org/materials/mp-754778,15.696156529322453,-68.83323786842378,-11.340480656013431,-70.77072130359842
-5.507143675625,-176.22859762,4.270170919091667,-1.7119450103124991,23.9999997,0.9839484534628818,0.0,2,32,284.26036959644904,730.991765,mp-1175428,Li9Co7O16,https://materialsproject.org/materials/mp-1175428,21.86818120469131,-75.20058661106256,-10.4163567281986,-80.39339742167058