energy_per_atom,energy,density,formation_energy_per_atom,total_magnetization_uB,total_magnetization_T,band_gap,sgr,num_sites,cell_volume,weight,mp_id,formula,URL,tsne_xrd_lin1_0,tsne_xrd_lin1_1,tsne_xrd_lin2_0,tsne_xrd_lin2_1
-3.4479276566666663,-31.03134891,4.972152619236138,-1.7936902766666665,0.0,0.0,3.0499,189,9,391.88046791102613,1173.40782,mp-568536,BaI2,https://materialsproject.org/materials/mp-568536,18.934391330580148,51.68113959558749,30.168886968889996,3.4935852127806406
-5.796626652083333,-139.11903965,5.8205484617392775,-0.4909683016066661,4.4575e-05,1.038291460730426e-06,1.3423000000000005,64,24,500.3218815566489,1753.7364,mp-1247464,Ba2SbN3,https://materialsproject.org/materials/mp-1247464,16.46760602569529,34.11489546425642,21.84786344765093,38.63395955347901
-2.20188329,-4.40376658,4.5138508716029495,0.6283595231465515,1.98e-05,2.263236007621311e-06,0.0,166,2,101.9559965110327,277.1474519,mp-1183961,CsNd,https://materialsproject.org/materials/mp-1183961,-16.292342359971205,-24.674306130958403,-18.31173306131673,-24.95857815031403
-4.968813706000001,-99.37627412,4.1295682111604535,-3.42875514440538,0.0,0.0,6.69,166,20,345.63140522587685,859.5452617599999,mp-6528,Cs2NaAlF6,https://materialsproject.org/materials/mp-6528,1.5692804193010357,-7.556401595731449,11.386242870792215,8.146517367520227
-3.8375170625,-15.35006825,2.89994871143048,-1.4196732446875,1.0000002000000001,0.18538481263510853,0.0,123,4,62.86419549540585,109.7854,mp-1222678,Li2BrO,https://materialsproject.org/materials/mp-1222678,-25.935356791660404,43.5995092071384,3.1028429147744463,22.581650635223536
-8.113140614285715,-227.1679372,3.6368090300816367,-3.4855831974107145,0.0,0.0,4.6385,188,28,417.14465308999564,913.6042,mp-1214228,BaZr(SiO3)3,https://materialsproject.org/materials/mp-1214228,17.931856770843517,-5.554524653188103,38.453231318894034,-10.18375402796003
-6.090261946875,-97.44419115,5.93268087835009,-2.4281018799218743,9.0022198,0.4624345271373134,0.0,42,16,226.8698518155136,810.5479,mp-1218464,Sr4TlFe2O9,https://materialsproject.org/materials/mp-1218464,-19.482141204883565,37.68946648335724,-4.913424664023425,61.89698585562003
-4.491879045,-17.96751618,5.871717324679387,-0.5784957414649998,0.9999966999999998,0.2878933125369456,0.0,225,4,40.48036479711689,143.13982,mp-1008376,CeH3,https://materialsproject.org/materials/mp-1008376,26.369842532556113,65.7240922048007,-13.797042308774335,33.515065888071234
-5.6535657370454535,-248.75689243,5.332646970909291,-1.9733329094209084,0.0,0.0,3.0255999999999994,62,44,753.6086761623294,2420.1352255999996,mp-759707,Sb4O5F2,https://materialsproject.org/materials/mp-759707,15.447104016697068,-4.202215962545835,32.175933217001045,2.8953809716834504
-7.138180473333333,-85.65816568,5.2629531559887015,-2.232148017063333,0.0,0.0,2.7195,39,12,153.29888323954933,485.86924000000005,mp-1224153,HoNO4,https://materialsproject.org/materials/mp-1224153,21.11829449951101,59.379261037011965,-13.35276817279845,41.920302251616455
-7.4388474135714295,-104.14386379,6.734534273715807,-3.1870650864285714,8e-07,5.0141185863286254e-08,0.7779999999999996,65,14,185.93999438841166,754.1040800000002,mp-21496,LiLa4CuO8,https://materialsproject.org/materials/mp-21496,-7.594244053930643,19.751687615721856,-24.185319597555427,39.00864023158148
-3.864791395,-15.45916558,5.1482011185265115,-0.5911214624999999,2.95e-06,2.538194033429721e-07,0.0,63,4,135.44863247746272,419.934,mp-1730,BaGe,https://materialsproject.org/materials/mp-1730,-0.5488911640142295,25.183845956381774,2.780144256305765,21.532036240274657
-6.432818530833334,-77.19382237,4.894770801907239,-2.704959691721744,1.45e-06,6.886188215085792e-08,3.4081,63,12,245.39546977806538,723.3522076,mp-1178403,Cs2TiO3,https://materialsproject.org/materials/mp-1178403,-0.8612970202214073,24.70705853284359,-2.233449726731364,23.219293641216673
-7.825818312000001,-78.25818312,4.863803811650182,-2.663344858583334,3.0000001,0.3307723554014036,0.0,148,10,105.69866227380982,309.59678999999994,mp-19424,TiCoO3,https://materialsproject.org/materials/mp-19424,-1.1694841912118508,54.61699075728246,18.96047383076295,63.92411196670229
-6.707702521666668,-80.49243026,4.483261492504652,-2.332581043633333,4.00000015,0.3498562113963292,0.0,33,12,133.24405661484735,359.74339280000004,mp-758600,MnOF,https://materialsproject.org/materials/mp-758600,-6.68352944684966,26.425974324768934,15.714870524891325,57.89229990851019
-6.814850397916668,-163.55640955,4.684029793978211,-2.6350182997675007,5.00000135,0.1400386118201518,2.2105,113,24,416.10195101491786,1173.73569,mp-1192147,Ba2MnGe2O7,https://materialsproject.org/materials/mp-1192147,6.065180136153346,27.496859364322482,33.36615538302624,-6.266355223598648
-4.91245642409091,-108.07404133,3.4329472046547123,-0.23686362386545445,0.0009301,2.3615580083079102e-05,0.8211000000000002,137,22,458.99552781785735,948.9132,mp-1246724,K6WN4,https://materialsproject.org/materials/mp-1246724,2.7146663558681428,2.615334026755369,-8.675414559264576,-11.246080136695866
-8.685342934545455,-191.07754456,7.09550307850229,-3.51220951284091,0.0,0.0,2.2234000000000003,71,22,327.09413235356624,1397.6771199999998,mp-559151,BaSrTa2O7,https://materialsproject.org/materials/mp-559151,8.215190334903378,19.83697555900956,31.513974650758385,36.563764958611976
-6.786520561958041,-970.47244036,4.7799955578934625,-2.4013088198739165,128.000217,0.7370725139853179,0.0,38,143,2023.848117404376,5825.81004,mp-1246972,Sr32Mn32O79,https://materialsproject.org/materials/mp-1246972,-8.184975294660786,29.523153055177183,1.1935061510835148,48.323778599700525
-7.127499854791666,-342.11999303,4.758133140994553,-2.6195011864870685,0.00030235,4.44515216713039e-06,3.602,60,48,792.6852335986781,2271.3720000000003,mp-1209371,RbDy(MoO4)2,https://materialsproject.org/materials/mp-1209371,6.048968338589496,18.588496805225816,34.7679080065787,-2.5718838073746806
-7.6598025336363635,-168.51565574,6.603725749022652,-3.2904119042045465,0.0,0.0,2.7404000000000006,63,22,330.14956548331384,1312.9575,mp-5448,Pr3SbO7,https://materialsproject.org/materials/mp-5448,22.071741326933754,56.31496004150512,-1.2665443001631067,35.59465050560504
-7.459488780357143,-417.73137169999995,6.978805676025004,-2.5758592129374995,0.0,0.0,2.6625000000000005,6,56,785.9640795751683,3303.19880928,mp-1221182,NaCa2Nb8(BiO4)9,https://materialsproject.org/materials/mp-1221182,17.319598364418276,55.22147339331891,-0.2382093588754589,38.09313647809815
-5.83941786482143,-327.00740043,4.2201457775566285,-1.5237546214285729,7.0000000125,0.061752695477161224,0.3843999999999994,70,56,1321.0508937826826,3357.36,mp-1181942,Eu(GaS2)2,https://materialsproject.org/materials/mp-1181942,3.356415081650875,-5.97464997901005,10.790443188427991,-10.822213293782244
-2.879758986666667,-25.91783088,3.84009027036111,-1.1092590045210728,0.0346584,0.0012097446309673227,0.0,225,9,333.88140618595816,772.1196,mp-866668,Rb2SbBr6,https://materialsproject.org/materials/mp-866668,1.1334302750036396,19.546040929545306,-16.086935873263535,-8.997748352513838
-6.89751121,-413.85067260000005,6.110787740593324,-2.2041301721666664,0.0,0.0,0.0,100,60,1653.6744846320125,6085.52616,mp-1200169,La14Sb8CO7,https://materialsproject.org/materials/mp-1200169,-1.4449973173452615,24.750620907732205,0.64866591929543,47.91621650055983
-5.073547848333333,-121.76514836,5.460084828394788,-1.6244770622500002,1.00000015,0.03363071103054753,0.0,69,24,346.5304825129555,1139.44073856,mp-19397,Ba2Na(NiO2)3,https://materialsproject.org/materials/mp-19397,1.6214844000742632,26.04659273263573,1.7151712622735962,27.651184543278585
-9.08338630125,-1090.00635615,6.088231553509568,-2.5149788597813343,27.00016785,0.18420091435574173,2.2768,114,120,1708.2526766734015,6263.169728,mp-1204426,Eu4C2N4F5,https://materialsproject.org/materials/mp-1204426,4.335004135135061,19.094761705942915,-8.703169162317867,32.296802296193235
-7.219257034285714,-50.53479924,5.29315021352147,-2.9962030396428574,4.9999996,0.6215757208827535,0.7568999999999999,107,7,93.74613139396408,298.82607,mp-1227068,CaLaFeO4,https://materialsproject.org/materials/mp-1227068,-24.193482948067576,40.2004307806806,-13.370413761738947,60.18011951380192
-9.257625947272727,-203.66777084,8.122976112421004,-2.7418540342045463,18.00399835,0.6769331591707669,0.0,63,22,309.95639686639663,1516.2356,mp-561983,Eu3OsO7,https://materialsproject.org/materials/mp-561983,17.062396617480108,59.50768905737085,-3.403810434538351,37.96390466171028
-6.8687974054545435,-75.55677146,7.664091577942678,-0.3123859904545441,0.10503889999999999,0.007151355901607374,0.0,38,11,171.17455222208685,790.04312,mp-1216948,U2Si7Ni2,https://materialsproject.org/materials/mp-1216948,-40.459434761336475,10.439245646503984,-28.058239273472434,13.516976870654107
-7.0364337875,-56.2914703,6.0649643662105825,-1.8467457743025009,4.79277785,0.3076065329721264,0.0,129,8,181.5804851890148,663.2058300000001,mp-18745,LaMnSbO,https://materialsproject.org/materials/mp-18745,-14.976128287323005,21.226152931290727,-15.679078287766853,40.966127281088
-10.4783793225,-41.91351729,7.826684881433954,-0.2298326768750005,7.9801359,1.8486507880634089,0.0,38,4,50.307511441819706,237.1164,mp-1018176,GdFeC2,https://materialsproject.org/materials/mp-1018176,-36.636233478849036,28.288166536120173,-40.305983450052295,35.514658536437175
-6.127620352777778,-110.29716635,4.185721507538225,-1.9036836060833335,3.9999998999999997,0.16782988261510354,0.4607000000000001,46,18,277.7589854587502,700.1472,mp-1075956,K2Mo2O5,https://materialsproject.org/materials/mp-1075956,-7.970868449588482,32.123827606856736,-0.2408513687300351,47.625987399714695
-6.584555205555557,-237.0439874,6.153400860788135,-0.5286294866133324,3.9998515,0.07449476754455925,0.0,52,36,625.7423171867399,2318.7912,mp-1246438,Ba3(FeN2)2,https://materialsproject.org/materials/mp-1246438,4.073167836693079,41.27891864861192,19.03462061208032,40.098025446649274
-4.778039208333333,-57.3364705,5.282149302014541,-0.5486870249999996,0.0,0.0,0.0,63,12,206.9293530571617,658.2391087999998,mp-31180,DyAl4Ni,https://materialsproject.org/materials/mp-31180,1.4608722514899717,4.96197529306841,-5.2874778693032845,10.82595452656214
-6.747441534411764,-229.41301217,6.079799990766236,-2.0626479965441185,12.000000300000002,0.2585191544379009,0.0015000000000000568,15,34,540.9610017911804,1980.6428,mp-31247,Eu2Te4O11,https://materialsproject.org/materials/mp-31247,6.4879626587703125,17.586432427502718,35.568427527809284,-3.2957903784214344
-7.0463170260000005,-35.23158513,7.862254195511888,-0.8314967029999991,0.1911349,0.02531669981605426,0.0,107,5,87.98534252415396,416.5895,mp-1068906,CeSi3Ir,https://materialsproject.org/materials/mp-1068906,-47.16738248837787,29.95581467615253,8.146908685154788,51.70390660277739
-7.326996304285713,-51.28897413,7.276464732832322,-2.9417619985714287,3.9e-06,4.849512835090525e-07,0.0,107,7,93.72251225753145,410.69107,mp-1222801,LaNdCuO4,https://materialsproject.org/materials/mp-1222801,-8.007077262817493,19.957439833401715,-24.70705555158104,38.12780559097996
-5.52922353,-77.40912942,5.370387210126912,-0.4707300981628566,0.000131,4.815224925433571e-06,0.0,176,14,317.05320288186834,1025.389,mp-1246177,Ba3NiN3,https://materialsproject.org/materials/mp-1246177,4.839623699213974,16.463385177663937,23.124611352231398,36.10294526693465
-7.370938502142858,-103.19313903,6.5949226440081485,-3.007768531071428,5.0000002,0.3089656616655713,2.3024,38,14,188.5980658157541,749.0276499999999,mp-1218011,SrPr3CrNiO8,https://materialsproject.org/materials/mp-1218011,-23.634043461038342,39.36826415301914,-13.828914633846974,59.61573337632976
-6.572410413999998,-32.86205207,9.737644525126326,-0.8710545249999996,1.23e-05,1.621676644761917e-06,0.0,139,5,88.3930820398102,518.35,mp-570680,Er(GeRh)2,https://materialsproject.org/materials/mp-570680,-49.380556284506866,28.904224710122207,-50.438380845744064,20.409820721617237
-7.48828330888889,-134.78909956,5.786157233196257,-3.2253892169866667,0.0,0.0,3.2722,12,18,301.28478302078634,1049.82845,mp-1105528,Pr5As2ClO10,https://materialsproject.org/materials/mp-1105528,2.005895298317644,23.999472728577924,0.958080234524744,46.79735018916569
-4.945438631458334,-712.14316293,6.880752854844786,-1.2211069372222223,4.305e-05,2.264945085896553e-07,0.0,19,144,2215.0978033981755,9178.6704,mp-680202,Ag2SnO3,https://materialsproject.org/materials/mp-680202,-0.9580824518781252,63.389608724818366,8.27289154732074,51.059954573043
-7.1192961725,-170.86310814,4.8355908416217215,-2.6121506048922414,0.0,0.0,3.6335,49,24,414.23628751646487,1206.2813038,mp-1213184,CsSm(MoO4)2,https://materialsproject.org/materials/mp-1213184,6.0760605206679,-18.527397104275156,31.63768192696406,-8.516570354603068
-4.8060646025,-19.22425841,4.700646083009904,-1.5421869814100004,0.0,0.0,1.1229,166,4,114.4956337372728,324.1137,mp-1018099,Ba2NCl,https://materialsproject.org/materials/mp-1018099,-13.744864397391114,20.74661794574012,-1.4577671477370426,-23.5548483179663
-9.5123747975,-152.19799676,5.721911080254728,-4.00974078921875,6e-07,2.7612566657795567e-08,4.2493,63,16,253.23393330991607,872.5974,mp-755537,Y2HfO5,https://materialsproject.org/materials/mp-755537,1.0508283528504063,13.918383962497186,6.8529471631530985,32.68285822260022
-8.097222630500001,-323.88890522,6.704747000626758,-3.0784075451250015,21.999996399999997,0.5326714249844208,0.4632000000000005,38,40,481.32745819653985,1943.45255,mp-1099675,La5Sm3V2Cr6O24,https://materialsproject.org/materials/mp-1099675,-26.818768636794466,51.45051810717066,-16.429683566545528,66.46627898578679
-8.34283145125,-200.22795483,5.860479624471678,-1.5010433453566658,0.0,0.0,2.1042,167,24,305.5573313671959,1078.3923,mp-9028,PrBN2,https://materialsproject.org/materials/mp-9028,-11.534756153037474,11.766106467294776,-13.672411205496134,48.690445670138004
-3.333185849236111,-479.97876229,5.1845970542140165,-0.3630935325173614,9.196666666666666e-05,2.736846327462076e-07,0.9166999999999998,7,144,3916.1332497744734,12227.0976,mp-685555,HgAsS2,https://materialsproject.org/materials/mp-685555,10.212691442026056,11.475149757249431,13.886332437053387,-28.803205703031125
-6.5908955963333336,-395.45373578,4.648986503889926,-2.294026083916666,9.00028685,0.14356799335700066,0.2610999999999999,15,60,730.5940792854483,2045.4334,mvc-3077,Mg4V5(TeO6)3,https://materialsproject.org/materials/mvc-3077,26.29200091444189,14.188851548757508,52.04470817741449,27.06006088371125
-6.655576205384616,-86.52249067,8.241114255711407,-1.8088011900961545,2.6616365,0.15950253821467472,0.0,47,13,194.4726680791795,965.1513386,mvc-16281,Ba2AlW3O7,https://materialsproject.org/materials/mvc-16281,4.035169327402386,13.901555656162651,15.565879324529073,51.01321053842002
-3.981587695,-23.88952617,3.10552224633864,-0.9809809090476188,1.75e-06,1.5191722934369215e-07,1.352,194,6,134.24819186136818,251.06952400000003,mp-13276,SrLiP,https://materialsproject.org/materials/mp-13276,-52.82548442324071,22.75551971050817,-10.178224275791935,21.467666497807567
-8.15508439965909,-717.64742717,4.965139033456335,-3.320603363409092,4.7875e-06,4.4083170957455835e-08,2.8445,33,88,1265.6493143942735,3784.3884800000014,mp-15590,Sr2Nb2O7,https://materialsproject.org/materials/mp-15590,1.8182247175751725,23.19115631219588,1.696140114215519,47.124830525818474
-6.467663044,-129.35326088,9.259462253150577,-0.9812195004999992,6.6e-06,2.1285567289965136e-07,0.0,72,20,361.3567186210519,2014.9896,mp-1106159,Pr2Si5Pt3,https://materialsproject.org/materials/mp-1106159,-33.867995589177454,17.982875320763945,-27.491740233249796,30.916080483183798
-6.7255317985000005,-134.51063597,7.122041416795862,-2.4265544082500012,2e-07,9.542460551825625e-09,0.12379999999999967,62,20,244.25701755361385,1047.6168,mp-770767,SmCuO3,https://materialsproject.org/materials/mp-770767,-10.655941865651748,43.79853915000148,6.318053818737072,53.82425356954033
-7.031278841111112,-63.28150957,6.379383929465293,-2.2556618859374997,9.754994,0.7305483582727028,0.0,139,9,155.61643612577132,597.8402,mp-1078283,Ce2Fe2Se2O3,https://materialsproject.org/materials/mp-1078283,-20.73742583140496,26.436544846863733,-23.588429226130422,46.980846551586325
-6.0558699586666656,-181.67609876,7.392308742478787,-2.2038735213333336,0.0016218,4.162130156216093e-05,0.0,66,30,454.10790962194056,2021.576,mp-1209149,Sr2DyCu2(BiO4)2,https://materialsproject.org/materials/mp-1209149,-5.647557085953068,20.792057351518885,-10.778139994499066,45.11020123190907
-2.7725449455555555,-24.95290451,4.30463025472718,-0.9097244467432948,1.1e-06,3.906063761189297e-08,0.5428,139,9,328.19411135041116,850.7805400000001,mp-567948,Rb2Pd(IBr2)2,https://materialsproject.org/materials/mp-567948,-1.891699966548953,13.29415811897872,-10.294117005993666,-9.895180978251279
-9.210976446,-46.05488223,7.149002231140526,-2.7062579832187508,12.007012300000001,1.4520417631854807,0.0,164,5,96.36809533779676,414.8868,mp-754655,Eu2SeO2,https://materialsproject.org/materials/mp-754655,-13.300168527467306,23.415866619439463,-18.130577362018087,38.483788683904784
-7.419487345714287,-207.74564568,7.512782280508918,-3.0455908634821434,5.56e-05,1.7324144280210854e-06,0.0,99,28,374.024823895332,1692.20175,mp-1223395,La5Dy3(CuO4)4,https://materialsproject.org/materials/mp-1223395,-26.14508162538845,43.118136112292326,-10.198884903351127,64.93364210595192
-3.9186908609375,-125.39810755,5.6331345696806014,-0.9723583090625004,0.0,0.0,0.0,62,32,1216.1045792645893,4125.456,mp-583630,Ba2SnTe5,https://materialsproject.org/materials/mp-583630,13.935004548386063,21.834375518525267,35.64555882646777,0.7608130987150671
-5.8731347513636365,-129.20896453,7.994136714246089,-1.7601763296590922,0.25368735,0.009243266873602513,0.0,227,22,319.85323471751565,1539.8316,mp-647520,Sb2Pb2O7,https://materialsproject.org/materials/mp-647520,24.44055027429431,64.58185892855067,-10.538089549498554,36.66238238627362
-6.5132156690625,-208.42290141,7.448665471122353,-2.21898029515625,2.5e-07,6.211054368232613e-09,2.6263999999999994,62,32,469.085604537862,2104.1732,mp-769310,SiBi2O5,https://materialsproject.org/materials/mp-769310,8.758955369522274,22.85460304880055,14.324664339789065,8.709727768857089
-3.2860326275,-13.14413051,4.742610239161291,-0.10132918562500004,0.0153964,0.0015319546882015516,0.0,225,4,117.12529374800364,334.51765,mp-1186626,PmPrMg2,https://materialsproject.org/materials/mp-1186626,-29.664794268979374,55.582353613595636,-56.07803866278353,52.19800946907878
-5.733299642105262,-108.9326932,6.461746986666832,-2.019625421973684,8.5073911,0.35061934176008397,0.0,1,19,282.7730108304738,1100.370185,mvc-3021,Ba2Ca2Tl2Co3O10,https://materialsproject.org/materials/mvc-3021,23.551991305624753,38.03405013018005,24.25901415488691,42.21430648021399
-5.080897320869566,-116.86063838,7.10822574058239,-1.4260048952173914,8.6803549,0.3312283178201418,0.0,139,23,305.4129517643988,1307.37318,mvc-128,Ba2Tl2Zn3(CoO3)4,https://materialsproject.org/materials/mvc-128,-5.324125148743855,19.23073335756128,4.241666479589861,47.905289402323376
-9.420113714444446,-84.78102343,6.277826283445267,-3.592764594537038,2.0,0.2050417656434026,0.0,12,9,113.67503333762548,429.75931,mp-9771,UTi2O6,https://materialsproject.org/materials/mp-9771,20.258583026148692,10.58753008532327,2.6919157542692123,37.80389134997171
-6.046544099285714,-84.65161739,5.445677685783713,-2.458701482321429,5e-07,1.9652391990017643e-08,2.1436,122,14,296.50499487490714,972.3774,mp-38327,Ca(TbS2)2,https://materialsproject.org/materials/mp-38327,-1.1580790152313232,-5.261092196924092,5.731466762270082,7.246781532350021
-5.9293534175,-23.71741367,5.325796763815865,-2.913984066875,1e-07,1.4546931818652193e-08,2.2573,123,4,80.11355877544403,256.9458,mp-753619,BaSrO2,https://materialsproject.org/materials/mp-753619,24.97085097153455,65.44976370387461,-14.154562935712569,35.732565250066216