energy_per_atom,energy,density,formation_energy_per_atom,total_magnetization_uB,total_magnetization_T,band_gap,sgr,num_sites,cell_volume,weight,mp_id,formula,URL,tsne_cry_lin1_0,tsne_cry_lin1_1,tsne_cry_lin2_0,tsne_cry_lin2_1
-5.698660302857142,-79.78124424,5.491626343985792,-1.892795308750001,2.0130287,0.07447189914937903,0.0,122,14,315.01770636686194,1041.806,mp-34145,Ce2CdS4,https://materialsproject.org/materials/mp-34145,47.17446255369037,1.2992758797215005,-8.139285401400457,2.2241420291931906
-8.325089771111111,-374.62903969999996,4.1430712000408505,-2.945020515863985,0.9758085999999999,0.01538849180545144,2.7892,166,45,739.0026764021255,1843.82338,mp-541806,Rb4Nb11O30,https://materialsproject.org/materials/mp-541806,1.9948478880947136,-50.554359424767725,3.4724648127483033,-4.469553102891443
-4.810971245,-28.86582747,7.7488179136896305,-1.173539595,6.02e-05,3.952742036647811e-06,0.0,129,6,177.49063632370903,828.2507,mp-1019324,TbTe2,https://materialsproject.org/materials/mp-1019324,-9.913428293149536,24.40382863308269,-8.604250342815693,-0.5045126942092143
-3.981330318333333,-23.88798191,7.090694685828389,-0.5045609163888892,1.17e-05,7.899263936771039e-07,0.0,74,6,172.6142573920436,737.08294,mp-22282,LaIn2,https://materialsproject.org/materials/mp-22282,6.411780544159999,53.79324336050791,-1.1595960944738477,-2.3735283643937923
-2.95598813875,-23.64790511,5.672976291692991,-0.14681238374999994,0.0,0.0,1.1452,7,8,222.9873169640693,761.80188,mp-673245,CuI,https://materialsproject.org/materials/mp-673245,16.92326290049158,-11.267172846183719,6.699973533854855,-3.7555240632449234
-3.2219497556666665,-96.65849267,3.4595946974628373,-1.470702704864046,1.0,0.013363845561963184,0.4511999999999999,178,30,872.0592226634262,1816.8627114,mp-23032,CsCuCl3,https://materialsproject.org/materials/mp-23032,4.098674866739652,-7.243312904739982,4.933768995209083,-6.401143049584043
-5.438296214285714,-38.0680735,7.44778796370561,-0.7026433049999993,0.6998551,0.04383890612593993,0.0,115,7,186.04836177653075,834.4571950000001,mp-1220394,Nd2CoSb4,https://materialsproject.org/materials/mp-1220394,2.999763177802937,33.46906282522834,-8.604250342815693,-0.5045126942092143
-7.4483899155,-148.96779831,6.225298276774798,-1.5870596246562507,6.972822275,0.15864790756187816,0.0,62,20,512.2142717747611,1920.2720000000002,mp-1106192,EuZrSe3,https://materialsproject.org/materials/mp-1106192,-14.789694685487994,12.189530655120649,2.6398884898551183,-4.8205267577473165
-4.0769830544999985,-81.53966109,3.9039483699731408,-0.39565131903125,1.9e-07,2.159668805943822e-09,0.0,38,20,1025.2832752374998,2410.4539999999997,mp-28677,BiS,https://materialsproject.org/materials/mp-28677,39.1587524418711,28.474966655431253,-8.604250342815693,-0.5045126942092143
-4.179272898888889,-75.22691218,4.536040710823515,-2.5162659232856317,0.0,0.0,2.0606,127,18,439.3860874491845,1200.2567434,mp-1213701,Cs3PdF5,https://materialsproject.org/materials/mp-1213701,-8.034202866154143,-25.36256425280785,9.771349150415727,0.16132811796600954
-6.224086045,-37.34451627,7.117644342166245,-0.7865249466666668,1.1e-06,9.426324558747119e-08,0.0,129,6,135.99649757359444,582.928,mp-3208,ZrGeTe,https://materialsproject.org/materials/mp-3208,44.21245018918282,26.991135830576912,-8.604250342815693,-0.5045126942092143
-8.124649832666666,-121.86974749,6.302809865728919,-3.2606465980277783,5.9999997,0.373292458862276,1.8488999999999995,65,15,187.31796873758145,710.99174,mp-1227920,BaLa2TiCr2O9,https://materialsproject.org/materials/mp-1227920,-3.085400174892236,-35.627382687730865,5.973394201963347,-2.6078117084600265
-6.003476195833333,-216.12514305,4.324166882441341,-2.2122107974800005,4.9949737333333335,0.1390567961251175,0.24250000000000016,6,36,418.6185001208028,1090.1136384000001,mp-758738,FeOF,https://materialsproject.org/materials/mp-758738,-42.521836835347315,-76.84338232290007,0.7463163860112491,-2.4223180016339985
-5.650904186458334,-271.24340095,2.8848775878594752,-3.1530077655850017,2.0000000125,0.037808778298389,2.0979,31,48,616.474023753059,1071.0089024000001,mp-760807,LiVF4,https://materialsproject.org/materials/mp-760807,-21.86536023039625,-51.60229612886688,9.259683290673648,1.5641872264743468
-6.523918771625,-1043.82700346,4.680793569582186,-1.6973373088750008,7.562330978125,0.04861616560270875,0.9977,1,160,1812.810491284261,5110.0224,mp-685153,Fe2O3,https://materialsproject.org/materials/mp-685153,-27.956205602071304,-33.5522591260465,6.538123028785894,-3.8594837878488746
-3.371634728333333,-20.22980837,4.292221341250424,-0.2812264251149432,3.825e-05,1.7511852771862466e-06,0.2906,12,6,254.55215011095527,657.9756,mp-568018,RbSb2,https://materialsproject.org/materials/mp-568018,38.26615701655343,21.249447071646408,4.346001528596902,-6.237584668987265
-8.516251409166667,-102.19501691,7.367249395511858,-2.7682599466666677,5.00000015,0.42974382379316817,2.395,13,12,135.59316593914136,601.58096,mp-755628,TaFeO4,https://materialsproject.org/materials/mp-755628,-3.8384204111912537,-38.66507356064701,7.920168284116509,-0.3077134362238632
-5.3782863971428565,-37.64800478,7.317335832963161,0.24135506794642836,0.4258826,0.045246713157762165,0.0,2,7,109.69334697529676,483.375,mp-684963,Fe3Se4,https://materialsproject.org/materials/mp-684963,21.599772309027404,15.77000380928493,-6.3515305929907955,-3.670998836906213
-8.213750366000001,-41.06875183,6.687747730027876,-2.966295833249999,4.0000023,0.7819116255907986,0.01130000000000031,221,5,59.61835630639883,240.1103,mp-20530,CeCrO3,https://materialsproject.org/materials/mp-20530,-4.586638772217059,-7.145629684119972,6.0127616987651376,-3.7514459792827033
-4.9100926,-14.730277800000001,7.976267854246832,-0.5731769842187505,0.0,0.0,0.4970999999999997,156,3,63.72729129510373,306.10900000000004,mp-1219720,PtSeS,https://materialsproject.org/materials/mp-1219720,64.42084477225471,15.61985647570393,6.208574261537066,-6.521043000944978
-5.8803238675,-23.52129547,3.184360099519393,-1.4013201020312502,2.0000001,0.3663331346341689,0.0,166,4,63.6255050578541,122.0125,mp-754542,LiVS2,https://materialsproject.org/materials/mp-754542,21.550175091372648,12.716429123719113,-11.337013311149688,-0.3455252106447034
-6.591082573333334,-118.63948632,3.866270718191055,-2.5254906526388905,10.0000008,0.4990826610841101,0.4871999999999996,12,18,233.5097292214049,543.686,mp-1227586,Ca2Fe2O5,https://materialsproject.org/materials/mp-1227586,-21.24347484248808,-32.360718339807036,6.290356135872325,-4.660152608404908
-6.1067921725,-48.85433738,9.58444660605562,-0.3680083129166656,8.5554883,0.7453280293456768,0.0,166,8,133.77494322413807,772.13409,mp-1221865,Mn2InSbPd4,https://materialsproject.org/materials/mp-1221865,44.73251440845793,37.83099729437132,-8.604250342815693,-0.5045126942092143
-5.973407472727272,-262.8299288,7.8278668606549875,-0.5450318936363643,5.675e-06,6.324434856583852e-08,0.0,62,44,1045.734821909449,4929.648000000001,mp-1195256,Zr3Sb7Pd,https://materialsproject.org/materials/mp-1195256,35.593714968888314,30.725201483342904,-8.604250342815693,-0.5045126942092143
-6.4701509224999985,-362.32845166,4.680139423533267,-1.8848179172321442,45.0000004,0.8618009284963581,0.9998000000000004,8,56,608.5313929074379,1715.1128,mp-771780,Li3Zn(Fe5O8)4,https://materialsproject.org/materials/mp-771780,-27.85299898324875,-35.3412174231537,6.366021320323171,-1.8852002238367207
-5.104194254666667,-76.56291382,7.168739730648956,-0.7693267413333341,3e-07,8.77360641137799e-09,0.0,121,15,398.49285092545983,1720.33988,mp-1223074,La4Cu3Sb8,https://materialsproject.org/materials/mp-1223074,2.5121453958610496,33.971107852917875,-8.604250342815693,-0.5045126942092143
-6.5876328725,-26.35053149,11.479221089873366,-0.6218722987500005,0.0002444,3.499879816359904e-05,0.0,225,4,81.38146393198015,562.58588,mp-862822,PaSnPd2,https://materialsproject.org/materials/mp-862822,29.22171198482107,40.82958148987276,-8.604250342815693,-0.5045126942092143
-8.357109989,-167.14219978,6.205835668027505,-0.7119365039279998,1.3225e-05,3.939241788148681e-07,1.7867000000000002,15,20,391.25551287760817,1462.2164,mp-989637,BaReN3,https://materialsproject.org/materials/mp-989637,34.412814826765604,-8.300997000634272,7.112272679776178,-1.6226577829321749
-5.913489444444443,-106.44281000000001,2.7133364885858,-1.0739238258055557,15.0000008,0.3846826161960381,0.0,13,18,454.4291152022367,742.54147,mp-29861,K2Mn3S4,https://materialsproject.org/materials/mp-29861,26.149832287109323,15.80873125218492,-6.0103623072889825,0.3479444678827133
-6.8124701745000005,-136.24940349,4.043840851742536,-2.4819933354375,0.0,0.0,1.6540999999999997,62,20,460.0028267796545,1120.225528,mp-1190131,LaScS3,https://materialsproject.org/materials/mp-1190131,46.479211319236256,0.8477193593049233,3.9192439353821116,-3.844996383688647
-5.761976905357143,-161.33535335,8.771398240146016,-0.6679687407142845,0.000611125,1.147594193424746e-05,0.0,62,28,620.6105237319306,3278.22588,mp-1193123,La(Sn2Rh)2,https://materialsproject.org/materials/mp-1193123,2.162832696115266,49.79975224431455,-8.604250342815693,-0.5045126942092143
-3.7000091322916666,-177.60043835,4.819862784673887,-0.4582169089583334,0.0,0.0,1.1727,62,48,2247.566311934996,6523.761839999999,mp-570679,TaI5,https://materialsproject.org/materials/mp-570679,10.524468025227561,-3.862964478745032,7.360699834816352,-5.875298796661978
-8.666086321578947,-164.65564011,5.5596867925640465,-3.5707261735526323,3.0000004000000002,0.14553870286331205,1.9311,1,19,240.2261274249572,804.3063099999998,mp-755384,La3Ti3CrO12,https://materialsproject.org/materials/mp-755384,5.651633776000267,-41.831574731904716,5.073728498781507,-2.387417404109001
-6.366362005357144,-713.0325446,4.656037218732635,-1.7696871103571448,15.4999990375,0.15286816562193786,1.0368000000000004,1,112,1181.658666621135,3313.2896,mp-706252,LiFe5O8,https://materialsproject.org/materials/mp-706252,-27.59791144995045,-33.49171512338546,7.628859857563316,-2.6866897801711427
-6.621575901,-132.43151802,4.92801399405086,-2.01581137125,4.0000007,0.1959733315257036,1.5711999999999997,15,20,237.87046372669332,705.9328,mp-22334,FeGeO3,https://materialsproject.org/materials/mp-22334,-14.946276397732186,-37.82323374580484,7.8965038656740125,-1.309770929854957
-8.15897682,-16.31795364,7.257941941892952,-1.4424536249999995,7.0000363,1.275442467506065,0.0,221,2,63.96123582899373,279.564,mp-19736,EuTe,https://materialsproject.org/materials/mp-19736,56.31367669639259,24.378131846481182,2.408853778901882,-4.729621912692836
-5.221795843333333,-31.33077506,8.021473691889009,-0.5254059683333333,5e-07,3.813229951851198e-08,0.0,164,6,152.81093613174346,738.1753,mp-1219747,PrSbPd,https://materialsproject.org/materials/mp-1219747,4.871528271542089,36.24081879175488,-8.604250342815693,-0.5045126942092143
-4.863166013333333,-58.35799216,5.187400570978222,0.04383420500000016,1.25e-07,6.394139964619342e-09,0.0,205,12,227.82705799851627,711.7148,mp-21268,SiAs2,https://materialsproject.org/materials/mp-21268,39.19745892657095,8.349274664414827,-6.970804657332175,1.6818443206213984
-6.211977047916666,-149.08744915,5.459579210864804,-1.964092556953125,0.99999285,0.024132510819884437,0.0693999999999999,173,24,482.916242448923,1587.7491672,mp-1191235,Dy3MnAlS7,https://materialsproject.org/materials/mp-1191235,27.624810836381048,3.215521141362216,3.2124763819053728,-5.119333223700104
-3.288620389583333,-157.85377869999996,7.026263164642558,-0.26019686041666645,1.25e-08,8.464462716040077e-11,0.4362000000000004,62,48,1721.0284284310435,7282.212799999998,mp-28662,Tl2SnTe3,https://materialsproject.org/materials/mp-28662,58.35622266741685,23.864818183907524,3.7733610563222086,-5.467283090807928
-9.0162543225,-504.91024206,4.583121275144652,-3.6831195309821423,4.5e-07,7.775154324859925e-09,2.4471,62,56,674.4983994573436,1861.6292,mvc-12320,Y2Ti3O9,https://materialsproject.org/materials/mvc-12320,3.874319545434386,-42.282296795430284,8.701204676019021,-0.9675294796047686
-3.81108805,-19.05544025,7.430962356429888,-0.2969241417187497,1e-07,6.934031320380003e-09,0.5476000000000001,166,5,168.07055281545829,752.1207999999998,mp-29666,Bi2Te2Se,https://materialsproject.org/materials/mp-29666,67.50523400066257,23.907591254433456,6.147428710810727,-7.084609763610133
-3.4361740575,-13.74469623,7.7038978520554116,-0.2986679662500005,0.0,0.0,0.4112,166,4,144.10576904010364,668.5636999999998,mp-27438,TlBiTe2,https://materialsproject.org/materials/mp-27438,65.84961052436157,23.59681547077968,4.708300344554213,-6.432711176006625
-6.342737485892857,-355.19329921,6.428015915931808,-1.9046253850892865,0.983575225,0.014611961256836238,1.6715,14,56,784.4702828973179,3036.7172,mp-1208082,VAs2Pb2O9,https://materialsproject.org/materials/mp-1208082,-13.210179501045225,-44.535617696725204,8.626075184969546,0.9753875831839952
-4.63066863625,-37.04534909,3.9545350401982935,-0.5870862657812506,0.0,0.0,1.2375999999999996,62,8,175.86567160571343,418.82,mp-2242,GeS,https://materialsproject.org/materials/mp-2242,50.85403308635567,7.357887275204415,7.398407716965085,-5.449433835298853
-5.702202867391303,-524.6026638000001,4.349786584440204,-1.5680121884745133,0.0,0.0,0.32799999999999985,85,92,1693.0677444296252,4434.9956151999995,mp-558846,Cs2As4Pd3O14,https://materialsproject.org/materials/mp-558846,-9.717578932035993,-25.505033798560127,6.952879116200683,-0.31636267501474186
-4.477550798999999,-44.77550799,7.765254451263506,-0.2344044529999998,0.0,0.0,0.0,68,10,248.59582604748996,1162.52,mp-2128,Sn4Pd,https://materialsproject.org/materials/mp-2128,33.57402812833349,35.31229097145286,-8.604250342815693,-0.5045126942092143
-6.476566606923077,-168.39073178,4.199859384692668,-0.19355133917538472,9.000000000000001e-07,2.634830774226744e-08,0.7465999999999999,15,26,398.0771136386123,1006.8224,mp-1247486,Si2Ge5N6,https://materialsproject.org/materials/mp-1247486,32.88888434376933,-7.418620353321433,6.884601494064517,-2.7729285361471097
-3.4983157131818183,-76.96294569,2.9740359922191537,-0.9173233757272724,5.000000099999999,0.06523246049462418,1.4227000000000003,186,22,893.2719168703903,1599.85569,mp-18246,K6MnTe4,https://materialsproject.org/materials/mp-18246,75.79591166533774,13.92423208400604,7.696184242640507,-4.550852750534603
-5.0922006091666665,-61.10640731,7.474787882222369,-0.7685200933333333,6.15e-06,2.0477569335659585e-07,0.0,64,12,350.00491111233504,1575.52,mp-29647,SmSb2,https://materialsproject.org/materials/mp-29647,3.70095529736844,33.5369706476968,-8.604250342815693,-0.5045126942092143
-7.858440197,-78.58440197,6.5019236984661655,-3.186134392416668,2.0000006,0.18998814297429334,2.3843999999999994,225,10,122.68205885201999,480.36774,mp-1079373,La2TiNiO6,https://materialsproject.org/materials/mp-1079373,-4.609162148077097,-7.1322966274412725,7.662043909260858,-3.400812080918737
-7.498761321818183,-82.48637454,4.420603539176695,0.06376083631545529,0.0,0.0,1.5658,155,11,202.10474869425133,538.0331,mp-1247346,Bi2(CN2)3,https://materialsproject.org/materials/mp-1247346,17.117698294501675,-13.255165572630727,7.712663405165491,-2.9286374292307538
-6.338098256710527,-481.69546751,3.840203581805085,-1.6772145369572378,3.043686125,0.023564715886006348,0.0,15,76,1505.272349545087,3481.13,mp-1218843,Sr3V5S11,https://materialsproject.org/materials/mp-1218843,19.548158206825818,13.29464213430094,-8.604250342815693,-0.5045126942092143
-6.552891377083332,-157.26939305,4.3957085521506345,-2.1999169935416663,13.999998699999999,0.7212887527660173,1.3537,5,24,226.20190740514545,598.7920999999999,mp-756056,Li5V5(NiO6)2,https://materialsproject.org/materials/mp-756056,-29.54442673993876,-50.8715759707139,6.290419736362292,0.26265347678029755
-3.2866277621428566,-46.01278867,5.4997560563126955,-0.3061073123809526,0.0,0.0,0.2852999999999999,111,14,514.1130693487191,1702.7582,mp-569813,In5AgTe8,https://materialsproject.org/materials/mp-569813,58.103821469087066,17.016383578312983,2.7335719524787527,-4.780166685368835
-5.069453425,-60.833441099999995,7.568477704979704,-0.472777135,0.0,0.0,0.05440000000000023,12,12,302.0647559498479,1376.764,mp-3650,HfCu2Te3,https://materialsproject.org/materials/mp-3650,54.25750358892262,21.239395550044332,-8.604250342815693,-0.5045126942092143
-5.9408937036363625,-196.04949222,8.111991255203737,-1.8229521084469689,2e-07,4.743281745097657e-09,1.2517999999999994,1,33,491.39247461336515,2400.5286,mp-1227674,Bi3Sb5Pb4O21,https://materialsproject.org/materials/mp-1227674,-1.3494116606365936,-30.26520642951011,8.329541673604945,0.27423792429350624
-6.309142994166668,-151.41943186,4.49326780376627,-2.016699114453125,5.00000005,0.10812970664323236,0.5118999999999998,173,24,538.8928376339836,1458.1950671999996,mp-867323,Pr3MnAlS7,https://materialsproject.org/materials/mp-867323,28.085801611937608,2.8485454732564603,3.9216012839980428,-5.487507832746079
-4.0342842207142855,-112.95995818,4.015848079097887,-1.1749387217410714,0.0,0.0,1.969,198,28,539.1967619443811,1303.9936,mp-774336,Li3BiS3,https://materialsproject.org/materials/mp-774336,50.47711351756903,10.457012880373158,3.9936011031342784,-4.973618585050186
-5.661863355,-147.20844723,2.7328704157385526,-2.3241608822223068,6.99999985,0.28336516655930577,2.1668000000000003,74,26,287.8916016755168,473.80424199999993,mp-505254,MnVH4O2F5,https://materialsproject.org/materials/mp-505254,-16.164391398366995,-50.391284755128716,8.05234851665302,0.4391459548862349
-6.072623806666668,-18.21787142,4.692579064095458,-1.1139150812847234,0.0,0.0,0.0,164,3,72.820796998196,205.787,mp-2194,TiSe2,https://materialsproject.org/materials/mp-2194,23.30668735570094,16.113990441805658,-8.604250342815693,-0.5045126942092143
-7.366515475,-265.1945571,8.00840599440613,-3.2055390831944464,2.97347325,0.06893208268586698,1.8406,62,36,502.7129386601057,2424.47134,mp-505037,BaHo2CoO5,https://materialsproject.org/materials/mp-505037,-31.60431563948114,-28.415094553237548,8.176294731279937,-3.997828384438994
-7.190829864772727,-316.39651405,3.2566584792512816,-2.7528086971255035,1.99999975,0.036822653612992515,1.9475,14,44,632.9833497762678,1241.4104960000002,mp-18436,RbVP2O7,https://materialsproject.org/materials/mp-18436,-15.416483257811976,-48.49082476833427,7.345965549323792,-0.6512160847655596
-6.933248992857143,-97.0654859,3.681852739791372,-1.4127408766071434,8.96495035,0.3541678981368985,0.0,12,14,294.99599656346373,654.08388,mvc-16792,Y(MnS2)2,https://materialsproject.org/materials/mvc-16792,21.47520388441719,16.427398118593008,-8.604250342815693,-0.5045126942092143
-7.0696630195833325,-169.67191247,6.778777640824183,-2.1810482454166675,5.0000003,0.212974081971052,2.4596,15,24,273.6029042582663,1116.9224,mp-16933,LiFe(WO4)2,https://materialsproject.org/materials/mp-16933,-4.272943368876156,-40.078985545759075,8.38296593642233,-0.1572214290919375
-4.9554065425,-59.46487851,9.532298983480237,-0.2558020224999999,1e-07,5.71377845483834e-09,0.0,62,12,203.96423950759254,1170.8536,mp-569511,NiTePd,https://materialsproject.org/materials/mp-569511,52.10846192361209,28.180452504112264,-8.604250342815693,-0.5045126942092143
-5.333014693333333,-63.99617632,10.591505370622778,-0.5444542450000002,5e-08,2.8025089522225604e-09,0.0,62,12,207.92199010314152,1326.2,mp-1851,SnPd2,https://materialsproject.org/materials/mp-1851,44.72408458625867,37.53982484563525,-8.604250342815693,-0.5045126942092143
-3.95949007,-23.75694042,6.171091591899184,-0.325736402265625,1.3000000000000001e-05,8.156467305355385e-07,0.04220000000000024,164,6,185.74566214934998,690.29,mp-1218966,Sn3Te2Se,https://materialsproject.org/materials/mp-1218966,67.19649942601437,24.94713530471129,3.4385576865733065,-5.401111122574712
-5.197822582857143,-72.76951616,6.487225174264447,-1.377625659910714,1.99759985,0.06418541846579325,0.0,122,14,362.7016633686415,1416.9660000000001,mp-34175,Ce2CdSe4,https://materialsproject.org/materials/mp-34175,54.81442015296337,0.6090278876904835,6.491630033071918,-4.754308489936046