energy_per_atom,energy,density,formation_energy_per_atom,total_magnetization_uB,total_magnetization_T,band_gap,sgr,num_sites,cell_volume,weight,mp_id,formula,URL,tsne_xrd_lin1_0,tsne_xrd_lin1_1,tsne_xrd_lin2_0,tsne_xrd_lin2_1
-7.9152577848863634,-696.54268507,7.567778193790028,-3.0763025279545464,1.9802024125,0.018235753279446185,0.0,14,88,1265.5033671718345,5767.43368,mp-1198098,La3IrO7,https://materialsproject.org/materials/mp-1198098,10.830135881267328,28.25537878108533,3.125418180766955,33.60399730666945
-6.9485365670000006,-138.97073134,5.38639413781288,-2.57868279425,5.000006099999999,0.227270704184108,0.4878,25,20,256.39202008803454,831.6748,mp-623098,Ca2FeWO6,https://materialsproject.org/materials/mp-623098,-14.411120536181755,46.283460453322505,5.76493047145387,57.367467771626565
-7.213126574772727,-317.37756929,3.292950161608493,-2.8373428748214287,4.000000175,0.08563766562815832,3.9868,14,44,544.3429685730754,1079.465296,mvc-1360,CaFeP2O7,https://materialsproject.org/materials/mvc-1360,3.192247151744718,27.6267718121811,-2.978351252178342,29.11097045550176
-2.32727298,-6.98181894,3.1198118644233266,-0.14068489051724153,1.0,0.07465386590757317,0.0,216,3,156.10798758885784,293.29485189999997,mp-1009547,CsRbAs,https://materialsproject.org/materials/mp-1009547,-23.103019663305826,13.6230565732813,-20.97121048198921,47.52173068001601
-4.508160585,-81.14689053,1.443876586352655,-0.15680570102444433,4.5e-07,2.3880171093822e-08,4.2331,14,18,219.61019990382786,190.95608,mp-1189432,Zn(H3C)2,https://materialsproject.org/materials/mp-1189432,28.088681323339497,-30.962533610858088,32.59962154751342,-53.48832559547273
-7.3333901510000015,-73.33390151,2.885164269683335,-2.021928521000001,1.9999999,0.2276418863447257,1.8888,155,10,102.38945368962824,177.9003,mp-763059,LiV(CO3)2,https://materialsproject.org/materials/mp-763059,-5.774408687437432,8.318373716660927,-14.570742781751873,49.345629629782295
-8.225152938333332,-197.40367052,7.827759990928008,0.04826723194218493,0.0,0.0,0.038699999999999964,15,24,464.43871305170416,2189.3582076,mp-1247393,CsRe2N3,https://materialsproject.org/materials/mp-1247393,28.816612434328928,-32.680506514161074,10.454339406718356,-40.46784589703282
-5.5217911725,-44.17432938,4.20574626189188,-2.1335014651562507,2.25e-06,1.4996347853700713e-07,1.9214,141,8,174.85354430337838,442.86199999999997,mp-34477,LiSmS2,https://materialsproject.org/materials/mp-34477,-10.997881637479146,-4.682568222551591,0.8455726492891331,-48.764826831640605
-3.218019678,-16.09009839,6.393381811106902,-0.2318272653333338,4.72e-05,3.4581216393657884e-06,0.0,166,5,159.06665948445342,612.4359999999998,mp-1068510,In2Te3,https://materialsproject.org/materials/mp-1068510,-22.30759797357816,-36.29845982269787,-32.65085303814507,-22.67241376500392
-5.3330480216666665,-127.99315252,8.376864542421119,-2.151311268313333,3.75e-08,1.1295360126518294e-09,2.3145,11,24,386.9088050986283,1951.8256255999997,mp-753673,BiOF,https://materialsproject.org/materials/mp-753673,7.865085132080412,-14.303672468332719,14.638194620641244,-10.57196098681192
-5.03787536,-70.53025504,3.5377895895472165,-1.6750429012029986,7.6e-06,3.473065782890334e-07,3.5772,12,14,255.022213249712,543.3265399999998,mp-1219655,Rb3H(SeO4)2,https://materialsproject.org/materials/mp-1219655,11.268405742404216,-18.88709219049314,17.346073614872424,-13.375387785664545
-7.094347835833332,-170.26434806,5.636431147944433,-2.587202268225574,0.0,0.0,3.1858999999999997,15,24,355.38040749641874,1206.2813038,mp-1213310,CsSm(MoO4)2,https://materialsproject.org/materials/mp-1213310,24.85222383938651,52.589659905867215,38.6278465984737,-0.6372823421276994
-4.376573898999999,-43.76573899,5.91187166686099,-0.8516742784760005,3.7000000000000006e-06,1.2088520629321935e-07,0.6465000000000001,194,10,356.70237062654985,1269.9362,mp-567666,Ba3BiN,https://materialsproject.org/materials/mp-567666,-14.243597629770225,25.70212731455809,-19.7231200053678,-6.594060858579158
-3.912544005,-62.60070408,3.326817685011925,-0.4413297886979173,0.0,0.0,1.6506,9,16,586.5027850702667,1175.0328,mp-1182950,AgSbS2,https://materialsproject.org/materials/mp-1182950,40.06542164787779,-36.885764936951325,28.277621705054322,-60.5104653978871
-2.13862217875,-17.10897743,3.9412443381127926,0.15459972069827588,0.6520111,0.022200445242486516,0.0,127,8,342.27149540613595,812.3721038,mp-1078821,CsK2Pt,https://materialsproject.org/materials/mp-1078821,4.242826927847571,0.3032359274819469,3.4089395895602186,-27.277354910405947
-4.211178468333333,-50.53414162,3.695960697900828,-0.5229500474844441,0.0,0.0,2.46,11,12,184.0295067268132,409.60544,mp-1102571,AgH3BrN,https://materialsproject.org/materials/mp-1102571,34.434521246486376,-32.831904983886616,8.897664019442386,-41.42285901182681
-5.242149722,-78.63224583,2.0415553090399263,-0.6158341716666664,5.0000004,0.3771863582180779,1.9012,12,15,154.48683987328675,189.93436499999999,mp-696616,MnH8(N2Cl)2,https://materialsproject.org/materials/mp-696616,27.807436071352722,-39.03680498358685,54.418569938375605,-14.170759787382732
-7.979277822166668,-478.75666933,4.5205086505194485,-3.708489764916668,0.0,0.0,4.2508,14,60,942.8091387495483,2566.6225031999998,mp-780422,LaAlO3,https://materialsproject.org/materials/mp-780422,10.716355838113806,22.385884609329953,37.20846022107782,-8.405960714530849
-5.679501104078947,-431.64208391,2.3620517079924093,-1.4571930936551325,7.584025725,0.08615676438756271,0.0,198,76,1025.8594048207767,1459.2448,mp-1194526,Mg2S3(NO6)2,https://materialsproject.org/materials/mp-1194526,61.12662106721504,-22.77573070757091,65.60733826600065,-33.952511284675396
-7.858440197,-78.58440197,6.5019236984661655,-3.186134392416668,2.0000006,0.18998814297429334,2.3843999999999994,225,10,122.68205885201999,480.36774,mp-1079373,La2TiNiO6,https://materialsproject.org/materials/mp-1079373,-30.329533753682643,49.121739738183386,-17.49036143807764,67.01260119906951
-8.490812459999999,-101.88974952,4.490392614114528,0.023070285080001682,3.1e-06,3.0526203706628017e-07,0.0,60,12,118.34947162817636,320.038,mp-1015582,CrN2,https://materialsproject.org/materials/mp-1015582,6.02981170290608,-35.93257824769153,3.1329785328284485,-32.3529228482896
-5.60393818125,-44.83150545,7.32802972381037,0.06443489875000008,7.4031287,0.2285465296173764,0.0,194,8,377.5009908653456,1665.928,mp-1183271,Ac3Eu,https://materialsproject.org/materials/mp-1183271,-11.46860300613685,-19.066247477007014,-20.26638420201279,-5.877238508614027
-2.0688252119999997,-10.34412606,4.017311367287209,0.23085205027600006,1.0016691999999998,0.04795466392303285,0.0,221,5,243.42820452696787,588.92135,mp-1004524,HPbI3,https://materialsproject.org/materials/mp-1004524,30.96581537865756,-35.82159523253625,35.10734199150685,-61.42012939716577
-4.7588566277272735,-209.38969162,5.463008914447451,-1.4220568334600316,0.0,0.0,0.8559000000000001,31,44,1813.0858215727744,5964.8727113999985,mp-1226825,Cs3Sm7Te12,https://materialsproject.org/materials/mp-1226825,-0.29296173295731925,-14.547436352291445,19.733375112015732,-14.072173477092663
-6.774552039166667,-81.29462447,3.0363938628598683,-1.966304907528735,2.9999999,0.17304158449870272,1.8334,12,12,202.04503590022728,369.4513,mp-30547,RbCr3O8,https://materialsproject.org/materials/mp-30547,65.05785842444848,-27.642725398439747,66.13707995523453,-16.80616034687423
-7.4255704425000015,-415.83194478,4.345248794550318,-2.4040709533418374,1.0000075000000002,0.01293042863536177,0.0466000000000002,62,56,901.29666283251,2358.486096,mp-554866,PWO5,https://materialsproject.org/materials/mp-554866,22.34435891892237,-14.097882477498867,45.37199221967929,-4.61293965431878
-7.218781970714286,-101.06294759,3.2271630989049087,-1.5950669174999987,0.0,0.0,2.6084,15,14,212.74510440246888,413.458,mp-542769,Sn(CO2)2,https://materialsproject.org/materials/mp-542769,25.06871275915961,-21.7585331386345,12.862957834016086,-21.605811071783194
-3.664504608,-18.32252304,6.121654615148331,-0.12811704200000024,0.0,0.0,0.15499999999999936,166,5,169.89341557414855,626.3199999999998,mp-1201,Sb2Te3,https://materialsproject.org/materials/mp-1201,-6.272197497312778,-30.32037190710928,-7.046656678619689,-27.837843625663552
-4.138822898,-82.77645796,6.109694094545026,-1.3049332674999998,1.0,0.015149478120712762,0.11770000000000015,148,20,769.2716989785907,2830.4150900000004,mp-1205326,Tb7PtI12,https://materialsproject.org/materials/mp-1205326,-24.912000624929327,-38.15242815053335,-34.19253396232415,-23.77458596735807
-7.300789197777778,-65.70710278,7.1492607477629315,-3.1090822898611115,2.9999552000000005,0.260882888990178,1.5058000000000002,71,9,134.01289885628927,576.977195,mp-19248,BaSm2CoO5,https://materialsproject.org/materials/mp-19248,-13.513751968586321,36.70349587708397,-11.487842717186375,54.096741865020704
-1.8805855475,-7.52234219,1.9700107391724624,0.04214888875000011,0.0002224,1.4793581443212165e-05,0.0,225,4,175.20192898295883,207.854,mp-1187155,SrCa3,https://materialsproject.org/materials/mp-1187155,-17.644085784987407,-50.60544861628135,-22.796133402938953,-7.221807975478726
-6.200265154583334,-148.80636371,2.8137874086450143,-2.537862777760417,0.0,0.0,5.5305,62,24,284.1367451386163,481.4704,mp-4967,MgSO4,https://materialsproject.org/materials/mp-4967,6.456828812340907,-28.06256451111818,20.053377387151823,-19.88510237087531
-7.608036836071428,-213.02503141,3.6264443873647214,-2.6572788759821413,3.99999835,0.11691496441990915,2.4638,85,28,398.71918956076536,870.7611999999998,mp-18716,SrV4O9,https://materialsproject.org/materials/mp-18716,20.0259896996362,58.5425442943001,53.065073372037475,-10.458751536163984
-6.548260809285713,-183.35130266,4.376218004629162,-2.2391685214285717,19.9999997,0.5329198906586753,1.6381,36,28,437.3664710973575,1152.6444,mp-1228024,BaSr(FeO2)4,https://materialsproject.org/materials/mp-1228024,32.72762669210529,61.28366983983626,30.36936339510399,-3.4230061664518905
-6.520281877777778,-117.36507379999999,7.697104691734946,-2.552050282083333,2.0000001,0.08793278880805472,0.3047999999999997,12,18,265.06757065790697,1228.6689999999999,mp-8837,Ba3Er2Cu2PtO10,https://materialsproject.org/materials/mp-8837,-2.171985100793276,29.779040456861342,5.081524088775828,32.729076692289034
-6.880908032727272,-151.37997672,3.019783781456505,-2.5654782663668843,4.9999995,0.20960648588408906,2.5299,4,22,277.99864011836524,505.55618656,mp-752506,NaFeP2O7,https://materialsproject.org/materials/mp-752506,49.26012142556997,-7.057741635959432,66.36548479414422,-11.457662128844627
-4.299158516111111,-154.76970658,3.6297012254012944,-0.1073777232614085,0.0,0.0,1.165,64,36,1008.7127679573956,2204.902072,mp-1202691,CuP4Se3I,https://materialsproject.org/materials/mp-1202691,28.12429911435741,7.9571287455883635,44.740289844054296,22.747023757449032
-5.701905948249999,-228.07623793,8.800713268518113,-1.6067588595000004,3.75e-07,6.2135498210935025e-09,1.9213,206,40,703.3458193050707,3727.672,mp-1204405,Bi2O3,https://materialsproject.org/materials/mp-1204405,-12.565475525583112,-24.711969065070445,-10.90717979240486,31.599264951895726
-4.12734622,-8.25469244,6.761501689431312,0.0,9.8e-05,1.909690283968005e-05,0.0,11,2,59.805422758802955,243.52,mp-1179605,Sb,https://materialsproject.org/materials/mp-1179605,-26.942928378172088,-44.398047687217094,-36.6725382955671,-23.275021766793394
-6.402809979642857,-179.27867943,3.3949202122427606,-2.514349227945647,0.0,0.0,3.9127,4,28,312.698015593874,639.3013279999999,mp-1222810,Li2InP2HO8,https://materialsproject.org/materials/mp-1222810,31.835326947175002,-14.625482589678723,49.10306824448841,-18.500405402182093
-5.505049439166666,-66.06059327,4.476566777508087,-1.6880954638541668,5.5e-07,1.742780992242086e-08,1.2717,187,12,367.7877859260855,991.5012800000001,mp-1207611,YSI,https://materialsproject.org/materials/mp-1207611,-19.44998167699056,12.274413576311334,-14.900997776644314,10.954175700478746
-6.986376246000002,-69.86376246,6.573244800833129,-3.1401154612500006,1.0,0.06700442816659546,0.0,140,10,173.92976988899574,688.5011,mp-2939,BaTbO3,https://materialsproject.org/materials/mp-2939,-18.266762490335463,-51.05824917405899,-24.72942697986976,-5.536366388831688
-8.572137844285715,-240.01985964,3.2835621906883765,-3.4558134921726187,4.5e-07,1.3806996208139043e-08,2.6104000000000003,85,28,379.8312876018897,751.0812,mvc-10066,CaTi4O9,https://materialsproject.org/materials/mvc-10066,27.580573486800336,-28.16797419102122,38.809639540217184,-6.770084714088199
-8.8129503021875,-564.02881934,3.816397492455328,-3.406667812447917,5.9999880999999995,0.09227179096455564,0.0,11,64,757.8074427844083,1741.66,mp-766100,MgTi11O20,https://materialsproject.org/materials/mp-766100,17.80556129917027,3.2561348125704903,63.42559345274945,33.30292607923719
-3.3983206325,-13.59328253,6.9774427929769525,-0.08810811916666683,0.0,0.0,0.0,166,4,115.38269501876331,484.8282,mp-12360,AgSbTe2,https://materialsproject.org/materials/mp-12360,-26.795812823034957,-40.09426466836616,-36.03900815580095,-21.01299248375283
-6.509839877068965,-377.57071287,2.661968134565523,-2.347678993990661,8.007601600000001,0.15434356156089055,0.0,203,58,604.6323330593627,969.2708,mp-770526,Li6Fe2B4SO16,https://materialsproject.org/materials/mp-770526,-0.1355644800408917,-31.8866041331024,28.826501138953127,-47.40329830298407
-7.270788806,-72.70788806,7.136663952911266,-3.1292079012500005,0.0,0.0,1.814,225,10,167.7812797437725,721.0903099999999,mp-1079615,Ba2UCdO6,https://materialsproject.org/materials/mp-1079615,-21.102715328265358,6.70642051402523,-33.29192579284522,48.118390595271165
-6.517922859444443,-117.32261147,7.646758306238588,-2.5485078648611106,1.9716818,0.08644840410389333,0.3065000000000002,12,18,265.8014065877039,1224.01164,mp-558231,Ba3Ho2Cu2PtO10,https://materialsproject.org/materials/mp-558231,-2.1962317603274557,29.77679839755491,5.143959294125941,32.71927921141525
-7.731634697272727,-85.04798167,3.3719138381066966,-2.5478592781818183,0.0,0.0,3.116,164,11,202.4506863722439,411.0992,mp-510456,Zr(MoO4)2,https://materialsproject.org/materials/mp-510456,5.493617134400141,-34.27941798215615,49.09307365780431,-7.871059940125041
-6.0382403128333335,-362.29441877,2.8999993154436163,-1.8885328500086191,3.0000037833333333,0.05884804312564265,3.0368,148,60,594.1104674329645,1037.566662,mp-1182617,CoPH3O5,https://materialsproject.org/materials/mp-1182617,41.57972050564212,-52.04653560946517,36.28867854191378,-57.121354680899145
-4.5864730718367355,-449.47436104,3.977570429168787,-2.787899589302857,4.0020322,0.016831977804728032,0.0,83,98,2770.912784091755,6637.303000000001,mp-1229199,Ba17SrSm12Cl68,https://materialsproject.org/materials/mp-1229199,5.067130493117516,-26.169399445448413,17.724515316907784,-20.496419952961446
-3.59495447375,-201.31745053,4.1638006115981305,-1.009269575669643,3.47458605,0.01681045086341822,0.0,227,56,2408.802191775273,6040.07,mp-563032,Ba21Si2O5,https://materialsproject.org/materials/mp-563032,11.062369660815657,18.95533414590655,28.358556428899966,-2.5512854880517484
-7.502925705833332,-270.10532541,3.1368001103041565,-2.8292539513840995,0.0,0.0,5.305300000000001,19,36,519.4964058280272,981.3418075999999,mp-3977,CsB3O5,https://materialsproject.org/materials/mp-3977,8.671492298219162,-28.42631372935326,22.46050993709597,-16.646030621538614
-4.944285236969698,-163.16141282,1.5354460656999398,-0.12716360222545509,2.000016,0.0602962368661047,0.0,148,33,386.5633615231207,357.44248,mp-1179169,SrB12(H3O2)4,https://materialsproject.org/materials/mp-1179169,30.953680641222945,-24.55564198757441,15.598252736577587,-42.41460534576994
-2.4586543823076923,-31.96250697,4.681513285184255,-0.2795177448717948,0.0002274,4.407377710851168e-06,0.0,87,13,601.2950337238674,1695.215,mp-1105101,Ba9In4,https://materialsproject.org/materials/mp-1105101,8.579410656858533,-25.001980586982604,22.109804173042747,-17.722143040294586
-8.156424444583333,-195.75418667,3.759844983053152,-3.159794523005833,1.8333333333333333e-06,5.602951367871662e-08,1.9508,74,24,381.330909614435,863.4214992000001,mp-673845,NbO2F,https://materialsproject.org/materials/mp-673845,6.276959687876152,-34.61224496127307,48.81359277185046,-6.600964312033191
-5.4928051303125,-175.76976417,3.870590026102671,-1.7783789129296883,0.0,0.0,3.0276999999999994,60,32,449.98810539003824,1048.888,mp-16771,MgSe2O5,https://materialsproject.org/materials/mp-16771,20.469283864997827,-12.43568567096317,44.12301027578682,-0.8891810769018278
-7.466516899054054,-552.52225053,2.8270011503363364,-2.634020841020271,4.0000029999999995,0.06307754815744365,3.7653,15,74,739.0314844844203,1258.17147712,mp-704915,Na2Ni2(B4O7)3,https://materialsproject.org/materials/mp-704915,42.239841705000146,-52.483600037702,35.882867579455365,-55.383749266823386
-8.14923674,-32.59694696,8.601204136188196,-0.2796894331249993,1.0304285,0.2517028128394333,0.0,38,4,47.70975877076162,247.1254,mp-1018064,ErFeC2,https://materialsproject.org/materials/mp-1018064,-35.67125984980971,28.743103484666317,-55.62556348700683,33.61461323235994
-8.034066151428572,-56.23846306,5.532692420688467,-1.828861665144286,0.0,0.0,2.0526,42,7,104.99639319563455,349.83384,mp-1223241,La2C(NO)2,https://materialsproject.org/materials/mp-1223241,-23.335946579148608,33.917174012581995,-18.633986032142182,41.02393081352324
-8.699189879999999,-382.76435472,6.052950681321901,-3.7466607794318185,0.0,0.0,2.8480000000000003,62,44,682.1280998505191,2486.47436,mp-560349,La3NbO7,https://materialsproject.org/materials/mp-560349,22.220464060513873,56.1646361008554,-1.3308139628644242,35.25499770913277
-1.55592224125,-12.44737793,2.3248890403011133,0.04171816012500007,0.0493191,0.0014075954953768472,0.0,194,8,408.33320922959433,571.6995385600002,mp-1186184,NaSr3,https://materialsproject.org/materials/mp-1186184,-17.778772553768878,-35.7737744625931,-15.297302213149846,-29.915289317449368
-1.591339758125,-25.46143613,2.7413741147228907,0.07278400187500011,1.2554758,0.021028751685187624,0.0,225,16,695.7805443053169,1148.66,mp-1094270,Sr3Mg,https://materialsproject.org/materials/mp-1094270,-18.21625913899184,-50.005894051844244,-22.940202970089704,-7.15711491042879
-4.217738634807692,-219.32240901,4.718577978940608,-2.601084469280703,7.99999985,0.09134928547323487,4.9957,14,52,1020.615716361402,2900.1756226,mp-563023,Cs7Ni4F15,https://materialsproject.org/materials/mp-563023,11.863391306162994,-22.14238412457552,27.73937088575728,-11.357447818107085
-6.654112737435898,-259.51039676,5.512404326708698,-2.4240071528594878,24.999578500000002,0.5002033292699869,0.37970000000000015,38,39,582.4565533198103,1933.5504600000002,mp-1228330,Ba8Mn6Co2ClO22,https://materialsproject.org/materials/mp-1228330,-7.669301065221089,30.0944857912183,3.617356571283503,51.492142574882486
-9.6680485515,-193.36097103,5.602060619318169,-1.0381326039279997,0.000228875,8.306922688249935e-06,1.2406,2,20,321.0965329667152,1083.264048,mp-1246967,ScWN3,https://materialsproject.org/materials/mp-1246967,33.787516287804195,-34.90185050864059,45.93345695937413,-33.41002428975102
-3.479101615,-13.91640646,5.106885028936842,-0.4881375859049997,0.0,0.0,0.4521999999999995,156,4,90.08828370371118,277.06094,mp-978852,SrGaSnH,https://materialsproject.org/materials/mp-978852,-23.869260692845806,-38.27460653761889,-35.290506238197395,-17.588891266297267
-7.435765178313254,-617.1685097999999,3.3863902417427187,-2.320428046957833,5.000000099999999,0.05507875397466392,0.09840000000000004,1,83,1057.945592868879,2157.5022,mp-760797,LiV24O58,https://materialsproject.org/materials/mp-760797,28.22270152299004,-25.085855793499732,55.2488208319522,-9.031022842496046
-6.567827006875,-105.08523211,6.702848777377479,-1.7691450615625,13.962455100000001,0.5512161051540716,0.0,115,16,295.2006565081664,1191.592195,mp-1219165,Sm4Fe3Co(AsO)4,https://materialsproject.org/materials/mp-1219165,-17.97047391715298,23.800777927435583,-22.360040350926734,45.233283710276616