energy_per_atom,energy,density,formation_energy_per_atom,total_magnetization_uB,total_magnetization_T,band_gap,sgr,num_sites,cell_volume,weight,mp_id,formula,URL,tsne_xrd_lin1_0,tsne_xrd_lin1_1,tsne_xrd_lin2_0,tsne_xrd_lin2_1
-8.82347495095238,-741.17189588,5.298203066165791,-1.1147948437409512,0.0003124916666666667,2.553783652141709e-06,2.2735000000000003,205,84,1426.040189882296,4549.9987200000005,mp-1029502,Ba(NbN2)2,https://materialsproject.org/materials/mp-1029502,2.821448398953652,25.84063833215078,27.511530556148877,-2.354350895516184
-7.10871624,-99.52202736,5.550935098632215,-2.912511142815713,6.9999994999999995,0.4263429450839194,0.0,38,14,191.34466401180373,639.63676,mp-1218441,Sr3LaMn2O8,https://materialsproject.org/materials/mp-1218441,-23.39769461538046,38.88466766823132,-14.810894026469295,59.15938427226734
-4.95799027,-9.91598054,8.63589684649479,-0.8956602068749993,0.0,0.0,0.0,160,2,43.25986608594415,224.9798,mp-27945,BiO,https://materialsproject.org/materials/mp-27945,-12.378806338030815,-24.37707656645928,-10.436318883763306,31.396768184784754
-8.150385902307693,-105.95501673,5.488344149335389,-3.261305012179487,1.0000003,0.0681640126132966,0.08370000000000033,115,13,170.9709833969749,565.08614,mp-1223151,La2Ti2CuO8,https://materialsproject.org/materials/mp-1223151,-0.5770301641945262,25.252205436019914,-7.253020245779233,30.423900486664987
-5.898738526428572,-82.58233937,6.178151129442553,-2.0889570985714285,1e-07,5.279488041881686e-09,3.4441000000000006,40,14,220.74232728834846,821.2872,mp-20496,Ga2PbO4,https://materialsproject.org/materials/mp-20496,4.401308985508559,26.271082792837053,20.464043935104392,-17.616549927564147
-4.447079895,-35.57663916,4.27398493365852,-0.44008214625,1.36e-05,9.194039559223593e-07,0.0,194,8,172.38916570443413,443.70453160000005,mp-12553,PrAl3,https://materialsproject.org/materials/mp-12553,-1.9638703828429973,-26.67549155103425,-3.23448576360691,-24.21321618858534
-7.7968388117857135,-218.31148673,5.881345705484301,-3.415830459809524,0.0,0.0,2.1972,57,28,349.89983917181235,1239.28547712,mp-1210307,NaLuTiO4,https://materialsproject.org/materials/mp-1210307,-0.5003152268290778,25.32302681381871,19.198245918962613,54.13844377400429
-4.2959734025000005,-51.55168083,5.263982540781662,-1.4186101019980246,0.0,0.0,2.1028,63,12,374.8337377067058,1188.2396038,mp-573710,CsTbZnSe3,https://materialsproject.org/materials/mp-573710,1.638286555795667,1.3390299010702906,-2.155481440330885,-10.59417958052456
-1.52435709,-6.09742836,7.111342769619586,0.004480770000000023,2.02e-05,1.4565480664877938e-06,0.0,194,4,161.6233022596777,692.16,mp-1187875,Yb,https://materialsproject.org/materials/mp-1187875,26.070537548972627,63.511273829209344,-19.84225896518753,39.140951145042884
-4.127853834,-165.11415336,5.798311285439116,-0.7224581565833332,0.0,0.0,1.8105,61,40,647.8466517503705,2262.16696,mp-1202188,AgIO3,https://materialsproject.org/materials/mp-1202188,1.9236059317641605,25.871488456855307,20.90225235041124,-14.908533735730085
-7.691554069545455,-169.21418953,6.742506639127673,-3.3272323171590923,0.0,0.0,2.5901000000000005,63,22,328.2811890542405,1332.9636,mp-769366,Nd3SbO7,https://materialsproject.org/materials/mp-769366,27.123793623104266,63.905035574546005,-9.127865381814377,35.93080884361995
-1.523424125,-3.04684825,7.009806471154732,0.005413735000000086,5e-07,7.10768000633945e-08,0.0,194,2,81.98219927012227,346.08,mp-141,Yb,https://materialsproject.org/materials/mp-141,-14.604209818224573,27.581398167276195,-21.13696878067359,40.446730480957754
-7.786763873888888,-140.16174973,5.968729110654326,-3.5151794248611106,1e-07,5.572962284950935e-09,3.9214999999999987,15,18,209.1179551677568,751.664608,mp-28072,La2Be2O5,https://materialsproject.org/materials/mp-28072,24.7283321056553,33.827125403668816,10.242406054600195,20.46523718473616
-7.2060716881632665,-353.09751272,4.72373110836192,-2.3537596466326542,52.0000002,0.9424016698450524,1.3268999999999995,8,49,643.0499752866058,1829.2826,mp-1248168,Y4Fe13Si2(SbO14)2,https://materialsproject.org/materials/mp-1248168,12.821091580486591,36.80998777064779,0.3710219345854964,67.22710587042403
-8.252934976818182,-181.56456949,5.541795411805202,-3.4243527032954564,0.0,0.0,2.8054,63,22,299.9228496902859,1000.9467,mp-981511,Y3SbO7,https://materialsproject.org/materials/mp-981511,14.782712358535724,63.795282436926705,-5.453254720760857,39.94191750815164
-5.011882076666667,-120.28516984,6.31829702564376,-0.3308822933333335,0.002847225,4.568903710641733e-05,0.0,216,24,726.2517810293417,2763.3643999999995,mp-1209444,Pr4MgRh,https://materialsproject.org/materials/mp-1209444,-3.8517480126907433,79.96735985093069,-10.195978338923581,47.57822098845406
-5.534715516666666,-33.208293100000006,4.139995569181621,-0.3799042961165841,1.3757511,0.09133905478805836,0.0,129,6,175.53381154997902,437.6345178,mp-1077378,CsMnP,https://materialsproject.org/materials/mp-1077378,-0.6532154757163932,11.696886510421235,6.291885105151113,22.423136372270342
-6.833197454722222,-245.99510837,6.552628140990094,-2.526157597916667,1.999999775,0.045280730172832934,0.35530000000000017,33,36,514.7471525743855,2031.236,mp-768866,Sm2Cu2O5,https://materialsproject.org/materials/mp-768866,-5.649409000726623,31.27692575748652,-0.2403341084738021,52.423688336744654
-7.5387286692307685,-196.0069454,7.878692184625602,-0.6106590889743586,5e-08,2.2011078092613827e-09,0.0,55,26,264.73180285681696,1256.06224,mp-21902,Th2FeB10,https://materialsproject.org/materials/mp-21902,-2.035209499418572,6.771170690846741,12.045117359829968,6.9821474588232215
-7.616752458,-457.00514748,6.311551838844825,-2.8376072211086667,10.999999775,0.1778533026201947,0.0,62,60,720.7890322382797,2739.65094,mp-1218259,SrNd2Mn3O9,https://materialsproject.org/materials/mp-1218259,-25.60843914880623,51.32623435737755,-10.975072348420882,68.01944176378684
-3.7955671215,-75.91134243,7.416491109756607,-0.7348907565000005,1.625e-06,2.4822046729163618e-08,0.0,52,20,762.9449522048986,3407.5528,mp-1214332,BaSrBi3,https://materialsproject.org/materials/mp-1214332,20.102733968593217,31.59844381653699,5.223198333926853,16.5196490220088
-3.810685313636364,-83.8350769,5.967236628334156,-2.3189895487172727,0.0236922,0.0008559004892958815,1.8991,137,22,322.59641962768933,1159.2676384,mp-28855,Cd4OF6,https://materialsproject.org/materials/mp-28855,24.986221328455137,61.88462390926643,-8.02285530883788,34.15676911618283
-5.28293288625,-42.26346309,5.818607115442233,-0.44829904624999983,4.2058327,0.19705935005124775,0.0,139,8,248.7324082597585,871.57009,mp-29206,BaMnSb2,https://materialsproject.org/materials/mp-29206,0.25047843751738874,10.713392616908127,1.182330570680801,48.237927807101876
-4.667271539,-93.34543078,3.3747174871446184,-0.08487069571428592,3.25e-07,1.0165511307572112e-08,0.9672999999999998,92,20,372.59031410064006,757.2161920000002,mp-14587,ZnP4,https://materialsproject.org/materials/mp-14587,5.473385253845652,21.01986592768665,-7.149977391506018,26.17475247259282
-6.270742696,-125.41485392,8.726727859163821,-0.12392340325000005,0.0027028000000000004,0.00010830360141801475,0.0,220,20,290.83618508400775,1528.4484,mp-9546,Yb2C3,https://materialsproject.org/materials/mp-9546,-21.06193879408142,25.026574284189532,-24.613788249447545,37.50984372515761
-7.271441632142857,-203.6003657,5.516436802787251,-3.266917252857143,0.0,0.0,3.033,62,28,490.316954307246,1628.87016,mp-756599,La2ZnO4,https://materialsproject.org/materials/mp-756599,23.909052833708504,53.79834293848359,-0.6344073321481907,36.50023984301388
-7.739390552000001,-154.78781104,6.277609119832876,-2.8846702175670003,15.0000036,0.7214062660273274,0.0,229,20,242.31978813503486,916.08139,mp-1218242,SrLa3Mn4O12,https://materialsproject.org/materials/mp-1218242,-29.527291072505182,50.914446221398876,-17.109243748780365,66.95598161414635
-7.655103533571428,-107.17144947,5.759275774532968,-3.591832506428571,0.0,0.0,2.7973,63,14,247.62934906273938,858.8570800000001,mp-752533,SrLa2O4,https://materialsproject.org/materials/mp-752533,4.969735807570299,15.623306801018574,3.4649324774895693,32.827581952576516
-6.331096106666667,-56.97986496,5.230440104764479,-2.4091808902777783,0.0,0.0,2.7813,162,9,135.60554243972055,427.1364,mp-9126,Sr(SbO3)2,https://materialsproject.org/materials/mp-9126,0.8599603070301363,-35.17370802143472,-8.337788733612582,-41.1059970739724
-6.254723972058822,-212.66061505,4.819589278948988,-2.643467220735294,3e-07,7.4375354962255825e-09,2.6358,12,34,470.07768010548347,1364.365,mp-543034,Ba3Zn6Si4TeO20,https://materialsproject.org/materials/mp-543034,15.171333938875305,33.37052486149824,27.084094041193925,37.32040888882696
-6.99624071,-279.8496284,7.1057874055617924,-0.5605065699999997,0.0,0.0,0.16519999999999954,128,40,695.7904130367532,2977.4300000000007,mp-505681,Sm2Si5Ru3,https://materialsproject.org/materials/mp-505681,-37.96087944545393,2.2223463350496178,-26.82634044222088,12.949578146664535
-8.78772690736842,-166.96681124,6.53473117749395,-3.9320824386842106,4.0000001,0.15641929745391414,0.0,148,19,298.02115860659586,1172.8048,mp-2629,Ce7O12,https://materialsproject.org/materials/mp-2629,30.72641535768561,63.42379207136518,-10.429630528849447,33.401259811641225
-5.655853493,-395.90974451,5.433307144367506,-1.9543302154375,0.0,0.0,1.6285000000000005,146,70,1498.9594046442285,4904.6163,mp-1217757,Tb9Ga5S21,https://materialsproject.org/materials/mp-1217757,7.568385830115599,-5.811947573082204,12.411352380364145,-11.856627039783659
-3.3458564564285718,-46.84199039,4.59176089502075,-1.3278246432142855,7.05e-06,1.4239976202093155e-07,1.9732,63,14,576.9753788947263,1595.4656400000001,mp-756578,LaMgI5,https://materialsproject.org/materials/mp-756578,6.432935674755296,-4.644052166741555,4.3629269203082535,5.032071407737467
-4.246134905,-127.38404715,7.652099233494747,-1.2727368016562504,0.0,0.0,0.5628999999999998,152,30,475.1298285624962,2189.4942,mp-560316,Hg3SO6,https://materialsproject.org/materials/mp-560316,-10.430387957711847,31.46428936859333,-13.800877136641686,18.189082332093527
-7.6923086110000005,-76.92308611,11.906691667754462,-1.055562209,9.485e-05,6.571036128782177e-06,0.0,129,10,168.22127013356575,1206.21,mp-1079089,Dy(SiIr)2,https://materialsproject.org/materials/mp-1079089,-47.28238090912665,27.196623344695844,-28.58306101345049,34.2122651021022
-7.5138921984375,-240.44455035,3.7246946571097777,-2.677291765344106,9.999999800000001,0.2919509923199564,2.8032000000000004,15,32,399.1787952789836,895.3834207999998,mp-18822,Mn2PO4F,https://materialsproject.org/materials/mp-18822,14.052644513530705,33.85053098670327,28.05834159227365,37.934635019238335
-8.303854595999999,-41.51927298,8.450712351491038,-3.94104100325,6e-07,9.30300113512224e-08,2.8706,160,5,75.16325927486771,382.5162,mp-1225560,Er2O3,https://materialsproject.org/materials/mp-1225560,10.15406273576792,66.45708511810535,-12.15163246934708,40.29033980549745
-7.577202577272727,-166.69845669999998,3.9556314664548977,-3.173027698212122,0.0,0.0,3.3011,148,22,307.9932188595751,733.68203856,mp-1182342,BaNaY(BO3)2,https://materialsproject.org/materials/mp-1182342,-7.786417655064869,13.943002347525454,7.546521540879808,31.250308106646052
-7.185992455,-86.23190946,5.802220229690486,-2.796461794166666,0.0,0.0,3.7516,88,12,160.16744986255404,559.6537,mp-754109,PrAsO4,https://materialsproject.org/materials/mp-754109,25.64416924224073,58.4120779044278,-14.148070295671983,37.57112920138409
-7.7946934395000005,-311.78773758,6.6547764015408255,-2.9489846665000004,15.99999925,0.383316840216491,0.8243999999999998,25,40,486.45143666292915,1949.50282,mp-1076611,La3SmCr2(FeO6)2,https://materialsproject.org/materials/mp-1076611,-29.92678936711577,50.4160424727201,-17.03042460998318,66.80802717800465
-6.135912635,-98.17460216,5.074469075854613,-2.2497298589090624,4.0856426,0.19463675132585545,0.0,129,16,244.63182401875682,747.5744900000001,mp-20239,Sr2MnCuSO3,https://materialsproject.org/materials/mp-20239,-26.72008848241137,48.921236127122896,-14.259307177145232,63.317593920117474
-9.105950449285713,-127.48330629,5.36574627915858,-3.3595792787380967,6.9999999000000015,0.4512201183384858,2.2347,129,14,180.79524588332905,584.20873856,mp-15275,NaGdTiO4,https://materialsproject.org/materials/mp-15275,-5.005306854331182,20.44630925596665,2.73228943187816,48.25905486220449
-4.609052722,-23.04526361,4.192358766664524,-1.3007650755166664,1.9996412000000001,0.29138778778313856,0.0,221,5,79.97571979242535,201.9145,mp-974734,KInO3,https://materialsproject.org/materials/mp-974734,-24.43397557897527,9.290597056510288,-13.302062857611974,-22.705083509177108
-7.651778121052632,-290.7675686,7.538734636509282,-3.311889225462895,20.000000399999998,0.4130557486692537,2.0882,87,38,564.2853316138086,2561.8171399999997,mp-17339,Ba5Ho8Mn4O21,https://materialsproject.org/materials/mp-17339,-6.53935842536746,34.872452831102464,-2.0385017691519125,50.070382111009614
-8.802132902391303,-404.89811351,8.140925574014178,-3.022293571286231,0.0,0.0,2.5972,127,46,621.2919661362001,3045.9336,mp-1212958,DyTa5Ag2O15,https://materialsproject.org/materials/mp-1212958,9.338001007440543,32.61120469727265,31.20818625083781,36.42637459573957
-7.3735666260000015,-36.86783313,6.494912159319183,-0.5964702344999993,3.5520134,0.5117171916851386,0.0,139,5,80.89506256430545,316.4070900000001,mp-13473,Sm(MnSi)2,https://materialsproject.org/materials/mp-13473,-60.33356673207035,15.380528345130449,-60.37151188432364,24.831522236598268
-3.5560685339999996,-17.78034267,3.0822352110987588,-1.7001306961973792,7.000000000000001e-06,4.854791477870409e-07,2.6417,160,5,168.03698733462974,311.90445189999997,mp-22988,CsGeCl3,https://materialsproject.org/materials/mp-22988,-20.17429491803302,-24.31975068403405,-16.34265438970974,-22.097517754357348
-6.1225662975000015,-146.94159114,5.533175335373444,-1.9329666723697934,0.6599564,0.016122791878826388,0.0,173,24,477.0373946689666,1589.5630772,mp-1191911,Dy3AlFeS7,https://materialsproject.org/materials/mp-1191911,7.204488452536094,-3.735421184059656,10.53984989660374,2.738496707292944
-10.254281572,-51.27140786,10.786850930736918,-1.863050499764499,3.9683578,0.5603491128084163,0.0,164,5,82.53336676148987,536.13622,mp-5739,U2SN2,https://materialsproject.org/materials/mp-5739,-16.00017833692106,28.81198274163341,-23.48729180096403,42.65522627207401
-5.4348518142857145,-76.0879254,5.423396658963387,-1.658683238571429,7.135e-05,3.641164722076461e-06,2.1205000000000003,5,14,228.3658073694456,745.8532,mvc-7295,Zn(SbO2)2,https://materialsproject.org/materials/mvc-7295,29.297051394173927,25.0658702341155,35.15220069061677,39.23881730521493
-7.784548221666667,-93.41457866,5.94816647841913,-2.808122554166668,0.0,0.0,2.3578,119,12,186.79599437238517,669.1162599999999,mp-1217380,ThV2PbO8,https://materialsproject.org/materials/mp-1217380,-14.329248264295375,1.150147212280353,27.211742255473126,-0.1909572433117236
-6.177134922083333,-148.25123813,4.717128755870778,-1.9476223788281253,0.0,0.0,0.32230000000000025,173,24,520.9997315465557,1480.0150772000004,mp-1190721,Nd3AlFeS7,https://materialsproject.org/materials/mp-1190721,7.027210924544544,-6.204571413218588,12.095921026608886,3.321148923681248
-5.771651295000002,-138.51963108,5.225675550752414,-1.844816665911459,0.0,0.0,1.7942,173,24,515.8737456992578,1623.442,mp-555978,Sm3CuGeS7,https://materialsproject.org/materials/mp-555978,9.716303612265556,-4.097761662785234,12.524020606722994,4.229102336725965
-4.112439401666667,-24.67463641,2.3493547164113235,-1.2680487243750005,2.5e-07,2.3305732823354698e-08,1.0004999999999995,36,6,125.0128547865393,176.87,mp-1185953,MgS2,https://materialsproject.org/materials/mp-1185953,-11.48135938933368,-25.56377337998099,0.29250489049385353,-27.31760781499264
-5.413104140833332,-64.95724969,5.051537338444529,-0.09381861369563184,0.371602925,0.016000368417328745,0.0,62,12,270.661552576028,823.3813876,mp-1029491,CsCoN,https://materialsproject.org/materials/mp-1029491,5.727193835777984,18.123159243856342,28.87078124854032,-2.335302765231533
-5.918709438571428,-41.43096607,7.2109278702257775,-0.7849091464285708,0.0044503,0.00036342022658230076,0.0,44,7,142.71105641275355,619.72595,mp-1217636,Tb3Si3Ni,https://materialsproject.org/materials/mp-1217636,-33.89089043510455,24.231495493438825,-0.07667496160861179,22.93570114221509
-2.15698107125,-17.25584857,3.7136698028878463,0.16652643216379293,0.5285565,0.01920008152815204,0.0,127,8,320.82320473096013,717.4968,mp-1079567,K2RbPt,https://materialsproject.org/materials/mp-1079567,-1.5495886506592151,22.891127306847373,-10.401394018848725,-19.601155162516886
-3.0490237566666667,-18.29414254,6.701442960689089,0.126815998333333,0.00012425,9.458110543502788e-06,0.0,118,6,153.0979725105087,617.8580000000002,mp-1077536,ZnSb2,https://materialsproject.org/materials/mp-1077536,-22.53948315467321,15.172857932180904,-21.018994161329786,42.446929218828394
-2.439785783333333,-87.8322882,6.584803876941312,-0.4925838629629627,0.0,0.0,1.0507,190,36,1367.3469276170695,5422.1618,mp-28043,Tl3AgI5,https://materialsproject.org/materials/mp-28043,1.5042252742643083,28.313344251951683,0.5140938837091716,17.451326043960865
-4.301189877142857,-30.10832914,7.327921888047722,-2.06517656068,2.9999993,0.2837763866289648,0.0,139,7,123.20329600061649,543.6934077999998,mp-1206757,Tl2CoF4,https://materialsproject.org/materials/mp-1206757,-9.654322759609556,-16.738905102393044,-31.883658708674027,-19.021653315812987
-9.540823986551725,-276.68389561,10.792370223628712,-3.3875292174568963,14.627716,0.4218879195673895,0.0,1,29,404.07023247646623,2626.18068,mp-677724,U8Bi2O19,https://materialsproject.org/materials/mp-677724,24.751830503437624,63.719398842104596,-9.515759233123305,36.72948141104916
-7.0341437035,-140.68287407,5.350314039311089,-2.24463180575,1.987638875,0.098647817487364,0.0,62,20,234.81586094567996,756.5848,mp-20947,CaRuO3,https://materialsproject.org/materials/mp-20947,-23.98673645030011,51.13390161125796,-6.6817268970590495,67.42881361377555
-8.00883457,-32.03533828,5.828401274244128,-2.47231960390625,6.9007728,0.7951476977293341,0.0,166,4,101.14102502160992,354.99947000000003,mp-1222958,LaEuS2,https://materialsproject.org/materials/mp-1222958,-33.151782637421626,-29.69473701926349,-42.32064015874375,-7.208131903536738
-6.970966631052632,-264.89673198,7.979207564576273,-3.2865381000986846,3.5000000000000004e-06,7.474269175927595e-08,3.3681,87,38,545.7286290321057,2622.3304,mp-6416,Ba5Er8Zn4O21,https://materialsproject.org/materials/mp-6416,-6.215527323274603,35.673392427398795,-1.9338065792116248,49.52976840884532
-8.647314803250001,-345.89259213,7.605230949344421,-4.071543645500001,0.0,0.0,4.047700000000002,5,40,586.6385443418354,2686.79116,mp-759638,Y5Tm11O24,https://materialsproject.org/materials/mp-759638,16.587801614737273,58.677117719666384,-2.553125073984191,38.88688409495751
-7.290646434090909,-160.39422155,6.2206706593310495,-2.7061148922463643,10.000002199999999,0.3891552190654934,1.1579999999999997,166,22,299.4709248520346,1121.87064,mp-1192218,Pr3Mn2Sb3O14,https://materialsproject.org/materials/mp-1192218,14.831154156629387,63.047856181938066,-8.229422372067999,38.13533599243005
-6.95029234469697,-1834.8771789999998,2.943204598080432,-3.4174212635606063,0.0,0.0,4.2749,205,264,3658.5983933559114,6484.643452800001,mp-12147,Ca3Al2O6,https://materialsproject.org/materials/mp-12147,-13.414839912958007,66.51299197333323,-9.486660955953614,73.15737063730523
-10.76207469,-129.14489628,11.100593116670883,-3.9729425453125033,5.00000005,0.3613256509142837,0.0,141,12,161.26816432228608,1078.0669599999999,mp-675479,PuPaO4,https://materialsproject.org/materials/mp-675479,25.11294333516989,64.69954488144623,-11.141854636213212,36.21850611676461
-3.52633444625,-28.21067557,2.43967310558414,-2.1682826779662068,0.0029258,0.00015337305639454352,5.1482,63,8,222.31716256499027,326.6296,mp-28243,RbLiCl2,https://materialsproject.org/materials/mp-28243,25.016380394817677,5.461748114861966,0.4943525768175439,15.251377267007339