energy_per_atom,energy,density,formation_energy_per_atom,total_magnetization_uB,total_magnetization_T,band_gap,sgr,num_sites,cell_volume,weight,mp_id,formula,URL,tsne_xrd_lin1_0,tsne_xrd_lin1_1,tsne_xrd_lin2_0,tsne_xrd_lin2_1
-8.330431285625,-133.28690057,8.235167558198661,-0.3292052974999997,0.0,0.0,0.0,140,16,294.40945670940573,1460.0748,mp-7557,Nb5SiSn2,https://materialsproject.org/materials/mp-7557,-55.16348820497297,-8.473026588693573,-58.328072499989894,-1.303485662979169
-7.191444158333333,-43.14866495,10.80172845541822,-0.2977517766666651,0.0,0.0,0.0,191,6,103.52924105061348,673.45285,mp-11562,TbRh5,https://materialsproject.org/materials/mp-11562,-48.23174206803442,-18.030124886770512,-55.6878616458136,-17.962638242109087
-7.328441689999999,-87.94130028,8.549613613908807,-1.0523510795833328,9.000000000000001e-07,5.303457306360065e-08,0.0,74,12,197.77020327335168,1018.2589999999999,mp-1103026,NdSi2Rh3,https://materialsproject.org/materials/mp-1103026,-44.9970216594709,-9.581253752046198,-51.53209193424786,5.0095741156776485
-6.212522997500002,-124.25045995,5.0528941986788585,-2.8253922182499998,0.0,0.0,3.2057,14,20,288.48199378832766,877.8288,mp-11982,Sr2CaTeO6,https://materialsproject.org/materials/mp-11982,-24.47256217621687,25.488964492749254,1.1114645635004006,59.70828403219346
-5.0796859225,-60.95623107,10.564101007785252,-0.36378409750000057,0.5850006666666666,0.0414115046645061,0.0,166,12,164.63144038249226,1047.3606,mp-1095559,YbNi3,https://materialsproject.org/materials/mp-1095559,-63.63217055943364,-16.451881617368965,-53.237765853855215,1.4255803749328015
-8.742708099583334,-209.82499439,4.4080221771358135,-0.4130083139583327,0.0012355,5.370085760516933e-05,0.0,55,24,268.12601639180286,711.760096,mp-608543,Sc2CrC3,https://materialsproject.org/materials/mp-608543,-30.71047967796943,3.160340719175903,-16.185190458308007,23.69813295230713
-9.7282847,-175.1091246,13.949400724871099,-0.862872733333333,6e-07,2.467210498165521e-08,0.0,46,18,283.41476613912755,2380.833,mp-1189249,HfSiOs,https://materialsproject.org/materials/mp-1189249,-50.774706499480175,-10.895129571945324,-57.35149474202652,2.3811518345018996
-6.63558676,-106.16938816,4.47189941498893,-2.2393561154166663,17.0000008,1.2701429476472317,0.3874000000000004,12,16,155.98174270365038,420.0652,mp-755734,Li3Ti(FeO2)4,https://materialsproject.org/materials/mp-755734,-6.2426912989985945,-61.18842921047163,-23.887774238800606,-63.87966235963772
-6.2155577375,-49.7244619,5.24602790655571,-0.8689914585714282,0.0,0.0,0.0,129,8,135.72879787149495,428.7987480000001,mp-30208,YCuP2,https://materialsproject.org/materials/mp-30208,-38.11125008969653,-16.798997639740772,-64.36365553752783,-15.993711238556015
-7.396207600416666,-177.50898241,8.688298129252917,-0.6531569731944439,4.775e-06,2.3237416300253697e-07,0.0,55,24,239.4765346109713,1252.9928400000001,mp-971813,TmB4Ru,https://materialsproject.org/materials/mp-971813,-37.60663574934239,-11.815785064681187,-38.00005626833801,-10.625325114510252
-7.27289426,-14.54578852,4.0410429672564705,-1.4226065761899995,2.3e-06,1.5914404249845725e-06,4.448799999999999,225,2,16.842822738493112,40.9882386,mp-1330,AlN,https://materialsproject.org/materials/mp-1330,-50.07781003573135,-41.55262399683721,-65.14793471719989,-25.729931283906318
-5.268999909333333,-79.03499864,2.738784984286972,-0.13895264577777766,0.0059229,0.0004900607205546012,0.0,191,15,140.85164826774388,232.3115386,mp-1222150,Mg4AlB10,https://materialsproject.org/materials/mp-1222150,-52.22054344516805,-17.867707021723007,-59.99094794347373,-46.03234021450039
-6.766638684473683,-257.13227001,10.562773964446377,-0.08801223888158018,6.22234655,0.15522931282124455,0.0,194,38,467.15165076147207,2971.5756,mp-567327,Pu2Ni17,https://materialsproject.org/materials/mp-567327,-57.54220837184704,-22.74963815412923,-58.692890051231785,-14.191750331088539
-3.778982215,-22.67389329,9.104456355657053,-0.28620294999999923,1e-06,1.2857966272084526e-07,0.0,187,6,90.63692131360945,496.94699999999995,mp-1215637,YbGaCu4,https://materialsproject.org/materials/mp-1215637,-50.04751734065616,-15.797157845106824,-53.22317284127468,-17.721094744834023
-6.0505870775,-72.60704493,7.6174079067057825,-0.2758881783333346,7.1226842999999995,0.5187088595809369,0.0,166,12,160.0285452108068,734.1006,mp-567249,GdMg2Ni9,https://materialsproject.org/materials/mp-567249,-58.92754915845622,-24.776814685366613,-60.26862568270636,-18.82912047349339
-7.759131569166667,-279.32873649,8.054208412767483,-0.7472872159920629,1.536948,0.04044027939571817,0.0,62,36,442.9171066991335,2148.306424000001,mp-1200877,HoFe5P3,https://materialsproject.org/materials/mp-1200877,-64.5856797644017,-28.960533643405256,-64.94783703449048,-15.41496581381762
-4.624389138571429,-32.37072397,9.176121721655802,-0.21471422857142844,2e-07,1.6320522969097063e-08,0.0,166,7,142.81484477705382,789.1933689999997,mp-568925,Ni2Sn4Au,https://materialsproject.org/materials/mp-568925,-31.59534150740784,-42.06021462228917,-36.823947592614296,-17.97809504425113
-7.0016085860000015,-70.01608586,8.205608873181836,-2.141468081250001,5.000000099999999,0.4368439933274147,0.4621000000000004,123,10,133.38932414833806,659.14778,mp-1205888,NbFe(PbO3)2,https://materialsproject.org/materials/mp-1205888,-27.962852441668574,33.6504278436789,-19.72078027590617,60.23808412808851
-6.671631136666666,-40.02978682,16.432744034121644,-1.1112748049999996,4.55e-06,4.706865926736891e-07,0.0,227,6,112.65669245843105,1114.854,mp-480,ErPt2,https://materialsproject.org/materials/mp-480,-72.97568470575936,-7.75005161654908,-75.81591795075808,-10.537601010656775
-4.565312744,-45.65312744,6.3565280973612825,-0.2707032679999998,2.25e-06,2.093365069534569e-07,0.0,99,10,125.26073984835013,479.4969544,mp-1228962,Al2Cu2Ni,https://materialsproject.org/materials/mp-1228962,-47.49977306889476,-49.63176283159821,-66.41710481093672,-44.31231738267326
-8.056655084166666,-96.67986101,11.54637830836517,-0.8193004524999997,0.0,0.0,0.0,62,12,179.67910358957667,1249.3791800000001,mp-9801,HfCoAs,https://materialsproject.org/materials/mp-9801,-52.13895944171222,-8.48127076365664,-58.31358759410595,1.211862529670228
-7.556665575,-90.6799869,3.4626182080079357,-0.9032047244047624,0.009183133333333334,0.0004717607139342071,0.0,194,12,226.8540544404977,473.04457199999996,mp-696572,TiP,https://materialsproject.org/materials/mp-696572,-41.5284230423694,-19.272050977513768,-49.38392097443077,-60.14743926066229
-6.914011287999999,-103.71016932,5.9378307053092465,-2.378388952044667,4.0000003,0.21735275607422794,0.0,160,15,214.47283866296283,766.9216899999999,mp-1228085,Ba3Mn2RuO9,https://materialsproject.org/materials/mp-1228085,-8.752136062302284,29.554325361758785,0.9830685039088164,24.01343810144841
-5.0409137,-20.1636548,1.6063143157448017,0.2410238533750002,0.0,0.0,3.5031000000000003,71,4,72.3639764497925,70.00093856000001,mp-11180,NaC,https://materialsproject.org/materials/mp-11180,-41.58377798229507,-19.196506645542488,-50.608550852838185,-26.31037531893794
-8.372265576428571,-117.21171807,4.275428349815863,-3.036193509761905,2.2996752999999996,0.182866892520728,0.0,2,14,146.5577750713831,377.3457,mp-753565,LiTi4VO8,https://materialsproject.org/materials/mp-753565,-6.994323092067669,-63.2521469099776,-25.074741332978267,-62.8530172735819
-6.61486926,-52.91895408,8.502890922166102,-0.5570239750000008,0.0,0.0,0.0,194,8,129.03696309825838,660.7416,mp-3469,ZrNi2Sb,https://materialsproject.org/materials/mp-3469,-48.56980168865668,-28.290451584328817,-60.17831268717378,-15.982016896492604
-6.063817983863637,-533.61598258,3.4253723818159068,-1.166693236581693,0.90003665,0.007291058658448602,0.0,201,88,1438.6231009982732,2967.602519,mp-583424,Cs5CeCu2(NO2)12,https://materialsproject.org/materials/mp-583424,-23.619181796244693,-25.69821526683733,-0.006378980559791359,-18.416310621525085
-7.792241532380951,-163.63707218,7.8909979803980885,-0.714076758333333,1.0875818000000002,0.04999248283917152,0.0,174,21,253.53309183367432,1204.8070340000004,mp-1191561,Tb2Fe12P7,https://materialsproject.org/materials/mp-1191561,-64.3623047018713,-29.701603777457265,-65.17310535449538,-15.836868578382065
-5.882653354666668,-88.23980032,5.91244969385375,-0.5181558513333339,20.9633845,0.6407773026731902,0.0,164,15,381.2691863395736,1357.5320000000004,mp-1218845,Sr2Eu3Ge10,https://materialsproject.org/materials/mp-1218845,-54.92458265308323,21.781399270876072,-58.52845971460169,9.506720527000567
-7.071173350526316,-268.70458732,8.292399653880262,-0.004056394210525277,9.3642629,0.20443905712176827,0.0,194,38,533.8105542077337,2665.74308,mp-1237201,Dy2Mn12Ga5,https://materialsproject.org/materials/mp-1237201,-53.9227500999944,-22.45630597994095,-55.09918203726159,-9.517034102218997
-5.8945257025,-47.15620562,8.7100491451059,-0.2271651243750004,1.0330143,0.12065398064854105,0.0,146,8,99.77967986194236,523.3757800000002,mp-1224863,GaCo4Ge3,https://materialsproject.org/materials/mp-1224863,-71.61279934078759,-33.616339969058906,-76.22288965297672,-18.004556611749997
-7.622391811111112,-68.60152629999999,10.027547202361584,-0.3212183077777774,5.660000000000001e-05,4.713813797703843e-06,0.0,153,9,139.9334157934256,845.0201400000002,mp-1217900,TaSiGe,https://materialsproject.org/materials/mp-1217900,-54.507783111350676,-14.521297529313069,-47.4940156181279,-18.237293118728246
-5.71435223,-34.28611338,8.326220542239255,-0.4699233966666678,2.4e-06,3.305676707638081e-07,0.0,187,6,84.61128515537071,424.2551386,mp-1225335,DyAlNi4,https://materialsproject.org/materials/mp-1225335,-53.13850905294001,-15.146920194206029,-54.388328551867644,-4.356745340336381
-8.763414366666668,-52.58048620000001,10.724219002110322,-0.2937313416666664,6.9699717,0.7809074609759509,0.0,191,6,104.0180888439604,671.7775,mp-571283,GdRh5,https://materialsproject.org/materials/mp-571283,-48.23533731478477,-18.04242262040488,-55.61286301251667,-18.05018869795001
-4.966406090454545,-109.26093399,5.604126495090092,-1.2009649970454552,5.99988635,0.33229912615412444,0.0,63,22,210.4220524445965,710.15,mvc-843,Mg(Ni2O3)2,https://materialsproject.org/materials/mvc-843,-34.33146439949834,5.414086269109414,-42.589914443861524,-4.582683173096428
-9.4923191875,-151.877107,13.85914370069736,-0.3491286481249993,1.5e-07,6.497974178439049e-09,0.0,140,16,269.0238015540848,2245.3188,mp-17615,Ta5Ge3,https://materialsproject.org/materials/mp-17615,-65.92753422819641,-11.573484651653516,-64.4856065043365,0.006753546929625492
-4.582156791428573,-128.30039016,8.801539376930121,-0.463746897857143,5.96e-05,1.5948024591057085e-06,0.0,63,28,435.52871170893934,2308.48117,mp-1194094,Lu2(Ga3Co)3,https://materialsproject.org/materials/mp-1194094,-52.17331634384529,-5.930973199832928,-47.54674220652946,-0.5776807559072771
-9.04546326,-108.54555912,11.654520918708426,-0.8362258516666651,0.0,0.0,0.0,62,12,177.78051691592978,1247.7555200000004,mp-20436,TaSiRh,https://materialsproject.org/materials/mp-20436,-52.470230933362906,-8.527322366413728,-58.6512596515146,2.128226832738042
-5.835159876111112,-210.06575554,9.010280766548476,-0.7931332150000006,8.8e-06,1.8692473087658586e-07,0.0,189,36,548.6474128789098,2977.0256,mp-1202354,Yb5Zr3(Ni4As3)4,https://materialsproject.org/materials/mp-1202354,-49.49674896935094,0.9243922402737792,-54.47492985075258,18.771570405529047
-5.6789716218181825,-62.46868784,16.763978509837447,-0.35113620196969725,2.56e-05,1.6147790228055797e-06,0.0,123,11,184.75844308354561,1865.2296,mp-1102174,In2AsPt8,https://materialsproject.org/materials/mp-1102174,-56.05236341167728,-35.055960254520805,-63.35432137338073,-30.991458613902232
-7.55333410125,-120.85334562,3.994172027198543,-2.9888515047916666,1.5625e-05,1.2614248740957085e-06,0.0,74,16,144.356406640376,347.2272,mp-772030,LiTiO2,https://materialsproject.org/materials/mp-772030,-8.787512270332597,-64.82021616780807,-25.88111840060214,-62.0967399610769
-1.7513623535294116,-89.31948003,8.924056071584488,-0.1678581797058821,4e-07,4.406742040458185e-09,0.0,160,51,1057.8395254874486,5685.0329999999985,mp-1227077,Cd43Pd8,https://materialsproject.org/materials/mp-1227077,-76.65927156025234,2.6850374798969896,-65.46514964125048,12.06917018902556
-5.924427610833334,-71.09313133,4.7486320861879605,-2.0456385872916667,8.999999800000001,0.8638441115997427,0.0018000000000002456,12,12,121.41841243553313,347.2194,mp-773162,Li3Fe2SnO6,https://materialsproject.org/materials/mp-773162,1.0493194849384044,-60.13557815048292,-12.638094783917149,-60.102011465911254
-8.555526074814813,-230.99920402,8.349472850351571,-0.032242631384445136,38.939855200000004,1.2654637275755014,0.0,12,27,358.6097213583072,1803.1507,mp-1220727,Nd2Fe20Mo4N,https://materialsproject.org/materials/mp-1220727,-52.407101424876224,-24.019210251595517,-54.13559273317954,-11.053721348722961
-9.0280352625,-144.4485642,5.619730091380875,-1.0377426246424992,0.00737425,0.0005331369851301835,0.0,194,16,161.19682097850168,545.5352772000001,mp-1189472,AlV4N3,https://materialsproject.org/materials/mp-1189472,-51.687517002457525,-35.53617844356684,-69.61004191573394,-30.01731732593289
-3.421053485,-27.36842788,5.396137884995558,0.20827729375000012,6.87e-05,5.483068334684978e-06,0.0,194,8,146.01938203289782,474.509,mp-1184029,Ga3Si,https://materialsproject.org/materials/mp-1184029,-47.043632075576355,-32.06254633601417,-57.36650589521175,-28.327582146547705
-9.253327660833332,-111.03993193,8.043992601382719,-0.4246034328571421,0.0,0.0,0.0,124,12,190.550323518364,923.064954,mp-21447,Nb4CoP,https://materialsproject.org/materials/mp-21447,-76.63893738117505,9.09035530976173,-65.39008053334949,8.21615789945167
-8.633108393499999,-172.66216787,10.552735785021383,-0.1433370315000005,4e-06,2.0018746036054002e-07,0.0,186,20,232.86303251103905,1479.846,mp-17535,B3Ru7,https://materialsproject.org/materials/mp-17535,-61.135055531719885,-22.574551671798115,-59.94667335138292,-9.947859612883759
-6.2430398999999985,-37.4582394,9.111368339855623,-0.2303582483333327,4.1534443,0.5675648821588158,0.0,65,6,85.28453824927512,467.95578,mp-1225686,DyGaCo4,https://materialsproject.org/materials/mp-1225686,-52.00564446613401,-17.183454112141117,-53.71608197473075,-14.590245680270714
-8.932798755555558,-160.79037759999997,8.248670714524076,-0.6646402705555547,2.1633333333333332e-05,9.399624042657202e-07,0.0,46,18,268.21952321592005,1332.3712799999996,mp-1188541,NbSiRu,https://materialsproject.org/materials/mp-1188541,-50.90900461247899,-10.165946427141758,-57.522876729107615,1.5635723391990928
-7.73535838,-162.44252598,7.3714092264961115,-0.6423158188095242,1.1996881000000001,0.05310281541073217,0.0,174,21,263.28628183136664,1168.771634,mp-1191863,Pr2Fe12P7,https://materialsproject.org/materials/mp-1191863,-64.59462438345972,-29.212281385851174,-61.04593525614385,-13.360200375483696
-4.447119896666666,-66.70679845,4.347001980634041,-0.11107115776190428,0.0,0.0,1.1474000000000002,160,15,295.6891222136516,774.0626199999998,mp-1227011,Cd3(CuP5)2,https://materialsproject.org/materials/mp-1227011,-17.060617697574624,-4.298429703551029,-8.968704205697014,-1.9329431284340488
-3.8745031880000003,-38.74503188,4.3343037676277145,-2.074843863047333,1.0,0.08852855597638104,0.3092000000000001,2,10,131.6418713038642,343.6088192,mp-757915,LiAgF3,https://materialsproject.org/materials/mp-757915,23.900616931850234,2.01485261079025,16.89416156791943,1.6539385978278778
-5.639895805,-45.11916644,10.03938622532491,0.23182870440499934,1.975e-05,2.087760528525344e-06,0.0,167,8,110.24625483298568,666.5334,mp-1078568,Pd3N,https://materialsproject.org/materials/mp-1078568,-47.573051751195905,-32.05677234568982,-59.67803329353351,-30.82082813652329
-8.734340039444444,-314.43624142,10.882293063778448,-0.5654183649999993,0.87484905,0.026228612095085247,0.0,55,36,388.71852837469703,2547.45528,mp-1195876,U2B6Mo,https://materialsproject.org/materials/mp-1195876,-35.823798060346384,-10.232443817857042,-37.60204176063413,-12.193943680487482
-10.15069804625,-81.20558437,14.352740089577033,-0.09021940562499964,3.77e-05,3.879676027910311e-06,0.0,194,8,113.24611610989321,978.834,mp-862630,ReRu3,https://materialsproject.org/materials/mp-862630,-55.83263022984732,-47.13264927265726,-66.21949041595964,-36.10681208318445
-5.0997233725,-61.19668047,12.517281031104842,-1.0302523841666662,0.0,0.0,0.0,62,12,233.88652139639882,1763.056,mp-22453,YbGePt,https://materialsproject.org/materials/mp-22453,-52.617621917927586,12.904222204507954,-37.90811306555892,20.730075224779046
-6.7007634760000006,-368.54199118,8.551164110827205,-0.7869643856493512,1.1202446000000001,0.01980433489187728,0.0,174,55,659.2194689085408,3394.737328,mp-568202,Yb6Co30P19,https://materialsproject.org/materials/mp-568202,-63.894960723377494,-29.53791880342865,-65.45926746482985,-16.52169164727232
-7.380276305,-14.76055261,3.955309109890481,0.3987290131250001,0.2705902,0.13185616461462654,0.0,221,2,23.916027944817625,56.966612,mp-1009748,ScC,https://materialsproject.org/materials/mp-1009748,-34.71769254977025,-26.137944293886513,-61.827132940199,12.319155114834695
-8.079253845,-80.79253845,6.3693308774975845,-1.46006600475,0.08782715,0.007379144242846997,0.0,140,10,138.70758738474206,532.0408,mp-760414,Ti3PdO,https://materialsproject.org/materials/mp-760414,-47.115734903031466,-41.64124858989127,-59.775915138946296,-23.64718184612061
-8.872641685,-53.23585011,4.661597247995972,-2.8108704127083337,0.3415440666666667,0.05831981524214564,0.0,221,6,68.25084508738814,191.5992,mp-755300,TiO,https://materialsproject.org/materials/mp-755300,-48.91122043971958,-39.72765141913051,-56.04652586096033,-22.576385223925676
-2.458165793578948,-467.05150078,8.29744111207431,-0.32205878305263186,0.47493795,0.0019545539856775486,0.0,63,190,2831.826428333734,14150.172000000002,mp-1208530,Zn74Pd21,https://materialsproject.org/materials/mp-1208530,-59.50927573439611,-30.90192132316598,-65.33849905781254,-40.269340016430895
-8.027064835,-48.16238901,6.150368651014728,-0.27633190333333363,2.7553077,0.3796212629903653,0.0,227,6,84.58571090352079,313.291824,mp-540,ScFe2,https://materialsproject.org/materials/mp-540,-76.0271660872799,-21.502447813971873,-69.91477018464917,-7.800741961383159
-7.224248659166666,-86.69098391,4.929529863969943,-0.935947813385417,0.00061195,2.10942049892786e-05,1.3869999999999998,156,12,338.088348965637,1003.66,mp-1026910,MoW(SeS)2,https://materialsproject.org/materials/mp-1026910,-7.3665804745516015,-82.01795286543512,-21.898056634625444,-50.796637531203785
-6.227842581527778,-448.40466587,3.6277483096735827,-2.2181174002749997,28.997348499999998,0.5345141922355601,0.8902000000000001,1,72,632.2320016201892,1381.225325,mp-777958,Li24Mn5Cr7O36,https://materialsproject.org/materials/mp-777958,-11.108931341534236,-68.87139153357973,2.9148768119022503,-81.39336636339891
-6.52893467,-104.46295472,10.295311565702503,-0.8260086196874994,8.35e-06,3.069334920136493e-07,0.0,71,16,317.0440612800444,1965.6673600000001,mp-16965,LaTm(Ge2Ir)2,https://materialsproject.org/materials/mp-16965,-47.09429808577532,17.324052375572293,-31.76609593463441,29.75450911897577
-5.933766726111112,-106.80780107,9.064153389638491,-0.8063612977777781,0.7160289333333334,0.024922483567015662,0.0,12,18,334.82407745018816,1827.6576,mp-574159,CeAs2Pd3,https://materialsproject.org/materials/mp-574159,-34.952115536519564,17.544963683877988,-24.037892359644562,17.15813625473979
-6.5279190975,-26.11167639,6.068739000464808,0.10209481083333304,0.0054126999999999995,0.0009167606288967073,0.0,221,4,68.8074448292447,251.4692,mp-621131,Ti3Ag,https://materialsproject.org/materials/mp-621131,-48.301481343911036,-41.99190729915958,-63.59205564624435,-25.776252436525212
-7.077076875833334,-84.92492251,4.5020881041728815,-0.9635496183854179,0.0010039,3.4637864676709615e-05,1.4277000000000002,156,12,337.7666531805407,915.76,mp-1027524,Mo3W(SeS)4,https://materialsproject.org/materials/mp-1027524,-7.408900611220419,-82.01040752152025,-21.934718212998185,-50.686236773098