energy_per_atom,energy,density,formation_energy_per_atom,total_magnetization_uB,total_magnetization_T,band_gap,sgr,num_sites,cell_volume,weight,mp_id,formula,URL,tsne_xrd_lin1_0,tsne_xrd_lin1_1,tsne_xrd_lin2_0,tsne_xrd_lin2_1
-5.556629547499999,-133.35910914,3.891198388014761,-1.7772810677187494,0.0,0.0,1.7396,14,24,351.70526595859525,824.1630765599998,mp-561190,NaAu(SO4)2,https://materialsproject.org/materials/mp-561190,40.75924158562593,-40.15968563330229,38.14982308718084,-54.707218747157576
-4.547544448,-45.47544448,4.774545469912342,-2.6476024124053787,0.0,0.0,1.7497000000000005,225,10,175.87620416804188,505.69659228,mp-1111979,Cs2NaRhF6,https://materialsproject.org/materials/mp-1111979,-17.48576655622438,-49.709452714565614,-24.86104499357532,-8.535604999931596
-7.175047237777778,-258.30170056,3.3750459005456013,-2.565764982142857,4.0,0.08776077123177525,1.9245,15,36,531.1742186850856,1079.6116960000002,mvc-2240,CaP4WO12,https://materialsproject.org/materials/mvc-2240,40.22998440557906,-35.32015298019165,46.21682291052347,-29.71281138479595
-6.229985801818183,-411.17906292,4.42200557516757,-1.7191029332954542,0.9999999833333332,0.011950283487693655,0.23039999999999994,13,66,975.2123947793024,2596.9848,mvc-6675,ZnCuMo2O7,https://materialsproject.org/materials/mvc-6675,18.835502911504605,-14.680064348608859,48.26149385490397,-3.2202876902084614
-3.4604922778571434,-96.89378378,3.640193174368545,-0.9397148688308192,0.0,0.0,2.3029,198,28,1122.2520652866165,2460.1736,mp-17912,Rb3SbSe3,https://materialsproject.org/materials/mp-17912,6.681189186008594,-22.982968542821933,16.760578341960024,-19.16464081800368
-7.33706386475,-293.48255459,8.71930014284346,-4.423745113595,0.0006925,1.6251528812812855e-05,5.639399999999998,62,40,496.5957324971654,2607.5672640000007,mp-17673,Lu3O2F5,https://materialsproject.org/materials/mp-17673,6.762720931647363,27.75876864796669,32.20262638293265,-5.889295264437293
-5.830953173399999,-291.54765867,7.862907673116668,-2.1620200204499995,0.00256755,3.60636007868659e-05,0.0,12,50,829.7117690389687,3928.8128,mp-1228869,Ba5BiPb4O15,https://materialsproject.org/materials/mp-1228869,-20.882411985930666,7.560412888151895,-31.419232576660328,47.64171749177887
-3.8409421416666665,-23.04565285,7.178473137987679,-0.5335651866666667,1.5e-07,9.21919790299836e-09,0.016600000000000392,194,6,189.6162479943528,819.7067999999998,mp-31145,BaCuBi,https://materialsproject.org/materials/mp-31145,-11.793412811696506,23.486355598978363,-11.794696639995609,-10.324266456624175
-5.846935585,-70.16322702,3.895407150024487,-2.1140264230989576,0.0,0.0,3.2537000000000003,88,12,156.0492897426208,366.0712,mp-1095230,CaSeO4,https://materialsproject.org/materials/mp-1095230,25.53994978643001,58.12620408167578,-6.730055794079022,33.99996839090859
-2.87002127625,-22.96017021,5.307849226266297,0.4258999362499996,0.47651930000000003,0.01378156994910545,0.0,194,8,402.9574865623543,1288.03812,mp-1183363,Ba3Th,https://materialsproject.org/materials/mp-1183363,-18.233416782727378,-36.18358778343071,-15.421217469468047,-30.25166390195703
-6.5365208925000005,-130.73041785,3.114073709476456,-2.3906326788392875,6.999984700000001,0.3366021260416083,0.005199999999999871,166,20,242.35816945090454,454.5037398,mp-1179134,SrAl3(PO7)2,https://materialsproject.org/materials/mp-1179134,-11.229772715021177,10.189921754890587,-8.901343334698877,27.11625445798057
-6.5104987508333325,-156.25197002,6.09761888413818,-2.4334162757900004,0.0,0.0,2.0003,129,24,351.2988651235825,1289.99472,mp-1190994,NdHO,https://materialsproject.org/materials/mp-1190994,-12.821221369379316,-24.78245903217361,-11.34542270192158,31.7955533976604
-4.01491,-80.2982,4.823896257492998,-0.5114457907499996,1.3500000000000001e-05,2.652656709811832e-07,0.0,42,20,593.1030345827003,1722.9751544,mp-567067,Ba7Al4Ge9,https://materialsproject.org/materials/mp-567067,-8.011299503464281,34.79490860916081,-10.329393112543542,22.458731702466174
-8.326685118,-41.63342559,6.221514705899551,-3.15056222825,1.0000001,0.1490404534196315,0.41359999999999975,221,5,78.19397801450262,292.96811,mp-545712,LiUO3,https://materialsproject.org/materials/mp-545712,-6.123820143169877,-33.57455378643365,-1.0643019745293414,-31.4430640061827
-6.0496496154166675,-145.19159077,4.278271166056045,-2.099121483619792,2.99999995,0.06470275746883329,0.04489999999999928,173,24,540.3509077927134,1392.1790772000004,mp-866517,Ce3MgAlS7,https://materialsproject.org/materials/mp-866517,8.515595222344281,-4.6286554217070455,11.687136344777155,4.469293056304786
-5.132895146666667,-61.59474176,3.3101761155438734,-0.09631569166666648,3e-07,1.127670661570358e-08,1.473,12,12,310.0390522618709,618.0426,mp-1863,SiAs,https://materialsproject.org/materials/mp-1863,7.270205943498441,20.412854636182264,29.63880010043293,-0.4889270975325622
-7.881578991111112,-70.93421092,6.401770035557543,-3.3415592925000004,2.0000063000000003,0.1734964653604058,0.0,139,9,134.3439643989813,517.9277,mp-1226529,CePr2O6,https://materialsproject.org/materials/mp-1226529,-11.125930904399524,-25.44127291012414,-1.4510038835403545,-28.167254721483264
-5.776648255,-92.42637208,1.859916149480024,-1.3977390319699996,0.0,0.0,2.5213,14,16,303.92377073957937,340.4152,mp-29200,KNO2,https://materialsproject.org/materials/mp-29200,9.052120493647571,-24.572054933133554,37.113555112819206,-49.316474167621784
-8.651695662857144,-242.24747856,4.808902533057464,-2.4738266786607137,1.00000015,0.018958993398940645,0.11800000000000001,71,28,614.6985905549496,1780.16026,mp-1193479,U3O11,https://materialsproject.org/materials/mp-1193479,43.08999804888653,-41.637447976272654,41.725779802802,-53.777462525297686
-6.3517491885,-127.03498377,4.996089037416686,-2.56083244675,0.0,0.0,3.2412,36,20,305.81452252051264,920.1088,mp-557070,Ca2BiAsO6,https://materialsproject.org/materials/mp-557070,7.228851933843887,13.511910394408224,36.5247345581134,-7.0431490073797525
-4.044724238888889,-145.6100726,5.241143124408271,-2.5181435676822215,0.0,0.0,2.3067,144,36,607.3114783255627,1916.8512767999998,mp-27209,KTlF4,https://materialsproject.org/materials/mp-27209,15.366239089189222,-25.410282108289604,9.441779088527452,-22.897588448575288
-7.93375307,-126.94004912,3.4640637147863367,-0.27890714182461185,0.9999976,0.04563854765871033,0.0,225,16,255.3551197543424,532.6983488000002,mp-640345,Cs2MnFe(CN)6,https://materialsproject.org/materials/mp-640345,-0.20545648581033346,-34.48307841480303,49.40582182162633,-8.111965576644584
-6.832502201612903,-423.6151365,4.789258590752972,-0.5933073076699664,6.15e-06,4.887350267502064e-08,0.0,167,62,1466.4899061526464,4229.590038,mp-685609,Cs10(Mo2N5)3,https://materialsproject.org/materials/mp-685609,8.92446498615259,27.82909300295497,31.920003507884356,3.415447460673712
-7.442974360714286,-208.4032821,5.531448951705756,-3.032137212,0.0,0.0,2.0755000000000003,61,28,417.88517607981413,1392.02419424,mp-17560,Na2UO4,https://materialsproject.org/materials/mp-17560,21.417275458889783,-2.9918740345431454,37.886368526087395,-8.359120229533563
-7.409242184705883,-251.91423428,5.669854103759108,-3.1672775639705892,3.66e-05,7.053192679479862e-07,2.3702,36,34,604.7456663372195,2064.88352,mp-758845,Ba5Nb2O10,https://materialsproject.org/materials/mp-758845,-20.53809979781382,12.224570186709125,1.1268094652762062,27.256598374186048
-5.775028983888888,-103.95052171,9.913326083490828,-0.985595867222222,3.02e-05,1.0111768137344187e-06,0.0,44,18,348.0625261090506,2077.914,mp-1106394,ErGePd,https://materialsproject.org/materials/mp-1106394,-52.58549518462306,13.787541231732158,-37.79498007874413,21.514594700820442
-6.060339185833333,-145.44814046,4.2184562962969085,-2.509474938274167,1.0000079125,0.01782365921435325,0.0,61,24,653.8588314100064,1661.072,mp-1213844,CeSCl,https://materialsproject.org/materials/mp-1213844,4.6179326535232095,-30.063840687685733,18.843699312870072,-16.393404252102652
-8.445113424,-253.35340272,3.5394922517709344,-3.3100188285083334,1.63e-05,5.18600768819263e-07,1.7662,8,30,366.2957465821386,780.77113856,mp-850251,Na2Ti9O19,https://materialsproject.org/materials/mp-850251,19.137082944104346,0.5384015682718933,21.13869345552234,-22.84310544253876
-7.820263799999999,-93.84316559999999,4.823707371006863,-2.8126871785008354,0.9999991,0.06319412283531466,0.0,25,12,184.41674258652398,535.71303,mp-1222940,LaNb2CuClO7,https://materialsproject.org/materials/mp-1222940,1.8628174460620768,10.518692580169821,8.811083303861164,28.40027902777591
-2.7852771575,-11.14110863,0.8881304686747502,1.302808658333333,2.9999999,0.04167066793336747,0.20009999999999994,71,4,839.0120649896494,448.741138,mp-1096022,LiTiAu2,https://materialsproject.org/materials/mp-1096022,41.25351265928647,-57.97649378592986,26.51098644065503,-69.63013599139373
-6.33455911359375,-405.41178327,5.6070221228756,-2.0522641496875007,0.9962885375,0.01341626545456422,0.8391000000000002,61,64,865.4279529206664,2922.228,mp-1239339,MgCrBiO5,https://materialsproject.org/materials/mp-1239339,4.45915530618269,30.131084794211308,35.75672995008529,-6.41065831497311
-7.6800916754545465,-168.96201686,4.052527194165058,-2.7631230644668188,0.0,0.0,4.3725000000000005,143,22,319.8192710186727,780.5154,mp-554885,Ba3Si6N4O9,https://materialsproject.org/materials/mp-554885,5.603794865242323,-20.99965107882839,13.60218855351276,-13.8292570978133
-2.7405648875,-21.9245191,2.435928939076573,-0.30618916680999986,1.9775e-05,1.0445682917722012e-06,4.4860000000000015,19,8,220.62619810752048,323.64776,mp-32684,HBr,https://materialsproject.org/materials/mp-32684,-14.5013762387241,-41.27306303362753,-13.444706565742324,-29.52187131880431
-5.246477938,-52.46477938,4.641944680283256,-3.01295866495538,1.9999999,0.13584229088804484,0.0,225,10,171.58226813859042,479.648703,mp-1112580,Cs2LiNbF6,https://materialsproject.org/materials/mp-1112580,-18.619684311878622,-48.69803269780492,-25.459720354892372,-8.455343679076767
-6.527038419375,-208.86522942,3.1396218464064822,-2.386167978333334,4.999999275,0.19056397348606316,2.5281,33,32,305.7782347189727,578.1424000000002,mp-768312,Li2FeBO4,https://materialsproject.org/materials/mp-768312,19.588012084432766,3.6450516562027016,66.07619189091079,24.20661984032311
-5.75163808,-40.26146656,5.65887313532,-2.8829638485542866,6.1e-06,6.036027663114944e-07,0.0,107,7,117.77579408230815,401.3626064,mp-1227333,BaSrPd(OF)2,https://materialsproject.org/materials/mp-1227333,-19.955376655138853,14.582172669479053,-20.166351680337428,45.270752895143325
-6.146898955652174,-141.37867598,1.7833756657302229,-0.37071957497782587,4.0000003,0.15440066862448704,0.5700000000000001,2,23,301.91749169061006,324.25152,mp-540639,FeH8C4(S2N3)2,https://materialsproject.org/materials/mp-540639,41.881576283046016,-12.330665007754689,41.004290192857496,-28.21164376636691
-6.9322622575,-194.10334321,5.337985205170373,-2.5831079160714294,1.7225e-05,3.985607846727268e-07,1.9096,2,28,503.66537157481997,1619.08768,mp-1193901,HoMoBrO4,https://materialsproject.org/materials/mp-1193901,34.80622338599835,-7.421242632142443,44.39998103686804,-6.481287003818643
-4.356868147884616,-679.67143107,5.159862261528908,-1.5291780848033336,0.0004545,1.8404694044353336e-06,3.3694,29,156,2877.9464773300374,8942.7632,mp-683967,Cd7Te7Cl8O17,https://materialsproject.org/materials/mp-683967,9.831324119627986,23.90225755871166,25.93033483774499,-26.27490691604249
-4.1875015684090915,-184.25006901,2.7912348102866487,-1.5616443940174385,3.845e-05,3.3858044894825766e-07,3.0016,33,44,1323.4632770346386,2224.6371088,mp-1194520,Rb4Al2S5,https://materialsproject.org/materials/mp-1194520,8.862342713814787,28.26217693194377,31.28997073824225,-0.19442588142552125
-3.2607590991666666,-39.12910919,1.266689217223402,-0.29119507457999977,0.0,0.0,4.8004,88,12,183.82259049668085,140.22319720000002,mp-644486,KAlH4,https://materialsproject.org/materials/mp-644486,-9.247715358918843,-25.56714687339878,-2.267573650977118,-29.2707063280398
-5.163732865,-41.30986292,5.066045675552761,-1.1813964397916663,4.135e-05,3.4224075796817884e-06,2.377,5,8,140.80601656163626,429.5772,mp-997022,AgAsO2,https://materialsproject.org/materials/mp-997022,12.540119303035855,2.8215055211951614,23.45183616599793,-5.078912930870943
-7.600527071212121,-501.63478669999995,3.3780812108887597,-2.5412631844426405,7.999999866666666,0.113734727987907,2.6129,15,66,819.7365771738188,1667.613144,mp-554453,Cr2P2O7,https://materialsproject.org/materials/mp-554453,6.7466011678096525,25.752991890541573,50.577001604702644,3.154306459710038
-6.8578920254166675,-329.17881722,2.6660650388615537,-2.531403575982777,3.9999998,0.09675841503013237,1.3439,14,48,481.7798714965376,773.5177799999999,mp-770906,Li3Mn(BO3)2,https://materialsproject.org/materials/mp-770906,25.371061483936877,-38.97310108586058,32.124983922849346,-47.151288384107474
-6.515227175,-182.42636090000002,4.642116411122987,-4.301694535135714,2.0275e-05,5.140863576342046e-07,6.6196,4,28,459.6234849549848,1284.899464,mp-754920,BaYF5,https://materialsproject.org/materials/mp-754920,8.260108069870864,-18.742268287393287,16.12863434196906,-12.5055666299151
-5.923192722608696,-1089.86746096,4.581959177408955,-2.319233265760871,2.5e-08,9.829913226712977e-11,2.8571,61,184,2963.92870002391,8178.4288,mp-680711,Ca4Te5O14,https://materialsproject.org/materials/mp-680711,6.689017145253716,27.401230939085004,32.35804689250156,-4.833313399563783
-5.368022943235294,-182.51278007,4.379827909848752,-2.5617392491232347,5.00000065,0.07592983733217551,2.9309,64,34,767.4233672202049,2024.1513155999999,mp-1197784,Ba4MnGa2(S3F2)2,https://materialsproject.org/materials/mp-1197784,7.986349051048664,-18.338986423229702,15.554261957741234,-12.010056854832737
-5.465401321130953,-918.18742195,5.9230255059325705,-0.914545866845238,1.5833333333333333e-07,3.601730315656368e-10,0.0,230,168,5123.167923764118,18273.97824,mp-680077,Ta2Br5,https://materialsproject.org/materials/mp-680077,36.251739895667775,-52.95472235666096,0.09438406839047983,-59.74803685860237
-5.585132907857144,-78.19186071,4.676813966882435,-0.8166613760199998,0.00015375,5.246070955399008e-06,0.3056000000000001,176,14,341.55322602661414,961.9652772,mp-1246710,Ba3AlN3,https://materialsproject.org/materials/mp-1246710,10.131111673266094,-21.304915939569355,16.108217538841732,-16.806475699217188
-3.5841949766666663,-43.01033972,5.902741547175228,-0.6236207396875001,7.195e-05,2.025182929985065e-06,1.8596000000000004,62,12,414.0415900068117,1471.79948,mp-23514,BiSI,https://materialsproject.org/materials/mp-23514,4.7779816552642025,21.92503219972333,-0.6741864657599979,-2.5603160954798887
-4.858021061818182,-106.87646336,3.8383218467899196,-2.564144726774545,0.0,0.0,4.3037,14,22,320.0593456229292,739.8144512,mp-1190647,Ge3F8,https://materialsproject.org/materials/mp-1190647,11.116267452485808,19.388521641061228,43.55327817693089,0.2890393207397495
-6.717399230833332,-80.60879077,4.7216010377124835,-2.1509855161398463,4e-06,1.9045514641069652e-07,4.6407,164,12,244.762401902838,695.961,mp-504667,RbIn(WO4)2,https://materialsproject.org/materials/mp-504667,7.997387516343346,-27.718124561990482,18.89099022023452,-23.031460774238266
-8.885435416666667,-53.3126125,7.058525914037245,-3.572903221646668,6.00000015,0.7948967622411653,0.0040999999999999925,166,6,87.96663127211653,373.9236064,mp-22338,EuOF,https://materialsproject.org/materials/mp-22338,-12.770434584864754,-24.896473020638,-10.89972998855077,31.565290544211642
-4.820591203809523,-202.46483056,3.535144963971637,-1.1798217741171428,2.99999955,0.07740385861434207,2.9021,14,42,451.68535134076416,961.59931,mp-24211,CoH8(IO5)2,https://materialsproject.org/materials/mp-24211,25.12038718071567,-21.64593931423045,33.40653562961546,-33.54023018100428
-5.868415827532468,-451.86801872,8.283521241592004,-1.6806877978084418,2.0000009,0.017110578452317258,0.9457000000000004,1,77,1362.2064326306336,6795.303000000001,mp-698611,Bi28Mo2O47,https://materialsproject.org/materials/mp-698611,1.4724952693358118,-17.628880527572626,27.845805554615517,-6.094634338532039
-5.052055163125,-80.83288261,3.605443129346543,-0.07599774918336166,0.0,0.0,3.2363,59,16,521.0399692945091,1131.3073238000004,mp-608206,CsC2I3N2,https://materialsproject.org/materials/mp-608206,18.65788827386986,-13.479195509809525,24.06336933993564,-12.70066179095377
-6.057212740982143,-678.40782699,5.920182996882104,-2.1257348307812487,13.00000065,0.0956282288077933,0.0,15,112,1584.2900313769198,5648.33869,mp-1195315,Ba12(CoO3)11,https://materialsproject.org/materials/mp-1195315,-27.191122460511217,30.015969087974106,27.666717412371302,-5.340486086598636
-7.250052884166667,-87.00063461,3.0200587339464837,-2.59031296525,0.0,0.0,3.6132,164,12,222.09520314651272,403.929412,mp-18837,KSc(MoO4)2,https://materialsproject.org/materials/mp-18837,11.451909387905436,-41.95828420608136,48.342662031515296,-10.355150776870346
-6.841894784444443,-184.73115918,4.521211502239923,-1.1907233603170368,0.0,0.0,2.0378000000000003,221,27,521.233695639625,1419.1824,mp-1228031,Ba8Sr(BN2)6,https://materialsproject.org/materials/mp-1228031,-29.56419415158797,35.40788021558173,0.8535214410983367,42.14175511806227
-6.526082618289473,-495.98227899,3.5020345300507216,-2.093984808099775,14.9903883,0.225480953958515,2.0659,60,76,774.7836486719976,1633.998976,mp-540712,Fe3P2H3O11,https://materialsproject.org/materials/mp-540712,29.159955217980553,-12.799207974405626,52.29842243030707,-12.648554711312798
-7.6255115325,-213.51432291,3.4911075951560715,-2.6520220413392863,3.9999987999999997,0.12634859177498126,2.4895,85,28,368.9494631517667,775.6772,mp-18866,CaV4O9,https://materialsproject.org/materials/mp-18866,27.591231975482454,-28.185264105548587,53.06464140473482,-11.370579986681358
-3.63084149,-14.52336596,0.7930894177243301,2.8590414525,7.0000363,0.1485785268086712,0.11529999999999994,71,4,549.0623591625763,262.23746400000005,mp-1095931,Be2CrIr,https://materialsproject.org/materials/mp-1095931,43.163197092814904,-39.92890354533032,27.57329235907752,-61.89652074192308
-7.28007205125,-116.48115282,3.0374191383583837,-2.2083808455803577,1.9999997999999999,0.0987480736203042,1.7394999999999998,15,16,236.036272504195,431.752024,mp-1207740,YPO6,https://materialsproject.org/materials/mp-1207740,32.46300959383655,-25.619368707428645,47.095121630066785,-27.787338836526185
-5.047515534615385,-131.23540390000002,6.141723689804434,-1.4527379060784615,0.0,0.0,1.3994000000000004,14,26,509.8762288800891,1885.8448,mp-1193732,Te2PdPb2(ClO3)2,https://materialsproject.org/materials/mp-1193732,11.437681096591675,19.637037401145037,37.18723571191907,3.202903263768315
-4.719839089545455,-207.67291994,5.7532981760917865,-1.4113207008463953,0.0,0.0,0.8430999999999997,31,44,1756.2147953370475,6084.787611399999,mp-1226739,Cs3Tb7Te12,https://materialsproject.org/materials/mp-1226739,-0.23126072380526905,-14.497267801896358,19.758131085558254,-14.069860517076789
-5.676902901111112,-51.09212611,6.064309374706278,-2.289682906712964,0.0,0.0,0.024900000000000144,139,9,159.99041508522518,584.2869999999998,mp-1173069,Ba2In2O5,https://materialsproject.org/materials/mp-1173069,-22.127108567798338,11.636101614046137,-30.27519701403913,48.72407034252468
-7.345333681111112,-66.10800313,7.830117104994907,-3.1782723748611117,2.9999909,0.2741929254716585,1.4218000000000002,71,9,127.5090821747093,601.2571949999998,mp-19164,BaDy2CoO5,https://materialsproject.org/materials/mp-19164,-13.459129859834105,36.99673106738,-11.150172152916786,54.44189415901588
-7.308930882685185,-789.36453533,3.468654173984948,-2.7095094024262596,0.0,0.0,2.0845,184,108,1622.718340808828,3389.6515592,mp-581138,Cs2TiV3(PO6)3,https://materialsproject.org/materials/mp-581138,22.096130373276253,-12.406176001529053,44.67097393552636,-2.35294311269617