energy_per_atom,energy,density,formation_energy_per_atom,total_magnetization_uB,total_magnetization_T,band_gap,sgr,num_sites,cell_volume,weight,mp_id,formula,URL,tsne_xrd_lin1_0,tsne_xrd_lin1_1,tsne_xrd_lin2_0,tsne_xrd_lin2_1
-7.296738701612903,-226.19889975,2.8928920475225,-2.0731478270967743,9.9999999,0.3733505581271147,0.5532000000000004,2,31,312.1480443066912,543.8057,mp-758282,Li4Cr3(CO3)6,https://materialsproject.org/materials/mp-758282,30.070535537577,-35.65130642032797,7.654384242617711,-37.11652786036353
-8.11614288888889,-438.271716,3.4309348586039383,-3.2815345506172835,1e-07,1.945557569307543e-09,2.8323,58,54,599.0089913765735,1237.6468,mp-531820,Li4Ti7O16,https://materialsproject.org/materials/mp-531820,-2.340553023205433,-66.222028756768,-16.758873959122234,-69.19388831628311
-4.316247446666667,-25.89748468,8.425608783326068,-0.5916771483333338,2.94e-05,2.8851300016986146e-06,0.0,156,6,118.75704183573444,602.57564,mp-1224004,Ho2Ga3Cu,https://materialsproject.org/materials/mp-1224004,-55.593949298045644,17.372699218348636,-46.239270685968116,26.939350505854676
-6.1739241374999985,-148.17417930000002,3.888942838515493,-2.0396582366183327,17.999998,0.9461133191256046,0.2513000000000001,1,24,221.72094859822573,519.265175,mp-1175286,Li7Mn4CoO12,https://materialsproject.org/materials/mp-1175286,0.5609199852036626,-80.5981354731483,-28.476955455484585,-79.6642642076924
-3.68945904,-29.51567232,3.948302115606392,-1.5182595216666668,3.02e-05,6.885204455899074e-07,2.5888,194,8,511.1725561464745,1215.42682,mp-861867,AcI3,https://materialsproject.org/materials/mp-861867,20.460353240409926,-3.7398584814839397,-7.645838714857455,-21.275428270566273
-2.658697253333333,-15.95218352,4.34088873298266,-0.31227997000000024,5.7999999999999995e-06,5.580996222321679e-07,0.0,12,6,121.11381729752807,316.6090000000001,mp-1185838,Mg5Pt,https://materialsproject.org/materials/mp-1185838,29.27286970693177,-28.123664825459844,11.057029090554659,-63.03929728307474
-5.757926550625,-184.25364962,4.106781008948279,-1.8225775872474996,24.0000009,0.9567576926361848,0.0,1,32,292.33897692469174,723.001465,mp-1176154,Li9Mn2Co5O16,https://materialsproject.org/materials/mp-1176154,0.2152833942908384,-80.1708390275396,-27.036611761209308,-78.46808614750691
-5.776511980625,-184.84838338,4.142732242871245,-1.8411630172474995,23.9999999,0.9651332194517116,0.0,6,32,289.802016694567,723.001465,mp-1100593,Li9Mn2Co5O16,https://materialsproject.org/materials/mp-1100593,-2.0264475076914032,-75.97207145098523,-19.69092065389556,-76.44911808055477
-6.097996882,-121.95993764,3.8492683538582138,-2.028837908019,13.999999300000002,0.8890987297317273,0.1919,8,20,183.5081900378157,425.38732999999996,mp-1174363,Li6Mn3CoO10,https://materialsproject.org/materials/mp-1174363,3.708214085764345,-75.94726599044354,-23.904412855192327,-76.74240382396442
-6.245937673333334,-18.73781302,1.276364038023733,-1.6250627632142856,0.0,0.0,0.0,8,3,81.9267814938829,62.972562,mp-1238819,PO2,https://materialsproject.org/materials/mp-1238819,10.975181775479513,-48.70984246828301,-2.0887299029277244,-50.16894990081547
-6.549615136428572,-91.69461191,3.927179152540567,-2.1064033664285717,14.9999989,1.1472849386036987,0.9589,166,14,152.36926145101978,360.3537,mp-756590,Li2VFe3O8,https://materialsproject.org/materials/mp-756590,1.7150046736771405,-64.40049401372043,-12.725475706236715,-63.75902199729132
-5.666196173333333,-16.99858852,5.459814368625512,-1.4728039724999995,2.8100000000000002e-05,7.0028133846404615e-06,0.0,166,3,46.76395073260128,153.7588,mvc-12866,SbO2,https://materialsproject.org/materials/mvc-12866,1.7654070360690917,-62.740587557457935,-14.15916281933846,-59.035689650283295
-6.1471169335,-122.94233867,3.6521378612643964,-1.9658377210670004,8.465786999999999,0.5149396879169871,0.0,166,20,191.59686534901314,421.39218000000005,mp-1174157,Li3Mn2O5,https://materialsproject.org/materials/mp-1174157,1.503745268991282,-64.31220839436456,-23.031889454308864,-70.58692017900583
-6.672656817777778,-180.16173408,3.909379756816976,-1.9466076539525925,21.0000008,0.8621256879957981,1.035,12,27,283.8743502886996,668.3207150000002,mp-757932,Li4Mn7O16,https://materialsproject.org/materials/mp-757932,7.486286538074466,-66.87903207948122,-6.4540886232398895,-68.27934484183935
-7.022853381999999,-105.34280073,3.983418540226121,-2.369282955333333,7.9999999000000015,0.6286831084418294,1.2478999999999998,166,15,148.2981103884671,355.74800000000005,mp-755839,Li3VCr3O8,https://materialsproject.org/materials/mp-755839,1.9079068796457976,-66.85123861739358,-12.420028795970126,-66.12878426963834
-5.379044266363636,-118.33897386,3.3809994728986474,-2.5289752901890905,15.00000035,0.562249574131274,2.5358,9,22,310.9134870176055,633.0464448,mp-1178324,Fe3OF7,https://materialsproject.org/materials/mp-1178324,10.933487750921238,-75.4215218172222,-16.535115949044087,-75.65123310079001
-6.320552237857143,-88.48773133,4.350658277760268,-1.8165484001371428,5.000000599999999,0.4130458659277406,0.0,74,14,141.07472235403344,369.61967999999996,mp-753984,LiMnCoO4,https://materialsproject.org/materials/mp-753984,20.21815170143051,-67.30377019314918,-16.560813255302634,-68.15240065724743
-6.0913083675,-97.46093388,4.2554421337063415,-1.9118084282449992,7.984395,0.6217957789591388,0.0,2,16,149.64826016584547,383.50167999999996,mp-1173917,Li2MnCoO4,https://materialsproject.org/materials/mp-1173917,4.7809473255502,-77.14387532247653,-28.06488470817539,-76.04560368781634
-6.08178528,-24.32714112,6.0608762495078174,-0.5961581974999994,2.8e-06,4.5830285574374676e-07,0.0,225,4,71.20047574264404,259.87782400000003,mp-1186941,Sc2CuPd,https://materialsproject.org/materials/mp-1186941,-47.9069403851984,-65.49836276799276,-47.7410593377036,-36.11641646386799
-5.707882688125,-91.32612301,3.5159138337707474,-1.2564534219531254,2.0000004000000002,0.1040934907588952,0.0,164,16,223.91538641673924,474.1034,mp-1207938,V2Zn3O11,https://materialsproject.org/materials/mp-1207938,10.030071248406408,-51.61355920070896,0.4814788859140304,-61.56854696688082
-5.316033253888889,-95.68859857,4.578702099699711,-0.9332847752777774,2.00017055,0.11791029027367435,0.0,64,18,197.6936626291281,545.11238,mp-752759,Co2NiO6,https://materialsproject.org/materials/mp-752759,22.17321144741598,-65.47806991665078,-2.6711254392784447,-69.11773838026883
-5.6275629975,-67.53075597,3.7905197842433807,-1.3964366157516668,9.0,0.6134662109265482,0.0,166,12,170.97369192448573,390.2824,mp-1103030,Fe2ClO3,https://materialsproject.org/materials/mp-1103030,3.3844138291231847,-56.078195332434646,-11.117398746550178,-57.28053608545093
-1.4449920025,-5.77996801,4.0017895676072595,-0.006411109999999942,6.15e-06,9.626479365303268e-07,0.0,59,4,74.45348982886868,179.428,mp-1094956,MgZn,https://materialsproject.org/materials/mp-1094956,-49.052386826666066,-30.08936169760472,-66.09218665282879,13.137299773136325
-6.562277167352941,-446.23484738,3.8696514847153054,-2.2183948014705885,13.00000005,0.2381107530511763,1.0896,19,68,636.2704778537125,1482.7384,mp-850464,Li5Cr4O8,https://materialsproject.org/materials/mp-850464,3.854557411852271,-62.030405858907045,-27.969476242059898,-75.97285361051159
-6.620956085625,-635.61178422,2.9364460820803435,-2.4995865294196435,3.0000000625,0.031319115591753044,3.1084000000000005,33,96,1116.3212748978256,1974.068152,mp-778006,Li2CoP2O7,https://materialsproject.org/materials/mp-778006,40.0625380923115,-41.060338465062756,33.351958618928144,-61.78664709191186
-7.4095781416666675,-44.45746885,10.288896455468526,-0.7014670679166658,0.0017362000000000002,0.0001815277294856732,0.0,216,6,111.46389213067891,690.64347,mp-1222946,LaCeRh4,https://materialsproject.org/materials/mp-1222946,-72.73521138516296,-8.27858088772086,-75.67397201759479,-9.472546798321524
-10.065813832142855,-140.92139365,13.387980714303858,-0.6060048021986607,4.88e-05,2.3103770061341698e-06,0.0,99,14,246.15825009984798,1984.6338,mp-1217794,Ta10SeS3,https://materialsproject.org/materials/mp-1217794,-72.52195834652963,-0.21070620543948848,-53.7427684348955,-37.169818990203254
-5.909267046666668,-35.45560228,8.181561586866396,-0.5357871016666671,8.599999999999999e-06,1.0686723275887761e-06,0.0,191,6,93.78455346565298,462.08133719999995,mp-1217305,ThAl2Ni3,https://materialsproject.org/materials/mp-1217305,-34.01860937639164,-5.695294584903704,-53.003828356902524,-17.575341320648075
-5.8094187492857134,-162.66372498,4.114577408975069,-1.8689055544435729,9.0000001,0.41574478505416496,0.4836,1,28,252.28598863790592,625.12847,mp-1174687,Li4MnCo2O7,https://materialsproject.org/materials/mp-1174687,-2.0730641582134477,-76.43878640290727,-21.46532031849418,-77.76432026798891
-5.273483261666667,-31.64089957,7.036886857669692,-0.6728471999999991,6.9896168,0.5791504303557513,0.0,164,6,140.6498944886133,596.0338,mp-1077469,Li3GdBi2,https://materialsproject.org/materials/mp-1077469,-0.7546726294092714,-29.728091544662103,-4.930544350708919,-28.0846636063832
-5.195198203333334,-171.44154071,5.033734605911122,-1.5213484894696965,2.000000433333333,0.06807419548901315,0.0,2,33,342.39309664667195,1037.9256,mp-757049,Li2Ni2SnO6,https://materialsproject.org/materials/mp-757049,3.4318624961241038,-64.78671990431893,-10.333773213999015,-63.242002626648684
-6.421673147692308,-83.48175092,4.073791310601028,-1.670230994836922,8.0000013,0.6381109218744097,0.11800000000000033,12,13,146.10709538852146,358.443735,mp-757424,LiMn3NiO8,https://materialsproject.org/materials/mp-757424,7.390046414504849,-59.07253749655108,-5.6090614285564735,-64.37389501484819
-6.327881186041666,-303.73829693,3.2158298252351423,-2.0780987443583334,10.0000001,0.26630101751864754,0.2887,1,48,437.62750130251646,847.5173044000002,mp-762521,LiMn3Al2(HO2)6,https://materialsproject.org/materials/mp-762521,20.44240523999311,-64.47688683912679,-1.659423486177919,-72.23805400079783
-5.21446577,-83.43145232,3.5143227366783902,-1.3691565823645844,5.85e-06,1.456637470165685e-07,2.5248,70,16,468.0387558046237,990.54536,mp-15216,K2TaAgS4,https://materialsproject.org/materials/mp-15216,27.42622221798568,-37.697087522420176,-1.3227230627687137,-50.40522635395757
-5.959201518333334,-71.51041822,4.919425168025701,-1.7241667768750009,5.0000003,0.5141492604205573,0.04760000000000009,12,12,113.33348473817637,335.75579,mp-1222636,Li3Co2RuO6,https://materialsproject.org/materials/mp-1222636,2.0725732539796136,-66.35713085298204,-10.601347329118989,-63.89255356522057
-6.258106895416668,-150.19456549,3.6952142693308665,-2.0304074624916666,21.3502482,1.0745732189160189,0.0,12,24,231.54976417895614,515.270025,mp-1175581,Li7Mn5O12,https://materialsproject.org/materials/mp-1175581,5.751940745423827,-79.09048964660703,-26.08929175212573,-73.23195097631296
-6.4158368478125,-205.30677913,3.927587363925834,-2.1301121392725,26.000005899999998,1.0194276924926016,0.0,12,32,297.2312357972689,703.025715,mp-1100490,Li9Mn7O16,https://materialsproject.org/materials/mp-1100490,0.6279308050078757,-80.65955841876026,-28.79285906342978,-79.68186104886836
-6.4264829278125,-205.64745369,3.8902527296674094,-2.1407582192725,25.9999999,1.0097370423002343,1.0541999999999998,12,32,300.0837547079411,703.025715,mp-1100496,Li9Mn7O16,https://materialsproject.org/materials/mp-1100496,0.7765268264473518,-80.61277171338601,-29.51978272984423,-77.58110462355512
-5.44541912625,-43.56335301,5.271150477821398,-1.9022616275000008,1.9999999,0.28982899472087137,2.1678,10,8,80.42027817872572,255.283,mp-755249,Li2NiSnO4,https://materialsproject.org/materials/mp-755249,1.4490741546604091,-60.17340287437703,-11.962586499411609,-60.05557762038245
-7.0966818016666675,-42.58009081,3.681924010309243,-1.4160230543750008,0.00526365,0.0004330717857395355,0.0,194,6,141.64607360724625,314.07276,mp-774873,NbS2,https://materialsproject.org/materials/mp-774873,9.889440796106502,-52.03841219511934,-1.8453377414540053,-60.35202508422211
-7.07657366357143,-99.07203129,4.028105344238396,-2.231468465851429,5.99999995,0.4768052192271189,1.1494,74,14,146.65189312734327,355.74549,mp-1176640,LiMnCrO4,https://materialsproject.org/materials/mp-1176640,14.248826546067285,-67.27302229596515,-15.43859502443699,-68.58890867436465
-5.7572214778125,-184.23108729,3.3615876851310995,-1.9937242498075003,2.00000005,0.08440421107970181,0.0,217,32,276.1489009809364,559.03458,mp-764778,Li3MnO4,https://materialsproject.org/materials/mp-764778,9.046905289068807,-74.15809935058537,-13.124485908109932,-75.01553317563537
-8.127846730625,-130.04554769,19.26316721380013,-1.0966681031249994,1e-07,4.4253677449265925e-09,0.0,194,16,263.3468096729441,3054.968,mp-11456,HfPt3,https://materialsproject.org/materials/mp-11456,-50.19380421560348,-35.42052599812592,-61.75793110077475,-24.884213817162337
-6.332423054583334,-151.97815331,3.820042919859023,-2.1047236216583336,18.0012892,0.9366240600525276,0.0,10,24,223.98334537190289,515.270025,mp-1175358,Li7Mn5O12,https://materialsproject.org/materials/mp-1175358,3.2169123554973234,-79.36617274588367,-29.68195378765943,-78.12155003766063
-4.641074426666666,-41.76966984,5.064964164558777,-2.483275245314406,0.9999998999999999,0.07449996973280851,0.0,164,9,156.43044754179232,477.14301919999997,mp-554337,Rb2IrF6,https://materialsproject.org/materials/mp-554337,-3.963166969854186,-25.64626175818029,-7.5280765156293565,-38.46645783155472
-6.83541399875,-54.68331199,5.066721025241017,-0.05828449369000044,7e-07,1.0842030293708544e-07,0.0,194,8,75.24278313007162,229.5846,mp-1246491,SiNiN2,https://materialsproject.org/materials/mp-1246491,-64.5130894380396,4.5203213027649625,-51.639827436772705,-17.38941735536241
-6.085166545,-36.51099927,14.85907308677698,-0.7913573130555551,0.00010640000000000001,1.0709669909510984e-05,0.0,216,6,115.782512652341,1036.06165,mp-1077228,PrInPt4,https://materialsproject.org/materials/mp-1077228,-73.7185441329038,-6.141515001768117,-76.66240922922051,-9.395133210997015
-5.3484273233333335,-16.04528197,3.225853249892076,-0.6688168527083344,0.06020219999999999,0.011075341332716431,0.0,166,3,63.34796528374919,123.063195,mvc-11233,CoS2,https://materialsproject.org/materials/mvc-11233,10.060067771111939,-51.92749470661258,-3.554394495939734,-59.456399562235354
-8.2684883,-66.1479064,5.807069494294808,0.33062096912250105,0.23393350000000002,0.03378616740936912,0.0,194,8,80.69208112416975,282.1882,mp-1245843,RuCN2,https://materialsproject.org/materials/mp-1245843,15.604618685524313,-48.84864086959716,-11.898805523451848,-54.854347526526915
-6.63276646,-19.89829938,2.901009357076987,-1.2967523227083348,0.5778506,0.1022410405584256,0.0,166,3,65.86697753153406,115.0715,mvc-11241,VS2,https://materialsproject.org/materials/mvc-11241,6.442706228713943,-63.93963956826913,-5.051356719846846,-66.29423434006569
-6.193373345833333,-148.64096030000002,3.9533580780809903,-2.0591074449516658,16.000115,0.8549257471619375,0.4878,1,24,218.1082710368811,519.265175,mp-1175259,Li7Mn4CoO12,https://materialsproject.org/materials/mp-1175259,0.3755847638075908,-80.42072790716989,-28.139643329164233,-79.51369532395697
-5.99443223,-41.96102561,3.7649097216792966,-1.7519002256428575,9.000001,1.1969528983708442,0.28600000000000003,2,7,87.6280050366741,198.67736928,mp-1221411,Na(FeO2)2,https://materialsproject.org/materials/mp-1221411,10.106894705978775,-53.366955593460254,-4.42228915996085,-58.66157117267186
-5.845690612727273,-128.60519348,4.46691364734195,-1.698538407045455,9.0000009,0.5001830607267449,0.5225999999999997,2,22,209.6964125280447,564.091385,mp-997554,Li4Fe3(CoO4)3,https://materialsproject.org/materials/mp-997554,8.21863534462585,-67.00335651473765,-5.372868355649557,-69.38444248066102
-7.251389559642857,-203.03890767,3.810113781315967,-2.4340619375,6.99999975,0.2699499337681717,0.9958,2,28,302.1984460439238,693.3956000000002,mp-769590,Li2V3CrO8,https://materialsproject.org/materials/mp-769590,5.506564394051839,-65.33360586313736,-7.695544178704112,-65.99040881566674
-7.347298283333334,-286.54463305,3.8091080014145087,-2.266404524836924,10.0000001,0.2563474180247389,0.6043000000000001,2,39,454.619944249864,1042.852005,mp-759309,LiTiMn3O8,https://materialsproject.org/materials/mp-759309,6.6379652435206005,-64.62767811061936,-6.381681866014778,-65.47240472286187
-6.146437385833334,-147.51449726,3.8448381746869313,-2.0121714849516668,17.5171065,0.9102895890005782,0.0,10,24,224.2643398821699,519.265175,mp-1175299,Li7Mn4CoO12,https://materialsproject.org/materials/mp-1175299,2.2455223175175565,-78.63801549062333,-29.50745569087502,-78.46612100886428
-4.697153953,-46.97153953,3.34974621455445,-3.1288928783139998,0.0,0.0,6.1271,225,10,133.27505569993463,268.8510192,mp-1111112,K2LiGaF6,https://materialsproject.org/materials/mp-1111112,-37.73042163532372,-23.725447751021274,-32.64222562767441,-26.562276504887663
-6.2334418375,-24.93376735,3.7832652423111433,0.09048741749999943,0.028435000000000002,0.00449657813626643,0.0,187,4,73.6967804773625,167.90599999999998,mp-1094865,MgTi3,https://materialsproject.org/materials/mp-1094865,-47.984258212816115,-32.3001065844622,-57.86168570177168,-28.65732744651465
-5.595186599999999,-27.975933,4.15218053333761,2.000023037249999,11.3821091,1.3692807549359698,0.0,221,5,96.87409701887177,242.233835,mp-672229,Mn3ZnC,https://materialsproject.org/materials/mp-672229,-1.9612312892820776,-54.61164239338075,-18.827005211816804,-58.414733403248526
-5.28256355875,-42.26050847,10.967826559411883,-0.36712054125000027,0.000129,1.1257717357930305e-05,0.0,194,8,133.54166816074616,882.04,mp-1186930,SbPd3,https://materialsproject.org/materials/mp-1186930,-50.09705174837379,-35.047689323080945,-59.17438438971406,-27.522130741015552
-4.3755819275,-35.00465542,10.834976141193755,-0.2632918762500003,6.45e-06,5.681109262243657e-07,0.0,194,8,132.31345202701382,863.342,mp-1183675,CdPd3,https://materialsproject.org/materials/mp-1183675,-50.10576714645173,-35.02598464477053,-59.20370853034468,-27.36554732311402
-6.190766524722222,-445.73518978,3.7262507370966436,-2.19315007271611,35.0,0.6543180911604306,1.2616999999999998,5,72,623.3852808749241,1398.8769949999999,mp-770669,Li24Mn11CrO36,https://materialsproject.org/materials/mp-770669,-12.038521153420794,-69.04705782654635,3.1794939882225357,-81.07875157505936
-4.35869644,-52.30435728,3.821942532024909,-0.7479536622699996,0.0,0.0,1.5027,5,12,166.76025926687768,383.82002,mp-1224433,HIO4,https://materialsproject.org/materials/mp-1224433,37.499130097059385,-38.33049682965904,37.78314811319933,-52.94318547528433
-5.3125556805555565,-95.62600225,7.734841067657952,-0.3145341083333335,0.0,0.0,0.0,65,18,294.31558588981284,1370.9309,mp-1072,Nb5Ga13,https://materialsproject.org/materials/mp-1072,-55.8215719483341,-42.08022306429237,-71.0172931011233,-31.00514450266113
-4.731548623243245,-175.06729906,4.5468720146537045,-0.9377689992567568,2.0000003,0.062242502839573215,0.6924999999999999,2,37,374.47294016139284,1025.3782,mp-758676,Li4(NiO2)11,https://materialsproject.org/materials/mp-758676,8.758099111790441,-66.7598498341379,-3.8612041684723777,-69.63139597510154
-4.494682504,-44.94682504,3.8023123797857052,-1.4414625042260003,1.00002075,0.07368260627733161,0.0,70,10,158.16903314383927,362.1764128,mp-754084,Cu2OF2,https://materialsproject.org/materials/mp-754084,21.97766034554933,-80.49965319507244,-2.9603953168289148,-73.00196523970371
-6.515567209574468,-306.23165885,5.053909371271762,-2.039018689148936,34.9999999,0.7703039019793619,0.41339999999999977,2,47,529.5212250983911,1611.6165999999996,mp-1223041,Li11(MoO2)12,https://materialsproject.org/materials/mp-1223041,1.8738628146912937,-59.46050652704033,-10.910771611947334,-59.901173977181855
-4.61173360775,-184.46934431,2.034781570653887,-0.6015175832599994,0.0,0.0,3.6926,60,40,528.7314197209978,647.8937999999998,mp-721084,H7IN2,https://materialsproject.org/materials/mp-721084,-0.18107561960218346,-32.41071858966839,23.994673855162798,-52.38509671356979