energy_per_atom,energy,density,formation_energy_per_atom,total_magnetization_uB,total_magnetization_T,band_gap,sgr,num_sites,cell_volume,weight,mp_id,formula,URL,tsne_xrd_lin1_0,tsne_xrd_lin1_1,tsne_xrd_lin2_0,tsne_xrd_lin2_1
-2.88521842875,-23.08174743,6.685545305093544,0.434344349698276,0.68317065,0.019692026889222218,0.0,194,8,404.31160543302366,1627.8109037999998,mp-1183957,CsAc3,https://materialsproject.org/materials/mp-1183957,-18.16358045863814,-36.12354298581285,-15.426809013962707,-30.279359264810605
-5.988596307083332,-143.72631137,5.233551557589501,-1.6260436080555558,2e-07,6.430679572896909e-09,2.1233000000000004,5,24,362.4520438454917,1142.3467999999998,mp-1190916,Ag2Te3Mo3O16,https://materialsproject.org/materials/mp-1190916,9.610062809319482,18.513837331522943,49.762294849551786,7.205254974753597
-4.3151741927777785,-77.67313547,5.758294589257895,-1.293243579444445,3.35e-06,5.912595887033174e-08,0.40080000000000027,36,18,660.3041664608852,2289.754,mp-1105922,Ba2DyGaTe5,https://materialsproject.org/materials/mp-1105922,9.553166526620537,-16.70388597940855,19.17644996813302,-14.174305685270898
-5.3515228525,-149.84263987,5.162078698634893,-1.7691495260204084,0.000570125,7.511940722530389e-06,0.0,214,28,884.4949559476128,2749.6086880000007,mp-1210981,La3PBr3,https://materialsproject.org/materials/mp-1210981,-28.59311459170926,-38.5020418794741,-35.938508735944545,-19.107032669549668
-7.211950565909091,-158.66291245,4.7522570898147665,-3.1674664464393936,0.0,0.0,4.1698,167,22,370.1064410616111,1059.1988,mp-755417,Ba3(BO3)2,https://materialsproject.org/materials/mp-755417,4.8339248269111215,-23.831018772277197,1.1178478348639225,-34.11862920665297
-7.446953827142857,-104.25735358,3.3359101779453986,-3.2403422054105087,7.75e-06,3.338430178926235e-07,3.9269,44,14,270.5433306872023,543.5031809999998,mp-1225829,CsTiAlO4,https://materialsproject.org/materials/mp-1225829,19.595105075640113,-13.255387730801234,44.69966848654779,-3.6206704570989903
-8.009674045882353,-272.32891756,5.660467511025003,-2.4467589249999997,12.0008086,0.2734787600004361,0.0,15,34,511.40425218861,1743.2816,mp-1226168,Eu2Mo2WO12,https://materialsproject.org/materials/mp-1226168,11.18830764567761,21.50500153645602,39.980237168342775,-4.667385553979634
-2.1307797475,-8.52311899,4.351014852774881,1.4357923359913791,1.8766397000000001,0.12830648430518804,0.0,139,4,170.45499093043622,446.6334,mp-974846,Rb3Os,https://materialsproject.org/materials/mp-974846,-19.252395443397134,13.729120397528279,-22.329785321863127,-7.333255018075531
-3.860541611111112,-34.7448745,6.281420658884742,-0.06150575444444525,0.0,0.0,0.0,164,9,294.32477873606507,1113.36,mp-6997,Sb2Te,https://materialsproject.org/materials/mp-6997,-22.10961452132084,-36.286807077222704,-32.157627248237716,-23.03342072480749
-4.425721608461538,-230.13752364,2.673188956486692,-0.6903039707042578,0.0,0.0,4.9166,186,52,849.5813440361717,1367.6832714000002,mp-695929,Cs3B6H12S4Br,https://materialsproject.org/materials/mp-695929,22.0677798881432,-12.967057900695455,23.78459464179859,-5.980838997519747
-7.39792719,-473.46734016,3.2064367443918447,-2.8582113939062497,2.999999925,0.04342229859452356,1.6839999999999995,130,64,805.1668054264097,1554.746,mp-1251977,VZn(Si2O5)2,https://materialsproject.org/materials/mp-1251977,20.28136233036645,-4.758235314396316,50.89183155711503,1.1444793529590245
-4.790411946666667,-28.74247168,4.899569033715329,-0.7131251489583342,0.0022059000000000002,0.00012383003613994706,0.0,123,6,207.60473212440758,612.5563400000001,mp-1211660,La2CuTe2O,https://materialsproject.org/materials/mp-1211660,6.0672169914531695,-23.386897985204616,17.076983407473268,-18.460578634636963
-5.1602735795238095,-216.73149034,2.4961435606402747,-1.6348435371999996,0.0,0.0,3.9975,14,42,360.117473378636,541.3331999999998,mp-703343,Li2Sn(H5O4)2,https://materialsproject.org/materials/mp-703343,42.11424707732614,-25.059472199703468,19.466790968814614,-60.95824091911286
-3.24910842,-22.74375894,6.283158407242624,-0.2740747728571427,1e-07,5.1583926608560516e-09,0.08389999999999986,166,7,225.92434385608917,854.8539999999999,mp-541885,In3Te4,https://materialsproject.org/materials/mp-541885,-22.402678755779746,-36.178936029846156,-32.598602505634396,-22.845295140206733
-3.9946709983333335,-23.96802599,6.3236234593027225,-0.6633723366666663,3e-07,2.5231148378667926e-08,0.0,164,6,138.5675903172065,527.68965,mp-1018782,Li3YBi2,https://materialsproject.org/materials/mp-1018782,-0.7785707101010556,-29.768958668461533,-6.1784632021859744,-27.41179276542538
-8.697424425,-173.9484885,7.487598619848383,-3.83391907625,0.0,0.0,4.1716,62,20,278.6415006282427,1256.4328,mp-3378,SrHfO3,https://materialsproject.org/materials/mp-3378,-27.486342118069068,28.967257425296346,-23.829621135969976,58.63057190710499
-7.4133428085714295,-207.57359864,4.326376403030373,-2.8363042327678576,1.00000015,0.026566045695048317,1.5279000000000005,4,28,438.68277027173934,1142.9462,mp-32531,Ba2V3O9,https://materialsproject.org/materials/mp-32531,14.904906241154329,-14.57277352012398,24.83083422050538,-8.273606887470992
-6.8274357666666665,-81.9292292,4.340171320841167,-2.2783474333333325,0.0,0.0,3.8659,164,12,210.90310424174731,551.2400385999998,mp-18733,AlTl(MoO4)2,https://materialsproject.org/materials/mp-18733,20.489857294134488,-8.985061415775933,38.55856294249417,-10.007757119372156
-2.779262409375,-44.46819855,6.29868744652845,-0.492679132338437,0.0,0.0,0.6307999999999998,55,16,399.19135431901014,1514.1960000000001,mp-569687,CuHgSeCl,https://materialsproject.org/materials/mp-569687,3.7949420250956423,-2.329959515190972,7.5864131459196225,-14.78016697236234
-5.378666868913044,-247.41867597,4.749358398595463,-0.5288457182086957,0.494613,0.004829556733263311,0.0,136,46,1193.536437754027,3413.67,mp-1245390,Ba11(SiN5)2,https://materialsproject.org/materials/mp-1245390,7.0070813950666055,-13.464144236042216,14.813798246133064,-6.030856153223508
-4.301784421,-86.03568842,2.7540784975959216,1.2673177857185522,12.00000065,0.24193797221193675,0.01129999999999999,167,20,578.035698849916,958.6981400000001,mp-1105760,Rb3LaN6,https://materialsproject.org/materials/mp-1105760,24.190174477044838,-19.98809449109613,10.432204642285788,-22.000886885309754
-5.2462585115625,-167.88027237,5.986792473510955,-1.6555198752604168,0.0,0.0,1.6764,4,32,742.2302641921855,2675.9856,mp-1200233,DyAgS2,https://materialsproject.org/materials/mp-1200233,-3.458722854235571,8.729939431302169,1.292869944692195,18.523232226675912
-4.822717813333333,-86.80892064,5.431090272925896,-1.6212024482002316,2.57e-05,5.275091896772562e-07,1.0570000000000004,36,18,567.7805629093053,1857.028,mp-1190093,Ba2NdInSe5,https://materialsproject.org/materials/mp-1190093,2.8847678112404247,29.959688667712868,-0.9193350672262766,25.274072497584683
-9.143936246666668,-137.15904369999998,8.570502179294843,-3.8675208413333335,1.0,0.0562791039610122,0.2035,12,15,207.07623171529414,1068.77782,mp-675770,Nd3U2O10,https://materialsproject.org/materials/mp-675770,26.2182901112466,62.1647724640534,-1.5047454625823034,34.73338392135674
-7.811551516000001,-78.11551516,3.927630751401952,-2.8714800372500013,0.0,0.0,3.4523,12,10,125.0134613055526,295.69116,mp-755559,LiNbO3,https://materialsproject.org/materials/mp-755559,28.22791105471629,-37.05106814182937,-9.464400173857749,-60.14537314023564
-2.8266529384615384,-146.9859528,4.278776381352273,-1.1559889983146154,0.9278835999999999,0.01301175787473018,0.0,62,52,831.0649245016102,2141.4377408,mp-680500,PtXeF11,https://materialsproject.org/materials/mp-680500,25.69225732724151,-16.177116523663827,35.95382765053285,-33.778349196792284
-4.662879612916666,-335.72733213,2.0224513197706173,-0.6238492334505551,5.96e-05,7.583375185867569e-07,4.1544,62,72,915.9275961170772,1115.5528,mp-867946,CdH10C3NCl3,https://materialsproject.org/materials/mp-867946,40.763854596475895,-51.89269680490533,34.779331087582925,-64.50391885088547
-3.207874788333333,-57.74174619,4.0731832729245845,-0.3961959421260535,0.0,0.0,2.7538,127,18,372.2302786654009,913.0542,mp-642845,Rb3H5Pt,https://materialsproject.org/materials/mp-642845,6.982690088481586,-23.429958340225888,17.148974054679186,-18.310872311191922
-7.5876058211764725,-257.97859792,4.751341789201195,-2.7308884952941184,2.85e-06,6.271997828007432e-08,3.6694,15,34,529.5614812473078,1515.24748,mp-1223417,La2(MoO4)3,https://materialsproject.org/materials/mp-1223417,-3.3497251727730553,-12.588530764302055,36.06097871882525,-8.856624307398711
-8.147522983243244,-301.45835038,6.1629724299813295,-2.4497856106756766,0.0,0.0,0.08749999999999991,1,37,576.3323966632067,2139.01666,mp-1218901,Sr3U6O28,https://materialsproject.org/materials/mp-1218901,26.911136728178228,-21.68195792695009,45.42416932205768,-31.48767177575104
-5.895183348947367,-112.00848363,6.783641701159016,-2.3263270221710526,0.6598861999999999,0.021091112299299167,0.0,38,19,364.6254596811292,1489.5696,mp-753124,Ba5Bi3O11,https://materialsproject.org/materials/mp-753124,-16.755481278611633,-51.61795489780169,-23.98325814077328,-5.245198590198719
-3.839689307368421,-72.95409684,5.821972272628377,-0.11277511500000065,0.0099484,0.00019172871820686893,0.0,160,19,604.7049136282141,2120.14,mp-1219061,Sn2Ge5(SbTe5)2,https://materialsproject.org/materials/mp-1219061,-23.345990227416912,-36.36447483322972,-33.15846263354306,-22.279925522161413
-6.804983606785713,-190.53954099,6.926083969802297,-2.213283546830358,0.0,0.0,1.6968000000000003,60,28,598.80442737937,2497.60448,mp-1666,Th2S5,https://materialsproject.org/materials/mp-1666,8.81863884529835,-15.63413210849058,2.466124378509438,-20.161322237231964
-3.231650060625,-51.70640097,5.283015369158472,-1.1762240839008622,0.0,0.0,3.0902000000000003,140,16,595.2057743856358,1893.6509038,mp-1238811,CsPb2Br5,https://materialsproject.org/materials/mp-1238811,3.5703394321528954,22.375836433186674,-4.679190264796481,15.861758274665348
-7.91622407673077,-411.64365199,7.47429007209489,-2.9298893174038465,0.0,0.0,3.497,14,52,705.1484189595516,3173.9596,mp-27479,Pr2W2O9,https://materialsproject.org/materials/mp-27479,14.063561037807975,20.378187661981432,36.45665462966633,2.1758803072903
-5.939338423571429,-166.30147586,3.8014489811792975,-2.221083576059113,0.0,0.0,4.6528,62,28,743.8974088897746,1702.9940152,mp-1183981,Cs2MoO4,https://materialsproject.org/materials/mp-1183981,33.77316727057313,-5.413393537229501,54.489317838964226,7.7299145724144305
-8.708942591500001,-174.17885183,7.322388556060344,-3.8295251710000016,2.68e-05,1.139275686668326e-06,4.176500000000001,6,20,274.14693349418167,1208.8908,mp-1218494,Sr3CaHf4O12,https://materialsproject.org/materials/mp-1218494,-27.58515311934231,30.08455943868671,-24.117699073218787,58.87294244502722
-6.0855017349999985,-60.85501735,4.47992845823691,0.2440568810000002,0.16774895,0.006364974773274694,0.0,227,10,307.14295004551576,828.6336,mp-1207883,Y4Ni,https://materialsproject.org/materials/mp-1207883,17.66770996391262,66.94470807195441,-23.75367338815185,77.27109102921112
-1.72391631,-10.34349786,2.3830865711254714,-0.38166257884,9.000000000000001e-07,3.8047961663797885e-08,0.0,136,6,275.6693877055584,395.62094,mp-864616,ICl2,https://materialsproject.org/materials/mp-864616,35.98427959581346,-36.9590124938329,-2.9432767905841626,-53.19423174997882
-5.036400825,-70.50961155,8.657246934855625,-0.5325640299257144,3.455e-05,2.12003267226951e-06,0.0,140,14,189.92534556597172,990.1788372,mp-24083,Th2AlH4,https://materialsproject.org/materials/mp-24083,-17.6980221490366,20.995680762859067,-19.103360117153454,36.48908331054562
-3.4817956260000003,-34.81795626,5.64240764457083,0.6121506519999997,0.03892725,0.0012317402600082279,0.0,227,10,368.30873167577863,1251.49,mp-1209093,Sm4Mg,https://materialsproject.org/materials/mp-1209093,-7.4122498963984285,-29.117256805135888,-17.904648758825868,-24.363220201914803
-6.298335517083332,-151.16005241,3.247444202685533,-1.895877619940476,3e-07,1.0783368879846604e-08,0.0,62,24,324.223298926749,634.0694480000001,mp-753519,CuPO4,https://materialsproject.org/materials/mp-753519,48.49658248512269,-10.384390515956524,67.94801958183065,-15.174684028959849
-5.217186155952381,-219.12181855,3.2757734337787885,-1.7425909093838101,9.000000833333333,0.15566449782329278,1.6993999999999998,13,42,673.7990622872984,1329.2148,mp-778496,LiFe2(ClO)2,https://materialsproject.org/materials/mp-778496,37.72975740219077,-56.290111481315854,35.77641055962581,-56.940720589079675
-6.8795020768,-343.97510384,3.9924501472086655,-2.413371218819999,2.0000001,0.028983901263557026,0.0,82,50,804.1750659643736,1933.48592424,mp-1221149,Na8ThU(MoO4)8,https://materialsproject.org/materials/mp-1221149,25.93744214224905,56.74062771496173,39.192067555305435,-7.05286945643023
-7.284499863214287,-203.96599617,3.354615256541245,-2.7326920860714305,3.0000025000000003,0.1169223778562891,2.9047,62,28,299.0208041767125,604.0808,mp-849735,LiCrSiO4,https://materialsproject.org/materials/mp-849735,30.95200136873488,-33.76607769209572,53.594290584240724,-12.979276362664768
-5.732452541875,-458.59620335,8.32621571543309,-1.6373054531250006,1.361875e-05,1.0674451192452994e-07,2.5303,205,80,1486.8567175941605,7455.344,mp-1196483,Bi2O3,https://materialsproject.org/materials/mp-1196483,-11.683994493909445,-29.081334690403512,-1.1694730675622576,-28.108191547399603
-5.37931164,-43.03449312,7.094958544265126,-1.814549648125,0.0,0.0,1.3058,129,8,116.04892920406726,495.8404,mp-1205315,LiBiO2,https://materialsproject.org/materials/mp-1205315,0.6480306782479478,-18.31790605406441,-1.144297543639071,-24.420046295585003
-4.159266669166667,-199.64480012,4.514446347277798,-0.8500489397844829,1.0000000125,0.00620049825129811,0.16399999999999998,61,48,1879.5368446069085,5109.8276152,mp-27783,CsReBr4,https://materialsproject.org/materials/mp-27783,40.16806454744648,-36.23876033384942,22.64682420484137,-57.83696216585364
-4.5801977525,-36.64158202,8.70689262627072,-0.7386058709375005,7e-07,5.139666351013748e-08,0.0,129,8,158.72324745715704,832.2515999999998,mp-545369,CuBiTeO,https://materialsproject.org/materials/mp-545369,-17.037177441204793,22.478533012290246,-16.388536132632144,40.945518258821494
-6.007606160208333,-576.73019138,5.8289743074101725,-1.8780673439375,1.000192,0.00797534636753962,0.0,205,96,1461.5418335231466,5130.436317119998,mp-1195585,NaU(Te3O8)2,https://materialsproject.org/materials/mp-1195585,7.568468215387955,-22.39937609197011,18.34278899535665,-19.611212638883366
-6.357129616666668,-38.1427777,6.324083577080437,-2.8698551037500013,0.0,0.0,2.2017,166,6,154.00685307871944,586.52774,mp-754960,SmIO,https://materialsproject.org/materials/mp-754960,-12.884698292044936,21.03015268965917,-17.54102269845577,42.4746587817392
-6.956998653333333,-333.93593536,2.8854602784894285,-2.6487620330413097,5.000000099999999,0.10427262409350052,0.0,14,48,558.8266866282596,971.0534759999999,mp-776393,Li2MnP2O7,https://materialsproject.org/materials/mp-776393,67.22422029993426,-30.024790310733138,70.28317473070182,-23.823780643711533
-0.9855903225,-3.94236129,1.4354385288910465,0.16536712524999994,0.0032643,0.00017999282080836233,0.0,139,4,211.35489441309528,182.70390000000003,mp-1185097,K3Zn,https://materialsproject.org/materials/mp-1185097,-13.178704849761415,-36.678515576213755,-13.342586181757481,-28.35878927589436
-4.33724942,-21.686247100000003,7.108306836904139,-0.7765157010000003,6.3e-06,4.1315526882396995e-07,1.1258,160,5,177.7070598085676,760.71461,mp-1216578,TmBiTe3,https://materialsproject.org/materials/mp-1216578,-6.097012879498363,-30.212991181587874,-7.190051461120955,-27.394533899501052
-5.563290645192307,-289.29111355,4.541913475283281,-1.2763475477857686,1.0,0.009055002590644588,0.0,176,52,1287.030528804088,3520.2914,mp-571612,LiW6CCl18,https://materialsproject.org/materials/mp-571612,35.89977586573574,-53.48936281876247,0.5790422932855218,-59.22139578851218
-6.6085881396875,-211.47482047,6.792706720810332,-1.82914428090125,7.999999925,0.238507133474966,0.2931000000000008,55,32,390.90033051866135,1599.04178,mp-1221879,MnFeBiO5,https://materialsproject.org/materials/mp-1221879,-2.9699587633386013,27.33080890947335,0.19200261827809434,49.27122885748576
-3.300725325,-33.00725325,3.1126114161252083,-1.9767308578180691,0.0,0.0,3.5291,225,10,363.3888816520093,681.1573557,mp-1113510,Cs3GaCl6,https://materialsproject.org/materials/mp-1113510,-24.59570867988731,-25.933850264520807,-18.231949531137737,-22.97971053805513
-6.006803499999998,-84.095249,3.648583902650538,-2.2539365336699504,0.0,0.0,4.4506999999999985,12,14,301.17321160716205,661.7464,mp-19212,Rb2MoO4,https://materialsproject.org/materials/mp-19212,9.016502938133797,-17.036045617146208,15.997174128503511,-10.313163717255916
-6.92217414840909,-304.57566253,3.960700447595269,-2.3619320894318183,1.00000025,0.0190368148207144,0.6676,62,44,612.1857987185348,1460.1792,mp-504871,SrV2CuO7,https://materialsproject.org/materials/mp-504871,12.43167643126852,32.333894931635626,58.51197694326722,35.51474119880212
-6.102611831818181,-67.12873015,7.051247604946653,-1.593321345653409,7.052007499999999,0.4152241985083994,0.0,139,11,197.9281373214916,840.47425,mp-1022730,YFe2Bi2(SeO2)2,https://materialsproject.org/materials/mp-1022730,22.300618352457594,58.87208061745685,-5.917932218992274,35.273607662038515
-8.425376462000001,-42.12688231,6.5135848566421455,-2.88210861675,6.0266839999999995,0.7986478447167512,0.0,221,5,87.94284760720646,344.9622,mp-1186571,PmEuO3,https://materialsproject.org/materials/mp-1186571,-17.86559473293343,-50.57023387426681,-24.796155653055447,-5.865076728468343
-5.2530294296666655,-157.59088289,3.529679486683315,-3.536594317380666,0.0,0.0,5.9631,36,30,563.1433906591077,1197.0303775999998,mp-27390,K5ThF9,https://materialsproject.org/materials/mp-27390,37.6967035330581,-34.18654655773914,11.838574747280203,-59.30622170408583
-5.82074076,-46.56592608,3.787820046612078,-3.0396201708925004,2.0,0.17060912379041385,0.9909,148,8,136.61713410914908,311.63441919999997,mp-9056,ZrPdF6,https://materialsproject.org/materials/mp-9056,3.2457353587533833,-37.71423439677859,2.6521810319520247,-32.357455542792046
-6.058549431,-424.09846017,5.3347323348629905,-1.8486071942470232,0.0,0.0,1.4696999999999996,146,70,1376.9269740609625,4423.58576,mp-1224577,Ho9B5S21,https://materialsproject.org/materials/mp-1224577,7.672324641633687,-7.717328050790473,12.038028188309175,-3.7326941717796474
-5.0992478625,-20.39699145,4.070639914293402,0.39053514999999983,7.9045901,0.8806841407476923,0.0,164,4,104.60118533271714,256.41900000000004,mp-1067840,EuMg2Fe,https://materialsproject.org/materials/mp-1067840,7.584091896879287,-19.03305540320145,17.365150045382904,-13.827051907368267
-2.9334275066666664,-35.20113008,3.910643683948747,-1.181694625492098,4.85e-06,1.1171795015624401e-07,2.0957,62,12,505.93672787466056,1191.5036152,mp-540703,Cs2S,https://materialsproject.org/materials/mp-540703,19.57131233493501,-13.203690260555279,37.8844374163305,0.8024428737890454
-4.3597788527777785,-78.47601935,4.205296177448216,-0.5130571257002319,0.0,0.0,1.6351,15,18,339.82699953454517,860.6080000000001,mp-30100,Li2B2Se5,https://materialsproject.org/materials/mp-30100,-7.261076203871308,35.36952254914032,-3.902739187104209,45.10538162616458
-6.505233854117647,-110.58897552,5.214158224413457,-2.257866593566177,0.000335,8.722656058080299e-06,0.7406000000000001,139,17,447.58290053072676,1405.428,mp-1189858,Ba4Hf3S10,https://materialsproject.org/materials/mp-1189858,-0.028025335926249437,-34.08146128802164,20.46532813641873,-20.05984201877289
-4.009781212857143,-28.06846849,4.257187587767377,-0.8142185899107142,0.0,0.0,1.9965,82,7,188.09020845804642,482.2140772,mp-3159,Al2CdSe4,https://materialsproject.org/materials/mp-3159,-9.376984465562117,-30.11811332318491,-16.523666968317627,-37.83083750576938