energy_per_atom,energy,density,formation_energy_per_atom,total_magnetization_uB,total_magnetization_T,band_gap,sgr,num_sites,cell_volume,weight,mp_id,formula,URL,tsne_xrd_lin1_0,tsne_xrd_lin1_1,tsne_xrd_lin2_0,tsne_xrd_lin2_1
-3.6960276234482765,-107.18480108,7.4845316130807955,-0.23584118034482746,0.0177977,0.00045856551615515125,0.0,225,29,452.3138816491568,2038.71,mp-1194230,Zr6Zn16Cu7,https://materialsproject.org/materials/mp-1194230,-57.369785990266855,-17.55310793845556,-60.591278180953395,-17.629846234586388
-6.4792514125,-103.66802259999999,5.582887066200385,-0.4070460729166667,0.35610640000000005,0.01555502245687805,0.0,193,16,266.8004538744966,897.0079999999998,mp-30674,Ti5Ga3,https://materialsproject.org/materials/mp-30674,-53.30333475479991,-30.246353190590412,-56.519882311860506,-13.908245193072569
-6.503199238333334,-39.01919543,8.583199718725261,-0.09093376166666664,4.0748603999999995,0.5586443320087859,0.0,187,6,85.00701487470141,439.39477999999997,mp-1226692,CeCo4Cu,https://materialsproject.org/materials/mp-1226692,-52.011837478758046,-17.739632508562185,-53.650128602382225,-14.554694442750106
-7.053887477499999,-84.64664973,9.147503202108878,-0.2449457774999999,14.5535934,1.029655924395806,0.0,25,12,164.7234927110454,907.42141,mp-1224982,GdTm(FeNi4)2,https://materialsproject.org/materials/mp-1224982,-53.622905747473844,-16.983822141149027,-53.61046611769672,-4.899520236349359
-6.615281646666666,-39.69168988,9.295596431626672,-0.14923237583333324,5.9478229,0.8447219124885134,0.0,187,6,82.0581451807152,459.3565,mp-1223872,HoCo4Ni,https://materialsproject.org/materials/mp-1223872,-53.748502332197894,-17.213409642927154,-54.36679670225709,-5.275015399048491
-10.694966833571428,-299.45907134,14.048541670180226,-0.2610813682142857,2.6e-06,5.303733586790594e-08,0.0,194,28,571.3063809260967,4833.3832,mp-973675,Hf9AsW4,https://materialsproject.org/materials/mp-973675,-68.2304983068789,-4.846786908085358,-63.73914856796467,2.8755840869907283
-7.4066910625,-118.507057,6.392677410870532,-0.7289449760714293,7.425e-06,3.899900261863261e-07,0.0,62,16,221.88113830099206,854.189216,mp-20948,NbNiP2,https://materialsproject.org/materials/mp-20948,-53.21552121418772,-18.673768951745586,-55.78832484586728,-17.06945902454207
-7.759268089722222,-279.33365123,8.339693076074933,-0.7532229548809524,1.44750275,0.03871333178795408,0.0,62,36,435.7488758486883,2188.453144,mp-1200053,LuFe5P3,https://materialsproject.org/materials/mp-1200053,-64.71025172885112,-28.98066274644961,-64.93861525186763,-15.426663686022179
-7.753214226944443,-279.11571217,8.244954748021389,-0.7524680421031746,1.46173375,0.03908076146903199,0.0,62,36,435.8958004499325,2164.321984,mp-1201193,TmFe5P3,https://materialsproject.org/materials/mp-1201193,-64.56520078043458,-28.96160040202047,-65.03596900315362,-15.5988567833215
-5.806407693333332,-69.67689232,7.5884790409125,-0.05797424749999891,5.7777357,0.38940318900205617,0.0,47,12,172.91616501418784,790.207675,mp-1216214,Y2(CoCu)5,https://materialsproject.org/materials/mp-1216214,-51.455672224210645,-16.881418204931506,-54.837898055176325,-15.132777433747878
-5.395631125945946,-199.63835166,5.7582734586040125,-0.34562035525096546,0.0052439999999999995,0.00010691402366108676,0.0,6,37,571.6173947491841,1982.205292,mp-1216350,Y6Cu15P16,https://materialsproject.org/materials/mp-1216350,-55.97064542487932,-23.93862000816431,-52.8212667220082,-13.673295624407439
-6.2058761975,-74.47051437,8.911337959436516,-0.1680986943750007,7.599937400000001,0.5297883383490504,0.0,47,12,167.18027996426858,897.1785299999998,mp-1217504,TbSm(Co2Ni3)2,https://materialsproject.org/materials/mp-1217504,-52.929396917994005,-17.177065031948196,-54.20876303064208,-14.5050447458991
-8.81365385923077,-114.57750017,8.532678732505905,-0.0068036357692296155,2.5888702,0.1881041258156312,0.0,139,13,160.39446698857262,824.1868599999999,mp-14015,HoMn12,https://materialsproject.org/materials/mp-14015,-56.75702741581454,-23.19687811340239,-57.4860811454941,-8.57701560190941
-6.804154623333332,-40.82492774,9.362229224883404,-0.11792414083333352,7.1257774000000005,1.01360423091606,0.0,191,6,81.92968107422905,461.924975,mp-2740,ErCo5,https://materialsproject.org/materials/mp-2740,-53.846253752520454,-17.347883723710172,-55.16982451070818,-15.914046745553206
-6.077194132307692,-158.00704744,8.602708481440763,-0.4434523607692317,5e-08,1.873619505347338e-09,0.0,129,26,311.0040416236813,1611.21,mp-542389,Dy(SiNi5)2,https://materialsproject.org/materials/mp-542389,-57.54003946702986,-23.0550255220827,-58.90175442253982,-14.345420884609798
-5.3824928925,-86.11988628,5.036175765067274,-1.5314948137500002,4.999999400000001,0.4057171451336225,0.0,12,16,143.62300821960173,435.5879,mp-756352,Li3Cr(NiO2)4,https://materialsproject.org/materials/mp-756352,-9.509186899808727,-64.35703047622401,-26.695176893831743,-62.778212317310256
-8.310203411363636,-182.82447505,7.7770453910793425,-0.2576585916881813,38.186309,1.6207425768414436,0.0,160,22,274.58137082957364,1285.9871,mp-1220094,NdSmFe17N3,https://materialsproject.org/materials/mp-1220094,-51.712671143834456,-22.990166187651273,-56.914711866203184,-10.755583922251828
-8.093664293793104,-234.71626452,6.911346712622013,-0.04606377965517328,49.8313476,1.3296299920214856,0.0,225,29,436.766435864928,1817.8701,mp-30641,Y6Fe23,https://materialsproject.org/materials/mp-30641,-57.30060082484979,-17.592829795263683,-60.77880452930885,-17.680591704060628
-4.828326852342341,-535.94428061,8.131685019427351,-0.28270528322072064,0.0013727000000000001,9.353750129228796e-06,0.0,187,111,1710.2803145556834,8375.2688,mp-683971,Sm15(Ga11Ni13)4,https://materialsproject.org/materials/mp-683971,-55.497304716298466,-20.536047992390852,-53.66004844787944,-13.24040275407204
-5.416542405,-10.83308481,5.934804427935497,-0.6533625750000001,2e-05,9.723238595074651e-06,0.0,221,2,23.971570086664556,85.67493859999998,mp-1487,AlNi,https://materialsproject.org/materials/mp-1487,-50.888132434157974,-51.62270002878814,-68.83080196373311,-42.611846101256255
-8.818230103076921,-114.63699134,8.608002933333449,-0.0121991557692295,0.49396540000000005,0.03610573992164507,0.0,139,13,159.4401549309412,826.5155400000001,mp-22482,ErMn12,https://materialsproject.org/materials/mp-22482,-57.05369841835478,-23.18493930111321,-55.534606868154675,-8.192451725602755
-6.065124598333332,-72.78149518,8.17920107229415,-0.3004128914583326,2.3801067000000002,0.1676925520553108,0.0,47,12,165.40935961338562,814.74532,mp-1222838,LaYNi10,https://materialsproject.org/materials/mp-1222838,-53.490289333736385,-17.132498739319697,-54.90097074890358,-14.232066320825787
-7.303695025555554,-131.46651046,8.110098664888802,-0.33832053111111154,0.00074355,2.846414467521401e-05,0.0,193,18,304.4314157517052,1486.8478,mp-18032,Nb5Ga4,https://materialsproject.org/materials/mp-18032,-53.25759131423707,-28.840618373572838,-53.40122130520442,-32.53104090835371
-6.07334847,-18.22004541,3.8105052415155343,0.7443988491666668,5.18e-05,2.161158880466753e-05,0.0,191,3,27.93318717447618,64.0994,mp-1009655,CaC2,https://materialsproject.org/materials/mp-1009655,-54.78349171152072,-47.439233080060866,-67.93167063634154,-42.67753352209085
-7.479034236666667,-44.87420542,9.192616631017836,-0.31658574500000114,5.4932857,0.7863135027897651,0.038399999999999324,191,6,81.41677223504652,450.717,mp-21305,GdNi5,https://materialsproject.org/materials/mp-21305,-53.968817935100844,-17.56973020753734,-55.494407262699355,-15.770462493477162
-6.151144671818183,-473.63813973,9.51400156913952,-0.2899993308116877,1.3e-06,1.5921481667713156e-08,0.009200000000000765,229,77,951.5624563416452,5451.944509999998,mp-14326,Tm11(Ni10C)6,https://materialsproject.org/materials/mp-14326,-55.56643683799111,-30.81359860188811,-60.3571406103724,-30.308400651485325
-7.293925952916666,-175.05422287,5.538436825824436,-0.5786784756944433,4.25e-07,2.1613362060537848e-08,0.0,55,24,229.1627519339587,764.33218,mp-1207600,YCoB4,https://materialsproject.org/materials/mp-1207600,-37.051226955052094,-12.611028148919114,-40.088699187230844,-10.370842774818938
-6.523234974210527,-123.94146451,8.751116809822648,-0.09460599447368467,21.0014407,0.974090155638294,0.0,166,19,251.2623177825795,1324.163925,mp-1188906,Sm2Ga2Co15,https://materialsproject.org/materials/mp-1188906,-55.19817105978965,-24.7329880496509,-57.41426027362883,-12.141458436251506
-7.454947055,-119.27915288,6.367021188628764,-0.42992704541666704,4.55e-05,1.8871180022538712e-06,0.0,140,16,280.98928976256514,1077.4,mp-30326,Ti5FeSb2,https://materialsproject.org/materials/mp-30326,-49.69782339147665,-7.2176235201123315,-59.72336479921363,0.1607858753640619
-6.598890216578948,-250.75782823,9.26517684560508,-0.10699353921052678,19.9432604,0.4856320151134159,0.0,194,38,478.5929288935877,2670.36668,mp-1203663,Er2Co12Ni5,https://materialsproject.org/materials/mp-1203663,-56.983075305601794,-22.964109579374586,-54.9531602878102,-7.909880318801331
-5.973704020769231,-155.31630454,6.914773909460028,-0.15140305230769313,1.75506615,0.053654723857813134,0.0,42,26,381.2088316106118,1587.42,mp-1216501,V6Ga7,https://materialsproject.org/materials/mp-1216501,-60.204714119905006,-31.14483756891559,-63.64265591732579,-29.50406091335813
-6.6720599794736835,-126.76913961,8.608657483810731,-0.11522319736842085,18.7656755,0.8696776764344697,0.0,166,19,251.46833557284637,1303.675925,mp-1106200,Ce2Ga2Co15,https://materialsproject.org/materials/mp-1106200,-55.24350430308135,-24.687244747904288,-57.45709722838084,-12.171211990133722
-7.039297996388888,-253.41472787,7.682269971083782,-0.7545161965476197,1.455209,0.03711440248489845,0.0,62,36,456.9412090228946,2113.979644,mp-1204625,PrCo5P3,https://materialsproject.org/materials/mp-1204625,-64.16872837931346,-28.736211052927427,-65.30426759220543,-15.992523994870307
-9.292349534285714,-65.04644674,9.778342908817674,0.034982466122857304,0.0002777,4.390961580833127e-05,0.0,166,7,73.70444326970801,434.0201,mp-1217441,Tc4N3,https://materialsproject.org/materials/mp-1217441,-57.98355295938228,-15.922980524648384,-61.041759918107125,-5.204594907833888
-8.669630672777778,-156.05335211,9.131402171901767,-0.06902761763888697,0.0,0.0,0.0,193,18,258.0916838727107,1419.2614,mp-18021,Ge3Mo5C,https://materialsproject.org/materials/mp-18021,-67.48665000286029,-15.259813346121753,-72.34737981646158,-10.536686892739029
-7.605353321052631,-144.50171310000002,7.314148273530048,-0.028456883157894863,30.3219256,1.3264260295276211,0.0,166,19,266.4103968895895,1173.4533772,mp-1190010,Pr2Al2Fe15,https://materialsproject.org/materials/mp-1190010,-52.76954192792688,-23.74193927147169,-56.13442145400886,-11.465282534530074
-7.102533236666668,-85.23039884,7.727679818012293,-0.7863583550000008,2.5e-07,1.5230544676135738e-08,0.014599999999999724,62,12,191.29428757101644,890.2295999999999,mp-1102687,ZrNiGe,https://materialsproject.org/materials/mp-1102687,-52.44448891928855,-8.478299272142216,-58.20384449241293,0.7030486259683131
-8.022308080344827,-232.64693433,7.6828206741229295,0.2316512889655175,32.419908899999996,0.8288576168494977,0.0,225,29,455.83669687104896,2109.020935,mp-1194037,Pr6Mn23,https://materialsproject.org/materials/mp-1194037,-56.88938051578707,-16.433438036535325,-50.730190798861855,-14.437533233108704
-6.3088023,-113.5584414,7.692489137461548,-0.3774063377777779,1.3067549999999999,0.059922623578681215,0.0,166,18,254.1445367769961,1177.3310000000001,mp-574339,Y2Ni7,https://materialsproject.org/materials/mp-574339,-63.48666960692875,-17.053596192055256,-59.14960690722461,-13.909674568874982
-8.057278449166667,-290.06202417,8.986833884118196,-0.4392935260185185,0.0006625,1.775272061270918e-05,0.0,142,36,434.90899678179255,2353.7266,mp-1200756,Pr(BRu)4,https://materialsproject.org/materials/mp-1200756,-58.11253084110464,-11.97193655885742,-57.967549826966476,-1.3519496526833958
-8.767522963888887,-315.6308267,10.788885619740398,-0.4262363996296301,1.29066545,0.03563835424888908,0.0,142,36,422.0592973782951,2742.21164,mp-15355,U(BRu)4,https://materialsproject.org/materials/mp-15355,-58.17187257810875,-12.018348627470072,-57.88595994768029,-1.4110953511273183
-8.439577514545455,-185.67070532,7.732734441279144,-0.2785235230518181,37.006178600000005,1.5793533790609309,0.0,166,22,273.0689712050022,1271.6171,mp-5662,Ce2Fe17N3,https://materialsproject.org/materials/mp-5662,-51.77411253947165,-23.093896137967448,-57.14383513629266,-10.648139999518714
-7.126896409090909,-78.3958605,7.9602382283900415,-0.06236905363636356,12.740357300000001,1.0444462183112344,0.0,187,11,142.15853970903945,681.4749999999998,mp-1225358,Fe7Ge4,https://materialsproject.org/materials/mp-1225358,-50.69385937385787,-52.2421676840466,-69.63539204187627,-41.44179401177181
-7.527846440454545,-828.06310845,8.920170565809297,-0.5434603734545456,9.9654141,0.08363383780567839,0.0,176,110,1388.6434540601028,7459.58762,mp-569882,U6Co30Si19,https://materialsproject.org/materials/mp-569882,-63.13102470567153,-28.683899599473964,-62.40788107184312,-16.00664453385821
-7.509797418571429,-157.70574579,7.888398131984539,-0.10452235011904808,25.771373800000003,1.094566689578078,0.0,12,21,274.3928372777544,1303.5044,mp-1220755,Nd2Ga3(Fe7C)2,https://materialsproject.org/materials/mp-1220755,-51.65517815536518,-23.1546875515142,-56.926645397845725,-10.823220280917651
-6.1506391972413805,-178.36853672,8.187296770908485,-0.4734680248275862,0.0002672,6.477140515941376e-06,0.0,225,29,480.7624752873485,2370.402,mp-1193884,Zr6Ga16Ru7,https://materialsproject.org/materials/mp-1193884,-43.93347463372353,-37.76283547072275,-60.840095514012155,-30.935497626790557
-5.479717131842105,-208.22925101,9.531385364056213,-0.14876787500000058,8.14933315,0.2028242574128529,0.0,194,38,468.2519615489026,2687.7356,mp-1199108,Yb2Ni17,https://materialsproject.org/materials/mp-1199108,-57.58945662588295,-22.778673377605195,-58.79766759814736,-14.270384858990411
-6.8811548937037035,-371.58236426,8.01963971236997,-0.61522885037037,1.2817885166666667,0.022014628188965383,0.0,176,54,678.5509284887261,3277.08885,mp-1198238,ErCo5Si3,https://materialsproject.org/materials/mp-1198238,-63.8703305832446,-29.11965239520192,-65.44191299385828,-16.545729401716525
-8.29247042090909,-182.43434926,7.6104672787460395,-0.2360202271427286,38.5255016,1.6161854610678432,0.0,166,22,277.8014663893236,1273.2004,mp-1190963,Pr2Fe17N3,https://materialsproject.org/materials/mp-1190963,-51.575738855438935,-22.740132269286708,-57.196582999427726,-10.67462989455944
-7.632388756842105,-145.01538638,7.579305030118394,-0.06257993447368455,30.2083756,1.3476539767365694,0.0,166,19,261.23201652157354,1192.3580772,mp-1188423,Sm2Al2Fe15,https://materialsproject.org/materials/mp-1188423,-53.409655637658574,-23.741846532912845,-55.79151120056678,-11.07579105443744
-7.165011658947368,-272.27044304,8.692793128559837,-0.10311282421052606,19.0244008,0.441514913753876,0.0,164,38,502.1610647243737,2628.77424,mp-1227870,Ce2ZrCo16,https://materialsproject.org/materials/mp-1227870,-55.07089598030785,-22.856800593944513,-54.80150441009711,-8.791631187344555
-5.913560726666668,-35.48136436,9.360104408114443,-0.3307730100000003,1.511744,0.21779799200796687,0.0,191,6,80.89129901107644,455.967,mp-1179,DyNi5,https://materialsproject.org/materials/mp-1179,-54.11702632391847,-17.630792414625137,-55.53712290824847,-16.249036108833618
-7.72291642125,-123.56666274,6.925199956923424,-0.3148832568749995,1.26093335,0.0648341472149173,0.0,193,16,226.6552359525691,945.255,mp-20916,V5Ge3,https://materialsproject.org/materials/mp-20916,-60.09679591457481,-26.00358994022202,-68.98479303914348,-14.059855002123866
-8.82867108125,-141.2587373,8.120571711676169,-0.08813015249999978,0.006822375,0.00027665548398674494,0.0,38,16,287.3913757534672,1405.43656,mp-1220710,Nb3Ge,https://materialsproject.org/materials/mp-1220710,-54.21927844681525,-20.158237851604774,-53.95946841177869,-13.780886574889017
-9.151051262272727,-201.32312777,7.984511001286196,-0.07558023346591111,20.8050371,0.8968838015033127,0.0,166,22,270.3396466214491,1299.8971,mp-1191346,Gd2Fe17C3,https://materialsproject.org/materials/mp-1191346,-51.92625444267763,-23.235747103696397,-56.79575863742694,-10.71853361153199
-8.137793528636363,-179.03145763,7.914736474501219,-0.28352056668818193,34.0048547,1.4675995711419851,0.0,166,22,270.02922803180684,1287.058075,mp-1191482,Ce2Fe12Co5N3,https://materialsproject.org/materials/mp-1191482,-52.02543754209492,-23.296337948680247,-56.30352636926223,-11.161553368614552
-9.893971437894736,-187.98545732,14.033507433627964,-1.6522710104605245,0.0453814,0.002288047065561619,0.0,8,19,231.1481188607557,1953.4734,mp-685006,Ta10O9,https://materialsproject.org/materials/mp-685006,-36.19874765861852,-10.825055929093699,-37.98342615645002,-11.990221368103384
-9.886042427777776,-177.9487637,13.121648029525941,-0.6193748099999996,0.0011073,5.803859150907942e-05,0.0,51,18,222.34422971199413,1756.9732800000004,mp-1205358,TaBRu,https://materialsproject.org/materials/mp-1205358,-57.24165411684183,-20.141089337773746,-62.58429865926488,-4.045200783974446
-7.665812784736842,-145.65044291,7.9513904191410045,-0.043315584210528425,29.6719563,1.3169229723865403,0.0,166,19,262.5809617567082,1257.353,mp-1182265,Ce2Ga2Fe15,https://materialsproject.org/materials/mp-1182265,-53.81410687554814,-24.152090695243373,-57.06145008802764,-12.68481477266681
-8.297315656363638,-182.54094444,8.029425461326763,-0.08147588755681894,34.7231745,1.5014304875070617,0.0,166,22,269.5203861244291,1303.2478,mp-1191539,Tb2Fe17C3,https://materialsproject.org/materials/mp-1191539,-52.09951960672741,-23.33770784366446,-55.847223743582326,-11.283662242947928
-7.007241219791666,-336.34757855,8.387704840381405,-0.7222531472916671,1.575e-06,2.2763906576214214e-08,0.0,55,48,806.3269788657732,4072.914,mp-31084,ZrGe2Rh,https://materialsproject.org/materials/mp-31084,-57.4705587984139,-7.315158698914464,-54.42122011084651,-7.800091382082883
-7.280292103157893,-138.32554996,8.12840200438577,0.016249284736843308,28.780788,1.2951499075805302,0.0,160,19,258.97632821817064,1267.6990150000001,mp-1219878,Pr2Mn4Co13,https://materialsproject.org/materials/mp-1219878,-53.599600588182604,-24.03790519394044,-56.15837354469554,-11.487674491654305
-7.935976232272727,-174.59147711,7.636136465660564,-0.05936701477272844,35.1851658,1.470273571873857,0.0,166,22,278.8938120841313,1282.518,mp-1190200,Sm2Fe17B3,https://materialsproject.org/materials/mp-1190200,-51.56000284553395,-22.776441550927483,-57.26469174244306,-10.50116288166862
-8.181045858095237,-171.80196302,7.319435559742713,-0.7032134326190468,16.4314954,0.7069789626071689,0.0,174,21,270.8619659564321,1193.923574,mp-1191573,Tb2Mn12P7,https://materialsproject.org/materials/mp-1191573,-63.018190884477846,-29.399935662792927,-64.82095974007298,-17.28885003037773
-7.424096675555557,-267.26748032,10.84521470736593,-0.7196979950000002,2.1175e-05,6.659674602412757e-07,0.0,55,36,370.55086966193,2420.12,mp-1199915,Lu2B6Os,https://materialsproject.org/materials/mp-1199915,-35.753262637469895,-10.618752441182366,-37.68683871918803,-12.139542587174613
-7.178845593611111,-258.43844137,8.444104308837018,-0.6735048736111113,3.9425e-05,1.189785734309474e-06,0.0,55,36,386.1716361264219,1963.744,mp-1198707,Dy2B6Ru,https://materialsproject.org/materials/mp-1198707,-35.65824702216815,-10.495074545487391,-37.752779375664794,-12.222298128173705
-5.9016817433333335,-35.41009046,9.623694000959562,-0.3401049650000007,1.5435813,0.2254658075139265,0.0,191,6,79.78591809669746,462.40120999999994,mp-11526,TmNi5,https://materialsproject.org/materials/mp-11526,-54.30499375018695,-17.700674108912363,-55.648359177138865,-16.024228502263778
-6.121255167222222,-110.18259301,9.086592159101397,-0.4347673062962972,0.0797707,0.004032884011137933,0.0,191,18,230.51813595058326,1261.41225,mp-541883,Tb3Ni13B2,https://materialsproject.org/materials/mp-541883,-60.22844390087307,-14.412135494921884,-54.754436690369815,-1.3300364163304106