energy_per_atom,energy,density,formation_energy_per_atom,total_magnetization_uB,total_magnetization_T,band_gap,sgr,num_sites,cell_volume,weight,mp_id,formula,URL,tsne_cry_lin1_0,tsne_cry_lin1_1,tsne_cry_lin2_0,tsne_cry_lin2_1
-6.3819938725,-51.05595098,6.5208048640926215,-0.052116202499999716,15.2821093,0.9695741951721332,0.0,10,8,183.68753266161147,721.3263450000001,mp-1221638,MnCr3Te4,https://materialsproject.org/materials/mp-1221638,53.66201571980292,33.7566890762322,-8.604250342815693,-0.5045126942092143
-6.463777306551725,-187.44954189,5.066919681397813,-1.2324720257068966,0.0011302,2.1413874310715216e-05,0.0,2,29,615.0883214699808,1876.8623,mp-1224082,K(Ti3Se4)4,https://materialsproject.org/materials/mp-1224082,23.093061895306693,15.036521342023098,-8.604250342815693,-0.5045126942092143
-6.257248797619049,-525.6088990000001,7.3513739745486735,-0.3250562063690471,7.5e-08,3.6613838221867765e-10,0.9527,61,84,2387.225432759858,10568.488000000001,mp-667286,Re6Te7Se8,https://materialsproject.org/materials/mp-667286,65.58481955786945,17.471303938856106,7.010347256606036,-6.1348611434444855
-6.591702144199999,-329.58510721,7.7104787301861215,-0.7231034128999988,0.5473664,0.005424797712260596,0.0,8,50,1175.904396491233,5460.146145000001,mp-1217952,Ta12Co3Pt3Se32,https://materialsproject.org/materials/mp-1217952,47.949246282031574,25.553963018660745,-8.604250342815693,-0.5045126942092143
-3.152296900625,-50.43675041,8.20127187707351,-0.2892419612500001,0.0,0.0,0.00399999999999956,140,16,534.1422066910209,2638.0864,mp-3019,Tl4SnTe3,https://materialsproject.org/materials/mp-3019,58.45471412124855,23.911023110492483,2.8683556113335187,-4.91811020734292
-5.7595409565,-115.19081913,6.272048865429532,-0.7152409371666664,0.34542059999999997,0.007943524021725965,0.0,2,20,506.77180998840385,1914.136,mp-1217210,Ti2Te3,https://materialsproject.org/materials/mp-1217210,55.01716848173962,33.102462240955745,-8.604250342815693,-0.5045126942092143
-5.7251989925,-68.70238791,2.6332747117652744,-3.2273025716266672,2.0000001,0.1380452391472861,2.3001,15,12,168.84414742950656,267.75222560000003,mp-849734,LiVF4,https://materialsproject.org/materials/mp-849734,-22.34244113852026,-51.281785160703365,8.235443975957091,2.0281007138501805
-6.04533885357143,-84.63474395,3.6962050517977434,-1.5676600644642866,6.000001999999999,0.24591552077644865,0.0,166,14,284.3432237327265,632.9214999999998,mp-1247220,LuMg2V3S8,https://materialsproject.org/materials/mp-1247220,22.760270024057398,10.907017072121851,-8.604250342815693,-0.5045126942092143
-4.683635341666666,-56.203624100000006,4.812661145793596,-0.04834136666666685,0.0,0.0,0.7288999999999999,12,12,305.48396014005107,885.3696,mp-9548,GeAs,https://materialsproject.org/materials/mp-9548,39.5822365777914,11.955544302096662,5.7171917562534,-6.296010783079296
-5.7225124625,-68.67014955,2.650798306300648,-3.224616041626668,2.00000005,0.13896388224946454,2.1193,15,12,167.72797183357648,267.75222560000003,mp-755801,LiVF4,https://materialsproject.org/materials/mp-755801,-22.29223865712156,-51.574010959710044,7.884177543119469,0.4419017111086151
-6.329553517142857,-88.61374924,4.799240952461121,-0.6922956336160715,14.844964800000001,0.6481238180245645,0.0,216,14,266.93075692368956,771.4753999999998,mp-1226331,Cr4FeCu(SeS)4,https://materialsproject.org/materials/mp-1226331,13.68511628974652,2.322409017805266,-8.604250342815693,-0.5045126942092143
-6.240106701818181,-68.64117372,7.307956175808374,-0.3919941886363629,8.641521699999998,0.3992960943362663,0.0,8,11,252.21597469588173,1109.99094,mp-1223457,La2Fe4Sb5,https://materialsproject.org/materials/mp-1223457,3.2469579026052604,34.488310622333415,-8.604250342815693,-0.5045126942092143
-3.071949904285714,-86.01459732,4.1339636275688285,-0.9323768460591129,3.00000015,0.02614231475866666,0.6317999999999999,62,28,1337.379508606757,3329.447915200001,mp-1192894,Cs2CoI4,https://materialsproject.org/materials/mp-1192894,20.915909755732983,-1.7331228523633608,4.186617900275014,-5.998327991241722
-6.054544465,-24.21817786,8.715680378096133,-0.8799898649999998,1e-07,1.624642583833231e-08,0.0,225,4,71.7330992584396,376.505912,mp-4897,ScSnPd2,https://materialsproject.org/materials/mp-4897,29.151984365305122,41.35779864358007,-8.604250342815693,-0.5045126942092143
-6.180213653928571,-173.04598231,4.633022788142116,-1.1987031486309527,2.999330875,0.06427158616355064,0.4112999999999998,31,28,543.8545767742588,1517.3932,mp-1247013,ZrCrAgS4,https://materialsproject.org/materials/mp-1247013,17.920474382375538,4.477367281921532,4.803203533679257,-5.752393905303625
-2.68579894,-24.17219046,4.8814669145417975,-0.7742156867432948,0.0,0.0,0.5470000000000002,225,9,383.5258598887725,1127.44642,mp-28110,Rb2PtI6,https://materialsproject.org/materials/mp-28110,9.853960869314497,-6.618622841502551,5.6707561822681924,-5.560704420512729
-3.0156164866666666,-27.14054838,4.001133745845254,-1.3464559928281992,0.0087545,0.00032015871000019326,0.8860000000000001,139,9,318.6716677216505,767.8518437999999,mp-607298,Cs2Pd(ICl2)2,https://materialsproject.org/materials/mp-607298,9.163546181742415,-5.860117090249858,7.389757186905628,-6.279487157756412
-4.737072946666667,-14.21121884,7.821288412821826,-0.3917970390625006,0.0,0.0,0.6280000000000001,164,3,74.94633778179194,353.004,mp-1115,PtSe2,https://materialsproject.org/materials/mp-1115,64.5022760749672,15.678013502911535,5.593889680739571,-6.158513698161196
-6.87294269,-109.96708304,2.9482310904953213,-2.5232754402083337,2.00000015,0.14818512870083286,2.0186,20,16,157.29062354350881,279.2642,mp-1177802,Li2VBO4,https://materialsproject.org/materials/mp-1177802,-21.847650935997613,-54.59557468529711,8.16211558372884,1.2160755812350237
-6.3452148457142865,-44.41650392,5.904217350786716,-0.389323954910714,8.974688800000001,0.7818037270700665,0.0008999999999996787,12,7,133.78243281180002,475.6772,mp-5749,Cr2FeSe4,https://materialsproject.org/materials/mp-5749,23.68428723851747,16.938381179721905,-8.604250342815693,-0.5045126942092143
-4.3101518925,-51.72182271,5.995074610020537,-0.7011245568749995,1.75e-06,6.740044259953103e-08,1.0487000000000002,12,12,302.5887155245679,1092.4416,mp-971673,BiS2,https://materialsproject.org/materials/mp-971673,71.32624175399997,16.84806706582162,8.731623380174394,-6.376923060983992
-6.178300376785714,-172.99241055,4.611878781388463,-1.1967898714880951,2.999796125,0.06398819020864724,0.3071999999999999,26,28,546.3479781383029,1517.3932,mp-1246342,ZrCrAgS4,https://materialsproject.org/materials/mp-1246342,17.923936704231227,4.490824566984903,4.491740368313611,-5.552394573615006
-3.9994909375,-15.99796375,6.8890203991475305,0.039393701249999864,0.0001496,1.513524510470124e-05,0.0,21,4,115.19126898271296,477.89,mp-1218972,Sn3Sb,https://materialsproject.org/materials/mp-1218972,34.34108004498605,35.82681818293407,-8.604250342815693,-0.5045126942092143
-8.43113247142857,-354.10756380000004,5.106471397055653,-3.482258351309524,0.0001472,3.288198786230312e-06,1.8940999999999997,3,42,521.7076113842442,1604.34951,mp-761156,Li3La5Ti6Nb2O26,https://materialsproject.org/materials/mp-761156,6.1228087461837175,-40.96706203431343,5.617184800207994,-3.391761061000405
-5.8197754125,-23.27910165,10.004112151182934,-0.6730089400000008,2e-07,3.008348020325526e-08,0.0,225,4,77.47816870801161,466.776312,mp-973126,ScBiPd2,https://materialsproject.org/materials/mp-973126,28.162306752278976,40.69921839194825,-8.604250342815693,-0.5045126942092143
-4.905183047857143,-137.34512534,7.719319496341764,-0.641237490714286,1.2e-06,1.7405028491828217e-08,0.0,11,28,803.4963995398011,3735.2,mp-13451,Dy2Sb5,https://materialsproject.org/materials/mp-13451,3.685747411600599,33.36464290088104,-8.604250342815693,-0.5045126942092143
-5.4472098010000005,-108.94419602,7.792797366422835,-0.4147349861562503,0.0,0.0,0.0,60,20,377.32570402716834,1770.764,mp-1105666,Rh2Se3,https://materialsproject.org/materials/mp-1105666,38.789001370011654,5.975642681507384,4.753694239573074,-6.207312891123849
-6.01694587361111,-216.61005145,4.3157326894764445,-2.2256804752577786,4.9999998833333335,0.13892522068732568,1.3566999999999998,6,36,419.4366020429409,1090.1136384000001,mp-759880,FeOF,https://materialsproject.org/materials/mp-759880,-41.44308254308446,-76.6342540701175,5.728949383174852,-0.1497430086710531
-7.110290524666668,-106.65435787,6.395053866453113,-0.7531785700416672,0.000322,1.1806012842181662e-05,0.0,1,15,317.85573223811326,1224.1233,mp-1216748,TlMo6(SeS)4,https://materialsproject.org/materials/mp-1216748,64.78129384297577,33.82494264353343,-8.604250342815693,-0.5045126942092143
-4.6942726725,-93.88545345,3.775693510890982,-1.4132831029375006,0.0,0.0,0.9831000000000004,62,20,448.563131318786,1019.932,mp-866811,CaSnS3,https://materialsproject.org/materials/mp-866811,43.021868230732935,0.8783875395180647,5.468941563370099,-6.7367706377458525
-3.67469599,-18.37347995,7.484253239414841,-0.22994893800000046,0.0,0.0,0.33119999999999994,166,5,177.6656304331031,800.7608,mp-34202,Bi2Te3,https://materialsproject.org/materials/mp-34202,66.57701017108099,23.93711499743664,3.871883002335736,-5.847777226159077
-6.810751453295455,-599.34612789,3.019025778367471,-2.329155712102988,5.999999425,0.07608215846849307,2.0421000000000005,14,88,919.0641188660258,1670.950336,mp-759104,LiV3P2(HO3)4,https://materialsproject.org/materials/mp-759104,-17.439700041345368,-49.0341447426479,8.259693990275471,-0.2729617072246996
-6.375125404642858,-178.50351133,4.739286950882729,-1.789294712857144,20.9999991,0.8259452720720122,1.3687,160,28,296.30940210013983,845.6864,mp-773699,LiMg(Fe5O8)2,https://materialsproject.org/materials/mp-773699,-27.608100499347906,-33.37979707146908,7.704283904609742,-2.8615581482029544
-6.49497450475,-259.79898019,6.435406122211679,-2.109199516187501,3.000004425,0.045093831397539474,0.28610000000000024,58,40,775.3221405982239,3004.75492,mp-1208101,Tm3CrS6,https://materialsproject.org/materials/mp-1208101,25.7569387839295,5.702645846661071,3.855768986554848,-5.693835207069329
-3.153724725625,-50.45959561,8.429732147321191,-0.30991513093750056,0.0,0.0,0.11580000000000013,87,16,537.0973215538568,2726.5764,mp-1216824,Tl8SnTe6Pb,https://materialsproject.org/materials/mp-1216824,58.475525469697224,23.860755533723268,4.006017811056837,-5.6266595674362145
-3.8244115175,-15.29764607,10.944865950226264,-0.18290198,7.05e-06,8.577397905516366e-07,0.0,194,4,95.7879738722459,631.353138,mp-1775,SnAu,https://materialsproject.org/materials/mp-1775,37.570462584268796,32.08927814750119,-8.604250342815693,-0.5045126942092143
-1.9651479495,-157.21183596,4.4295993886041884,-0.1214175315000002,0.00045755,1.3995507476618888e-06,1.7080000000000002,14,80,3810.020712427141,10163.48608,mp-651155,TeI4,https://materialsproject.org/materials/mp-651155,66.61920541735276,-10.565188451419258,8.822116174531587,-4.7205451038517925
-3.3606003406666667,-100.81801022,4.722324684541403,-0.718087698188,2.6899999999999997e-05,3.3426029045857784e-07,1.3365999999999998,2,30,937.8749176331032,2667.176,mp-1193756,Te7IrCl7,https://materialsproject.org/materials/mp-1193756,65.90197219062169,18.07770590343219,9.034321784497688,-6.408043400290122
-5.98331498125,-95.7330397,7.137358376913627,-0.4392585037500005,0.0,0.0,0.0,53,16,378.5753106294305,1627.19912,mp-20506,NbNiTe2,https://materialsproject.org/materials/mp-20506,52.11192322393399,27.836046226517983,-8.604250342815693,-0.5045126942092143
-5.009755136666667,-60.11706164,5.435011242281033,-1.1677644011646915,3.00000005,0.0963807571524983,0.0,63,12,362.75078068813497,1187.2979338,mp-13259,CsHoCoSe3,https://materialsproject.org/materials/mp-13259,26.34169371175989,4.663464138609567,-7.0800535336036745,-2.9845294538243365
-9.253671008571429,-129.55139412,5.698941823057445,-1.9417080794642865,18.99961205,0.7634337640304791,0.8617999999999997,122,14,290.0352590056072,995.3960900000001,mp-674348,Gd2MnS4,https://materialsproject.org/materials/mp-674348,27.229361803783718,1.1302177765145482,6.8455794218566695,-6.393125515920444
-4.06200991,-8.12401982,6.6767259045875855,0.06533631000000018,7e-05,1.3469618325254441e-05,0.0,11,2,60.564784716256476,243.52,mp-632286,Sb,https://materialsproject.org/materials/mp-632286,37.224203009978325,28.27706116560009,-8.604250342815693,-0.5045126942092143
-4.033193733,-40.33193733,2.917559427376777,-1.8575021944749657,3.0,0.12222532174248685,1.6008,225,10,286.0470630737218,502.58336928,mp-1114446,Rb2NaMoCl6,https://materialsproject.org/materials/mp-1114446,11.513463232744535,-8.721601768765245,7.659219518460421,-2.9798726321504696
-5.0508709477,-505.08709477,5.6079983986561945,-0.5722635773000008,0.0,0.0,0.4180999999999999,14,100,3570.0781128779972,12056.9236,mp-568318,KTaTe3,https://materialsproject.org/materials/mp-568318,56.36924230728145,27.158918412443718,-8.604250342815693,-0.5045126942092143
-4.228644587297297,-312.91969946,4.910789495769426,-0.8684349307742123,4.355e-05,2.961860705868777e-07,0.6654,1,74,1713.5664747478525,5067.6100000000015,mp-1225003,In10(Sn2S7)3,https://materialsproject.org/materials/mp-1225003,39.12445195207605,-2.1135442878031068,4.4876757160468825,-5.462616234964434
-3.4029487739285718,-95.28256567,3.5013259051498324,-1.1659318597413793,3.0018257,0.033560674044936734,0.6409,62,28,1042.3947712400688,2197.93918,mp-23366,Rb2CoBr4,https://materialsproject.org/materials/mp-23366,20.99353300815455,-1.6394753409356075,5.690240168943688,-6.491193273911848
-4.471208379285715,-62.59691731,7.883350470930256,-0.9471466378571434,0.0002133,6.046565575964101e-06,0.0,63,14,411.1113961731292,1951.7368399999998,mp-1104890,Tm2Te5,https://materialsproject.org/materials/mp-1104890,-9.830923056639731,24.32967973805024,-8.604250342815693,-0.5045126942092143
-5.604723345166667,-336.28340071,7.557765205628798,-0.4796131481666672,1.0985118833333334,0.008639402353395291,0.0,57,60,1481.8303533185904,6744.3918,mp-1210142,PrFeSb3,https://materialsproject.org/materials/mp-1210142,3.3558645594218697,34.22153924982764,-8.604250342815693,-0.5045126942092143
-5.12444766,-25.6222383,2.4995471839699888,-1.3031689992250002,4.999999400000001,0.5312430174199018,0.5698000000000003,119,5,109.68674403169041,165.107345,mp-753940,KLiMnS2,https://materialsproject.org/materials/mp-753940,25.11598755073909,0.9135462457413948,5.4040009438892485,-5.852855674033957
-5.976620420833334,-143.43889009999998,4.288317852822469,-2.18535502248,5.00000005,0.2070640955330636,1.6225999999999998,88,24,281.41201542204215,726.7424255999998,mp-759592,FeOF,https://materialsproject.org/materials/mp-759592,-41.15682675093893,-76.15992223070714,6.8420004501334075,-1.815855221425008
-4.318862600357143,-120.92815281,4.503689131556935,-0.2005345546921181,0.0,0.0,0.8435999999999999,62,28,778.9329909405333,2112.6104,mp-1192510,Rb(GeAs)3,https://materialsproject.org/materials/mp-1192510,39.552628382128475,12.097642189765734,5.613111124475847,-6.349828697804223
-6.014242955,-144.34183092,4.301285016762315,-2.222977556646668,4.9999997375,0.20769021013087985,1.7664,4,24,280.5636373851533,726.7424255999998,mp-755772,FeOF,https://materialsproject.org/materials/mp-755772,-41.55888808733392,-76.5617971744463,5.158832799122676,-0.6040211583985196
-4.255690695,-417.05768811,6.581407307886963,-0.7354254179528069,0.0,0.0,1.3471000000000002,146,98,2561.474426277206,10152.1892,mp-1228012,Bi19(S9Br)3,https://materialsproject.org/materials/mp-1228012,71.37554640357699,16.76194638860692,9.220976907035428,-6.367505973427877
-6.2391882525,-24.95675301,9.51323547916816,-0.32846840749999995,4.315614599999999,0.7396893354921907,0.0,225,4,67.9940208254297,389.538045,mp-3499,MnSbPd2,https://materialsproject.org/materials/mp-3499,46.07749038479137,37.05402003664735,-8.604250342815693,-0.5045126942092143
-2.5797584233333333,-23.21782581,4.625223509755768,-0.7927275902681991,7.8e-06,2.2334370326509233e-07,0.2121,225,9,407.00366250340187,1133.6577238,mp-569066,Cs2PdI6,https://materialsproject.org/materials/mp-569066,9.106163894986523,-5.8145834993002685,5.219686239684494,-5.520397293782919
-4.828920786666667,-43.46028708,9.32071462736641,-0.3205753386111117,0.0004050333333333333,1.9188540342019592e-05,0.0,189,9,245.9949854224096,1380.786,mp-646733,SmInPt,https://materialsproject.org/materials/mp-646733,2.2615561381584084,48.80131469536303,-8.604250342815693,-0.5045126942092143
-3.784042521666666,-90.81702052,4.449151813193574,-0.22273879133333327,2.5e-08,3.5283068173318305e-10,0.2452000000000005,62,24,825.7547724670886,2212.4793544,mp-29373,KAlSb4,https://materialsproject.org/materials/mp-29373,37.62288625459999,22.05822067617412,3.5423593559205915,-5.4514054481004
-5.278039271666667,-63.33647126,10.079723320681104,-0.5550144328645832,0.0,0.0,0.3358000000000008,29,12,228.4516343269867,1386.736,mp-20817,GePtSe,https://materialsproject.org/materials/mp-20817,40.28211868887184,6.710620515557957,6.740825564098864,-6.599737519522921
-6.017058836111112,-216.61411809999998,4.325061117241376,-2.2257934377577793,5.000240333333333,0.13923220199100778,1.2564000000000002,6,36,418.53194799573487,1090.1136384000001,mp-758716,FeOF,https://materialsproject.org/materials/mp-758716,-41.446760825971005,-76.62012402165419,5.8035456910912995,-0.10265496849570364
-5.146203001964286,-288.18736811,6.788016650065818,-1.629907252589286,6.0925e-05,5.257484189674089e-07,1.2435,29,56,1350.5012486061578,5520.632,mp-1232283,Lu2MgSe4,https://materialsproject.org/materials/mp-1232283,52.03924924383071,6.5687910223703385,7.3448425417580125,-6.056904721866429
-6.486299149285713,-90.80818809,5.441816341200494,-1.303830665416667,3.00043485,0.12279152095702335,0.5806000000000004,10,14,284.76935390338434,933.2286,mp-1246998,HfCrAgS4,https://materialsproject.org/materials/mp-1246998,17.832890951258413,4.3540915274973795,5.892583557872556,-6.126134811561202
-6.018761444074074,-325.01311798,4.316033806222646,-2.227496045720741,4.999999705555556,0.09262327254669958,1.3429000000000002,6,54,629.1110088120091,1635.1704576,mp-759248,FeOF,https://materialsproject.org/materials/mp-759248,-41.453708716870686,-76.64572617140917,5.713797422902588,0.04753353815397092
-5.72787593875,-91.64601502,10.296969293509171,-0.8925856674999997,8.09e-05,3.041960519993298e-06,0.0,166,16,309.9362512772376,1921.90848,mp-1215984,YTm3(SnPd2)4,https://materialsproject.org/materials/mp-1215984,29.123091661936396,41.35990436558064,-8.604250342815693,-0.5045126942092143
-5.902532228928571,-165.27090241,3.0300818256600484,-3.2071380229571433,5.99999975,0.1744063309851258,1.6368,43,28,400.9280243835038,731.59660256,mp-1120795,NaV3F10,https://materialsproject.org/materials/mp-1120795,-22.728663202637247,-51.071466700581425,6.232314734308099,1.168901044458217
-4.00277624,-16.01110496,6.763499923267911,-1.1758160732183909,0.0,0.0,0.9098000000000006,225,4,151.0174655407226,615.1054518999998,mp-867341,CsAcTe2,https://materialsproject.org/materials/mp-867341,59.3789855964853,22.35222055464512,7.304371492960184,-5.099538084878869
-6.113126964285714,-42.79188875,3.000448512064982,-1.348200342964286,3.0,0.2495671388172471,0.0,6,7,140.09133767920133,253.13276928,mp-676586,Na(VS2)2,https://materialsproject.org/materials/mp-676586,19.699737591522698,13.502988083633781,-8.604250342815693,-0.5045126942092143
-6.8944764933333325,-41.36685896,7.4008711362591875,-0.7127019266666679,6.944694800000001,0.4560426179807854,0.0,11,6,177.47008685988308,790.9680000000002,mp-611062,EuSb2,https://materialsproject.org/materials/mp-611062,0.9317520493280076,35.24868464762357,-8.604250342815693,-0.5045126942092143
-6.0125471825000005,-288.60226476,4.31919032942303,-2.2212817841466683,4.99999906875,0.10427737567219501,1.565,2,48,558.8011074725206,1453.4848512,mp-759268,FeOF,https://materialsproject.org/materials/mp-759268,-41.278095335536726,-76.22218240861052,6.49473269619493,-2.4997764756274847