energy_per_atom,energy,density,formation_energy_per_atom,total_magnetization_uB,total_magnetization_T,band_gap,sgr,num_sites,cell_volume,weight,mp_id,formula,URL,tsne_xrd_lin1_0,tsne_xrd_lin1_1,tsne_xrd_lin2_0,tsne_xrd_lin2_1
-2.1864169325,-17.49133546,11.447575704223214,0.011010860000000287,2.8999999999999997e-05,2.222374886582471e-06,0.0,194,8,152.07509788051652,1048.3892,mp-1183250,Ag3Hg,https://materialsproject.org/materials/mp-1183250,-69.68456694605756,2.3908458126790086,-67.73538518689696,11.977020139154513
-9.834222952222225,-177.01601314,11.113585861645902,-0.5067851063888895,0.004638499999999999,0.00019628595654742336,0.0,46,18,275.4011565491578,1843.1932800000002,mp-1189470,NbReSi,https://materialsproject.org/materials/mp-1189470,-50.364527590270136,-7.751311184949905,-57.64834031638193,2.0331804709441967
-8.86588235234375,-1134.8329410999997,7.838682540137928,-0.4824248933854172,6.6979760375,0.05896887277056013,0.0,56,128,1323.7262799611806,6248.736,mp-680207,Gd2(FeB)7,https://materialsproject.org/materials/mp-680207,-39.154002163438065,-10.362913324373146,-56.85512787047015,0.9156799322107099
-7.0527888758333335,-169.26693302,8.653418754194385,-0.6295851152777784,0.0,0.0,0.0,55,24,241.8506794528738,1260.33484,mp-13343,TmB4Rh,https://materialsproject.org/materials/mp-13343,-37.629499768127296,-11.724944274607484,-38.066600252634224,-10.632232090386669
-7.350805361000002,-147.01610722,11.518580752491202,-0.5074399776666667,2.5e-08,8.575427734760478e-10,0.0,136,20,339.7517049009686,2356.7392,mp-1185055,Hf2InNi2,https://materialsproject.org/materials/mp-1185055,-54.84564636004152,-9.493878989421807,-56.90996424360146,-18.679241813062642
-6.0186462475,-48.14916998,17.352781492991117,-0.32033802124999955,0.0,0.0,0.0,140,8,125.91126679546198,1315.784,mp-16315,GePt3,https://materialsproject.org/materials/mp-16315,-60.25716423898318,-38.251925542636336,-60.60631198818875,-28.48050227154905
-5.5263341442857135,-154.73735604,10.25271577148209,-0.3150989945918375,2.575e-06,6.918914472768664e-08,0.0,14,28,433.72724012489135,2677.9750480000002,mp-1618,PPd6,https://materialsproject.org/materials/mp-1618,-62.12680703003722,-20.976468821067247,-48.870370408202525,-4.520475148830638
-5.1698520073333345,-77.54778011,9.052486819991367,-0.5847647543333342,9.123333333333332e-05,4.046289660932164e-06,0.0,221,15,262.7689229342648,1432.494,mp-1103943,ErGa3Ru,https://materialsproject.org/materials/mp-1103943,-38.527596285835926,-58.59501668115834,-56.68129626823482,-32.98408997012898
-7.877599646764707,-267.83838799,7.540196844083973,-0.6689777683088243,0.16649270000000002,0.003359066916670891,0.0,194,34,577.6356226571875,2622.9352,mp-1207431,Zr9NiMo4O3,https://materialsproject.org/materials/mp-1207431,-68.25035336571621,-4.7387196391762965,-63.988144295603334,3.433125793193689
-7.788791847222222,-140.19825325,6.943464230676905,-0.4618149685185181,0.0007119,3.5879989159210066e-05,0.0,193,18,231.22996706523816,966.877,mp-1106398,V5Ge3B,https://materialsproject.org/materials/mp-1106398,-60.11758678366407,-26.047080441168298,-63.71762086045707,-10.868940963131692
-8.493628595833334,-101.92354315,8.279822989611446,-0.8651638441666663,2.5e-08,1.622110349059564e-09,0.0,62,12,179.61269988993448,895.5895199999999,mp-10470,NbSiRh,https://materialsproject.org/materials/mp-10470,-52.680865915872495,-8.927383429412245,-57.474385903670616,1.575765231571406
-9.7251096075,-77.80087686,11.508468774832226,-0.06000950249999981,2.18e-05,2.2056482063227817e-06,0.0,194,8,115.18546398900274,798.3,mp-975834,MoRu3,https://materialsproject.org/materials/mp-975834,-54.446062279662655,-46.53292678445189,-65.21255604237264,-36.081423791241605
-6.075754036666668,-36.45452422,8.373585709306957,-0.21748540458333449,2.3271256,0.3161264270017348,0.0,65,6,85.7899566749382,432.61226500000004,mp-1222949,LaCoNi4,https://materialsproject.org/materials/mp-1222949,-52.411455849203264,-16.856428765250314,-54.805013653284185,-15.370653489885507
-2.4512284975,-9.80491399,16.885166940881422,0.07991033749999987,4.9000000000000005e-06,7.336425377008079e-07,0.0,187,4,77.83752229594795,791.4897070000002,mp-1223936,HgAu3,https://materialsproject.org/materials/mp-1223936,-70.18800253605608,2.6422893863699977,-68.57800318254588,11.240968806009867
-8.098821316944445,-291.55756741,9.663868293272564,-0.5036830237962973,0.00021265,5.887230404724812e-06,0.0,142,36,420.9512289337111,2449.81728,mp-1204787,Ho(BRu)4,https://materialsproject.org/materials/mp-1204787,-58.16504224416379,-12.01039471692719,-57.874301884674175,-1.4005445116722264
-6.4785537574999985,-777.4264509,7.352498585588265,-0.017356412333332592,11.038647775,0.07294798590480181,0.0,118,120,1763.5184107647015,7808.4684,mp-579963,Cr11Ge19,https://materialsproject.org/materials/mp-579963,-64.2648217160025,-26.301436326340667,-61.66062004726616,-13.083396575513921
-6.9366937875,-83.24032545,5.872690730720099,-0.7298001641666664,1.55e-06,8.222774959024974e-08,0.0,62,12,219.6801017598256,776.9244,mp-1207382,ZrSiAs,https://materialsproject.org/materials/mp-1207382,-56.64933457724246,-21.925108519430857,-43.11930205183015,-1.2179708241276943
-7.300300926,-109.50451389,5.308744855540795,-1.3225002504999999,0.063081,0.0026726891923998307,0.0,147,15,275.0600638519216,879.3672799999998,mp-1220442,Nb6ZnS8,https://materialsproject.org/materials/mp-1220442,-39.288248826344,-15.004627744537814,-41.21198460768532,-11.245807296156409
-10.72385879,-85.79087032,18.201141973749415,0.6486284971875005,0.0014765000000000002,0.00016454630116021282,0.0,164,8,104.57376747673186,1146.2314,mp-1220045,Os3W3C2,https://materialsproject.org/materials/mp-1220045,-49.41846913805553,-42.04802947957368,-64.54203351587971,-22.69278137636167
-6.970099197692307,-90.61128957,4.905032121218253,-2.369334559230769,0.0054242,0.0003764865178225619,0.16910000000000025,12,13,167.90502487292525,495.9712,mvc-15999,Ca2Mo3O8,https://materialsproject.org/materials/mvc-15999,10.753901126628575,-50.002713927714424,-22.734287703452765,-49.40224319808746
-3.118173870333333,-93.54521611,7.290066281847018,-0.27874403900000005,1e-07,2.4083819360919234e-09,0.2574000000000001,225,30,483.89603816206665,2124.391,mp-1207432,Zr6Zn23Ge,https://materialsproject.org/materials/mp-1207432,-44.02704500690275,-37.75034986512686,-60.73154404171626,-30.985489210821857
-3.74654668375,-29.97237347,8.862670153065032,0.01588710291666695,5.15e-06,5.243502704498869e-07,0.0,194,8,114.46248235399449,610.9119999999999,mp-1184858,InCu3,https://materialsproject.org/materials/mp-1184858,-54.590479422256394,-46.77064202700365,-63.46346203347553,-33.47035982327986
-5.307805836086956,-122.07953423,9.261426635720854,-0.6738613947826091,5.3897902,0.13102349180921136,0.0,229,23,479.40230590688265,2673.8,mp-1190285,Ce6Cd4Pd13,https://materialsproject.org/materials/mp-1190285,-72.86149382201494,-0.8522785600594597,-56.70649537857282,-32.95281086466783
-7.949486408333333,-381.57534760000004,10.56724234184512,-0.4260943394444444,0.6404362375,0.01022007783739183,0.0,70,48,730.2963356318387,4647.417600000002,mp-1199653,Hf2TiNi3,https://materialsproject.org/materials/mp-1199653,-58.24315561960672,-31.739575128529676,-50.11010149161476,-26.514763478055922
-7.745624505833334,-185.89498814,5.035526446997303,-0.7021751952777784,1.55e-06,7.479578046544151e-08,0.0,55,24,241.50828141720757,732.3654,mp-1191641,YVB4,https://materialsproject.org/materials/mp-1191641,-37.57758575728626,-12.020403585985663,-38.38871851072728,-11.216388061782133
-7.103374651388888,-255.72148745,8.241583526409674,-0.8359502698809528,1.36197585,0.03603696675777486,0.0,62,36,440.45201920712685,2186.050444,mp-1196894,TbCo5P3,https://materialsproject.org/materials/mp-1196894,-64.605633651902,-28.999668369286145,-65.07455418429578,-15.537611978724458
-8.119052627777778,-219.21442095,7.765275165477488,-0.08131496229456855,41.4818596,1.4080426127252894,0.0,8,27,343.3363978444772,1605.56394,mp-1227780,Ce2Ti2Fe22H,https://materialsproject.org/materials/mp-1227780,-53.63762238748114,-24.857850036705155,-52.83335594828574,-10.488917100144944
-6.772399533333334,-40.6343972,8.723131213313884,-0.0613460654166668,7.0347849,0.9677567397895036,0.0,191,6,84.71533755833842,445.025975,mp-1429,SmCo5,https://materialsproject.org/materials/mp-1429,-52.56813310717543,-16.84350570254153,-54.74252485586212,-16.202532702891105
-4.958566345,-29.75139807,8.316671775901924,-0.11790245999999982,0.0,0.0,0.0,216,6,81.65334653843723,408.954,mp-30603,ZrCu5,https://materialsproject.org/materials/mp-30603,-76.02567035809184,-22.338772087446063,-69.60466546291853,-7.706071327801986
-8.263290128055555,-297.47844461,7.992493604842043,-0.4732101382407418,9.9e-05,2.819014548476182e-06,0.0,142,36,409.2750827082713,1969.919648,mp-1200617,Sc(BRu)4,https://materialsproject.org/materials/mp-1200617,-58.26565149880556,-11.981019374440805,-57.78868319752102,-1.3839660325774108
-7.278958859166668,-349.39002524,10.6843546623295,-0.6422943241666653,1.9041666666666668e-05,2.7887054090895535e-07,0.0,55,48,795.7556792751137,5120.106,mp-683893,HfGe2Rh,https://materialsproject.org/materials/mp-683893,-57.12515047822737,-8.219463667382044,-53.87942360816522,-7.52545440565963
-8.002971075,-16.00594215,6.545345960558268,-1.21419222203125,2e-06,7.351574686303681e-07,0.0,187,2,31.704948313377663,124.97138000000001,mp-2243,NbS,https://materialsproject.org/materials/mp-2243,-40.716341159417894,-19.920169024238405,-66.87457775041649,6.133737574200309
-7.179852788333334,-86.15823346,5.990296292120337,-0.6097904058333334,3.85e-06,2.745266113407238e-07,0.0,194,12,163.438251596919,589.5938179999998,mp-27319,Sc2Co3Si,https://materialsproject.org/materials/mp-27319,-41.18572379806836,-31.399775115178045,-53.43191289891473,-31.331228397850985
-6.839863325,-82.07835990000001,8.285477833945823,-0.18949909027777775,3.4875152000000003,0.2617066402954611,0.0,191,12,155.30262430559875,774.9028599999998,mp-11610,PrCo4B,https://materialsproject.org/materials/mp-11610,-59.62816116643128,-14.166011324971233,-54.86931342507616,-1.8270823238888758
-6.307314348888888,-227.06331656,7.720419509792738,-0.3759183866666665,1.298170775,0.029872563247987267,0.0,194,36,506.45022230267983,2354.6620000000003,mp-1201276,Y2Ni7,https://materialsproject.org/materials/mp-1201276,-63.53120983977996,-16.500929216918898,-60.54744208800356,-6.174901157982175
-2.638728603333333,-31.66474324,4.732991295204896,-0.08350451666666665,8.2825e-05,4.200311845977861e-06,0.0,63,12,229.80386937497502,655.004,mp-1094659,MgGa2,https://materialsproject.org/materials/mp-1094659,-70.64548621524388,3.1295041480255046,-67.41237669886218,14.1643907617263
-7.463983473333332,-89.56780168,7.8771573259506065,-0.7038959716666671,0.035719975,0.0022158445649739103,0.0,62,12,187.86647263280145,891.1887800000001,mp-1103148,ZrCoGe,https://materialsproject.org/materials/mp-1103148,-52.62552923220332,-8.381382396232093,-58.19692408802381,0.6296392185872438
-4.537005236000001,-22.68502618,7.6898938426821735,-0.4073014540000003,1.2e-06,1.9832274543553086e-07,0.0,164,5,70.51575297810567,326.5558,mp-11397,Ga3Ni2,https://materialsproject.org/materials/mp-11397,-51.88227764042371,-52.4284191059237,-70.65254468728106,-41.60283927670042
-5.17768723,-77.66530845,8.819360456376288,-0.5849934360000001,0.0525347,0.0022928149230339603,0.0,221,15,267.0266973824662,1418.217,mp-1105019,DyGa3Ru,https://materialsproject.org/materials/mp-1105019,-39.84761630080479,-59.333454780631314,-56.44481368504166,-33.55926546977808
-8.649290755833333,-103.79148907,10.767331528370473,-1.0737964574999983,0.0,0.0,0.0,62,12,190.9127739901641,1237.924,mp-13472,HfSiRh,https://materialsproject.org/materials/mp-13472,-51.841792262094756,-8.956400054874607,-57.83471833597659,1.9455492731539108
-12.061877738333335,-144.74253286,18.53068223357877,-0.0015075283333345626,0.004353075,0.00023185200198913355,0.0,194,12,218.80776346364237,2441.77164,mp-19890,URe2,https://materialsproject.org/materials/mp-19890,-66.59028578788374,-6.248035938934102,-63.74717975923839,1.445193586428981
-4.946850236666667,-29.68110142,8.558128536031745,-0.7164147233333331,0.0022546,0.00024090385185457906,0.0,191,6,109.06946582188343,562.125,mp-3494,CeGa3Pd2,https://materialsproject.org/materials/mp-3494,-47.30508832164733,-18.25015150425234,-54.103396879916744,-18.369516338408502
-7.106111164583332,-170.54666795,7.636629265605168,-0.15676937208333305,3.4144082166666667,0.11478728899782645,0.0,194,24,346.6562793180597,1594.23261,mp-1192425,YCo3,https://materialsproject.org/materials/mp-1192425,-63.227896154585714,-16.754076913829383,-61.461291294291286,-6.104014000342422
-4.3817657825,-52.58118939,4.5186311478629335,-0.7389191408333335,1.25e-07,5.712641782469125e-09,0.0,57,12,255.00602909155626,693.9181543999999,mp-571039,CaAlPd,https://materialsproject.org/materials/mp-571039,-34.59062620482947,-7.027603390930321,-39.684219440594504,-15.482745393662524
-9.675752438333333,-58.05451463,15.183846788168983,-0.6704287038888879,6.98955,0.9858518959792216,0.0,191,6,82.62566493330702,755.5230000000001,mp-1077270,GdB2Ir3,https://materialsproject.org/materials/mp-1077270,-63.140646796932685,9.259892724325269,-54.96332938401285,8.984957322708734
-4.874382177857143,-136.48270098,8.93009856044071,-0.6992640350000003,1.025e-05,2.5276750726431045e-07,0.0,63,28,472.5851246134562,2541.483,mp-1213067,Er2(Ga3Rh)3,https://materialsproject.org/materials/mp-1213067,-45.996778856312005,-7.015855469535867,-42.865229704173046,5.373685381583876
-7.3983536619444425,-266.34073183,10.444585904820064,-0.7045528813888882,7.25e-07,2.24062379405642e-08,0.0,55,36,377.0912806745381,2371.85768,mp-1203429,Tm2B6Os,https://materialsproject.org/materials/mp-1203429,-35.71287610798834,-10.583473542143356,-37.77925800015845,-12.106311958098619
-4.861309382045454,-213.89761281,5.2370833664892755,-1.2512069700568185,10.00000005,0.2990111344604833,0.0,2,44,389.7535405113884,1229.2224,mp-768091,Li4Ni7O11,https://materialsproject.org/materials/mp-768091,-9.596302695869328,-64.56364909376317,-27.029866527538925,-62.500904331543005
-8.857559866666668,-53.14535920000001,8.806381332115732,-1.028417093333334,7.011449400000001,0.8299439110487575,0.0,191,6,98.45470804631806,522.1375,mp-622508,GdSi2Rh3,https://materialsproject.org/materials/mp-622508,-44.906576175467606,-9.712788829285424,-52.94239152094223,6.9282475501271605
-5.627646895,-157.57411306,8.262279178884112,-0.6349258857142855,13.8600758,0.324032871480202,0.0,63,28,498.4871454180727,2480.303,mp-645591,Eu2(Ga3Rh)3,https://materialsproject.org/materials/mp-645591,-45.870895329024044,-7.619336503438518,-42.25353681836844,5.491661638961658
-6.466093455999999,-193.98280368,7.841000629132777,-0.31144699266666576,7.519707,0.17056961691996875,0.0,186,30,513.7793824663917,2426.04622,mp-22379,Y3(Co2Sn)4,https://materialsproject.org/materials/mp-22379,-52.43474703906315,-3.2871274055432655,-49.1131039032686,4.550744413779231
-5.906923918333334,-35.44154351,9.25116278474122,-0.3204660700000008,0.0317336,0.0045543746216915705,0.0,191,6,81.20224192913253,452.39235,mp-30808,TbNi5,https://materialsproject.org/materials/mp-30808,-54.054594253143996,-17.55099023303559,-55.40969301741468,-16.156683117446317
-6.938103422352941,-117.94775818,10.4064632212532,-0.8948414635294112,0.0020908000000000003,8.329603167601707e-05,0.0,189,17,292.5267643150333,1833.2414600000002,mp-1105133,Ho3Si2(SnRh3)3,https://materialsproject.org/materials/mp-1105133,-51.68839481330992,-0.30524271155384103,-67.44370664562629,-16.266206124661075
-6.6828506075,-26.73140243,10.890762574959718,-1.1911403912499994,3.15e-06,3.604411866518461e-07,0.0,63,4,101.84824984782301,667.9789400000001,mp-1002104,LaPt,https://materialsproject.org/materials/mp-1002104,-50.406808103550844,5.580381940524125,-40.03845080588991,20.32907930693438
-7.552083756,-75.52083756,5.392450040149982,-1.278336188437501,9.965e-05,6.615365783173453e-06,0.0,11,10,175.5500138086807,570.08276,mp-1220398,NbMoS3,https://materialsproject.org/materials/mp-1220398,1.1478439851225544,-50.54625064451633,-57.55196307540478,-13.74790099780082
-6.609002009583333,-158.61604823,5.3550202627416095,-0.6612633229166663,5.525e-06,1.3220292057480393e-07,0.0,227,24,487.0445190502389,1570.654592,mp-1190862,Sc2Pd,https://materialsproject.org/materials/mp-1190862,-71.26166984029891,-2.7200939878748858,-65.6653832195845,7.593698326804588
-8.133281,-56.932967000000005,4.557547476533705,-0.9324969380952379,6e-07,1.0271392100550837e-07,0.0,71,7,68.07683705464639,186.845,mp-1025170,Ti3B4,https://materialsproject.org/materials/mp-1025170,-51.58640076035832,-18.80704792088063,-53.832100850442934,-14.300813813839786
-7.6520424552272726,-336.68986803,7.196686104527268,-0.08517413367545533,37.9007765,0.8468831791589948,0.0,194,44,521.5572999099363,2260.40104,mp-1207771,Y2Fe17H3,https://materialsproject.org/materials/mp-1207771,-57.22739389813383,-25.54204040606927,-60.076416194612435,-12.114257068965927
-5.65707954125,-45.25663633,7.932500639723262,-0.1484948450000001,0.01223505,0.0010367707713229619,0.0,51,8,137.5309462221415,656.9940799999998,mp-30554,PrGaCo2,https://materialsproject.org/materials/mp-30554,-50.757168512202284,-13.87303405897496,-58.24627806978384,-8.874781534881864
-9.220819570625,-737.66556565,5.945884569530853,-0.4136381531959984,3.34148445,0.049317511901851484,0.0,14,80,789.6155891704473,2827.37294,mp-1246722,Mn3Cr8N9,https://materialsproject.org/materials/mp-1246722,-56.300015659120334,-6.271045495362777,-41.55714527580572,0.06865094848486128
-5.098853253333333,-15.29655976,6.252104864087548,-0.2551460549999991,1e-06,2.550381705146649e-07,0.0,139,3,45.69537473171914,172.04791200000003,mp-1018149,ScCu2,https://materialsproject.org/materials/mp-1018149,-57.702506359819786,-34.681435944774584,-65.90074142860782,-11.144010532450421
-8.639294336111114,-311.0145961,6.6369000269848515,-0.8658027801587294,6.988782725,0.1643703215712018,0.0,189,36,495.5135804319442,1980.485864,mp-1196264,Zr2Mn4P3,https://materialsproject.org/materials/mp-1196264,-51.83666081902281,-0.33189741044073845,-56.12068049379928,19.037004323353678
-5.2523298325,-63.02795799,7.383277660217044,-0.25415701479166697,0.0015318,0.00011007496715422036,0.0,166,12,162.17762203458892,721.0926,mp-568207,NdMg2Ni9,https://materialsproject.org/materials/mp-568207,-58.94577845412756,-24.78120213561161,-60.21023282888712,-18.91966568800526
-6.98169708125,-55.85357665,7.774607778797778,-0.08429033250000018,0.48803025,0.03776279874956745,0.0,194,8,150.61214562476377,705.1628000000002,mp-866201,Ti3Bi,https://materialsproject.org/materials/mp-866201,-34.31911271663835,-16.35604159535765,-41.49888230541178,-10.42920156367268
-6.847459898888888,-246.50855636,12.501574365685961,-0.33978894499999984,0.0,0.0,0.13349999999999973,116,36,601.4740399719481,4528.272,mp-541844,Ge5Ir4,https://materialsproject.org/materials/mp-541844,-42.92923630547853,-17.797197157709203,-51.24923672726728,-15.885066068059265
-6.1026048695,-122.05209739,3.8730246475324135,-2.033445895519,14.0000006,0.8945860089601037,0.5570000000000004,8,20,182.38259057721407,425.38732999999996,mp-1174332,Li6Mn3CoO10,https://materialsproject.org/materials/mp-1174332,-1.993408062782332,-75.79173007104157,-19.000619997739093,-75.44116934734355
-5.234587913030302,-345.48280226,10.24187366653442,-0.5168604650000008,0.028638599999999997,0.0002803306795543167,0.0,5,66,1190.5799961889638,7343.26,mp-1219223,Sn13Pd20,https://materialsproject.org/materials/mp-1219223,-54.066596137410706,-29.3842963773928,-53.64225000506933,-32.62677519976741
-7.968020478,-79.68020478,4.958433542218633,-2.707379718583333,4.00000025,0.4587626742855485,1.6510999999999996,63,10,101.61302262951656,303.4204,mp-19074,TiFeO3,https://materialsproject.org/materials/mp-19074,-22.566659570589813,33.49870980160373,-16.017817176741993,54.18456911800465