energy_per_atom,energy,density,formation_energy_per_atom,total_magnetization_uB,total_magnetization_T,band_gap,sgr,num_sites,cell_volume,weight,mp_id,formula,URL,tsne_xrd_lin1_0,tsne_xrd_lin1_1,tsne_xrd_lin2_0,tsne_xrd_lin2_1
-7.076964086666668,-84.92356904,4.5003611637421725,-0.9634368292187516,0.0077786999999999995,0.00026828788259607384,1.3731999999999998,156,12,337.8962656423631,915.76,mp-1027714,Mo3W(SeS)4,https://materialsproject.org/materials/mp-1027714,-7.426691639000622,-81.99348364357951,-22.12702404243679,-50.69983881724201
-2.87966883875,-23.03735071,2.3919603580285638,0.6216727364062504,3.6969157999999998,0.2916712555380581,0.0,38,8,147.71457719554954,212.778745,mp-1099264,Mg6MnC,https://materialsproject.org/materials/mp-1099264,-48.56131634074767,-30.548801641341328,-56.62028987838801,-28.106834048890036
-7.372912286458334,-353.89978975,10.323537582530227,-0.458024513958333,0.001968258333333333,3.130504758863347e-05,0.0,55,48,732.7319992359849,4555.38,mp-1203443,HfFeGe2,https://materialsproject.org/materials/mp-1203443,-57.5317886348381,-8.286655980355167,-53.604200080890244,-7.791928616264143
-7.420117991000001,-148.40235982,6.8653158066013935,-0.4602441009999992,0.00027545,9.24384648983689e-06,0.0,83,20,347.27016995910867,1435.7502772,mp-1256151,Zr5AlNi4,https://materialsproject.org/materials/mp-1256151,-55.031927483851156,-9.622942014009173,-64.49766382090297,-17.331263985831182
-3.794984981666667,-22.76990989,7.489454908497909,-0.12650140083333325,0.0,0.0,0.0,216,6,88.06574766884371,397.199,mp-3676,MgCu4Sn,https://materialsproject.org/materials/mp-3676,-76.24526360522674,-18.627512955741576,-71.9848884705258,-5.353301127482684
-6.376895667272727,-70.14585234,6.394973222851214,-0.5822589745454549,9.4e-06,6.589927063563919e-07,0.0,71,11,166.23584419888252,640.1980000000002,mp-10244,Zr3(CuSi)4,https://materialsproject.org/materials/mp-10244,-51.943908162551814,-8.82809026719808,-58.2070337153801,0.5772774362824806
-10.936400167999999,-218.72800336,18.197329453710484,-0.22214214825000056,0.0009711,4.6419649320497134e-05,0.0,186,20,243.80327008708042,2671.764,mp-1106180,Re7B3,https://materialsproject.org/materials/mp-1106180,-60.9265293580264,-22.099636089725912,-59.347928241485356,-9.704999714664352
-7.105332705714285,-149.21198682,8.287426893051112,-0.8032081302380943,4.9947445,0.23168983086473185,0.0,174,21,251.2370772084972,1253.8753140000001,mp-3706,Ho2Co12P7,https://materialsproject.org/materials/mp-3706,-63.901498687851536,-30.183687011342894,-66.0324066110987,-17.409178332363478
-6.509905896875,-104.15849435,10.197460533561804,-0.8034887949999989,2.75e-07,1.008557194802573e-08,0.0,71,16,317.7675821430508,1951.428,mp-1105662,SmGe2Ir,https://materialsproject.org/materials/mp-1105662,-47.046875577023364,17.329175489656254,-31.65035490343596,29.81589793741479
-9.826533621111109,-88.43880259,11.190528484953322,-0.4990957752777771,3e-07,2.556579522908836e-08,0.0,189,9,136.75379155779063,921.5966400000001,mp-1095061,NbReSi,https://materialsproject.org/materials/mp-1095061,-50.79161548478466,-7.776120856369209,-60.52197699439797,-5.17568772095692
-3.86944171,-100.60548446,8.297008300299106,0.20910560038461548,8e-07,2.3489713218033843e-08,0.0,162,26,396.9078605391394,1983.18,mp-569339,Cu10Sn3,https://materialsproject.org/materials/mp-569339,-57.406422956569315,-32.44594148273572,-73.50804257446703,-12.778609604022966
-8.052822791666667,-48.31693675,7.942087669914128,-0.013909861666667448,9.8641647,1.3111609379466929,0.0,191,6,87.67620435750854,419.341,mp-11317,CeFe5,https://materialsproject.org/materials/mp-11317,-50.91502917287146,-16.34311090003089,-54.08060103287386,-17.026408043297938
-5.66939973,-73.70219649,4.950045862226145,-0.3918743165384626,5.364683599999999,0.3212542583035056,0.0,139,13,194.6133585554607,580.1399587999998,mp-976187,Pr(Al2Fe)4,https://materialsproject.org/materials/mp-976187,-46.19459493280229,-23.642492200075502,-45.7170975744183,-24.604859401617933
-7.900641618333334,-47.40384971,7.175905188448204,-0.7156046953245839,5.5e-06,7.451114331838566e-07,0.0,129,6,86.02385280170874,371.74616000000003,mp-1246323,NbSeN,https://materialsproject.org/materials/mp-1246323,-66.45270736531519,13.960339479870234,-54.062664094783,22.63817747908892
-8.909223668611112,-320.73205207,12.61199405847281,-0.5645782005555557,1.027668275,0.0312746530107855,0.0,55,36,382.94629959361725,2908.52328,mp-1202234,U2ReB6,https://materialsproject.org/materials/mp-1202234,-35.72204193461689,-10.464568143059227,-37.66056227836092,-12.221968901530984
-3.068209252142857,-85.90985906,2.1748030243387833,-0.09923779035714274,1.6e-06,3.39965756794039e-08,0.09480000000000023,155,28,548.48181804946,718.345,mp-1100712,Mg9Si5,https://materialsproject.org/materials/mp-1100712,-43.93605597342586,12.515734972972375,-35.18820499641637,5.665422041747582
-6.307086791666666,-37.84252075,6.0985928914226735,-0.7196782983333337,0.0,0.0,0.09280000000000044,70,6,84.42553282873054,310.0661544,mp-10910,Al2Ru,https://materialsproject.org/materials/mp-10910,-39.16318704255408,-10.854168025154717,-43.59303598505208,-10.773904755846004
-6.674018734285713,-46.71813114,5.150541660601707,-0.7012616285714282,3.14e-05,2.5780214022427703e-06,0.0,71,7,141.9451496950429,440.27535,mp-1207763,Y3(SiNi)2,https://materialsproject.org/materials/mp-1207763,-43.8696924192257,12.841457915270356,-39.06686669912265,25.291048997966925
-5.648764418571429,-39.54135093,5.6070794087339415,0.5845844480699997,2.0,0.11801548914325966,1.2949,44,7,197.50059686509047,666.8928000000002,mp-1217488,Te2W2N2O,https://materialsproject.org/materials/mp-1217488,5.330608213702076,-61.959667303172075,-2.1110069585495923,-50.07820194232827
-6.897039273636364,-75.86743201,9.749507282446533,-0.7607480124999998,1.4000000000000001e-05,9.150281935780748e-07,0.0,187,11,178.30806521691542,1046.8984699999999,mp-1095552,La(Ge2Rh3)2,https://materialsproject.org/materials/mp-1095552,-50.134229754989065,-0.9422532151484446,-53.39636253909182,17.095833446043432
-3.8414220575,-15.36568823,11.479375380562658,0.2311807674999997,3.5e-07,5.359228298006981e-08,0.0,194,4,76.1102614701595,526.1533999999998,mp-11524,TlNi,https://materialsproject.org/materials/mp-11524,-36.1627435646442,-29.312925734865274,-52.54959520781376,20.537082669088942
-2.4255655166666665,-14.553393099999997,6.674757856260017,-0.28697913749999976,2.4e-06,2.70291929056592e-07,0.0,191,6,103.47980256668018,415.95085,mp-30885,YZn5,https://materialsproject.org/materials/mp-30885,-48.06985681813201,-18.011200276248093,-55.4315954729454,-17.40297983554991
-7.750744384761903,-162.76563208,7.473337607727423,-0.6594719076190467,1.1028107,0.04920886194020637,0.0,174,21,261.1770893073817,1175.440334,mp-510028,Nd2Fe12P7,https://materialsproject.org/materials/mp-510028,-63.55962607079442,-30.04198983174013,-65.85547797455875,-17.40882433370739
-8.79342448,-87.9342448,5.143261906102177,-2.3645819915000006,2.5e-06,2.56952574395604e-07,0.0,167,10,113.38731281416453,351.1996,mp-978968,Ti3O2,https://materialsproject.org/materials/mp-978968,-47.30257564926142,-31.8128227125932,-54.49323122866335,-32.544316294764535
-6.438720806,-96.58081209,6.4730165962061825,-0.3241264323333325,0.00025340000000000003,1.393534484744382e-05,0.0,164,15,211.91725398229562,826.0835000000002,mp-1222427,Lu2Fe4Si9,https://materialsproject.org/materials/mp-1222427,-31.923044716799442,-1.6482330710698745,-42.574094408440274,-1.2754787167478845
-6.922698003333332,-20.76809401,9.775483590332342,-0.4754588083333324,5e-07,1.2219227326499672e-07,0.0,225,3,47.687404699009406,280.7326,mp-2302,AsRh2,https://materialsproject.org/materials/mp-2302,-50.931702045177715,-51.30146313476148,-61.95737967278284,-40.73113826494597
-10.63662638375,-85.09301107,13.854816310795783,-0.06359600750000105,2.2e-06,2.208869722072731e-07,0.0,194,8,116.0726784537233,968.46,mp-862779,Tc3Os,https://materialsproject.org/materials/mp-862779,-54.25425497762817,-46.28790163867957,-64.40945361640861,-35.03481339457099
-6.791708765,-40.75025259,10.300450903236618,-0.2975984333333344,2.912732,0.40032437139343496,0.0,65,6,84.79415648603205,525.98465,mp-1217356,ThCo2Ni3,https://materialsproject.org/materials/mp-1217356,-51.72736125836472,-17.504423278354658,-48.615071120948194,-16.228725206646953
-7.2120186691666675,-173.08844806,10.367582577706381,-0.5105413360416655,7.941666666666667e-05,2.1262181966172177e-06,0.0,194,24,435.2925672570274,2717.7509999999997,mp-864699,NdRh3,https://materialsproject.org/materials/mp-864699,-70.33638517074489,-10.273952281620733,-56.15171935911411,-17.539081310447138
-9.062498141578947,-172.18746469,8.068681513963847,-0.010711726315791065,25.7351263,1.1530722679262373,0.0,166,19,260.1041037693142,1263.865,mp-581734,Gd2Fe17,https://materialsproject.org/materials/mp-581734,-53.432369018150084,-23.933811447053,-55.992614200478364,-11.266226495745382
-6.873997921666668,-41.24398753,9.869971393405764,-0.4740911816666653,5e-08,5.348692544997604e-09,0.0,63,6,108.94311716850528,647.54,mp-13683,HfGe2,https://materialsproject.org/materials/mp-13683,-52.644667079941854,0.022541842698259363,-74.48703613974475,1.294041230827211
-6.2975694975,-75.57083397,8.799218146791448,-0.1414068045833332,8.5262174,0.5923779621839893,0.0,47,12,167.73934242621814,888.852975,mp-1219225,Sm2(CoNi)5,https://materialsproject.org/materials/mp-1219225,-52.846214177519926,-17.0831280003532,-54.2105002671704,-14.552704030131387
-5.903485938275861,-171.20109221,10.12964178622957,-0.7405949495812816,9.4e-06,2.3730921865833105e-07,0.0,225,29,461.62643609637655,2816.0195719999997,mp-570798,Er3(P3Pd10)2,https://materialsproject.org/materials/mp-570798,-69.4732810632644,-2.6303941465261365,-58.901626861037826,-17.297618730824155
-5.866665585625,-93.86664937,4.151682600375117,-2.5680144206250004,6.0000003,0.4501582718148455,0.0,123,16,155.33290513505918,388.3636,mp-1099232,Mg6FeNiO8,https://materialsproject.org/materials/mp-1099232,-30.299257674594998,-70.22286980870963,-47.376343724805295,-59.48771710491678
-7.674085077083332,-184.17804185,11.329135505382231,-0.5979740573611115,0.000388125,1.8888932025576003e-05,0.0,55,24,239.46477671290143,1633.764,mp-973529,LuB4Os,https://materialsproject.org/materials/mp-973529,-37.66874849078869,-11.740310786476927,-38.1503178942696,-10.608126635582872
-7.083255681111112,-254.99720452,8.406793653643941,-0.8878488996031746,7.423202900000001,0.1901005808176523,0.0,189,36,455.0774492342834,2303.915849,mp-1225778,Dy5Co19P12,https://materialsproject.org/materials/mp-1225778,-63.943292887778156,-29.062747031948405,-65.67241922249347,-16.873319483490626
-3.06302035625,-24.50416285,9.691548146965266,0.08330789125000049,8.85e-06,7.77418431719402e-07,0.0,194,8,132.66790318959102,774.3012,mp-984351,CuAg3,https://materialsproject.org/materials/mp-984351,-50.13808289096678,-35.08126474060881,-59.56092321092361,-27.231629763807703
-5.171733289285714,-144.8085321,7.989723798696287,-0.5340719839285717,4.5e-07,1.0439649694138172e-08,0.0,63,28,502.34723398779704,2417.05588,mp-1211948,La2(Ga3Ru)3,https://materialsproject.org/materials/mp-1211948,-45.88928613196961,-7.636211298752571,-42.24376534257353,5.518913823286483
-6.701575059583334,-160.83780143,6.511131455691951,-1.0112939712500004,2e-07,5.113515496438376e-09,0.0,59,24,455.81419595489194,1787.2908,mp-505467,YSiPd,https://materialsproject.org/materials/mp-505467,-52.25893563147104,12.700290471528676,-36.92395940534451,19.63534031379855
-6.978198535,-27.91279414,4.136071698878993,-0.1183272249999998,2.8e-06,4.764747093002881e-07,0.0,187,4,68.48502286949693,170.5825386,mp-1217072,Ti3Al,https://materialsproject.org/materials/mp-1217072,-49.40025041219634,-34.45522521618436,-58.21370008746003,-28.431208609061574
-5.591356306666667,-33.54813784,8.579624831180304,-0.2617873462500005,2e-07,2.7211526269466185e-08,0.0,65,6,85.65535543397002,442.5616,mp-1220204,NdCuNi4,https://materialsproject.org/materials/mp-1220204,-52.095899972421414,-17.09625977805765,-53.941573881791385,-14.860977216530655
-10.1761703425,-81.40936274,14.144837205176069,0.4648150178124997,6.1e-05,6.891124489196474e-06,0.0,164,8,103.16138566944305,878.7514,mp-1219510,Ru3W3C2,https://materialsproject.org/materials/mp-1219510,-49.4517823784453,-42.15664056369406,-65.50354573972385,-23.104583668005642
-6.843314238888889,-739.0779378,10.062357681998817,-0.7066039161111106,0.0019290083333333332,1.2735662564885612e-05,0.0,176,108,1765.1840215567145,10696.4742,mp-1211078,TbGe3Rh5,https://materialsproject.org/materials/mp-1211078,-50.20012439747914,1.4891776434081438,-54.76007426169341,18.405333190711893
-7.816655428333332,-234.49966285,6.03880249910675,-0.7495466633333346,3.4487873999999996,0.09311408313143836,0.0,139,30,431.6467541183088,1569.749,mp-17435,Zr4Fe4Si7,https://materialsproject.org/materials/mp-17435,-64.4688417117171,-18.983827439096554,-63.200384689303725,-16.408322206142653
-7.28148885,-21.84446655,5.223435886560744,0.6757022383333341,0.021115400000000003,0.005101253847665928,0.0,216,3,48.23916759427697,151.742412,mp-631302,ScVFe,https://materialsproject.org/materials/mp-631302,-50.54464408170158,-50.979586212063,-61.822026647524545,-40.61877313312761
-5.483800282083332,-131.61120677,5.145038305389411,-1.5406585410416669,4.0000002,0.2227391716522862,0.0,5,24,209.2863193988324,648.4557749999999,mp-764915,Li5Co5(CuO6)2,https://materialsproject.org/materials/mp-764915,-11.300007266362073,-64.54880640808253,-29.41267365949505,-61.752048884674004
-6.69468948,-26.77875792,8.58824711098007,-0.1350513925000003,1.0938511,0.24903375948197176,0.0,225,4,51.18909017577803,264.7481,mp-1185306,LiCrRh2,https://materialsproject.org/materials/mp-1185306,-38.59137261283439,-31.37612918746294,-61.9458719420452,-42.39592461734877
-9.373226115,-37.49290446,8.590481960380657,0.17080656000000086,0.126804,0.029740426310763176,0.0,65,4,49.68933578752516,257.0583,mp-1226223,Cr3Ru,https://materialsproject.org/materials/mp-1226223,-49.868578965936834,-50.48744390575125,-68.59786994078165,-42.30769481598368
-5.835140246666668,-70.02168296,8.571841510174803,-0.3232134233333343,7.5e-08,3.2188627788282645e-09,0.7001999999999997,14,12,271.541509532802,1401.72,mp-1102857,SbTeRu,https://materialsproject.org/materials/mp-1102857,-3.4100371549028847,31.92918642533268,-24.86272098891523,4.865578404431282
-5.10682888625,-40.85463109,12.424317712093101,-0.2732578156250005,4.1e-06,3.389656043868107e-07,0.0,123,8,140.9631683838006,1054.7004,mp-1227313,BiPd6Pb,https://materialsproject.org/materials/mp-1227313,-46.707942114605224,-43.371658197132,-80.66287609069661,-4.760968602409768
-1.4313154908333334,-17.17578589,5.074138951683034,-0.04798595416666659,3.3e-06,1.893949724312511e-07,0.0,63,12,203.05931702282692,620.4920000000002,mp-1094439,MgZn2,https://materialsproject.org/materials/mp-1094439,-50.229944684744616,-34.700787525374125,-56.8950909467762,-27.293391078241765
-5.439509464705884,-92.4716609,3.4822165009411785,-2.5873552874611763,22.9999999,1.1148160470888049,1.5628,1,17,240.43741503670196,504.2068352,mp-1178250,Fe5OF11,https://materialsproject.org/materials/mp-1178250,21.44814151002527,-30.26431200133723,22.525937607877736,4.122060107975943
-7.3032412875,-116.8518606,4.205133798251788,-2.4894170254166674,10.9915968,0.8100640244413185,0.0,12,16,158.13167502334778,400.4512,mp-754706,Li3TiV4O8,https://materialsproject.org/materials/mp-754706,-5.521853305095964,-60.90770064772296,-23.419483422086138,-64.18372289741362
-4.008155063,-40.08155063,3.8217214241445774,-0.6549958202375002,2.99991395,0.1530688128385705,0.0,72,10,228.40179418047873,525.6654671199999,mp-1079951,Na2CoSe2,https://materialsproject.org/materials/mp-1079951,19.993995216134984,-21.233594965487995,5.480606633226821,-22.520671990241052
-4.8534275070833335,-116.48226017,8.854962691740326,-0.14669786930555576,6.98638605,0.22641731279526486,0.0,127,24,359.60057359407995,1917.6,mp-1213603,GdIn2Cu9,https://materialsproject.org/materials/mp-1213603,-56.17431139135736,-20.273827170742983,-50.39434307127304,-21.925306291502405
-5.89208353625,-94.27333658,3.875462361244219,-2.550507715208333,1.5538356000000002,0.09207168177678374,0.0,123,16,196.67828781721337,459.0192,mp-1031392,BaMg6TiO8,https://materialsproject.org/materials/mp-1031392,-33.281495437674515,-7.281210778161245,-44.71945879771802,-10.466192804581226
-6.007407163214286,-168.20740057,6.920616513810901,-0.4807614580357144,0.000488375,1.2305545956513235e-05,0.0,227,28,462.5194122562552,1927.6388,mp-703492,Zr3Zn3C,https://materialsproject.org/materials/mp-703492,-69.60001899891772,-3.093849512558133,-65.21201728172184,4.874817751047368
-8.24119209875,-65.92953679,14.469226569292704,0.07318407250000014,2.35e-05,2.39142926903819e-06,0.0,194,8,114.52169031338354,997.893,mp-1186377,OsRh3,https://materialsproject.org/materials/mp-1186377,-54.815348414747035,-46.70280195505056,-65.73312766399306,-35.982703587317026
-6.229847355,-74.75816826,12.140499804773786,-1.1348410200000008,0.00012255,6.067692924939944e-06,0.05039999999999978,62,12,235.37869426563412,1720.896,mp-20739,DyGePt,https://materialsproject.org/materials/mp-20739,-52.58150918911596,13.432499787600868,-37.911083517146224,20.298869586059496
-4.176613148333334,-25.05967889,2.318425978589433,-1.685683359416667,0.0,0.0,2.8789999999999996,194,6,65.79363750025941,91.86033856,mp-755144,NaLiO,https://materialsproject.org/materials/mp-755144,-48.13786031072612,-51.03263199040906,-54.430616379136076,-32.793039144234434
-6.933367205,-83.20040646,7.987778897939951,-0.05887394812499973,13.676167000000001,0.9382542909064868,0.0,47,12,169.87179019917602,817.14327,mp-1222814,LaYCo10,https://materialsproject.org/materials/mp-1222814,-52.55334318842452,-16.81825118312537,-54.769307164719706,-15.348237991231825
-7.381328048333334,-44.28796829,10.196223896063143,-0.7141095738888895,1.9e-06,2.7587774938756643e-07,0.0,191,6,80.26280886015294,492.8385,mp-1025143,DyB2Rh3,https://materialsproject.org/materials/mp-1025143,-63.541938766219005,9.06294994292701,-63.449195985461635,5.520686166481314
-6.2354603175,-74.82552381,11.881184980189063,-1.1331137191666667,0.0,0.0,0.0,62,12,238.51759003733662,1706.5974,mp-22324,TbGePt,https://materialsproject.org/materials/mp-22324,-52.60266939745454,13.659840158414047,-36.956038278483774,20.12674300977018
-6.023759989491526,-355.40183938,9.823266461611473,-0.28019033694915274,24.9753883,0.2955520686473748,0.0,6,59,984.8173091804707,5825.893045000001,mp-1224665,Lu12Co31Sn16,https://materialsproject.org/materials/mp-1224665,-55.038400453672764,-2.4804653761105646,-35.25692996026725,5.192065407753066
-6.372673764,-31.86336882,8.399429109127103,-1.0018177788571427,4.8e-06,8.124658314581282e-07,0.0,139,5,68.85152426397079,348.268534,mp-570100,Tm(NiP)2,https://materialsproject.org/materials/mp-570100,-46.49677154206976,-3.8572341533128887,-59.24652000118182,19.668623214888193
-5.985947365,-95.77515784,3.9625571316339303,-2.9900071728587503,9.9999999,0.6564917106515155,3.4529,15,16,177.5203626631221,423.618212,mp-753032,LiMn2F5,https://materialsproject.org/materials/mp-753032,-1.6981416762346395,-9.462351598805967,2.542617601513113,-10.137354376578571
-6.211822130000002,-37.27093278,8.447318102480288,-0.131597187916667,3.5631446,0.48802395977616,0.0,191,6,85.08827718508422,432.85205999999994,mp-1222937,LaCo2Ni3,https://materialsproject.org/materials/mp-1222937,-52.11309168267088,-17.18419307852849,-53.862297042513724,-14.578376529263144
-6.711888496666668,-20.13566549,9.219710863280763,-0.6274180788888893,0.0026225000000000003,0.0006508912648485888,0.0,139,3,46.955285032358454,260.707,mp-1018121,TiPd2,https://materialsproject.org/materials/mp-1018121,-46.16158617758951,-65.33407147597026,-53.78823736415114,-37.293005555330076
-6.761487243333334,-40.56892346,8.255495154863334,-0.015393371250000362,6.8242791,0.9119427444426812,0.0,191,6,87.21007008617538,433.571445,mp-1731,LaCo5,https://materialsproject.org/materials/mp-1731,-51.74637552202367,-16.051549600608517,-54.63933452292486,-15.523630374804618