energy_per_atom,energy,density,formation_energy_per_atom,total_magnetization_uB,total_magnetization_T,band_gap,sgr,num_sites,cell_volume,weight,mp_id,formula,URL,tsne_xrd_lin1_0,tsne_xrd_lin1_1,tsne_xrd_lin2_0,tsne_xrd_lin2_1
-5.198049703333333,-31.18829822,14.572223235845867,0.010766496666666587,1.91011255,0.21955607963882856,0.0,63,6,101.38901831913735,889.749276,mp-30423,VAu2,https://materialsproject.org/materials/mp-30423,-50.93641659947238,-34.22067783952249,-56.32084147853101,-25.83585070504991
-8.860738799318181,-389.87250717,8.51584561978218,-0.11367535369318205,3.0222187999999996,0.06842373263063509,0.0,194,44,514.7502525502125,2639.82573,mp-1211163,Lu2Mn17C3,https://materialsproject.org/materials/mp-1211163,-54.100072153434574,-22.64798078196365,-55.053176325600326,-10.215611703228307
-7.336839712692307,-381.51566506,7.652208954809615,0.22056181647435946,5.976275769230769,0.08829078050818599,0.0,160,52,788.8468593483199,3635.2177549999997,mp-1225318,Mn3In,https://materialsproject.org/materials/mp-1225318,-59.30619921828524,-24.214058716950827,-62.73467133559014,-16.677121088805418
-4.244231011363636,-93.37308225,12.74364724240844,-0.21612247136363685,0.0,0.0,0.0,164,22,419.9557063565776,3222.9097,mp-1297,Tl9Pd13,https://materialsproject.org/materials/mp-1297,-54.245635315270775,-29.850601289516806,-50.54584618829611,-17.53872228909361
-8.156601994210527,-154.97543789,7.594302401558937,0.0013379030263147222,39.7447249,1.7821683269097923,0.0,160,19,259.9011503898257,1188.63085,mp-1219026,SmYFe17,https://materialsproject.org/materials/mp-1219026,-53.69498730390809,-24.13302279037343,-56.47626152416294,-11.47597850924438
-7.6480275944736835,-290.62504859,8.131416384010919,-0.10328938657894887,28.69953925,0.6660527692241043,0.0,194,38,502.16184785440424,2459.0129944,mp-1198100,Tm2Al2Fe15,https://materialsproject.org/materials/mp-1198100,-55.12211672366063,-22.730593190105537,-54.718158477938545,-9.532671202112192
-7.3480993675,-146.96198735,11.72553154325599,-0.5047339841666656,0.000300225,1.0483256312498423e-05,0.0,136,20,333.75522757850723,2356.7392,mp-669575,Hf2InNi2,https://materialsproject.org/materials/mp-669575,-54.833797598168566,-9.676711690627037,-50.4745585870765,-17.422394718238188
-7.66938933,-153.3877866,11.615824301256927,-0.5745161249999995,1.725e-06,5.9278409675081286e-08,0.0,136,20,339.132946427816,2372.3072,mp-510041,Hf2Ni2Sn,https://materialsproject.org/materials/mp-510041,-54.802767906585295,-9.514467056854391,-56.93867461992068,-18.532729691883684
-7.390353223333333,-44.34211934,10.871296902202156,-0.1865109644791675,3.1194321,0.4428263207139489,0.024499999999999744,191,6,82.09553508108978,537.467,mp-21315,PuNi5,https://materialsproject.org/materials/mp-21315,-53.869144132736594,-17.306919510794305,-54.91382635405977,-5.901421837979318
-8.30116311681818,-182.62558857,8.205559801472717,-0.0907827566477279,34.455917,1.5033301491456632,0.0,166,22,267.1079860562504,1319.9151,mp-1191671,Er2Fe17C3,https://materialsproject.org/materials/mp-1191671,-52.33773645697174,-23.570561954393398,-55.96000076413331,-11.229717394608652
-6.179588321034482,-179.20806131,10.332102401120233,-0.5994980317241381,0.0001488,3.586574983052117e-06,0.0,225,29,483.50441475537474,3008.4309999999996,mp-1194195,Zr6Ga16Ir7,https://materialsproject.org/materials/mp-1194195,-29.395665443238983,-47.94688799556618,-61.20292894757595,-32.257359061486696
-7.616507147894738,-144.71363581,7.399452165827631,-0.041567118684211764,30.457231,1.3402671902765275,0.0,166,19,264.83565772700786,1180.1220772,mp-1179971,Nd2Al2Fe15,https://materialsproject.org/materials/mp-1179971,-52.75133969682949,-23.625025903512523,-55.908801159600365,-11.301941381186536
-7.485636480833333,-269.48291331,9.783857502292198,-0.6272026405555562,3.3e-05,9.833653098164405e-07,0.0,55,36,391.0897950694011,2304.292,mp-1204645,Dy2ReB6,https://materialsproject.org/materials/mp-1204645,-35.602787238919504,-10.362733195023306,-37.748076633860066,-12.254880695243365
-6.38038672,-38.28232032,8.15540156252611,-0.20439394749999928,4.3440983,0.5774040763425615,0.0,187,6,87.67933071627795,430.619295,mp-1219805,PrMnNi4,https://materialsproject.org/materials/mp-1219805,-51.81992404637595,-15.838782000087845,-54.68641819540386,-16.051194353765506
-4.7691357666666665,-28.614814600000003,9.745761745060674,-0.2587704600000003,9.32e-05,1.3386268199423685e-05,0.0,191,6,81.13977851193249,476.2122,mp-1215563,YbCu2Ni3,https://materialsproject.org/materials/mp-1215563,-53.976313804045965,-17.514561011305563,-54.19231238094915,-5.2130160418314695
-8.08718840388889,-291.13878254,9.267732396586204,-0.4766848526851864,9.89e-05,2.689807443403936e-06,0.0,142,36,428.501679119291,2391.536,mp-1199012,Sm(BRu)4,https://materialsproject.org/materials/mp-1199012,-58.14467047226014,-11.985621286430588,-57.918859706916116,-1.3420506822443905
-6.417760306666668,-38.50656184,8.705869363965926,-0.1506194587500005,4.7041985,0.646560306874442,0.0,191,6,84.79183370689726,444.546385,mp-1219088,SmCo3Ni2,https://materialsproject.org/materials/mp-1219088,-52.02047646509861,-17.701909974218648,-53.61544614187474,-14.49850814636178
-5.0280167425,-20.11206697,7.5077020066743305,-0.00173940791666638,0.6373425,0.11435367828894928,0.0,123,4,64.95314263995044,293.66900000000004,mp-1216855,TiCu2Sn,https://materialsproject.org/materials/mp-1216855,-77.51655710302761,-1.830101481400848,-59.801080866813656,-19.83147726073616
-6.1711015794444455,-111.07982843,5.90870082516462,-0.43684476092592606,0.05517040000000001,0.0022073766221969147,0.0,193,18,291.2776227955677,1036.454,mp-30675,Ti5Ga4,https://materialsproject.org/materials/mp-30675,-53.33385996797514,-28.89097292481098,-53.1602842671161,-32.51273933487091
-7.363233404166667,-265.07640255,9.71668494115201,-0.6362578636111115,8.825e-06,2.625953059643173e-07,0.0,55,36,391.65635973635665,2291.7868,mp-1200538,Tb2B6Os,https://materialsproject.org/materials/mp-1200538,-35.630287631630786,-10.313900366068124,-37.71582654978263,-12.236456000558135
-7.3896950711111105,-266.02902256,10.12350745229054,-0.6736979538888888,9.3825e-05,2.849011816793711e-06,0.0,55,36,383.7971541009534,2339.82656,mp-1200778,Ho2B6Os,https://materialsproject.org/materials/mp-1200778,-35.708673919645975,-10.50353900489676,-37.73433969842832,-12.210549289313835
-4.859985036458333,-233.27928175,5.207995892845835,-1.259577418958333,6.9999999666666675,0.1928294428029812,0.0,12,48,423.0601501182568,1326.8556,mp-758143,Li3Ni5O8,https://materialsproject.org/materials/mp-758143,-9.561224063932627,-64.61249757240097,-27.131668399634567,-62.482212846845634
-8.251460202777778,-297.0525673,5.761790862138015,-0.1326122032799996,3.838481375,0.11137391055261453,0.0,52,36,401.65520228708397,1393.67592,mp-1245973,Mn4GeN4,https://materialsproject.org/materials/mp-1245973,-38.22824408049436,-10.789873549396207,-40.37866128993329,-10.940565780012223
-8.716108074166668,-104.59329689,12.2629379122675,-0.3950648225000002,5e-07,3.4512458906177266e-08,0.0,62,12,168.83851718942245,1246.85792,mp-1095668,TaFeAs,https://materialsproject.org/materials/mp-1095668,-63.350931326623076,-25.04846540872517,-58.51383513213878,0.9083752526966116
-6.257280696666666,-37.54368418,8.453376284600054,-0.20095530291666697,3.7895098,0.5170011533618294,0.0,187,6,85.42184553801486,434.8606,mp-1220174,NdFeNi4,https://materialsproject.org/materials/mp-1220174,-52.4528089272785,-16.703530594030564,-54.7202225729512,-15.73488500127771
-8.162888859047616,-171.42066604,7.148016849064077,-0.6765912509523803,15.017061800000002,0.6401751954183208,0.0,174,21,273.37799427916315,1176.7928740000002,mp-1005829,Sm2Mn12P7,https://materialsproject.org/materials/mp-1005829,-63.082963575770094,-29.33636165999576,-65.46915215548982,-16.82251384216441
-6.6765498915,-133.53099783,6.6263049935377865,0.10456665754799983,5.465e-05,3.1113257990625304e-06,0.0,59,20,204.7020083889283,816.8539900000001,mp-1246265,CoNi5N4,https://materialsproject.org/materials/mp-1246265,-62.94949213686271,-25.834239987310706,-58.97428824900895,0.3394772422626113
-8.04966749631579,-152.94368243,7.9133082845072655,0.016112661842103797,39.633948700000005,1.7608169943098826,0.0,166,19,262.3194839865453,1250.085,mp-1426,Sm2Fe17,https://materialsproject.org/materials/mp-1426,-53.28110524036615,-23.89325310522431,-55.899373791595394,-11.345726362538542
-8.068958003157894,-306.62040412,8.462831237692617,-0.028248459473684907,37.891726,0.8741804772790837,0.0,194,38,505.15041301603554,2574.46684,mp-30640,Tm2Fe17,https://materialsproject.org/materials/mp-30640,-54.45082234116847,-22.65244897995997,-55.638615051386566,-9.444726844625675
-6.5855590975,-79.02670917,8.156102663144425,-0.1303148908333339,9.1019016,0.624007913469915,0.0,160,12,169.98847051477145,834.935755,mp-1227012,Ce2MgCo9,https://materialsproject.org/materials/mp-1227012,-75.84877725354524,-20.788994475191764,-70.53306807706986,-7.426618287627628
-6.207906385833333,-74.49487663,9.230390922612454,-0.17513334062500027,7.399275200000001,0.5293504851582271,0.0,47,12,162.90082821973658,905.5121800000001,mp-1219109,SmEr(Co2Ni3)2,https://materialsproject.org/materials/mp-1219109,-53.91582157253269,-17.399392970729252,-53.75399346529471,-5.01052233579309
-8.387588842857143,-117.42624380000001,7.668305130534445,-0.13942547570571406,18.3882996,1.2089470011118504,0.0,71,14,177.26040463192055,818.5817000000002,mp-1220115,NdV2Fe10N,https://materialsproject.org/materials/mp-1220115,-52.726870867667465,-24.147227007628334,-56.36885256173087,-11.410472674726567
-7.629285428684209,-289.91284629,6.649713405159253,-0.12314279605263173,28.4335328,0.6376083299252046,0.0,194,38,519.7018567852962,2081.1726316,mp-1196730,Y2Al3Fe14,https://materialsproject.org/materials/mp-1196730,-57.31020791869285,-25.540118377996038,-60.114662099876654,-11.787842708259154
-8.84894755318182,-389.35369234,8.417210299626731,-0.0981075280113634,2.15065985,0.04869621509328368,0.0,194,44,514.6997389351601,2608.99373,mp-1213058,Er2Mn17C3,https://materialsproject.org/materials/mp-1213058,-54.0447680271819,-22.647061558391947,-55.112935924578274,-10.283650798923805
-8.324681928636364,-183.14300243,8.143690870165152,-0.2844351489609096,37.8072122,1.6415016125737378,0.0,166,22,268.41746390847146,1316.3851,mp-1190690,Dy2Fe17N3,https://materialsproject.org/materials/mp-1190690,-52.15631563512025,-23.489572541655,-55.86526320153392,-11.229667033036172
-7.5900987266666675,-91.08118472,8.188773749940474,-0.6845659649999997,0.0,0.0,0.0,62,12,184.46049014483523,909.6475199999999,mp-22722,NbSiPd,https://materialsproject.org/materials/mp-22722,-50.68367353384861,2.4673762388978835,-40.94492238986547,20.23913798187708
-5.5220229725,-44.17618378,7.848329054008503,-0.7240215900000004,1e-07,1.149709481819756e-08,0.0,123,8,101.36530103338524,479.0903544,mp-1228186,Al4Ni3Pt,https://materialsproject.org/materials/mp-1228186,-55.262472286161,-23.215847621445388,-59.74652319315234,-17.922789799989562
-4.0705567925,-32.56445434,8.884813369068619,0.006261771250001047,0.0,0.0,0.0,194,8,115.6320137762823,618.696,mp-13138,Cu3Sn,https://materialsproject.org/materials/mp-13138,-54.259159335227224,-46.45306349920092,-62.91625002221431,-32.66229177698555
-8.066294640526316,-153.25959817,8.124261635840025,-0.009870736842106896,39.610234000000005,1.7822519610432557,0.0,166,19,259.0095243447133,1267.2157,mp-571149,Tb2Fe17,https://materialsproject.org/materials/mp-571149,-53.576044113234694,-23.977451019462286,-55.966947905525764,-11.415889620481966
-9.768708673333334,-58.61225204,7.487903955976592,-0.8153088795233335,0.9177530999999999,0.17235417345113965,0.0,71,6,62.05567209922836,279.82896,mp-1247280,Nb2CrN3,https://materialsproject.org/materials/mp-1247280,-43.42669288219037,-12.12535652484704,-56.864227063636115,2.466201963140518
-8.466062599166667,-304.77825357,10.319292589783645,-0.5562751854629637,6.8e-06,1.8117491269060828e-07,0.0,142,36,437.4095688884741,2718.24824,mp-1203781,Th(BRu)4,https://materialsproject.org/materials/mp-1203781,-58.03096945271235,-11.989669546408859,-57.9046793096226,-1.3746596669198494
-7.182915208421052,-136.47538896,7.042835443112887,-0.1090777218421064,24.6644853,1.0744673698127964,0.0,160,19,267.51999859998267,1134.6311544000002,mp-1219212,Sm2Al4Fe13,https://materialsproject.org/materials/mp-1219212,-52.641363097276866,-23.541742257845684,-55.72376771994441,-11.241578654856172
-8.15709516725,-326.28380669,8.248166996380299,-0.04715907018750158,37.5950375,0.8427146984957145,0.0,38,40,519.9090545517981,2582.4726800000008,mp-1224658,Ho2Fe17C,https://materialsproject.org/materials/mp-1224658,-53.983769705267115,-22.61756383906758,-55.1048937306912,-9.729941336455378
-7.900145468125,-126.40232749,6.9569142784334606,-0.538407352708334,0.3575137,0.015315969762523663,0.0,38,16,272.0355211899392,1139.7069,mp-1217195,Ti5Nb5Ge6,https://materialsproject.org/materials/mp-1217195,-54.280126819205144,-20.61612444330407,-46.798134385441074,-24.82138391484663
-4.06791802025,-162.71672081,8.795607231750376,0.008900543500000423,7.197e-05,1.4361452126174027e-06,0.0,63,40,584.0238398681812,3093.48,mp-1195862,Cu3Sn,https://materialsproject.org/materials/mp-1195862,-54.316929431145184,-46.91634648569411,-63.31109332632681,-33.36117327628706
-5.68610187375,-45.48881499,13.181648937949324,-0.8128566670833335,2e-07,1.3934390747266868e-08,0.0,194,8,167.2705320804292,1327.8227000000004,mp-1025449,TbInPt2,https://materialsproject.org/materials/mp-1025449,-76.85577677142311,1.3351666553529693,-56.376137807728384,5.3554401071387865
-7.404771280416668,-177.71451073,8.926973737433535,-0.6537722281944447,3.925e-05,1.9254807844631815e-06,0.0,55,24,237.5625069925046,1277.124,mp-1191771,LuB4Ru,https://materialsproject.org/materials/mp-1191771,-37.58940610884035,-11.827952462080805,-38.059415124845756,-10.653708734240313
-5.9141116333333335,-35.4846698,9.544688233901624,-0.3376627008333332,1.5314428,0.2226630446882995,0.0,191,6,80.15489778132918,460.726,mp-853,ErNi5,https://materialsproject.org/materials/mp-853,-54.2888278013397,-17.683519869913713,-55.64924893894688,-16.155646979146653
-8.298036816,-82.98036816,7.4803002987766485,-0.28744358147599913,5.3823078,0.5618437465354624,0.0,140,10,111.64271937499286,502.92167,mp-1205588,Mn3GeN,https://materialsproject.org/materials/mp-1205588,-64.63043023511361,-31.880365289724345,-68.54875690847221,-16.266167583423687
-7.349956799999998,-73.49956800000001,11.43323866949509,-0.5065914166666659,1.29e-05,8.784272241712204e-07,0.0,127,10,171.14387103366542,1178.3696,mp-1205454,Hf2InNi2,https://materialsproject.org/materials/mp-1205454,-54.848634275093175,-9.494155131566067,-56.921774059568726,-18.64360804704868
-6.867460556499998,-137.34921113,6.6393453041673585,0.04863964554800049,0.02411235,0.0013859416913993329,0.0,59,20,202.75520280720298,810.6776,mp-1246672,FeNi5N4,https://materialsproject.org/materials/mp-1246672,-62.77091489120386,-25.864051873721234,-63.86853903717273,-17.176326405414887
-6.314079754166666,-75.76895705,9.310845742478985,-0.1809649483333331,8.847615699999999,0.6298020336326128,0.0,47,12,163.7192021368804,917.9936150000001,mp-1224084,Ho2(CoNi)5,https://materialsproject.org/materials/mp-1224084,-53.734993939300864,-17.195243841260293,-53.25200207692893,-3.6190888202930287
-5.313247081666667,-31.87948249,9.1701936647362,-0.2864439700000005,7.54e-05,1.0501335279840202e-05,0.0,191,6,83.6766430587075,462.09755,mp-1217570,TbCu2Ni3,https://materialsproject.org/materials/mp-1217570,-52.89649273364685,-17.068997661772254,-54.883197107339704,-16.18431047928671
-3.992896958333333,-95.829527,2.579451395148768,0.15875947166666707,1.72625e-05,4.854036173727535e-07,0.0,11,24,414.45569405763587,643.808,mp-1073599,MgSi2,https://materialsproject.org/materials/mp-1073599,-57.942716379122956,-4.319276819668476,-37.23836397778233,1.5413982731132998
-7.327148186388888,-263.77733471,9.747600423423798,-0.5861182699074077,1.25e-07,3.4363581643114916e-09,0.0,142,36,423.92498887316583,2488.5,mp-14481,Er(BRh)4,https://materialsproject.org/materials/mp-14481,-58.15743858928232,-12.00758620991735,-57.89294069420242,-1.380373702843242
-9.266366902,-46.33183451,14.403976683296587,0.4691957942499997,0.00041739999999999995,7.172096253759353e-05,0.0,166,5,67.82405678837159,588.3247000000001,mp-1221512,Mo2Ir2C,https://materialsproject.org/materials/mp-1221512,-49.52809174089109,-41.78370893788596,-64.96350734786877,-22.91149592240044
-8.06451973,-145.16135514,7.036880370482677,-0.4461835615277781,0.37177815,0.018679010694967427,0.0,193,18,231.95696559506516,982.966,mp-1189345,V5As3C,https://materialsproject.org/materials/mp-1189345,-55.96220606214413,-30.54839935403212,-63.05544799354814,-16.42492788396267
-7.657792037692308,-99.55129649,8.647570441053325,0.05625071519230792,14.6980701,1.0650135131007743,0.0,44,13,160.8357629926286,837.58259,mp-1219042,SmMn5Co7,https://materialsproject.org/materials/mp-1219042,-57.345519361014844,-23.42147832242001,-60.19075077683692,-11.887567664788108
-6.097704181666668,-36.58622509,2.681389268399428,-2.4443992643750008,3.0000007,0.3017623353242667,0.9467,8,6,115.86006065983965,187.087395,mp-1182074,Ca2CoO3,https://materialsproject.org/materials/mp-1182074,-50.474416740423024,-17.94177136765373,-52.06067269753028,-4.79142649131236
-4.4116316051851845,-119.11405334,6.696462587049818,-0.3098097818342151,2e-07,5.262943439848861e-09,0.0,12,27,442.87250683029833,1785.9737719999996,mp-1228373,Ba3Cu17AgP6,https://materialsproject.org/materials/mp-1228373,-55.76727833918326,-22.50918662701581,-44.19431128486072,-1.4560315859752526
-6.428728455,-12.85745691,5.777065960159442,-0.3247614300000006,0.7643982,0.3741845113525986,0.0,221,2,23.807362048809114,82.82653859999998,mp-2658,AlFe,https://materialsproject.org/materials/mp-2658,-50.88592546411621,-51.81000461422886,-68.93857262138133,-42.62219560110599
-6.910937104166668,-165.8624905,8.084536873288558,-0.11207383083333274,3.75157735,0.11292095246329248,0.0,225,24,387.18346314321417,1885.04992,mp-570203,MnCoSb,https://materialsproject.org/materials/mp-570203,-50.75774034769857,-50.66486831660715,-61.441237527275256,-40.430786227682816
-6.675995363999999,-100.13993046,7.24124670089908,-0.7621559480000002,3.91e-05,1.7425315576675622e-06,0.0,115,15,261.5011077429318,1140.3490000000004,mp-1215378,Zr4Ni3As8,https://materialsproject.org/materials/mp-1215378,-63.02914456276368,-30.383264534773502,-65.8458118020034,-17.13400501953632
-4.62720985,-37.01767879999999,14.175931808045378,-0.5888593637500001,3.95e-06,3.09021388056228e-07,0.0,194,8,148.96559795153968,1271.711238,mp-972895,ScAu3,https://materialsproject.org/materials/mp-972895,-47.81434704748375,-31.979812591705212,-74.38787009838705,-0.5378286856655412
-7.506834379166666,-90.08201255,9.426438219344345,-0.10177406458333377,10.8575455,0.7839452131093547,0.0,47,12,161.4073744083993,916.26671,mp-1215820,YUCo10,https://materialsproject.org/materials/mp-1215820,-54.2488716249541,-17.980208162275613,-54.71714952617968,-5.505505117411063
-6.800922316666667,-40.8055339,9.268921417187613,-0.11291673583333288,7.1066631,1.0058813266136548,0.0,191,6,82.3372597669968,459.596295,mp-2435,HoCo5,https://materialsproject.org/materials/mp-2435,-53.68749874383494,-17.254566862167014,-55.0002064620329,-15.792442501617597
-6.9979685175,-1007.70746652,8.304040722572106,-0.12203455930555485,0.0010669,5.327275704990279e-06,0.0,118,144,2333.973759645433,11671.76,mp-569901,Ge23Mo13,https://materialsproject.org/materials/mp-569901,-65.24058877390092,-28.62788554383261,-54.26514876433718,16.880969403890727
-9.6032702725,-115.23924327,5.741137609586986,-0.4753088520833337,0.0,0.0,0.0,60,12,131.7682648430045,455.5748,mp-20648,V2C,https://materialsproject.org/materials/mp-20648,-49.66743045686085,-35.50623982082737,-61.14245327693746,-28.137819116575443