energy_per_atom,energy,density,formation_energy_per_atom,total_magnetization_uB,total_magnetization_T,band_gap,sgr,num_sites,cell_volume,weight,mp_id,formula,URL,tsne_xrd_lin1_0,tsne_xrd_lin1_1,tsne_xrd_lin2_0,tsne_xrd_lin2_1
-8.296451862,-41.48225931,5.948590009894446,-0.12554615533333474,0.0073153,0.0010439801177308113,0.0,69,5,81.66149774577245,292.538,mp-1217110,Ti4Ru,https://materialsproject.org/materials/mp-1217110,-39.04424295702131,-55.76751372007044,-57.8299564413705,-32.752761559392226
-8.002137314107143,-448.11968959,3.7255541918894064,-3.0776835462500003,2.00052335,0.03874914732969741,0.0,212,56,601.6707542374755,1349.8972,mp-774760,Li2Ti3CrO8,https://materialsproject.org/materials/mp-774760,1.0343240682354928,-66.67040185993258,-13.111734520062985,-65.92427637517926
-4.5263111270000005,-90.52622254,2.612207200738025,-1.4624488907060005,0.99999995,0.02099545997236354,2.4587,14,20,555.0754403664779,873.1936000000002,mp-23528,MoCl3O,https://materialsproject.org/materials/mp-23528,35.30114312135404,-26.167821194446912,22.40030763148553,-50.45729265920529
-7.027346681249999,-337.3126407,2.7161737660478904,-3.1514283934375005,0.0,0.0,3.2088,19,48,670.5321092705052,1096.8015088,mp-677549,Ca2Al2SiO7,https://materialsproject.org/materials/mp-677549,34.83775643158724,-22.641760736872197,10.004299523235561,-41.09620024646145
-5.155451425,-61.865417099999995,5.10773377048967,-1.2117293625000003,2.0000003,0.14322255639850653,1.1469,74,12,162.74065780871555,500.582,mp-1101434,NiTeO4,https://materialsproject.org/materials/mp-1101434,1.1084421999770049,-59.91130839317261,-12.133803323918194,-60.07847471286208
-7.57968749,-37.89843745,5.883781100987684,-0.2263572173333344,1.9e-06,2.6338160285513805e-07,0.0,139,5,84.07087977227508,297.888,mp-1217168,Ti4Pd,https://materialsproject.org/materials/mp-1217168,-50.430650583432225,-40.46233100419267,-66.88127987737673,-25.545227365686497
-4.981934411818182,-54.80127853,2.361345343442649,-2.8777373212990907,2.9999997000000005,0.2381676912492873,1.5604000000000002,160,11,146.79653078916203,208.7498674,mp-759724,Li3MnF7,https://materialsproject.org/materials/mp-759724,9.063258906267203,-70.54410911733271,0.26198943023187354,-74.12614381055133
-4.512914075,-36.1033126,5.400571336068871,-0.8850626925,0.00089305,3.026523233387159e-05,0.0,193,8,343.88179909944427,1118.4068200000004,mp-568002,HfI3,https://materialsproject.org/materials/mp-568002,-17.244507348372597,-32.635296283599985,-7.800371118567113,-23.11813458269444
-6.505731065000001,-65.05731065,3.360513327855952,-2.4567809622500016,3.0000002,0.3325790640421118,0.7501000000000002,12,10,105.12446641579656,212.7454772,mp-755069,LiAl2FeO6,https://materialsproject.org/materials/mp-755069,7.8132372486234685,-60.00615793060572,-5.3199842003559485,-64.27289632932128
-11.44764241,-22.89528482,13.523285106130412,-0.08874231000000066,5e-07,1.7138649589182592e-07,0.0,65,2,33.9993670794092,276.88788,mp-1217895,TaMo,https://materialsproject.org/materials/mp-1217895,-41.41422909775321,-63.42914817087652,-53.14876206676894,-37.52391581908071
-5.747666461428572,-80.46733046,5.0061431176283016,-1.7644840464285718,3.0000006,0.252927596753778,0.0,227,14,138.2300775354033,416.7318772,mp-768600,Al(NiO2)2,https://materialsproject.org/materials/mp-768600,-21.908415377768264,0.9720462733479468,-42.685173445184276,-18.992964060717284
-3.713602445,-14.85440978,4.157359946605517,-0.24808625431,2.7000000000000004e-06,9.266545184355148e-07,0.0,123,4,33.95653316301275,85.01428,mp-1017509,MgNiH2,https://materialsproject.org/materials/mp-1017509,-77.47928378833625,-1.9048405856461463,-55.39982238448264,-27.11866500293007
-11.0475667575,-44.19026703,17.42824468884345,-0.7435318293749997,7.9e-06,1.3139628584841776e-06,0.0,225,4,70.06827560516639,735.404,mp-861978,Hf2ReIr,https://materialsproject.org/materials/mp-861978,-46.930716942880075,-64.7550261504537,-51.271452666816025,-37.04968709190338
-5.637701315454546,-124.02942894,2.5909571809810394,-0.6420412931600009,4.04973745,0.17130284427369005,0.0,14,22,275.511494010899,429.88359,mp-1190777,Co(NO4)2,https://materialsproject.org/materials/mp-1190777,26.517022006882964,-38.495526797234334,33.84848376826343,-51.66724815246318
-6.330648143333333,-455.80666632,3.5539718976494794,-2.307034805856481,22.0000005,0.4027770211121657,0.8887,1,72,636.5542654727218,1362.3865,mp-779077,Li24TiCr11O36,https://materialsproject.org/materials/mp-779077,-10.840831557157971,-68.66006152625445,2.6234925403988374,-81.3086071662807
-9.235211002,-46.17605501,8.995919638483189,-0.10907127600000023,1.82e-05,2.403676622403988e-06,0.0,69,5,88.24147844332525,478.04552,mp-1220401,Nb4Pd,https://materialsproject.org/materials/mp-1220401,-79.0207392195222,-3.4295127340963765,-87.27460451540449,1.8969447868628533
-7.9120112800000015,-23.73603384,7.8593415539137,-0.4876159900000007,0.0,0.0,0.0,139,3,61.03266897312234,288.868,mp-266,Zr2Pd,https://materialsproject.org/materials/mp-266,-78.25549415397752,9.098923600379413,-56.20000815577329,32.13856143423974
-6.3924776475,-25.56991059,13.202123019898524,-0.7018167749999993,0.0,0.0,0.0,123,4,69.53684558895866,552.8530000000002,mp-1216945,TiInPt2,https://materialsproject.org/materials/mp-1216945,-41.65126232303688,-62.079601717672006,-55.80868519269926,-19.42325088041865
-9.674961424,-48.37480712,9.02615300044492,-0.11506250399999945,1.3e-06,1.73544067748646e-07,0.0,69,5,87.29934938640854,474.53102,mp-1220441,Nb4Rh,https://materialsproject.org/materials/mp-1220441,-79.02883631333017,-3.536408979413677,-87.12524154674641,2.010449493562694
-6.836121053499999,-136.72242107,5.536893790348072,-2.1138719549375,2.00000005,0.041203675461415776,0.0,62,20,565.6808492642599,1886.20364,mp-3601,BaUS3,https://materialsproject.org/materials/mp-3601,5.712432740361785,-23.56426761862581,16.689423110731312,-18.95953566141129
-4.6319440315384615,-60.21527241,5.003119364306677,-0.8210844719230775,2.0000001,0.1640117914877267,0.2625000000000002,166,13,142.11253044126434,428.1778,mvc-10443,Zn(NiO2)4,https://materialsproject.org/materials/mvc-10443,4.97267962132489,-58.40240084782332,-25.527348336478077,-67.76554789177435
-5.8437304125,-327.24890310000006,2.3818466457452416,-2.1085077356585717,0.0,0.0,4.9129000000000005,1,56,435.0505253412752,624.0284687999998,mp-626103,Al(HO)3,https://materialsproject.org/materials/mp-626103,23.912105642596412,-41.6675895521798,32.656464698459054,-48.64318515762434
-9.9449427975,-39.77977119,15.420880614756598,-0.915137689999998,4e-07,6.638678517234582e-08,0.0,225,4,70.2191843892108,652.1025,mp-865178,Hf2IrRh,https://materialsproject.org/materials/mp-865178,-47.285977337832826,-65.01385175580154,-50.71595369395673,-36.86543027396998
-5.9267740500000015,-106.68193290000002,4.351045989197109,-1.2311819469444452,3.0,0.17007194196379985,0.459,12,18,205.5729705557243,538.654875,mp-756950,CrCo5O12,https://materialsproject.org/materials/mp-756950,9.514554121546725,-65.61123099566537,-2.9420673854659563,-69.04915353495717
-8.34991882,-66.79935056,3.784464135374274,0.04764338662250012,3.99880355,0.5539290655904767,0.0,194,8,84.13047532496701,191.7382,mp-567933,FeCN2,https://materialsproject.org/materials/mp-567933,15.830370679707794,-48.687767324862264,-11.98266581191064,-54.888698349640386
-4.135581148571428,-115.79627216,3.1038364384035515,-1.2343373442500003,0.9999998999999999,0.031002163812880356,0.03349999999999986,136,28,375.91129694990343,702.64363136,mp-849937,Na3NiO3,https://materialsproject.org/materials/mp-849937,-2.890016903241015,-8.53290216721863,2.560608083017577,-17.079004340730034
-5.831921716818181,-128.30227777,4.7999422392668185,-1.77396756840909,2.00000025,0.0989988205448772,1.9973,64,22,235.4384863410545,680.5568,mp-756636,Li2Fe2SnO6,https://materialsproject.org/materials/mp-756636,3.838791627042,-57.69226941249672,-6.963101099231785,-61.54920694016272
-5.222665053,-52.22665053,9.816425677579833,-0.5340263156666666,4.8599999999999995e-05,2.954046369960952e-06,0.0,127,10,191.73278852555316,1133.4456,mp-1079954,Er2InNi2,https://materialsproject.org/materials/mp-1079954,-45.76828191113653,2.2202428167247783,-56.04865356455059,24.16990568764397
-7.291069759285714,-204.14995326,3.431271464942621,-2.771618913571428,2.000000725,0.08029008690314736,2.2907,14,28,290.29907543172266,599.8624,mp-1176508,LiVSiO4,https://materialsproject.org/materials/mp-1176508,19.757676728362068,-1.9185811886953512,19.440982512643945,-25.000954926005587
-4.11227793,-8.22455586,2.7871830462105422,-2.8468357020950004,0.0,0.0,6.3559,221,2,34.6126688342397,58.0967032,mp-8454,KF,https://materialsproject.org/materials/mp-8454,-45.21213459550415,-63.794187105992634,-46.935205016661385,-37.29696871800496
-5.406601978333334,-32.43961187,13.272177706499908,-0.7271848250000001,5e-08,4.4146084098806784e-09,0.0,227,6,131.99432079270977,1054.99,mp-747,BaPt2,https://materialsproject.org/materials/mp-747,-63.33684119631096,12.27075725337366,-71.08913980356942,11.368453895580867
-7.402701834722222,-266.49726605,10.287258085671093,-0.6890715152777784,1.67e-05,5.112303933802062e-07,0.0,55,36,380.69505299737574,2358.456,mp-1198965,Er2B6Os,https://materialsproject.org/materials/mp-1198965,-35.665436474346535,-10.628878394046023,-37.78008427646096,-12.18142618424458
-6.495850732666668,-97.43776099,4.374733221976206,-2.0893318641920007,12.9999999,0.9167321894595292,0.0,166,15,165.2640134379812,435.39233500000006,mp-756729,Li3Mn3SbO8,https://materialsproject.org/materials/mp-756729,1.4036412634115094,-59.67959906260002,-10.763379679168734,-60.287410700051915
-5.2542111025,-21.01684441,10.698695250526432,-0.34970919249999977,0.09272439999999998,0.015934532746635574,0.0,225,4,67.81599315015346,436.93199999999996,mp-861877,CdSnRh2,https://materialsproject.org/materials/mp-861877,-41.02383003083196,-62.355649578596896,-49.518344886528986,-39.65144447489554
-9.582198526666668,-28.74659558,5.761461249600719,-0.4542371062500005,7e-07,2.4851884150855533e-07,0.0,164,3,32.82586258358584,113.8937,mp-1008632,V2C,https://materialsproject.org/materials/mp-1008632,-49.53282009155777,-35.572419879320805,-59.61330128640735,-33.44497847313077
-5.184726810357144,-145.17235069,3.2995330992402665,-0.5017507390900003,1.002174175,0.028107577678809118,0.0,57,28,415.52505457067235,825.6587999999998,mp-1213955,CdNO5,https://materialsproject.org/materials/mp-1213955,29.12243807717282,-37.957798947222685,20.901581196237274,-58.51556955333906
-2.6145977408333336,-31.37517289,4.644305251944347,-0.05937365416666681,0.0002633,1.3102555273197874e-05,0.0,63,12,234.1921244088788,655.004,mp-1094663,MgGa2,https://materialsproject.org/materials/mp-1094663,-70.32453162112654,5.0655151554588125,-67.24544604104942,14.556816906316936
-7.427837528888888,-66.85053776,2.8616947711195246,-1.7291889267733325,3.0000004000000002,0.3443852191496316,1.1851,148,9,101.52061422855171,174.95584499999998,mp-754012,Mn(CO3)2,https://materialsproject.org/materials/mp-754012,30.86225312467848,-36.012801691999286,5.8917936485539695,-37.027714766114066
-6.172488166250001,-148.13971599,3.911872709199424,-2.0382222653683333,17.9999783,0.9516907231501108,0.0,1,24,220.42130695413042,519.265175,mp-1175251,Li7Mn4CoO12,https://materialsproject.org/materials/mp-1175251,2.134964287823875,-78.21496197571727,-28.127955483118946,-79.28628663602049
-4.885791928333333,-29.31475157,8.308204751050445,0.04184403583333385,4.6526239,0.63410352106553,0.0,216,6,85.5096659956188,427.832045,mp-1072398,MnCu4Sn,https://materialsproject.org/materials/mp-1072398,-76.19128168773645,-20.358343463747968,-70.74460913264869,-6.464328225399813
-5.948015740714285,-166.54444074,3.802782597058851,-1.7054837363571431,6.499999825,0.21829047586421374,0.0,1,28,347.0211821302609,794.70947712,mp-850232,Na(FeO2)2,https://materialsproject.org/materials/mp-850232,9.254516411637075,-62.57248637899771,-3.6521903003981735,-65.94704612277005
-4.970596498666667,-149.11789496,3.4719803364358763,-2.338476569810666,3.000000066666667,0.09305312040094682,0.10239999999999982,167,30,375.7229735442702,785.5899467999999,mp-705480,MnF4,https://materialsproject.org/materials/mp-705480,2.644618220283105,-35.47135538165958,31.758277172381927,-43.365034245741256
-5.5790151625,-111.58030325,2.8568411974428543,-2.963133987452,1.0,0.03948868507042429,1.8791,14,20,295.12415396399706,507.7404512,mp-1101193,VF4,https://materialsproject.org/materials/mp-1101193,20.692322510082192,-34.11895812909633,24.27511151813665,-40.94534505321136
-6.6633444483333335,-79.96013338,5.172720202308347,-1.6512807989900011,8.0033008,0.5790215022704789,0.0,166,12,161.0838035405273,501.78973499999995,mp-768709,Mn3BiO8,https://materialsproject.org/materials/mp-768709,5.140539726524022,-61.29137118011615,-9.756895367245304,-59.37524887563426
-5.572226050625,-89.15561681,5.683149183680954,-1.7663130699999998,6.0,0.4640757348741822,2.08,166,16,150.6745200852091,515.6794,mp-756537,Li4Ni3WO8,https://materialsproject.org/materials/mp-756537,1.4966678629106605,-65.529271633905,-13.750021647803335,-63.482403269220036
-6.739317032857144,-188.70087692,4.064397649258646,-2.0440046935714298,9.000009599999998,0.3597611379782768,0.5187999999999999,1,28,291.5453720807175,713.59739,mp-756128,Li2Cr3CoO8,https://materialsproject.org/materials/mp-756128,6.3171544269185045,-67.27832528690756,-6.495818587724337,-68.32205700661655
-7.621529415,-30.48611766,12.097397071072345,-0.7715389183333334,8.400000000000001e-06,1.4288790090058833e-06,0.0,225,4,68.51114998015787,499.119,mp-865066,HfInRh2,https://materialsproject.org/materials/mp-865066,-44.10536227499194,-63.58069235550677,-49.00559009291952,-37.66486851165593
-5.825923081538463,-75.73700006,5.430661221942725,-1.3722527723076927,6.0,0.4654368897622661,0.5164,12,13,150.23387740295755,491.32798,mp-755872,Co4TeO8,https://materialsproject.org/materials/mp-755872,2.1516490920220845,-60.08966772740678,-11.615340572261147,-58.87106426157712
-6.15533568,-147.72805632,3.902583435674413,-2.0210697791183327,15.998934900000002,0.8438833300007077,0.0,1,24,220.94597320272868,519.265175,mp-1175285,Li7Mn4CoO12,https://materialsproject.org/materials/mp-1175285,0.5615187237746933,-80.5947570154116,-28.492246530120354,-79.2221518056741
-6.256657494375,-100.10651991,3.789297983473255,-2.1450086126800008,10.000001699999999,0.8120015461563691,0.0,12,16,143.52271629180436,327.514335,mp-1174519,Li5Mn3O8,https://materialsproject.org/materials/mp-1174519,14.887096147656925,-72.96947090934067,-14.948254308880765,-77.56894194464934
-8.03007528,-16.06015056,5.545247376541169,0.1927628324999997,0.0,0.0,0.0,187,2,41.2832291266817,137.862292,mp-973229,ScNb,https://materialsproject.org/materials/mp-973229,-70.54590277465593,5.371228075260022,-68.51017013956205,13.131218900500645
-6.350807934375,-101.61292695,4.1566127804698185,-2.0311576970550007,15.682515700000002,1.205492141600492,0.0,2,16,151.61032366567997,379.50653000000005,mp-1174204,Li4Mn3CoO8,https://materialsproject.org/materials/mp-1174204,5.187765488175826,-78.23669521851654,-29.4654651817024,-76.30639961383216
-7.0191604625,-56.1532837,6.020725315598158,-0.5355448017708344,0.0,0.0,0.0,194,8,121.43956602086168,440.3114,mp-9961,Ti2CdC,https://materialsproject.org/materials/mp-9961,-71.43448734905536,5.637436772215426,-68.40791631732831,13.044679674585964
-6.059177064375,-96.94683303,4.289532965642523,-1.8796771251199988,5.9997456,0.4709815687711744,0.0,166,16,148.4589386877923,383.50167999999996,mp-1173904,Li2MnCoO4,https://materialsproject.org/materials/mp-1173904,0.7961749723491338,-68.12676786933254,-14.52076012426983,-65.79926858652178
-4.807896461666666,-28.84737877,2.0713909844115443,-0.3065900795238091,0.0,0.0,0.10610000000000007,119,6,97.76404069126968,121.9529006,mp-551798,AlPO4,https://materialsproject.org/materials/mp-551798,1.923430196148481,-32.284501596114694,-7.05386064750571,-34.244426513825694
-4.0235064880000015,-40.23506488,2.582978264707544,-1.054691559625001,0.92068715,0.05895175745797436,0.0,38,10,182.00895349069833,283.116,mp-754086,Li2CuS2,https://materialsproject.org/materials/mp-754086,32.554008350167805,-41.920819967050136,39.63618390871628,-66.75858768279534
-5.7609869353125,-184.35158193,4.1712653927175065,-1.8256379719349995,24.5909926,0.995710395124444,0.0,6,32,287.81965316945264,723.001465,mp-1100575,Li9Mn2Co5O16,https://materialsproject.org/materials/mp-1100575,4.778507161885635,-73.04063624084299,-22.96082549270597,-75.32061279390258
-5.851788453181817,-128.73934597,3.9040210379114666,-1.7337301020454547,23.9999975,1.1791535182010149,0.04939999999999989,12,22,237.20195978636738,557.6752,mp-1177537,Li4Fe5NiO12,https://materialsproject.org/materials/mp-1177537,6.362507130539851,-57.35241966846907,-5.894426839837679,-62.67604028638808
-7.3725295425,-58.98023634,8.416042390926117,0.5920896450000006,4.6e-06,3.3491982952270107e-07,0.0,194,8,160.0642697990534,811.24722,mp-1186215,Nb3I,https://materialsproject.org/materials/mp-1186215,-70.223674168079,3.141512224985554,-67.79904369818266,13.158623651827526
-7.634391503333332,-229.0317451,3.5545959636996387,-3.092446733888889,1.3822302,0.053908717251855136,0.0,160,30,298.8125316751773,639.6464,mp-34052,Li7Ti7O16,https://materialsproject.org/materials/mp-34052,-0.5482306733830795,-66.88535249550263,-17.17766104748588,-65.97832359340308
-5.1018942733333335,-122.44546256,4.638035032916231,-1.4729845735416671,2.00000375,0.11104243811736114,0.0,15,24,209.90329141753705,586.2787900000001,mp-760869,Li3Co(NiO3)2,https://materialsproject.org/materials/mp-760869,9.73876478820739,-66.03636896943128,-2.5477480214429753,-68.04209608462034
-6.416726593636364,-141.16798506,4.297805416684497,-1.9287966840381827,6.9999996,0.3788133950359961,0.5897000000000001,2,22,215.3525979157629,557.37537,mp-779065,Li2Mn2CoO6,https://materialsproject.org/materials/mp-779065,8.073019751592962,-67.8960708687152,-5.827120637721835,-69.18111248439446
-7.390764962272727,-162.59682917,3.7188799368988614,-2.634494824015152,5.99999935,0.2991545318998763,2.2466,64,22,233.7400025870876,523.4752,mp-757086,Li2TiCr2O6,https://materialsproject.org/materials/mp-757086,6.420727966332366,-57.835130581669205,-5.841737278758619,-62.503375972799645