energy_per_atom,energy,density,formation_energy_per_atom,total_magnetization_uB,total_magnetization_T,band_gap,sgr,num_sites,cell_volume,weight,mp_id,formula,URL,tsne_xrd_lin1_0,tsne_xrd_lin1_1,tsne_xrd_lin2_0,tsne_xrd_lin2_1
-6.904531456666668,-62.14078311,5.267159880769216,-2.4272707091203705,0.0,0.0,3.3122000000000003,5,9,100.10864354096857,317.5404000000001,mp-755256,LiBiB2O5,https://materialsproject.org/materials/mp-755256,32.541095198653345,-27.149901337923588,9.61770424830269,-38.65700123426205
-4.811230093333333,-57.73476112,3.8576654051674666,-1.8354424861566092,0.0,0.0,3.6011,12,12,298.3321999926386,693.0676,mp-8248,Rb2TeO3,https://materialsproject.org/materials/mp-8248,4.930053003910755,-17.832809824269138,15.959804911197304,-11.166040480452883
-5.7463340999999994,-22.985336399999998,3.4292517431651737,-2.8480857346425004,3.0,0.472108127688292,2.9922,221,4,74.05548065625078,152.93520959999998,mp-554201,MoF3,https://materialsproject.org/materials/mp-554201,0.5247607774653029,-38.7090279190654,1.3802589895196031,-34.71302546455821
-8.90608821625,-356.24352865,5.4378363575307285,-3.95838894575,2.5e-08,4.6489462331738054e-10,3.9852,1,40,626.7046438071807,2052.2958,mp-867663,SmY3O6,https://materialsproject.org/materials/mp-867663,18.255560369263264,59.10869682411225,-5.500819994061028,37.158767690420206
-7.701160919999999,-107.81625288,5.425686290768063,-3.6035269928571423,0.0,0.0,3.5488,227,14,293.28023294500235,958.2710800000001,mp-755558,BaLa2O4,https://materialsproject.org/materials/mp-755558,-8.459467892588737,-11.659944702290886,0.15999851118404362,6.842607386750615
-7.685753787205884,-522.63125753,6.068214351261236,-3.2626563852205877,4.00000005,0.04169430051878086,0.0,14,68,1118.0487283134557,4085.7572,mp-559771,Pr6O11,https://materialsproject.org/materials/mp-559771,-11.088196760407829,-29.33210678734544,-0.6504359560464084,-29.04048172641844
-4.25959976875,-34.07679815,4.630718683232447,-0.8146028491145842,0.0,0.0,0.01440000000000019,122,8,173.91285522215222,484.988,mp-22736,InCuS2,https://materialsproject.org/materials/mp-22736,-13.249884287612716,-24.750519910490127,-11.059638498641961,32.343953537702305
-6.01006192236842,-228.38235305,8.348641783884453,-1.761060959063684,5.000000099999999,0.0969789354562,1.1326999999999998,63,38,600.8554822147166,3020.9028900000008,mp-687227,MnSb2Pb5O11,https://materialsproject.org/materials/mp-687227,-6.4764462353889645,37.85751404904528,-5.695022602824293,32.29214969591367
-6.6098992125,-211.5167748,5.3764424108355495,-2.1107893648437512,0.99999925,0.0259824624681408,2.0029,19,32,448.5354706583757,1452.2544,mvc-5981,MgAsWO5,https://materialsproject.org/materials/mvc-5981,44.200241096742246,-40.068775514830534,39.069231657424545,-55.92215032920207
-6.949302456,-277.97209824,6.4316592827689245,-2.991310625375,0.0,0.0,3.3418,2,40,650.8510506666989,2520.8996,mp-1228515,Ba8Sr3Ca(WO6)4,https://materialsproject.org/materials/mp-1228515,-20.64520510578549,10.291980567986073,-29.992526244557176,47.59047545612651
-8.2302667,-263.3685344,5.010478459439847,-2.44176888140625,0.0,0.0,3.8063,161,32,608.3904483343523,1835.7456,mp-772838,Er(ReO4)3,https://materialsproject.org/materials/mp-772838,65.63568914400743,-28.847781516605927,65.65681609477923,-31.661050532348252
-3.0923072325,-61.84614465,1.5749602252972752,-0.3607907882719996,0.0,0.0,2.5836,166,20,249.17524385011018,236.33355719999997,mp-23774,K2LiAlH6,https://materialsproject.org/materials/mp-23774,2.0389885943129222,27.33536317856057,1.247376823425755,28.63681008250468
-8.4991261675,-237.97553269,5.248633246446264,-3.0137936754846937,4.75e-07,1.498464133551891e-08,3.2243,43,28,369.4236413816812,1167.674568,mvc-8680,TaPO5,https://materialsproject.org/materials/mvc-8680,30.45131285755716,-26.58971560459029,9.17396817008097,-38.56261564750121
-6.802601514249999,-272.10406057,3.2134003796324704,-2.7409059740000004,0.0,0.0,3.1867,122,40,464.02309527834376,897.9566,mp-559155,LiMg4V3O12,https://materialsproject.org/materials/mp-559155,-11.371273324259127,39.82813570897447,-7.4271888515421844,70.62572477365742
-7.70723366625,-184.97360799,5.01927202621764,-2.79790764,0.0,0.0,0.0,14,24,337.31586639472044,1019.5966800000001,mp-18456,LaCrO4,https://materialsproject.org/materials/mp-18456,9.968359858330588,15.556068499297686,13.784383015367668,7.68632010979107
-4.91250411625,-39.30003293,4.440546724239431,-1.0947617286874998,2.3e-06,2.581864629881117e-07,0.0,8,8,103.81779380168942,277.62536928,mp-756095,NaCu3O4,https://materialsproject.org/materials/mp-756095,5.461929617350637,-36.354903313644414,29.414083534187398,-1.013972786505353
-1.6087622127777776,-28.95771983,2.5814080745674506,0.06200474722222241,0.008704966666666666,0.00011368635370627143,0.0,155,18,892.3520024084477,1387.215,mp-1094360,Sr5Mg,https://materialsproject.org/materials/mp-1094360,-18.038083977536534,-35.49105182157264,-15.335737123104634,-29.68639596588354
-6.168784826875,-98.70055723,7.619909735321381,-1.5023369612500002,1.346191875,0.07494691465660297,0.0,2,16,209.32959521318176,960.5752,mvc-15580,MgWO2,https://materialsproject.org/materials/mvc-15580,32.73395354761477,-30.62870842455205,9.907096657204253,-41.268712747161054
-7.855098266944443,-282.78353761,6.0554654052483725,-3.1639843388888886,0.0,0.0,2.6652,142,36,526.9664849350714,1921.6816,mp-18494,Nd2MoO6,https://materialsproject.org/materials/mp-18494,-10.678894034894126,-26.047997720172077,0.5888489940532388,-28.561007174386816
-7.022342435652174,-161.51387602,5.1277134967526115,-2.9413706339791297,1.0,0.02456670485999972,0.0,164,23,474.38453137991684,1464.89056,mp-558113,Ba6Nb2Ir(ClO6)2,https://materialsproject.org/materials/mp-558113,-19.106127990298532,16.819990870890166,-18.51325757690193,47.4870390807968
-6.767635650000001,-142.12034865,4.235106201246408,-0.7125280460714298,1.0,0.019973679109665226,0.6295999999999999,148,21,583.4711125863794,1488.10842,mp-572674,ReC2(IO)2,https://materialsproject.org/materials/mp-572674,-5.878898993095418,-7.199995688688313,-28.675779670846637,-26.93515256153561
-6.048418816428572,-254.03359029,2.2976194750153103,-1.9303220065097957,4.99999905,0.14147778077811388,3.9748,14,42,411.8690049487343,569.886178,mp-721692,MnP2(H4O5)2,https://materialsproject.org/materials/mp-721692,42.03494617560744,-13.681967463008323,41.73481004260985,-30.746574567182716
-5.208643596,-52.08643596,3.2480163604605012,-3.2181255884806674,0.0,0.0,3.0265,225,10,176.38595038078446,345.01113119999997,mp-1112447,K2ScAgF6,https://materialsproject.org/materials/mp-1112447,-16.82731312476732,-49.07844041221929,-10.610783141317217,-38.90363287566826
-6.1978428394230765,-322.28782765,2.2996945321174387,-2.338662980121979,0.0,0.0,5.3502,15,52,679.0647443272239,940.442496,mp-707172,K3P4H5O14,https://materialsproject.org/materials/mp-707172,64.00910384632233,-19.22330301239133,45.72156829784724,-19.727921911140736
-5.739763984285713,-40.17834789,5.907028364924222,-2.8367268528400005,0.1011137,0.00929316891586985,0.0,139,7,126.80126874492208,451.06960639999994,mp-6123,Ba2Pd(OF)2,https://materialsproject.org/materials/mp-6123,-20.16783585772,14.48408476728395,-20.667065650145947,45.14288574602497
-7.986730556666667,-191.68153336,5.0362654126565936,-3.13897263,5.5e-06,1.8995894116438264e-07,3.5154999999999994,14,24,337.42742434856535,1023.387,mp-1191389,PrVO4,https://materialsproject.org/materials/mp-1191389,10.020619603804807,15.497553306589005,13.768454782847085,7.7328443287966975
-6.6437418091666665,-79.72490171,2.9047962532525227,-2.646401333277657,0.0,0.0,4.2,150,12,211.50438105374238,369.9865639,mp-1213159,CsSc(SO4)2,https://materialsproject.org/materials/mp-1213159,65.08819063290949,-27.89303834179116,66.66430920340548,-17.779869831667536
-5.250679562228262,-966.12503945,2.1294912138559763,-1.5142174976340377,2.0000008625,0.015203319222837075,4.1354000000000015,58,184,1533.0954546911594,1966.056336,mp-849788,NiP(H4O3)3,https://materialsproject.org/materials/mp-849788,26.937911669506107,-43.16125552082903,32.27142753269882,-51.98024597921642
-5.108610929545455,-112.38944045,2.5440453640149445,-2.010399335454545,4.0000007,0.2211268046828934,2.2934,137,22,210.812376703648,322.9772,mp-756155,Li6FeO4,https://materialsproject.org/materials/mp-756155,14.504691171416725,-42.66634187349168,50.546890009339144,-8.959505434215425
-6.4202577821428575,-179.7672179,5.3924815571305285,-1.6146939233928574,0.995921625,0.01992914771661961,0.17169999999999996,14,28,582.3899391574988,1891.2696,mvc-9129,BiWO5,https://materialsproject.org/materials/mvc-9129,34.01389118750663,-17.124499295654992,43.46238609540156,-18.095071063621365
-1.5950660025,-6.38026401,2.5133054812216136,0.06905775749999997,9.740000000000001e-05,5.9827528979945575e-06,0.0,187,4,189.72969938768588,287.165,mp-1094688,Sr3Mg,https://materialsproject.org/materials/mp-1094688,-11.126324544409952,-20.001282147823133,-14.225801270510074,-29.36498198648565
-4.813216134,-192.52864536,5.118200543001102,-3.2318313738330007,0.00070335,1.3960041648851748e-05,4.4668,15,40,587.1677652519093,1809.7992895999998,mp-621924,BaCdGaF7,https://materialsproject.org/materials/mp-621924,12.659891431450578,-16.98260640328028,17.108019232636572,-11.171071555826561
-4.398011500666668,-263.88069004,2.9418260999351387,-0.5231387449226659,0.0,0.0,3.3781,14,60,899.1026666373567,1592.85848,mp-600182,CdH8C2Br3N,https://materialsproject.org/materials/mp-600182,43.36413937490678,-49.34003371943596,34.495728416096824,-64.62267896014336
-9.461930326333334,-283.85790979,9.53274581078675,-4.26251251875,0.0001314,3.444003801479461e-06,0.0,2,30,444.64065645238685,2552.5725399999997,mp-676564,NdTh9O20,https://materialsproject.org/materials/mp-676564,-12.706084643540759,-25.524008693865472,-11.556030326973579,31.339240441640467
-5.8002902795,-116.00580559,1.8309727326250949,-1.451879862826,7.25e-07,2.3036862354377236e-08,3.1975,62,20,366.7685655334198,404.4128,mp-672644,KNO3,https://materialsproject.org/materials/mp-672644,76.21758394621861,-35.03059940724804,62.2927954178008,-48.57614949427783
-3.9318324175,-15.72732967,4.525275019769362,-0.5480374909049996,0.0,0.0,0.8844999999999996,156,4,87.3175709343657,237.9564786,mp-1207108,BaAlGeH,https://materialsproject.org/materials/mp-1207108,-19.154411669418614,12.459417953431306,-14.865744601615233,11.265021845037062
-7.390557364204545,-650.36904805,4.011112712723948,-1.971116008465909,2.999999975,0.025006874354933716,0.0,14,88,1398.1033187152245,3377.1864800000008,mp-1199799,CaU2Si2O17,https://materialsproject.org/materials/mp-1199799,44.221868952707425,-40.67102600628567,47.574747265190865,-34.506226508749826
-7.274742412708334,-349.18763581,4.086598299940192,-2.611582056903736,1.095e-05,1.588542166860395e-07,3.611,60,48,803.3278053408039,1976.9954,mp-1209254,RbY(MoO4)2,https://materialsproject.org/materials/mp-1209254,6.016148591558517,18.639447981416478,34.55399801002732,-2.5673087533590544
-4.8036099960000005,-48.03609996,7.341656689814812,-1.9428579636400003,0.0,0.0,2.5771999999999995,67,10,219.32752273908497,969.7016064,mp-23104,Pb2ClOF,https://materialsproject.org/materials/mp-23104,-22.67376464322732,22.49143950544016,-10.770565098260255,22.56130650994996
-3.3681511475000003,-40.41781377,4.05545894147667,0.22357525004000026,0.00891915,0.00047589426277717733,0.0,12,12,218.41900595646496,533.4348,mp-1246778,LiCdN,https://materialsproject.org/materials/mp-1246778,33.32372480475669,-23.15727624444297,11.261010816162504,-39.75188369095281
-8.104737798,-202.61844495,6.270025200926316,-3.2771155550833337,8.999999699999998,0.3347531279885373,1.4901999999999995,65,25,313.3251661815968,1183.08371,mp-684872,Ba2La3Ti2Cr3O15,https://materialsproject.org/materials/mp-684872,-28.36956253003156,46.20770804743442,-13.073225499167876,64.45303179382942
-3.675782764583333,-88.21878635,4.090206691008217,-1.939308304821111,1.975e-06,7.428411056749547e-08,0.0,14,24,309.8479304654535,763.2112512,mp-765191,LiAgF4,https://materialsproject.org/materials/mp-765191,15.830620284993428,-28.539695320955786,29.72130925197534,-32.629015892564695
-7.092918583181818,-156.04420883,2.309498928087729,-2.0702742677272736,4.00000005,0.17438386209027415,2.4184,14,22,267.3198030722013,371.7918,mp-753778,Li2Cr(CO3)2,https://materialsproject.org/materials/mp-753778,28.242793027000516,-39.402206683901134,31.78820069747727,-50.9792106919566
-6.2979151812500005,-151.14996435,4.588152304862193,-2.0295299929947923,5.0025892,0.10517129978531296,0.4504000000000001,173,24,554.3384809954509,1531.66491,mp-504891,La3MnGaS7,https://materialsproject.org/materials/mp-504891,8.894914339241875,-4.097756798428377,12.784332386598821,5.747750360558361
-8.353673590588237,-568.04980416,3.9823626699895014,-3.52022235242647,1.000000125,0.013259447190736526,0.0,14,68,878.9254983012935,2107.8698000000004,mp-1204527,Y3Si3O11,https://materialsproject.org/materials/mp-1204527,12.06515151350554,26.44650434716145,34.68191831800582,-0.2663340514754381
-2.933040135625,-46.92864217,5.2830751849962265,0.004521107827499815,2.00000015,0.04478404035105272,0.0,140,16,520.456196236908,1655.8534,mp-1189233,Pb2Br5N,https://materialsproject.org/materials/mp-1189233,-18.658415544324452,20.895206491279133,-13.684566214659519,17.930002761390053
-3.325867826666667,-9.97760348,3.3852576050589187,-1.6457300683333334,0.0,0.0,3.9035,164,3,144.15763706929,293.88694,mp-30031,CaI2,https://materialsproject.org/materials/mp-30031,0.0472985221758664,-29.36105663791913,-4.63333210997996,-28.72879105835173
-6.700200966136364,-294.80884251,3.4187218957292296,-2.62987685613961,0.0,0.0,4.2572,14,44,518.0799920560627,1066.6243731200002,mp-1210133,NaGaP2O7,https://materialsproject.org/materials/mp-1210133,28.422348063711404,0.13278227952215346,57.658390088077596,9.550469458327921
-6.303758770294117,-214.32779819,6.618601379749102,-2.657245894558823,1.405e-05,3.062775430528294e-07,1.1901000000000002,64,34,534.6118700783114,2130.864,mp-768510,Ba4Sn3O10,https://materialsproject.org/materials/mp-768510,-21.457404267378184,15.093172888919016,-23.56027321368802,53.56497335033766
-6.544479910178572,-366.49087497,2.7776176556164014,-2.5386471211989794,5.0000002,0.09139726863053743,1.925,14,56,637.5499735026248,1066.442896,mp-757579,Li3Fe(PO4)2,https://materialsproject.org/materials/mp-757579,35.78358446766497,-16.102323309987543,44.84438928801778,-39.291581319967655
-7.252278097222222,-261.0820115,5.4562192831541205,-3.3817840593055566,8e-07,1.2109208384964852e-08,2.4346,62,36,769.9307437490114,2529.84776,mp-768263,Ba2La2O5,https://materialsproject.org/materials/mp-768263,-0.255398520527082,-16.363749286927117,-0.7241514773003571,-33.552661242184904
-8.449836833173077,-878.78303065,6.1383191528346375,-3.3582149387549736,0.0,0.0,1.517,60,104,1952.0794338419587,7216.0222,mp-558239,Rb4U5O17,https://materialsproject.org/materials/mp-558239,28.70686232902409,-15.311463734031156,43.95893628317258,-22.41030616034896
-5.17087027515625,-330.93569761,4.9451964738701815,0.0913354910675439,0.0002135125,1.968801016120984e-06,1.2008,61,64,1263.8598235050106,3763.8592,mp-1247223,RbSbN2,https://materialsproject.org/materials/mp-1247223,-22.94024290510741,12.011475805762371,-30.240956272566148,48.112683250217145
-7.1126351888888895,-256.0548668,3.4496970907076694,-2.5085930524206352,3.00000015,0.07167643182370781,3.9279,15,36,487.77813259148104,1013.337696,mp-758467,LiP4WO12,https://materialsproject.org/materials/mp-758467,47.0713184137229,-12.773178650928092,44.21155604680651,-28.24789798818193
-5.043322049375,-161.38630558,2.4990396820375085,-0.1978282382758625,2.5e-07,3.134431759769067e-09,1.3087000000000004,29,32,929.5197396017261,1398.8871436,mp-1213206,CsP7,https://materialsproject.org/materials/mp-1213206,19.839376451674205,-11.64718335862838,42.55461773398807,-7.059618606617452
-5.832103136470589,-198.29150664,4.466920476108255,-1.9955960407205884,0.0,0.0,1.8559999999999999,12,34,551.0916790224811,1482.46,mp-27140,K2Sb4O11,https://materialsproject.org/materials/mp-27140,47.362186260292646,-12.18902187182164,48.372692896387406,-28.392041438716326
-3.7593783775,-15.03751351,7.6965448125570095,-0.44833014554687534,0.0,0.0,0.242,166,4,123.25516317632963,571.2837,mp-29662,TlBiSe2,https://materialsproject.org/materials/mp-29662,-23.324856615574518,-36.254156732778185,-32.363039727746575,-21.701380007475947
-4.141563074615385,-53.84031997,2.9533887572954933,-1.1111779074903845,0.0,0.0,1.8715,5,13,308.3029426675064,548.33907712,mp-1221151,Na4Sn(GeS3)2,https://materialsproject.org/materials/mp-1221151,34.47873745135481,-31.93279164931645,4.805426309941631,-49.22661125922501
-6.7405541200000005,-33.7027706,6.6766550588666815,-0.3550748920000004,3.3e-06,2.923820061241025e-07,0.0,155,5,131.534817273,528.8720000000002,mp-1215393,Zr3Te2,https://materialsproject.org/materials/mp-1215393,-63.97117826416403,13.15225944859892,-45.712958974479754,44.20251119891624
-8.198451461000001,-163.96902922,4.536297087704024,-3.1874094575000007,0.0,0.0,5.4697,15,20,204.10509880096333,557.5788,mp-11709,Sm(BO2)3,https://materialsproject.org/materials/mp-11709,23.664833015633388,-4.995577503523756,36.5277008919298,-18.61513808881764
-6.441642108958334,-618.39764246,7.7652166608162485,-1.9009207131770849,0.999871525,0.008272793657583006,0.6472999999999995,62,96,1408.5408144934286,6586.7916,mp-1205158,VBi2O5,https://materialsproject.org/materials/mp-1205158,23.29165301371261,60.7856510073144,-6.4517303764556875,35.065372565003855
-4.8292671025,-57.95120523,2.272673409626104,-1.2611116627716663,1.9999997999999999,0.11789365086481812,0.1743,2,12,197.70468590401464,270.5857386,mp-1102410,Ca2AlClO8,https://materialsproject.org/materials/mp-1102410,31.327920284517297,-39.83166804202581,6.9340626601068704,-40.500093404081774
-5.8494279829166675,-140.38627159,2.848677786934395,-2.896051738311282,0.0,0.0,5.1966,62,24,434.7086189321755,745.7486736000001,mp-558162,RbP(OF)2,https://materialsproject.org/materials/mp-558162,11.467556825754555,-18.80915416814837,22.305758504929642,-8.801726371955153
-4.0814872822222235,-73.46677108,3.95846255793664,-2.2183377008316483,2.99999835,0.1315221846886244,0.0,227,18,265.82720756383657,633.6900383999998,mp-556497,RbNi2F6,https://materialsproject.org/materials/mp-556497,-6.753285449340727,-9.484101565271297,0.6315030509502121,7.926102809586286
-4.74395474,-18.97581896,4.247406962727599,-0.6681041657812505,3.9999998,0.5131002434125076,0.0,160,4,90.85214313950077,232.386,mp-1226715,CdFeS2,https://materialsproject.org/materials/mp-1226715,-12.658500541424308,-27.347425035080985,-6.366033375421934,-17.805539560520703
-10.141385145,-202.82770290000002,8.163254062495536,-3.8633613822500013,6.99999985,0.2753095584146147,3.0938,62,20,296.31536271236695,1456.6942,mp-756224,TbGdO3,https://materialsproject.org/materials/mp-756224,-23.93820582387025,21.24641880574888,-23.201609909352012,55.36769111880889
-4.447599282400001,-222.37996412,4.600276145239337,-2.7578183627553803,8.0000002,0.10547873560381904,5.4627,194,50,883.8987306548153,2448.7098149999997,mp-556893,Cs5CaNi4F15,https://materialsproject.org/materials/mp-556893,5.652194356041341,-22.83591451303205,2.0361705379708512,22.67504864455773
-7.851746092000001,-39.25873046,7.533522267594184,-2.8660981992500005,0.0,0.0,2.7318,38,5,76.35838416475433,346.4222,mp-20337,ZrPbO3,https://materialsproject.org/materials/mp-20337,-22.756329305888706,20.215181320794656,-18.21836338778136,48.6881286514672
-3.1787960075,-12.71518403,3.087711101652081,0.4934199775000003,4.3609165999999995,0.3001446908741948,0.0,139,4,169.3263484891456,314.8561,mp-1187114,Sr3Cr,https://materialsproject.org/materials/mp-1187114,29.702824036206103,63.332353537736644,-12.48792173779645,33.05093173139052
-5.003322454,-25.01661227,4.171795296424871,-1.2651348912499998,1.9999995,0.2831780988560938,0.0,221,5,82.30906207874423,206.7862,mp-546910,CaSnO3,https://materialsproject.org/materials/mp-546910,-21.702898537237488,7.8938336034941505,-16.250550054114033,10.214106991293171