energy_per_atom,energy,density,formation_energy_per_atom,total_magnetization_uB,total_magnetization_T,band_gap,sgr,num_sites,cell_volume,weight,mp_id,formula,URL,tsne_xrd_lin1_0,tsne_xrd_lin1_1,tsne_xrd_lin2_0,tsne_xrd_lin2_1
-4.183760269444445,-75.30768485,4.89243228848466,-1.3700534960105364,0.0,0.0,0.9519000000000002,140,18,689.7180081025044,2032.1104000000007,mp-559270,RbBa4Sb3O,https://materialsproject.org/materials/mp-559270,8.442140793521434,-23.577197817719785,22.520805518406785,-18.34070888142113
-7.7038156075,-184.89157458,5.824751385750173,-2.993102580930317,0.0003347,9.737998524426306e-06,0.0,63,24,400.55617893056984,1405.0498676000002,mp-1213716,Cs2LaNb2O7,https://materialsproject.org/materials/mp-1213716,-16.356194934100735,22.150048293966798,-16.55333657224952,39.73308231030143
-4.464176791,-446.41767910000004,5.20607576809684,-1.2254792318687495,0.001301425,4.6387382520231185e-06,1.1565,19,100,3269.6156632708635,10250.808,mp-1196224,Ba6Sn6Se13,https://materialsproject.org/materials/mp-1196224,0.03993037258660605,-14.852385479483676,20.160376179405574,-14.212859509236633
-6.050495477916668,-145.21189147,6.234509824280144,-1.8571032770833336,3.1375e-06,1.11605196703845e-07,1.905,52,24,327.62478185432303,1230.0704,mp-560098,SbO2,https://materialsproject.org/materials/mp-560098,19.64137365982086,58.44315286661913,34.15908661890005,-4.3033901067154465
-5.84971847,-58.497184700000005,2.153518470965468,-1.4556946126260002,0.0,0.0,2.9553,167,10,131.07569629347455,169.98933856,mp-4531,NaNO3,https://materialsproject.org/materials/mp-4531,-15.339189601431048,22.881674622438194,-1.0057380189546987,9.5669955068481
-5.7162249179166675,-137.18939803,3.1097191102000337,-3.218328497043334,1.99999995,0.08151103341673921,2.06,14,24,285.9506006168432,535.5044512000001,mp-765497,LiVF4,https://materialsproject.org/materials/mp-765497,16.78872781941118,-34.175122088456355,28.90341314544962,-38.737273954895656
-7.574087140625,-242.37078849999997,6.559755617028947,-2.76282301671875,0.0,0.0,3.6621,14,32,500.43856668053047,1976.92112,mp-1244597,MgTaBiO5,https://materialsproject.org/materials/mp-1244597,5.562706467696934,22.205899925115016,52.00811877185358,0.28139504375764746
-6.136315454827588,-355.90629638,5.574754248822425,-2.240196721799569,0.0,0.0,0.4965000000000002,86,58,1258.6904627480214,4225.67,mp-10534,Sm10S19,https://materialsproject.org/materials/mp-10534,-4.1423755298276035,-22.77768421652421,1.4528412760950995,-20.02620211333832
-4.7021754090000005,-47.02175409,7.595667934946822,-1.7663906159880007,0.0,0.0,2.3107,67,10,231.4283130025089,1058.6036064,mp-1206495,Pb2BrOF,https://materialsproject.org/materials/mp-1206495,-21.18596546550017,14.297980733711867,-27.95467472902682,48.017422999587964
-6.4446234592857135,-90.22472843,4.6480509438680455,-1.2562288054166677,0.69518645,0.029507456709978487,0.0,74,14,274.5661205889722,768.544,mp-1247134,MgTiWS4,https://materialsproject.org/materials/mp-1247134,-16.105861405877647,-6.433010422297696,4.135544668187296,-47.285472032306565
-7.066266331333335,-211.98798994,6.420839612358451,-2.5923562304166667,3.00000015,0.0749087860425523,0.0,15,30,466.73024504666716,1804.7152,mp-6580,Ba3NdRu2O9,https://materialsproject.org/materials/mp-6580,-20.692390373437885,16.54159774768127,-17.644416223610808,46.70920752278621
-4.9128558,-78.6056928,5.622698561641948,-1.5081391584712502,0.9942586999999999,0.032253563494769,0.0,11,16,359.2519410253768,1216.4516,mp-1105627,AsPb2Cl2O3,https://materialsproject.org/materials/mp-1105627,25.03577489558552,-7.866024875001306,36.02021988046214,-19.140961112541444
-5.968213339431817,-525.20277387,2.832440267945214,-2.0133739697438955,9.75e-07,1.2912408359187234e-08,5.2907,52,88,879.9840306445298,1501.019936,mp-23970,NdP2H9O10,https://materialsproject.org/materials/mp-23970,24.331269296222878,-20.374426382331396,25.686986704707504,-28.08114004975377
-6.1958340566666665,-74.35000868,7.222932440733421,-1.078270804166667,0.000357575,1.662837907415784e-05,0.0,194,12,250.60784292103853,1090.0818800000002,mp-1211387,LaNiAs,https://materialsproject.org/materials/mp-1211387,-56.211897207821046,22.805110734919484,-53.49064382965986,31.69728425503588
-7.677568208333334,-46.06540925,7.047833989179027,-4.223130064146667,0.0,0.0,4.6930000000000005,166,6,87.34424478635894,370.71560639999996,mp-9488,SmOF,https://materialsproject.org/materials/mp-9488,-12.888329344575016,-24.021547667574854,-10.87546761667449,31.699271930636566
-8.1847598668,-1636.95197336,5.6303424250969245,-3.2096309695134773,0.0015369000000000001,4.817114712107871e-06,1.5465000000000002,62,200,3718.228279664414,12607.290719999995,mp-704417,Rb7U8V2ClO32,https://materialsproject.org/materials/mp-704417,44.36499153205871,-41.68258854417487,47.32051120006781,-33.91804092972432
-4.242472325,-33.939778600000004,4.273364280196375,-0.9662974049999996,0.04068005,0.001292603507857679,0.0,193,8,366.76980587551213,943.8748199999999,mp-23282,ZrI3,https://materialsproject.org/materials/mp-23282,-7.23125107746323,-33.42837234628871,-5.432052698949001,-31.834762121515325
-5.552281636153847,-72.17966127,3.8332577848557317,-2.4832545589390382,2.1000000000000002e-06,9.613310582287656e-08,4.3546000000000005,5,13,254.5796873292265,587.6823999999998,mp-1218418,Sr3Se2(ClO3)2,https://materialsproject.org/materials/mp-1218418,5.358586757625981,20.956385086034654,11.395576711339354,9.668679089380749
-6.71225166,-93.97152324,4.3895671788339,-2.9866312382371567,0.0,0.0,4.6427,164,14,232.75575325006318,615.2803339999998,mp-1209420,Rb3Tm(PO4)2,https://materialsproject.org/materials/mp-1209420,-15.385485545290074,18.11235437291116,-15.080023623262825,44.94958120141187
-6.586532581428571,-184.42291228,2.9766856943992392,-2.485573791636123,5.00000035,0.2003537778649395,2.3863,4,28,290.837180924044,521.355328,mp-766101,Li2FeP2HO8,https://materialsproject.org/materials/mp-766101,49.4328500668659,-5.2660786310591154,66.47857351874364,-10.848053781724722
-2.7624397225,-44.19903556,5.2599856525681865,-0.4666960441666666,0.0,0.0,1.4412999999999996,140,16,623.0260660498342,1973.5207,mp-23417,InSn2I5,https://materialsproject.org/materials/mp-23417,4.982689154159488,27.34508597781701,21.000684650943644,-17.08753227916363
-4.693685224166667,-56.32422269,4.961846219239686,-1.367280302533333,4.66e-05,1.529123893118833e-06,1.102,164,12,355.15723797475005,1061.2431,mp-1227977,Ba6Br2N3Cl,https://materialsproject.org/materials/mp-1227977,-13.684644776469536,20.798458981328228,-15.006267517952528,12.716274470110225
-8.066483191666666,-145.19669745,3.8402555228474062,-2.013969775694445,2.455e-05,6.829627852470147e-07,3.4689,36,18,418.9207616383678,968.8196,mvc-7040,Re2O7,https://materialsproject.org/materials/mvc-7040,27.612407714301806,-43.60624242696631,37.76202624713447,-53.34048734036054
-6.340148392941178,-215.56504536,6.682860454299256,-2.327421852132353,3e-07,6.922766822641782e-09,3.2381,15,34,505.0320950191591,2032.50808,mp-542514,Ho2Te4O11,https://materialsproject.org/materials/mp-542514,6.003682335945943,15.949141439996922,36.11860883458314,-3.5305384606039047
-8.3413223875,-33.36528955,5.877645888482369,-0.3342409743749997,2.3e-06,5.520566663762347e-07,0.0,38,4,48.553618875457495,171.860445,mp-4248,YCoC2,https://materialsproject.org/materials/mp-4248,-36.12352332972628,28.76473325699203,-40.22190565968439,35.622057041692365
-6.4804118599999985,-181.45153208,3.0179694374568955,-2.9180800682125265,2.75e-07,7.112206368299253e-09,4.5457,33,28,450.6151321394092,818.9766480000001,mp-975103,RbMgPO4,https://materialsproject.org/materials/mp-975103,4.9019921058401055,25.76493148677353,17.624133985118846,-19.04528781781105
-6.05942752875,-145.42626069,3.344624355067668,-2.280590943392857,0.0,0.0,2.0704,152,24,256.77849648945147,517.198086,mp-762111,Li2CuPO4,https://materialsproject.org/materials/mp-762111,3.5500457660464964,-32.732562134742125,71.82704400003612,-23.29329940377461
-7.652660635625,-489.77028068,4.8092836411128665,-0.9242922358667238,2.11375e-05,1.7567403432941154e-07,1.6761,61,64,1402.2436216616125,4061.2037104,mp-1030663,CsNbN2,https://materialsproject.org/materials/mp-1030663,-18.05980115029186,-50.92953289159957,-13.941425176699314,30.10291448567586
-4.68686164,-23.4343082,5.841852636819077,-0.7173255146904758,0.0,0.0,0.6047000000000002,156,5,106.34602270933905,374.130194,mp-1222704,LaZnAgP2,https://materialsproject.org/materials/mp-1222704,-30.105350164202576,-17.630770995031828,-18.838563365334572,-19.53109776635805
-5.090983540263158,-193.45737453,5.124270381534216,-1.3647477044878953,4.00000325,0.07407053180591329,0.0204,4,38,629.3501049526385,1942.1164,mp-1216429,Yb4Cl2O13,https://materialsproject.org/materials/mp-1216429,43.01933267723996,-41.48774049327589,35.48229719043177,-55.06492516664797
-7.460169385833333,-89.52203263,4.344964317658564,-2.595365777945402,0.0,0.0,4.1749,164,12,239.2796833916884,626.0989119999998,mp-1209159,RbSc(WO4)2,https://materialsproject.org/materials/mp-1209159,7.859569226475749,-27.453906904463967,19.156919958311622,-22.69943378578148
-6.942899263076924,-180.51538084,2.658794825310185,-2.4641603250769246,1.0,0.025987769100360204,2.0109,100,26,448.4442172605789,718.0326,mp-16787,K2V3O8,https://materialsproject.org/materials/mp-16787,62.12363060408267,-31.23863599845207,68.79485340983989,-24.78921709967188
-5.233268240277777,-188.39765665,6.0998006702503895,-2.941252181758889,7e-07,1.5383483769240136e-08,2.1213,14,36,530.2989532906524,1947.9926896,mp-1208369,TbPtF7,https://materialsproject.org/materials/mp-1208369,11.996073901731815,-26.560571655439354,25.340959164988927,-15.011586074593678
-6.654150909411764,-226.24113092,8.07217129656472,-2.1509740139705875,1.00000035,0.0220274268027202,0.0,64,34,529.0708241074798,2571.906,mp-17689,Ba4Ir3O10,https://materialsproject.org/materials/mp-17689,1.9105711347750576,21.182301065988288,4.598446457580558,34.82800516690661
-7.456654264285714,-52.19657985,5.894462728441546,-2.488243582235357,6.9988132,0.551396713179438,0.0,115,7,147.92366442217556,525.088845,mp-1226784,Ce2Mn(SeO)2,https://materialsproject.org/materials/mp-1226784,-16.940318045716715,23.93199040753655,-21.941896497211882,45.33640496659481
-5.563688503333334,-133.52852408,2.809153653742213,-1.9992532082345549,0.999999975,0.02715153985466458,0.0,4,24,429.22296649064384,726.1216,mp-1190618,RbSO4,https://materialsproject.org/materials/mp-1190618,12.06671488851696,-18.235343807182414,19.026383066194228,-15.983785372464393
-7.57917300225,-303.16692009,4.536671425675976,-0.6779113878399997,5e-08,7.170940515110922e-10,2.18,80,40,812.5896978228818,2220.0336,mp-1029938,K3W2N5,https://materialsproject.org/materials/mp-1029938,30.99657559918177,-44.61881751219924,5.367319904155145,-44.392005644964456
-4.582634926896552,-132.89641288,2.585911224435076,-0.9647404905496562,1.9999999,0.07984609617208352,3.0379,147,29,291.9131867070804,454.58828,mp-690647,NiH12(BrO7)2,https://materialsproject.org/materials/mp-690647,5.368252888135105,-34.47960858183325,48.83855690011326,-8.71648217363877
-4.654341247222223,-83.77814245,6.878930015994496,-2.3094094013488893,0.0,0.0,1.1124,64,18,306.4800722290729,1269.6208384000001,mp-1209528,PdPb2F6,https://materialsproject.org/materials/mp-1209528,-8.588999685556002,-34.61580786850019,-15.969337550912929,-33.84549479991932
-3.80877747125,-121.88087908,4.617876167111972,-0.6772147399479169,9.25e-07,1.416634377935973e-08,0.8248,33,32,760.9592201428939,2116.1896,mp-1197203,CdAg2GeS4,https://materialsproject.org/materials/mp-1197203,-9.693757719102312,-18.558838196505413,-9.823110651189848,-0.3938999118597816
-4.077857437857142,-114.18000826,3.7835931142603303,-1.9148523320443347,0.0,0.0,4.0444,167,28,1137.279132423408,2591.3281114,mp-568937,Cs3Y2Br9,https://materialsproject.org/materials/mp-568937,-11.571662302675225,-18.988813572662014,-20.39263759294836,-6.700144706061637
-6.293667825673077,-654.54145387,7.121725359745961,-1.8489062150480768,3e-06,2.029203386267648e-08,2.5148000000000006,13,104,1722.9517038203696,7389.400999999999,mp-642975,CrBi12Mo4PbO34,https://materialsproject.org/materials/mp-642975,15.894418579643837,-16.437747817983915,27.47195398881511,-7.280923944086436
-5.418530015,-411.80828114,4.9465855949802515,-1.7535178549452637,0.0,0.0,2.2876,61,76,813.4492647896571,2423.18688,mp-1200998,Ba2H8PtO8,https://materialsproject.org/materials/mp-1200998,26.37962684953218,-20.214897297151467,12.030386220254645,-24.906708112101803
-5.43707578,-543.707578,4.923147017644658,-1.2743349116979177,0.0,0.0,1.6559,57,100,1505.9734712862573,4464.8928,mp-558550,Ag4Mo2Se3O16,https://materialsproject.org/materials/mp-558550,7.378607307954413,28.527073665187093,31.98650696953236,-4.758347481943874
-5.718855771136362,-251.62965393,7.1647678041176235,-1.7841343221590908,0.00251595,4.060005780866891e-05,0.0,62,44,722.1921801860326,3116.06,mvc-9010,CaBi3O7,https://materialsproject.org/materials/mvc-9010,21.978636196539515,-8.501783197591362,23.303864332691212,-17.44817049619413
-3.32457108,-39.89485296,7.862870050804883,-0.0716338879166667,0.0018154666666666665,5.837723657221969e-05,0.0,164,12,362.42836023219263,1716.1457999999998,mp-570549,AgBiTe2,https://materialsproject.org/materials/mp-570549,-24.136735591955357,-38.308710637329796,-33.177798150442044,-22.90776230012084
-5.536029606666666,-99.64853292,4.023360574680425,-0.7061617883405171,15.00000065,0.3250157007513038,0.4219999999999999,72,18,537.8539521612212,1303.17947,mp-4052,Rb2Mn3Se4,https://materialsproject.org/materials/mp-4052,-0.5048921049192038,-16.86815042907496,1.6925714639959009,-28.42239629982911
-7.076602006875,-226.45126422,6.942830137439724,-2.877865832343751,5e-08,1.13108811976521e-09,3.1532,62,32,515.1705056799125,2153.964,mp-28403,Ba2WO5,https://materialsproject.org/materials/mp-28403,9.652488607482605,22.191112173775018,2.766302470157036,34.63533794962817
-9.182501677857145,-128.55502349,8.192591021174438,-4.17388514955357,0.0,0.0,3.0551000000000004,119,14,226.58879637076697,1117.9197199999999,mp-673677,La2Th3O9,https://materialsproject.org/materials/mp-673677,-12.262261672894555,-27.364677639555826,-1.0904735470693847,-27.88472529080585
-3.5125906766666666,-21.07554406,2.367738496513073,-1.0642188249999995,0.0301904,0.0016281727398808365,0.0,166,6,216.0955459401912,308.1275,mp-570032,Ca3SiBr2,https://materialsproject.org/materials/mp-570032,-24.032041040918422,-37.49526112839249,-3.3787100591240278,-21.702679609399443
-6.8871940243589735,-268.60056695,6.264283776515436,-3.011730731025641,0.0,0.0,1.8946000000000005,139,39,633.5394719620432,2389.9896,mp-561045,Ba8Ce3(SbO6)4,https://materialsproject.org/materials/mp-561045,-21.942621236704465,12.25954085950272,-29.615576960252838,48.44675508644775
-4.1348553400000005,-99.23652816,5.872831475414093,-0.6263974514756955,0.0,0.0,1.0831,14,24,602.8477653623247,2132.0928,mp-560848,AgSbPbS3,https://materialsproject.org/materials/mp-560848,10.568010432997255,18.83799928616459,14.075648717450033,10.657450252738911
-5.0386688025,-40.30935042,3.1254133063303806,-3.2070510752675,0.9876046999999999,0.0785380169748267,0.0,148,8,146.54825251283702,275.8284192,mvc-15694,CaSbF6,https://materialsproject.org/materials/mvc-15694,1.0750580394342837,-38.550659665486265,4.418736351357005,-33.12314286859508
-1.4633977875,-5.85359115,1.2799580495187055,0.3063787490000001,0.6945481,0.04324451066049703,0.0,139,4,187.1753991762069,144.2764386,mp-1184882,K3Al,https://materialsproject.org/materials/mp-1184882,-10.59632885521999,-29.548380378704163,-12.659810313173535,-27.007431961049285
-5.21596237923077,-135.61502186,4.569537976949304,-1.4523122641346158,0.0,0.0,3.8334,148,26,414.0239940809269,1139.327844,mp-30002,Sc(IO3)3,https://materialsproject.org/materials/mp-30002,7.024373253957179,-34.1321840312133,21.45736241913873,-19.66132974373733
-5.087657281979166,-488.41509907,2.6468702990450272,-1.5728176590937508,0.00027269999999999996,1.1017331782153546e-06,1.8533,1,96,2884.6035740023945,4598.00784,mp-1224624,K9Ta2VS12,https://materialsproject.org/materials/mp-1224624,40.54815409395475,-37.32473628886547,45.362227296242104,-33.12206926980294
-4.27451427,-76.94125686,5.908495876903957,-1.2877884364814816,0.00013545,2.3506293526614444e-06,0.7431000000000001,36,18,671.5406117327442,2389.462,mp-1106146,Ba2ErInTe5,https://materialsproject.org/materials/mp-1106146,9.766192983414252,-16.754936972495695,18.91998821517358,-14.437836252811135
-7.643652948333334,-229.30958845,4.635944480110648,-3.310304381583334,0.0,0.0,3.6476,147,30,487.3413495545454,1360.5747199999998,mp-28940,Sr4Nb2O9,https://materialsproject.org/materials/mp-28940,-19.531525660304148,17.539105585246478,-20.19261294621327,48.11520834354815
-7.444247503928572,-625.31679033,3.7766577694337458,-1.0719800949484348,0.0,0.0,4.0726,205,84,1004.9540965819749,2285.623888,mp-6404,BaCa2(PN2)6,https://materialsproject.org/materials/mp-6404,-25.00068264059861,-33.95746980943196,-33.283111310049264,-19.89686610219161
-6.954827684545455,-153.00620906,5.823160920978426,-3.1726106165909087,0.0,0.0,3.1559,167,22,420.0585142212549,1473.0568,mp-769391,Ba4ZrO6,https://materialsproject.org/materials/mp-769391,-11.273375655054569,14.79426053984376,11.23089673972933,2.965092852192784
-5.364303602692306,-139.47189367,5.503115020824896,-1.4714268918269229,0.0,0.0,2.2382,148,26,394.9209772113029,1308.7892,mp-27127,Te4O9,https://materialsproject.org/materials/mp-27127,12.033114115896964,-20.369562150754682,21.4495757691678,-19.243226083128665
-1.802663855,-3.60532771,2.192963747551153,0.040510222500000026,0.0031721,0.000382316079355116,0.0,187,2,96.69449144643178,127.698,mp-1218350,SrCa,https://materialsproject.org/materials/mp-1218350,-10.751887484190581,-19.360136053444872,-20.387134783653924,-6.705055814909684
-4.34171529,-17.36686116,5.472270945676496,-0.6802649108399996,4e-07,1.082390296931498e-07,0.4779,139,4,43.06788338956165,141.92928999999998,mp-973064,LaH3,https://materialsproject.org/materials/mp-973064,-9.183770751441838,-25.0984532132586,-2.688652854820329,-29.016078104223485
-8.625480683000001,-86.25480683,4.636108126796717,0.3566449609999992,30.63595665,0.7850923488085133,0.0,227,10,454.76614784270754,1269.6750772,mp-1213330,Eu4Al,https://materialsproject.org/materials/mp-1213330,0.467747915572925,-32.874465965064694,-1.0771959681428838,-25.786112660214528
-4.074847113333333,-24.44908268,7.324731955465173,-0.3836631103645836,0.0,0.0,0.5487000000000002,156,6,175.1417046442525,772.56,mp-1224368,GeTe(PbSe)2,https://materialsproject.org/materials/mp-1224368,-26.34129284834991,-39.60617055174888,-35.30659271792703,-21.215406684006012
-8.199165175000001,-163.9833035,4.341150639707375,-3.1832485250000007,0.0,0.0,5.4227,15,20,208.59976645361317,545.3427999999999,mp-3615,Nd(BO2)3,https://materialsproject.org/materials/mp-3615,23.789293324924273,-4.979565434224559,36.550605925054654,-18.49950313651676
-6.32785412359375,-404.98266391,3.435630880189412,-1.6308219969450004,4.9048934,0.06626559030436259,0.0,62,64,862.618821073677,1784.7456688000002,mp-1215072,Al2HPb(CO5)2,https://materialsproject.org/materials/mp-1215072,42.96295752256686,-42.49316418332587,33.22442002679291,-57.099680189488964
-2.947199257619048,-61.89118441,4.444497940895719,-0.5244877720587029,0.0,0.0,0.5646,164,21,858.5020415074124,2297.8144228,mp-1226383,Cs12Sn2As6O,https://materialsproject.org/materials/mp-1226383,-11.142504142230669,-19.497381062392424,-20.245544563215038,-6.540807832598474
-4.6895055375,-75.0320886,7.21217433759392,-0.821894303046875,5e-08,1.2369323210905621e-09,1.0211,15,16,471.0874060710408,2046.0612,mp-1189464,ZrTl2PbSe4,https://materialsproject.org/materials/mp-1189464,-24.803353595085195,-35.463820766355454,-32.587649268721755,-20.880378767360234
-4.846993559333333,-145.40980678,3.2440486554688928,-0.9243136325159996,0.0,0.0,1.7386,14,30,341.998057920946,668.13144,mp-23858,H8PtN2(ClO)2,https://materialsproject.org/materials/mp-23858,42.28094961511426,-24.139690368220602,20.040800688075503,-62.067910741300146