energy_per_atom,energy,density,formation_energy_per_atom,total_magnetization_uB,total_magnetization_T,band_gap,sgr,num_sites,cell_volume,weight,mp_id,formula,URL,tsne_xrd_lin1_0,tsne_xrd_lin1_1,tsne_xrd_lin2_0,tsne_xrd_lin2_1
-5.732021479393938,-189.15670882,9.104257533293065,-1.6399989474242422,0.0125001,0.00028155484257232614,0.0,197,33,517.4017741358924,2836.764982,mp-772198,Be(Bi3O5)4,https://materialsproject.org/materials/mp-772198,4.4493863177369155,13.820692388021385,-15.140666422778938,42.676630830964775
-4.735420426,-94.70840852,4.185784259361912,-2.9974890954053794,4.9862493,0.1596911843128505,3.8015,166,20,363.8902959131868,917.27218456,mp-504611,Cs2NaFeF6,https://materialsproject.org/materials/mp-504611,1.8012404518911285,-7.8911718309873535,12.238848687127655,-14.918083598178468
-6.5491745283333325,-275.06533019,4.891495526010723,-2.3739377282440484,6.666666666666667e-08,1.3339862720972676e-09,3.0156,143,42,582.4180261484197,1715.6448,mp-1196124,BaGe4O9,https://materialsproject.org/materials/mp-1196124,-0.2214317290049555,15.593451997903562,9.836551674379484,28.59343735368299
-2.995692809090909,-65.9052418,6.749254259808699,-0.7973134749147729,0.0,0.0,1.8131,128,22,776.4705912397206,3155.9616,mp-28518,Tl6SBr4,https://materialsproject.org/materials/mp-28518,3.605000369472558,23.0253281850685,0.4024964455836799,17.48320833637299
-7.9094708521875,-759.30920181,3.3567429149526533,-2.685215354544028,14.999999825,0.1825531997268585,4.2083,29,96,957.5891839227767,1935.74534,mp-556656,Mn3B7ClO13,https://materialsproject.org/materials/mp-556656,6.0011414539485015,-12.707231764609359,12.180669637739904,9.844520419985423
-3.205370645,-38.46444774,5.167635979367262,-0.5756489049999999,0.0,0.0,1.1161999999999992,205,12,359.2582497902873,1118.02,mp-2604,MgTe2,https://materialsproject.org/materials/mp-2604,0.12932645811627486,11.182581516686401,-10.542764668430072,24.02903932038612
-7.681848060909092,-169.00065734,6.830820098383794,-3.3175263085227287,0.0,0.0,2.7627,63,22,324.03694795338765,1332.9636,mp-754269,Nd3SbO7,https://materialsproject.org/materials/mp-754269,21.916921924042338,56.414592022536745,-1.529444268770901,36.15219112494143
-6.452553889722222,-232.29194003,4.473199809738509,-1.8828568726215291,0.0,0.0,2.305,173,36,524.993924810555,1414.2412,mp-645272,TlV3(SeO6)2,https://materialsproject.org/materials/mp-645272,7.403951393044117,16.155401389455832,33.08758785586723,-1.8543625122847591
-4.47224905,-13.41674715,5.845979232995691,-0.7240594182466668,7e-07,1.9636513081918112e-07,0.0,225,3,41.54426657502535,146.25788,mp-24096,NdH2,https://materialsproject.org/materials/mp-24096,29.67603764718731,64.18856522951788,-13.950067849749534,33.75648118519977
-8.118711829444441,-146.13681293,8.406413706640965,-0.4848480087962959,0.0168024,0.0008452100123445488,0.0,86,18,231.67763641521168,1172.85894,mp-7347,La(BRu)4,https://materialsproject.org/materials/mp-7347,-48.71803919112597,2.7385299250894213,-31.887797794193244,39.662729837895384
-7.212732865,-259.65838314,7.563614060470644,-0.19711254494666736,3e-07,4.6109139586088745e-09,0.0,52,36,758.2486819647197,3453.75824,mp-1246173,Nb2Pb3N4,https://materialsproject.org/materials/mp-1246173,8.896333738676358,13.068179081604125,31.46924082005561,34.836185373387146
-3.5350195575,-14.14007823,9.327601688291637,0.07662872791666643,5.2900000000000005e-05,4.6686472369787655e-06,0.0,21,4,132.05110499360944,741.7592,mp-1223901,InBi3,https://materialsproject.org/materials/mp-1223901,-55.84648240409581,22.908270138534995,-51.24912548077133,30.9510098637192
-6.463464637272727,-71.09811101,6.491050666553639,-1.4002444057845458,0.0,0.0,1.3021999999999996,8,11,161.90043565698792,632.86915,mp-1216119,YBi2NO7,https://materialsproject.org/materials/mp-1216119,9.244875686369543,24.633667608058676,38.96611159106595,-1.9208512478090467
-5.6469512,-28.234756,8.344558037103539,-1.5518041112500007,5e-06,6.284257561595522e-07,1.1857999999999995,1,5,92.72427695978158,465.959,mp-684654,Bi2O3,https://materialsproject.org/materials/mp-684654,9.148550230385533,19.1569259262204,14.370212985045221,8.501395182642256
-11.352117339375,-363.26775486,7.887671528520763,-3.945477231093751,13.999998800000002,0.3381429927693683,3.1575000000000006,62,32,482.50857276300184,2291.948,mp-768237,Gd2HfO5,https://materialsproject.org/materials/mp-768237,20.15673560695569,57.62623757722028,-2.910143009205846,38.02589248749681
-7.939547476666667,-95.27456972,5.95797326811388,-3.1728355914375013,0.0,0.0,2.0809,139,12,178.29223564523426,639.7081599999999,mp-7148,K2SrTa2O7,https://materialsproject.org/materials/mp-7148,-22.765222324380712,27.356071361582217,-18.98455905947505,53.03739564808579
-8.121381206666666,-292.36972344,8.453709680240904,-3.3299100024999992,0.0,0.0,3.7762,19,36,479.04447906878715,2438.78816,mp-770571,Ho2WO6,https://materialsproject.org/materials/mp-770571,12.78807325923766,16.82471531618226,39.19016782409646,1.1826284619485554
-5.368756556521738,-123.48140079999999,5.956022667846731,-1.8839451384782608,0.0068512,0.00020123106815590294,0.0,139,23,396.779330853136,1423.1683999999998,mvc-10576,Ba2Mg3Tl2(SnO3)4,https://materialsproject.org/materials/mvc-10576,7.064796235713168,18.682675955342127,4.736230406803124,23.772072595309528
-5.947526889166666,-142.74064534,4.608340284883458,-1.9368324077864576,1.99999995,0.04413224927404639,0.24350000000000005,173,24,528.1427832440745,1465.7057771999996,mp-1191447,Pr3AlNiS7,https://materialsproject.org/materials/mp-1191447,7.6670146754913375,-4.276100912993824,11.832074221262006,3.9447540822817984
-7.61174194375,-730.7272266,5.500971015577535,-3.3384315499218755,0.0,0.0,3.8623,185,96,1382.6086147996255,4580.2536,mp-14386,Ba3Lu(BO3)3,https://materialsproject.org/materials/mp-14386,4.605943640507606,-23.54073624075353,19.990165833932764,-18.303165117134007
-6.56885279142857,-91.96393908,2.8664847705678085,-1.1743630341152382,3.965e-05,1.898110563110596e-06,0.0,176,14,243.44402123485145,420.2422,mp-1246707,Ca3TiN3,https://materialsproject.org/materials/mp-1246707,-3.8618908009393866,18.126461399862198,-11.916672226499536,43.91134039949755
-5.94075672892857,-166.34118841,8.161777792996885,-2.813909565357143,2.001348725,0.052356118112114984,0.0,62,28,445.48466377289947,2189.6184,mp-754422,BaYb2O4,https://materialsproject.org/materials/mp-754422,-11.22022884310602,26.280800186891874,-1.6227100085922912,55.04958235695899
-3.9527657642857146,-110.6774414,3.5193951254112816,-1.783065440073892,0.00193085,2.238109514026219e-05,2.9272,194,28,1005.4133108802499,2130.902448,mp-1209523,Rb3Sc2Br9,https://materialsproject.org/materials/mp-1209523,1.1719095674174769,19.618824859471392,-5.1911455324207765,25.300309092281605
-3.2666103495,-65.33220699,3.124001790576438,-1.5606376341088972,0.0,0.0,0.6579000000000002,62,20,654.5534975459851,1231.4232,mp-756979,Rb3ClO,https://materialsproject.org/materials/mp-756979,25.671081748092142,51.762536677061746,30.558148424296885,3.6366442828899688
-6.5087223860000005,-32.54361193,7.5322510552991035,-1.7996489342500002,0.305634,0.05764242292240234,0.0,221,5,61.79265638246114,280.2932,mp-1016872,CaIrO3,https://materialsproject.org/materials/mp-1016872,-10.532244724147148,50.56054716850952,10.400086172022117,35.485642439772306
-5.3969816491666665,-64.76377979,8.170025551407589,-0.8864186391666671,1.0225e-05,4.953450800638974e-07,0.0,62,12,240.56524854158508,1183.6061544000002,mp-1103382,DyAlPd,https://materialsproject.org/materials/mp-1103382,-49.01442394525812,14.760271938806222,-31.61786785078721,29.478171780318227
-7.9240998939999985,-39.62049947,7.680171907792093,-0.4173107099999996,2.0240406,0.2781695021780245,0.0,139,5,84.79829769258603,392.20126,mp-5400,Th(CrSi)2,https://materialsproject.org/materials/mp-5400,-59.331605748604574,16.510922075762405,-60.46663092144585,26.6480163145642
-7.4006768664285705,-103.60947613,7.030224209080067,-2.992371709285714,0.0012684,7.719491779231293e-05,0.0,64,14,191.48949413074845,810.70908,mp-1180676,La2CuO4,https://materialsproject.org/materials/mp-1180676,-21.655024841140218,38.007638763863326,-15.172398585283105,58.56952913796061
-6.1858777866666665,-1039.22746816,5.0028197190216535,-2.629936111666667,1.25e-08,5.366360477037825e-11,3.0273000000000003,173,168,2714.610959892275,8178.4944,mp-680226,Ba(GaO2)2,https://materialsproject.org/materials/mp-680226,5.204995167051503,27.672344593679504,69.12946326070785,-22.960338791456557
-5.324556756000001,-26.62278378,7.300084142795286,-0.5936242019999994,0.0,0.0,0.0,139,5,78.65018386865745,345.7630000000001,mp-2917,Dy(CuSi)2,https://materialsproject.org/materials/mp-2917,-61.1139945476797,15.979667184435367,-59.68484519108079,24.92743798413921
-5.007375960714286,-70.10326345,3.590263215947504,-0.08216215357142838,4e-07,1.6477462700874237e-08,0.0,63,14,282.90920717887883,611.6800000000002,mp-1480,BaSi6,https://materialsproject.org/materials/mp-1480,-7.501336373329562,13.01501725567158,6.1950094925663,29.810289900758647
-5.510292830208333,-264.49405585,4.690496945998929,-1.341159986135833,4.000000175,0.024422318558374224,0.009400000000000295,136,48,1908.7565751907598,5391.63288,mp-1204612,Ce4CI6N,https://materialsproject.org/materials/mp-1204612,15.168016825125553,30.849655576816765,34.874023909568024,11.88072127674608
-8.122929561388887,-292.42546421,9.07831723303148,-3.343056793888888,0.0,0.0,3.7831,19,36,460.7718847415561,2519.0816,mp-768502,Lu2WO6,https://materialsproject.org/materials/mp-768502,12.657497273544864,17.130162941566315,38.924869406587156,1.1430512959996315
-7.3475128315,-146.95025663,7.839020817739334,-2.1678665727500013,0.927775425,0.04585114091553341,0.0,62,20,235.81430432140232,1113.2248,mp-1213970,CaOsO3,https://materialsproject.org/materials/mp-1213970,-9.95205483286216,55.81012033643676,50.837389260210465,17.303521262806974
-8.002716177631576,-304.10321475,6.9940492870381,-3.174555895000001,0.0015585,3.6707096175895616e-05,2.2754000000000003,41,38,494.8051423354282,2084.0772,mp-1210188,Nd2Ti3(BiO6)2,https://materialsproject.org/materials/mp-1210188,-11.787514363915989,33.31986018728382,-2.6163917634696694,43.85796649478673
-8.094405281666667,-48.56643169,5.244648954078653,-0.4582553181250002,0.1375666,0.019394767464650214,0.0,123,6,82.66198962492815,261.07975,mp-1206170,YCr2Si2C,https://materialsproject.org/materials/mp-1206170,-39.93946987251226,-5.795994044616082,-49.077134127796775,8.090348895578773
-9.7843028415,-195.68605683,9.51267345436524,-2.8573587241250014,7.999999799999999,0.3881590035268155,0.0,62,20,240.19155810519212,1375.9772,mp-1209736,PuCrO3,https://materialsproject.org/materials/mp-1209736,-24.3890967659439,50.17631223875125,-6.902550506911321,62.81278911781906
-6.596532118125,-105.54451389,5.398816606060788,-2.4150040918675,0.0,0.0,1.4759999999999995,59,16,211.6513961685017,688.1302063999998,mp-556839,CaBiCO4F,https://materialsproject.org/materials/mp-556839,5.742337489534687,5.145116905944918,7.422212115994176,25.62669205957767
-7.996803477999999,-39.98401739,8.408710279772338,-3.1559892245833336,1.9999997999999999,0.36211825342530696,0.0,221,5,64.36606548781481,325.9397,mp-1183168,AcVO3,https://materialsproject.org/materials/mp-1183168,-30.24348110598689,36.499972601952,-18.90300118404394,63.28518214543208
-7.390289221458333,-354.73388263,3.934691648319023,-2.3739294093923604,12.0,0.28660305031927186,3.3582,161,48,487.9528571483335,1156.2173400000001,mp-556885,Fe3B7IO13,https://materialsproject.org/materials/mp-556885,-13.973127419264538,18.05884100159572,-31.57987634302568,29.50676503374799
-8.250811377,-165.01622754,7.674713652674424,-3.3220389552500014,1.99999995,0.10117065948946953,1.5713,62,20,230.38427425534582,1064.7948,mp-19205,ErVO3,https://materialsproject.org/materials/mp-19205,-9.553899780269068,44.27322083117846,-3.2969528054714923,63.38297346546463
-6.383261558461538,-82.98240026,6.0980991721374656,-2.1904966179361547,8.318151400000001,0.4890839973239139,0.0,123,13,198.2078246967377,727.8907286,mp-1250544,Ba2Mn2AlTlO7,https://materialsproject.org/materials/mp-1250544,0.5870364226154542,49.77184134822456,6.284564905731624,37.91920056676695
-7.101448988863638,-624.92751102,6.169233963803934,-2.855269087159092,0.00019945,1.7789097208503143e-06,2.3967,61,88,1306.6448463590225,4854.4464,mp-1101400,Sr5W3O14,https://materialsproject.org/materials/mp-1101400,27.315385764019318,63.63041210420626,-8.183211440078257,32.95548242100164
-8.0323446815,-160.64689363,4.709094528745824,-3.5643473523333333,2.72e-05,1.3096587048567775e-06,1.9399,5,20,242.04058709195485,686.3987999999998,mp-1218577,Sr3CaTi4O12,https://materialsproject.org/materials/mp-1218577,-27.19574369553891,51.18722124442022,-13.159643833279073,67.89051864761443
-7.3753034975,-59.00242798,11.099325653581925,0.7445557481249994,3.205e-05,5.7094378563996784e-06,0.0,194,8,65.42023669490852,437.28,mp-7839,ReB3,https://materialsproject.org/materials/mp-7839,-59.124981914263294,25.231653186249126,-59.90893943436463,27.723625814228157
-8.44049087075,-337.61963483,8.65369449231347,-4.077677278,0.0,0.0,3.964,206,40,587.2017636829133,3060.1296,mp-679,Er2O3,https://materialsproject.org/materials/mp-679,15.789496487039695,60.72183679553815,-5.429786361547432,36.63697760687696
-6.779216545,-40.67529927,6.339211585928376,-0.5562733816666661,0.0,0.0,0.0,129,6,117.79147002606274,449.6763,mp-1018895,PrFeSi,https://materialsproject.org/materials/mp-1018895,-37.91695178922048,-6.754696385667347,-41.13230848929418,-13.851319275323865
-2.0190774075,-8.07630963,4.509135238872863,0.2575291697413791,0.5456861999999999,0.038248898633852425,0.0,221,4,166.26524024049885,451.4874,mp-1067281,Rb3Pt,https://materialsproject.org/materials/mp-1067281,30.16493951725445,65.18781224345145,-18.556970119636507,-10.271394947779427
-5.40964509875,-43.27716079,8.554224062706169,-1.940889131875,4.1200000000000005e-05,3.163394589434712e-06,0.0,123,8,151.78235122266554,781.90287,mp-628599,YbBi2IO4,https://materialsproject.org/materials/mp-628599,22.38750733723113,60.03890669170697,-14.531088829572118,38.89852169213697
-2.9691901222222223,-26.722711100000005,3.833608117446009,-1.2117955595210728,1.23e-05,4.303041352124384e-07,1.3126,225,9,333.12484118172773,769.0696,mp-569028,Rb2SnBr6,https://materialsproject.org/materials/mp-569028,-21.875631695452558,-20.014453069594158,-18.423621945384205,-11.242770774397512
-7.2697096086170205,-683.35270321,7.449120766903964,-2.108773350393616,4.6757367,0.043854255591297936,0.0,75,94,1242.5553147924668,5574.06021568,mp-780475,Na3(W3O8)4,https://materialsproject.org/materials/mp-780475,14.433905434005457,15.136377709387185,49.353135668689134,6.36278680453321
-5.734550146666668,-51.61095132,4.383856363495909,-2.5325367032505564,8.000005999999999,0.6076586366305629,1.9040000000000001,139,9,153.42921582063948,405.0562064,mp-549237,Sr2Fe2S2OF2,https://materialsproject.org/materials/mp-549237,-6.044286400901574,15.923733709376993,-1.7444906368601485,21.883236944809756
-4.90927032875,-39.27416263,4.507364646530758,-1.0915279411874996,4e-07,4.557764413118708e-08,0.0,65,8,102.278781579983,277.62536928,mp-1101684,NaCu3O4,https://materialsproject.org/materials/mp-1101684,-7.14416084139403,-19.56310237392061,-8.02416050227512,-17.3149125554236
-8.90807169375,-285.0582942,6.182786572068673,-2.6365363532087507,14.000000475,0.4375192320192676,1.1982999999999997,55,32,372.9136924987365,1388.49236,mp-703682,GdMn2O5,https://materialsproject.org/materials/mp-703682,-2.221685478869392,27.495434809384147,1.1753454149908973,49.67850856157017
-7.278473905,-72.78473905,6.327639920555153,-3.0241899007500015,1.9999997,0.19565231111376333,1.3979999999999997,148,10,119.13033848778454,453.95734,mvc-13693,La2MgFeO6,https://materialsproject.org/materials/mvc-13693,-24.58736647370673,55.01369394165144,4.947760726812869,67.86595893014119
-8.94361431,-53.66168586,9.669608280058902,-1.1861650221475,5.400000000000001e-06,8.071191772298275e-07,0.1493000000000002,129,6,77.97107483905371,454.03916,mp-1245990,TaSN,https://materialsproject.org/materials/mp-1245990,-22.981720552881303,6.467459939637799,-27.909445735415765,41.159842961178775
-4.961467432,-24.80733716,8.051903024082899,-0.5293822204999991,0.0,0.0,0.0,139,5,87.17976202119408,422.73199999999997,mp-13400,Sm(CuGe)2,https://materialsproject.org/materials/mp-13400,-48.768371412623026,27.69403984364357,-49.713540259321,21.097666721497585
-8.438781953,-168.77563906,6.428938717643946,-3.2366271242500013,3.00602325,0.14184069924731268,0.0484,62,20,246.98404512401694,956.2228,mp-18769,CeVO3,https://materialsproject.org/materials/mp-18769,-20.573674316919053,44.4945641163208,-5.810271453740442,63.3336264739806
-5.6285618025,-45.02849442,8.756940609925266,-0.4145906653125007,3.3e-06,2.3530596576976513e-07,0.0,25,8,163.44002849072083,861.90965,mp-1217630,Tb3SmNi4,https://materialsproject.org/materials/mp-1217630,-35.63128102479357,13.767558511125252,-39.012777500129936,25.278324629750074
-4.3072673945833335,-103.37441747,5.260126759165659,-0.7192771382552081,0.0,0.0,0.35939999999999994,152,24,618.3297446897985,1958.6970000000001,mp-17252,BaCu2GeSe4,https://materialsproject.org/materials/mp-17252,0.8672560129727274,15.023715028088365,30.129686930761302,38.20268127741009
-8.692702752999999,-86.92702753,7.491654393763447,-3.82919740425,0.0,0.0,4.0578,140,10,139.2453259238262,628.2164,mp-3721,SrHfO3,https://materialsproject.org/materials/mp-3721,-26.77646939337337,29.17342951092373,-23.53788540969593,59.37074393166039
-9.168659979444444,-330.07175926,5.202990974858428,-2.971081020125556,5.525e-06,1.367899795749838e-07,2.4376999999999995,7,36,470.7121681606547,1474.8892400000002,mp-849365,YNb2NO5,https://materialsproject.org/materials/mp-849365,17.827754888518463,57.72376066299528,-2.545691923100841,37.064218003193176
-5.806195957999999,-29.03097979,9.178357738795887,-0.8765268599999999,1e-07,1.2063835507677851e-08,0.0,139,5,96.60331297739124,533.9590000000002,mp-1218889,Sr(SiPt)2,https://materialsproject.org/materials/mp-1218889,-13.534272624694779,21.14597833249816,-23.93239044038555,47.97247211037755
-4.1537566425,-16.61502657,8.62186312087695,0.061503189999999826,7.15e-05,5.090379867675618e-06,0.0,139,4,163.69419432316462,849.93421,mp-1183084,Ac3Tm,https://materialsproject.org/materials/mp-1183084,28.136333392087593,64.44266054205546,-12.902444098298654,33.39344535574311
-8.9908490012,-224.77122503,5.674072452709918,-3.738669637200001,0.0,0.0,3.7069,148,25,342.1744879772959,1169.2124,mp-769802,Ba2Zr7O16,https://materialsproject.org/materials/mp-769802,17.93449923520533,64.79612067472385,-7.918468593176074,39.401311709032505
-7.776933120714285,-108.87706369,5.1941884114035854,-3.3687132990952384,0.0,0.0,2.4302999999999995,129,14,182.36134596836342,570.42873856,mp-9489,NaSmTiO4,https://materialsproject.org/materials/mp-9489,-4.986338784455796,20.50542608898325,2.713842353519176,48.371069321613035
-5.525333227692308,-71.82933196,6.502397307924221,-1.9867238304807704,0.011767399999999999,0.0007082666614059049,0.0,123,13,193.6248722090078,758.2031,mp-632802,Ba2CaTlCu2O7,https://materialsproject.org/materials/mp-632802,0.4867687416895972,49.490635447286145,4.660086295731538,46.733993474917604
-8.449799268333333,-152.09638683,6.721160685663969,-2.5423547998611125,21.99999995,1.046937744951007,0.011700000000000266,46,18,244.89462305670153,991.23,mp-1077617,Eu2Fe2O5,https://materialsproject.org/materials/mp-1077617,-22.15930721366968,45.022557327800094,-8.370118340235749,63.11806178522364
-4.726345753571429,-66.16884055,6.797470259304276,-1.1149973878571429,0.00022615,5.864643539882295e-06,0.0,63,14,449.399307970092,1839.6306,mp-1104180,Pr2Te5,https://materialsproject.org/materials/mp-1104180,-42.539026971156275,26.36988378474506,-24.143678139545433,28.98318712536968