energy_per_atom,energy,density,formation_energy_per_atom,total_magnetization_uB,total_magnetization_T,band_gap,sgr,num_sites,cell_volume,weight,mp_id,formula,URL,tsne_cry_lin1_0,tsne_cry_lin1_1,tsne_cry_lin2_0,tsne_cry_lin2_1
-5.279768335,-42.23814668,7.616961096075825,-0.13583976125000066,4.1e-06,2.4496983551641395e-07,0.0,139,8,195.05122117083343,894.7080000000001,mp-1094312,ZrSn3,https://materialsproject.org/materials/mp-1094312,3.3908664056183864,53.45730196704476,-8.604250342815693,-0.5045126942092143
-5.549208819275362,-382.89540853,7.420686576340084,-1.66389539792346,2.423333333333333e-05,1.7130531475038385e-07,0.3148,5,69,1648.6168962896336,7367.4084,mp-1217676,Tb8Se15,https://materialsproject.org/materials/mp-1217676,49.16471189422757,3.903050824508648,3.7334066652413993,-5.689453687276582
-5.890317456,-29.45158728,4.965685099980052,-0.17522030499999913,8.7360931,0.7737641893676954,0.0,164,5,131.57884048589753,393.4740900000001,mp-4150,Ca(MnSb)2,https://materialsproject.org/materials/mp-4150,23.070903605390026,22.79403887974885,-8.604250342815693,-0.5045126942092143
-8.13921289875,-195.34110957,3.7355532742208286,-3.1425829771725,3.5e-07,1.0627435000880257e-08,1.2697,2,24,383.81064387202,863.4214992000001,mp-756632,NbO2F,https://materialsproject.org/materials/mp-756632,-1.082283433739102,-46.01472770802869,8.302942539304867,-1.3921876316682344
-4.612643592,-46.12643592,3.0845655267047154,-0.9408602466374992,5.0000003,0.18594642698093072,0.9912,72,10,313.37158936102423,582.10929,mp-8716,K2MnSe2,https://materialsproject.org/materials/mp-8716,24.75957445515644,1.607460003419637,6.296141820205495,-4.578936217688762
-5.160784425714286,-144.50196392,6.036314694423972,-1.6295764006250002,0.00044045,6.962390444857228e-06,1.6108999999999996,62,28,737.2515043113436,2680.0225600000003,mp-1232182,Ho2MgSe4,https://materialsproject.org/materials/mp-1232182,52.281551596741714,6.636856780073237,8.208818240357711,-6.16263766720887
-8.475159793786766,-2305.24346391,1.8015060784981307,0.2813948107273531,0.00213261875,7.4035306208736264e-06,1.3166999999999998,62,272,3357.0033434591937,3641.9872,mp-1196803,C16Cl,https://materialsproject.org/materials/mp-1196803,46.60906106490305,-26.35066653804029,7.367617655375415,-5.199716349827172
-4.2282297720000015,-42.28229772,2.6508480369214587,-0.4645270080571436,0.0,0.0,0.6310000000000002,63,10,249.11082538128886,397.675048,mp-9672,K2NiP2,https://materialsproject.org/materials/mp-9672,28.55244862839667,12.605233027750291,-5.928990503580383,-3.0783309260105454
-4.40573058975,-176.22922359,9.454865003635506,-0.5902306932500003,3.625e-07,4.397291936699316e-09,0.0,223,40,960.7273160089403,5470.24,mp-1212693,NdIn3Pt,https://materialsproject.org/materials/mp-1212693,6.069243871508335,53.7889352042257,-8.604250342815693,-0.5045126942092143
-5.1813047075,-145.07653181,5.7598898635819396,-1.635981566696429,0.000521275,8.006198737785434e-06,1.6125000000000005,62,28,758.7836391876065,2631.9828,mp-1232286,Tb2MgSe4,https://materialsproject.org/materials/mp-1232286,52.29388555237158,6.627967688913047,8.241027605505034,-6.170335260767027
-6.501479585,-26.00591834,9.977512887054642,0.1769728682812497,0.10577719999999999,0.012156982143748288,0.0,139,4,101.40134497885505,609.28,mp-1186820,PuSb3,https://materialsproject.org/materials/mp-1186820,2.037625681332437,37.78582314436492,-8.604250342815693,-0.5045126942092143
-6.41337998,-166.74787948,3.722560561544317,-0.2904945520718299,4e-07,6.381699587971965e-09,1.4535,14,26,730.4677766107901,1637.5468875999998,mp-1193434,Cs2PtC4(IN2)2,https://materialsproject.org/materials/mp-1193434,44.76120566548105,-19.180955302908085,7.805718340891267,-4.619629063079958
-3.962629105,-23.77577463,6.517644658488035,-0.30069895749999986,5.8899999999999995e-05,3.6862943925631975e-06,0.0,191,6,186.20987420011056,730.877,mp-571353,BaSn5,https://materialsproject.org/materials/mp-571353,0.6505658693627016,49.52024317446229,-8.604250342815693,-0.5045126942092143
-4.083322878,-40.83322878,3.4739628209080515,-1.8749027101973796,2.9999999,0.12580338248773154,1.5978,225,10,277.91139205404227,581.4099037999998,mp-1113012,Cs2LiMoCl6,https://materialsproject.org/materials/mp-1113012,11.489160737440535,-8.58909843833125,7.597218836702992,-3.6649487219429617
-6.002148761250001,-144.05157027,5.9674446883637176,-1.4758187532738098,0.0,0.0,1.9893,14,24,338.3181870538188,1215.807048,mp-23332,BiPO4,https://materialsproject.org/materials/mp-23332,10.937624901497022,-19.141903827275268,7.037562884742132,-0.8005772697941737
-3.8868224706666665,-58.30233706,6.121943187278158,-0.05024010033333326,0.0,0.0,0.2311000000000005,164,15,416.04543474552185,1533.8431999999998,mp-28487,Ge5(Te4As)2,https://materialsproject.org/materials/mp-28487,68.5182539700925,26.773290868833232,6.1617786473186795,-7.211585191907026
-4.65464156,-37.23713248,7.737248651055495,-0.6878796929166668,7.31e-05,4.031587570109191e-06,0.0,129,8,211.30934651905392,984.5917,mp-1079478,PrAgSb2,https://materialsproject.org/materials/mp-1079478,3.0475984874756867,33.87954215143326,-8.604250342815693,-0.5045126942092143
-4.796165541000001,-47.96165541,3.173442598284866,-0.6980990273660709,4.0000001,0.21081239824057746,0.24929999999999986,5,10,221.1267489232163,422.593524,mp-1226823,CdFe(PS3)2,https://materialsproject.org/materials/mp-1226823,23.22015458603339,-0.4719640718037972,2.585282266381125,-4.831993268019072
-4.5856333822222215,-165.08280176,4.029921792084639,-1.5265248550133714,0.0,0.0,1.1342,40,36,1139.5502240870446,2765.5467114000007,mp-567702,CsReCl4,https://materialsproject.org/materials/mp-567702,6.798958270275144,-9.779296268029736,7.327924690491429,-2.301343904337745
-4.253490485,-102.08377164,3.435021276147169,-1.217057426197916,0.000223975,5.9001897497147245e-06,1.4149000000000005,15,24,442.3957988063456,915.148,mp-1190364,Li2SnS3,https://materialsproject.org/materials/mp-1190364,43.231134966856054,2.532728210304767,6.8120531106353654,-5.832996092881079
-3.20574742875,-25.64597943,4.9222630577526205,-0.6924421621695402,5.18e-05,1.9643464154433268e-06,1.1743,140,8,307.31878576638394,910.9716,mp-22255,RbInTe2,https://materialsproject.org/materials/mp-22255,61.46456019237592,16.394606857060175,9.159960834781616,-4.757962127314936
-4.655981065147058,-316.60671243,3.0724578388613923,-0.619567489983529,0.9801795,0.01137486026679261,0.5586999999999999,11,68,1004.238743493256,1858.1202399999997,mp-707342,ZnH18Ru2Br7N6,https://materialsproject.org/materials/mp-707342,-1.1995999007304199,-21.937895843773106,7.403406938746446,-2.6279913956029537
-6.011539560555555,-324.62313627,4.342132847895758,-2.2202741622022217,4.999999533333334,0.09318336194953414,0.3456999999999999,6,54,625.3296426007114,1635.1704576,mp-759561,FeOF,https://materialsproject.org/materials/mp-759561,-41.964487809495395,-76.8372263295184,3.732666875465784,-0.3691755909772412
-5.10673586575,-204.26943463,8.163234725392611,-0.3638643226250004,2.4299999999999998e-05,3.1473343711951115e-07,0.0,223,40,899.7892837984853,4423.37756,mp-1198940,Nd3Co4Sn13,https://materialsproject.org/materials/mp-1198940,-0.06711231685934632,47.94552363725772,-8.604250342815693,-0.5045126942092143
-4.24444434925,-169.77777397,3.4350784478219305,-1.0633794449629996,0.0,0.0,1.6315000000000002,62,40,1177.177244680396,2435.1708,mp-560144,K2RuBr5NO,https://materialsproject.org/materials/mp-560144,7.353480882561934,-10.516663383051489,8.253634730331703,-1.0948117623214149
-7.368573123055556,-265.26863243,8.305853656828408,-3.229793067916668,2.98303185,0.07078696607756409,2.059400000000001,62,36,491.1136657617984,2456.50246,mp-505193,BaTm2CoO5,https://materialsproject.org/materials/mp-505193,-31.587005901706416,-28.403118305925673,8.484686972967392,-4.736022032785018
-5.51811159142857,-38.62678114,4.458385582067475,-0.7388530412678571,3.0000017000000003,0.2129961872695628,0.0,160,7,164.1447885888298,440.71276928,mp-1221410,Na(VSe2)2,https://materialsproject.org/materials/mp-1221410,49.799629813947526,26.247246244964966,-8.604250342815693,-0.5045126942092143
-8.571134488,-85.71134488,7.047607096330088,-0.8709152794280002,7.625e-05,6.015474594339507e-06,0.9954999999999994,1,10,147.72274821738253,626.9602000000001,mp-989625,SrWN3,https://materialsproject.org/materials/mp-989625,35.332129614612256,-9.744548239881622,6.601245896154193,-4.274806372621286
-7.175051531136364,-315.70226737,3.6226351703727633,-2.7480433103856923,1.9999997999999999,0.03552993099764645,1.8684000000000005,14,44,656.0138609852745,1431.1611036,mp-562901,CsVP2O7,https://materialsproject.org/materials/mp-562901,-15.50480655135128,-48.39911106951763,7.074121047226987,-1.1011473645366443
-4.566282904090909,-100.45822389,2.8092654725202912,-0.9828809649409432,2.0,0.04073857146751007,0.6638999999999999,14,22,572.1390982918523,967.9330480000001,mp-1209542,Rb2Ni(PS3)2,https://materialsproject.org/materials/mp-1209542,23.53720791790756,-0.4725303156614647,2.5234287560884483,-4.649336294297063
-7.079749422280703,-403.54571707,5.897924614755196,-2.2587720217412293,0.00011303333333333332,1.5267000388668885e-06,1.7675,1,57,862.8399519153032,3064.6464,mp-757860,K2W4O13,https://materialsproject.org/materials/mp-757860,-3.0574477659206223,-39.41310734780062,4.3658204685401065,-4.446885076195712
-3.2116179610000004,-32.11617961,2.9108928282036537,-1.651306288222667,0.0,0.0,0.9106,225,10,267.26238899235864,468.5058,mp-1112469,K2GaAgCl6,https://materialsproject.org/materials/mp-1112469,6.23661341277194,-7.58874554892266,7.6433296074012045,-4.829242589028212
-8.572988239999999,-85.72988240000001,6.944878790512303,-0.8246609714279984,3.81e-05,2.556569320355764e-06,1.0637000000000003,12,10,173.67800837598094,726.3742000000002,mp-989636,BaWN3,https://materialsproject.org/materials/mp-989636,35.48874700639554,-9.79565442132932,5.8484775070267565,-4.53833706605543
-4.504343071111111,-40.53908764,8.001478896503016,0.04289798502666682,0.0,0.0,0.4906000000000006,12,9,258.7336874611001,1246.735,mp-1245515,Bi4Te3N2,https://materialsproject.org/materials/mp-1245515,65.24079903418068,22.165551961282212,-2.5239245925752454,-1.1614653205887482
-6.03102345,-361.861407,2.535481456913523,-1.163022058367999,0.000736375,8.88642361333438e-06,2.137,14,60,965.7160540958704,1474.5544,mp-644841,K2Pd(NO2)4,https://materialsproject.org/materials/mp-644841,-2.0307960650788717,-23.498627543803774,8.773143395042544,-0.26186018320905285
-4.008657496666667,-72.15583494,3.7672973548458777,-1.0344839143955558,1.0,0.020283452128524487,0.0,2,18,574.5602227231656,1303.516,mp-569824,Te2WCl6,https://materialsproject.org/materials/mp-569824,16.265198775705713,-5.265566980910992,-8.604250342815693,-0.5045126942092143
-5.46931976,-350.03646464,2.667178572293112,-3.1798320963687505,1.9999999,0.029282049879739182,2.2674,62,64,795.9869092307042,1278.524128,mp-1177798,Li2VF5,https://materialsproject.org/materials/mp-1177798,-21.047224342561886,-51.78657778914154,8.159811551524689,0.22264998173469
-8.015971793999999,-160.31943588,5.8682921502008565,-3.4294621325000003,5.0009989,0.18113075511506505,2.9259000000000004,36,20,321.7673612141439,1137.11562,mp-1180667,La3FeO6,https://materialsproject.org/materials/mp-1180667,-22.919954875014934,-33.27925790812983,8.657351468891964,-1.2830987275819528
-3.926750315,-23.56050189,5.442343658850597,-1.1902756750000003,7.5e-07,3.649018218460666e-08,0.3703000000000003,140,6,239.531513852155,785.054,mp-2150,BaTe2,https://materialsproject.org/materials/mp-2150,57.39001791035347,22.982144155735828,5.068266915948257,-6.30789844854908
-8.842042436,-88.42042436,5.8609402440416165,-1.2693997489279991,0.0,0.0,0.5907,1,10,131.38653724266797,463.73414,mp-989403,LaVN3,https://materialsproject.org/materials/mp-989403,33.55556087467329,-9.135347394308042,4.649184819226013,-2.6197828262679494
-8.1917948355,-163.83589671,6.3740266277871465,-3.357315244916665,2.9999998,0.13961846698880162,2.1423,14,20,250.4123755324597,961.21507,mp-1211314,La2TiCoO6,https://materialsproject.org/materials/mp-1211314,-18.481734723992556,-32.498413181611426,5.479600494528541,-6.571330704880122
-7.940616391666666,-190.5747934,4.3082160028305845,-2.4830112575000007,5.000001,0.17765131227722392,2.0282,95,24,328.0039689542664,850.99592,mp-754222,NbFeO4,https://materialsproject.org/materials/mp-754222,-22.77129596654459,-34.09456041428245,8.267493532387991,0.12461079679296007
-6.242462785,-49.93970228,5.911143413040516,-0.0916305899999994,0.09423560000000002,0.005354284540399894,0.0,11,8,205.1119580953393,730.1521799999999,mp-672389,MnTe,https://materialsproject.org/materials/mp-672389,51.58332821662414,33.653952474381704,-8.604250342815693,-0.5045126942092143
-6.7644473550000015,-94.70226297,5.735019417350827,-1.130011504464287,2.9633960999999998,0.13142031832704873,0.0,160,14,262.7874482103025,907.5915,mp-1247252,Mg2VW3S8,https://materialsproject.org/materials/mp-1247252,24.408640010017585,10.296640765522367,-8.604250342815693,-0.5045126942092143
-4.2269643875,-16.90785755,6.516539774510213,-0.13726091874999913,4.8873385,0.5289817420212222,0.0,123,4,107.67358288547449,422.54904500000004,mp-1221676,MnCdTe2,https://materialsproject.org/materials/mp-1221676,51.17975616209416,33.4357711896823,-8.604250342815693,-0.5045126942092143
-6.2745977889285705,-175.68873809,4.3501093366116015,-1.2930872836309522,2.99977515,0.06035580954140144,0.3395000000000001,74,28,579.2246706132613,1517.3932,mp-1246425,ZrCrAgS4,https://materialsproject.org/materials/mp-1246425,14.513708205594561,3.4237473002100907,5.613929446451119,-6.371921380609735
-4.7919523625,-134.17466615,4.804503936619359,-0.13198570591836756,0.0,0.0,0.2951000000000006,217,28,574.5081376269025,1662.2473439999999,mp-18310,Si3Ag3(SnP3)2,https://materialsproject.org/materials/mp-18310,39.70925363979082,11.52416539976434,-1.7077062084989032,-2.4183797445631328
-5.352989002777779,-96.35380205,5.681953158181,-0.6327269029166673,5e-08,2.243289374138348e-09,1.6736999999999995,11,18,259.75393337375493,888.8136,mp-1105887,BaPtO7,https://materialsproject.org/materials/mp-1105887,-2.1218134493858027,-23.39476641699625,7.434544867494002,-0.10510781669866733
-4.069343801923076,-105.80293885,3.901166693500513,-1.0170891694951931,1.15e-06,2.3490883762968144e-08,0.916,14,26,570.526618907855,1340.3596,mp-753429,Li4Bi2S7,https://materialsproject.org/materials/mp-753429,50.68546862816232,10.476112407409866,7.2617306562195125,-4.697956725048908
-4.571314734285714,-63.99840628,7.615768163989049,-1.0108913842857146,0.00011679999999999999,3.2413700278584613e-06,0.0,63,14,419.9442685456986,1926.0,mp-1103932,Dy2Te5,https://materialsproject.org/materials/mp-1103932,-9.886195853005754,24.27746686094425,-8.604250342815693,-0.5045126942092143
-4.9007072421739135,-225.43253314,5.002481668321336,-1.2543756261530448,9.99999915,0.16455638051962346,2.942,15,46,708.2109940169978,2133.5316,mp-555161,Ni5Te4(ClO6)2,https://materialsproject.org/materials/mp-555161,-18.38812730372288,-38.50541733530469,6.603413168134887,-2.030377034517998
-3.05902491375,-48.94439862,8.512025363798037,-0.3055700234375003,1.51e-05,3.205600925871921e-07,0.6400999999999994,87,16,548.9653332870371,2814.0301,mp-34361,Tl9BiTe6,https://materialsproject.org/materials/mp-34361,58.53360549548432,23.769110147326103,5.828946681903006,-6.112417897258293
-4.349823180833334,-104.39575634,7.406188430522271,0.040325111666666885,0.809863025,0.0205139287860197,0.0,19,24,460.0872045867336,2052.04,mp-655580,CeCu4Sn,https://materialsproject.org/materials/mp-655580,2.09487866825014,43.09225684484318,-8.604250342815693,-0.5045126942092143
-5.35711568173913,-246.42732136,7.1719193937221215,-1.4669963605765215,3.00182865,0.02561685765103995,0.8944999999999999,36,46,1365.643905266625,5898.2582,mp-680161,Sm8CrTe13Cl,https://materialsproject.org/materials/mp-680161,-10.108641559003301,24.604764626760478,-8.604250342815693,-0.5045126942092143
-6.181066008666665,-92.71599013,7.377023655836247,-0.37500048299999933,0.0037297,0.00011748293517140577,0.0,147,15,369.97854470353,1643.6472800000001,mp-1220470,Nb6ZnTe8,https://materialsproject.org/materials/mp-1220470,56.57241788556728,31.798383079188728,-8.604250342815693,-0.5045126942092143
-7.411904369249999,-296.47617477,7.054475998136021,-0.8192441332499996,13.82995735,0.1278977272041666,0.0,13,40,1260.188294834588,5353.664000000002,mp-1213665,Eu2Sb3,https://materialsproject.org/materials/mp-1213665,0.9181101255808364,35.33503181358835,-8.604250342815693,-0.5045126942092143
-3.0279366125,-36.33523935,5.916189709336826,-0.3810723955000001,0.0,0.0,0.2498,12,12,346.8624025899369,1235.8058,mp-1205342,KAg3Te2,https://materialsproject.org/materials/mp-1205342,53.34944227128165,19.778207638543908,3.7713096442476224,-5.361168558685321
-6.5652170195,-262.60868078,5.9086480606169065,-2.1346561049375,3.000231875,0.0431298913728525,0.2661000000000007,58,40,810.6882602991292,2884.6486,mp-1208516,Tb3CrS6,https://materialsproject.org/materials/mp-1208516,25.77295103709897,5.671665451291593,-4.379722479493661,-1.6045353612037678
-6.84057543875,-54.72460351,9.815873708385876,-0.14389276875000068,5e-08,3.864503027454793e-09,0.0,62,8,150.7834861270014,891.3199999999998,mp-7565,SbRu,https://materialsproject.org/materials/mp-7565,2.6165001370322343,50.45002877818983,-8.604250342815693,-0.5045126942092143
-5.358858221,-53.58858221,5.037336505639281,-2.2004523577,0.0,0.0,2.3999,225,10,138.82413189623702,421.13063928,mp-1205743,NaSr2IO6,https://materialsproject.org/materials/mp-1205743,-5.361221775293244,-43.302678245854565,8.54838204700217,-1.6188429940965718
-5.46785132609375,-349.94248487,2.133529651506481,-1.5659443020399992,4.9999995625,0.07257486072001534,1.652,106,64,802.8994914498654,1031.59867424,mp-758826,NaMn(HO)3,https://materialsproject.org/materials/mp-758826,-15.663276097869954,-36.18563221058251,7.392955087783247,-3.2809128508593797
-8.964057024591838,-878.47758841,4.300420775947745,-3.0557206965561226,0.0,0.0,1.6747,3,98,1436.9349172211123,3721.33664,mp-581967,Nb2O5,https://materialsproject.org/materials/mp-581967,-0.2891167008356257,-47.05926818582603,6.411573909662014,-1.0016776100422036
-3.1973630066666665,-115.10506824,3.1522161276401657,-0.3908875547222223,0.0,0.0,0.4837,14,36,868.8862697319709,1649.4145855999998,mp-16861,Na5GeAs3,https://materialsproject.org/materials/mp-16861,35.40130566575353,18.941337273281214,5.5714666980676695,-5.700667865671548
-5.72110718,-22.88442872,2.685045115425372,-2.0711632669062503,0.0,0.0,1.6936000000000004,166,4,81.68087148334278,132.07568128,mp-999460,NaScS2,https://materialsproject.org/materials/mp-999460,55.87185212018635,3.7457745950198533,8.336854836425957,-3.8245462956305327
-3.421936535,-20.53161921,3.8419864915361868,-0.8599885671733333,0.0,0.0,0.6978999999999999,14,6,153.28359246224412,354.6520000000001,mp-1018891,PdCl2,https://materialsproject.org/materials/mp-1018891,63.410566327200186,16.63152232582594,6.680611886065114,-6.411598553380455
-5.670270832857143,-39.69189583,7.035736293705761,-0.2434631577678579,3.8485245999999997,0.3906449095473736,0.0,12,7,114.81259289710596,486.46319500000004,mp-1078104,Fe2CoSe4,https://materialsproject.org/materials/mp-1078104,17.417137084126733,13.272273561111165,-8.604250342815693,-0.5045126942092143
-5.125083216666667,-15.37524965,6.203727452780186,-0.7965278927083345,2e-06,3.359329383384013e-07,1.4706,164,3,69.38328125966616,259.214,mp-762,PtS2,https://materialsproject.org/materials/mp-762,35.74245179651233,7.597502938677616,6.353879103067437,-6.240907269478818
-3.27732592,-32.7732592,4.599285912141748,-0.9097807942413793,2.9999999,0.08568719277448597,0.9856000000000004,225,10,408.0212225447402,1130.1187238,mp-1113011,Cs2LiMoI6,https://materialsproject.org/materials/mp-1113011,10.41571729365775,-7.537164468908495,6.777143620394202,-2.6797054289640263