energy_per_atom,energy,density,formation_energy_per_atom,total_magnetization_uB,total_magnetization_T,band_gap,sgr,num_sites,cell_volume,weight,mp_id,formula,URL,tsne_xrd_lin1_0,tsne_xrd_lin1_1,tsne_xrd_lin2_0,tsne_xrd_lin2_1
-8.167190199,-81.67190199,5.950654839018783,-3.6958765464166663,0.0,0.0,3.2433999999999994,148,10,124.45119489161085,445.97934,mvc-11012,La2MgTiO6,https://materialsproject.org/materials/mvc-11012,-14.304570255035609,49.668448302721615,6.101742737546051,58.97649094925417
-8.701507369444442,-469.88139795,6.614888820067521,-3.7251401650771614,0.4044757,0.007092230029939134,0.0,31,54,664.6408797836011,2647.6496,mp-778274,Dy5Ti5O17,https://materialsproject.org/materials/mp-778274,3.5674082476566613,37.695259499990954,7.6002364409778975,34.328153287328966
-8.244692608,-82.44692608,9.037648333300863,-0.6857384361785706,0.0,0.0,0.0,63,10,148.47678559442454,808.0996240000001,mp-1080794,TbPRu2C,https://materialsproject.org/materials/mp-1080794,-35.05280104583369,21.287963837931255,-28.233977401437414,36.71465463823192
-4.463850768571429,-62.49391076,3.180823653655433,-0.9917834315714288,3.99999995,0.17958579812041156,0.4503,4,14,259.5765310811466,497.2284,mp-1211762,K2PdO4,https://materialsproject.org/materials/mp-1211762,22.05577566039712,-2.2236356303124416,34.194145794525184,-19.130233432789083
-6.997017708518517,-188.91947813,5.859256497772285,-2.327857519629629,5.5093638,0.1052649619120986,0.0,81,27,609.9511310744705,2152.2289100000003,mp-676880,Ce10US16,https://materialsproject.org/materials/mp-676880,-1.241335931834031,-5.631027671817168,4.849158618679628,7.380750929314273
-6.880828073529411,-233.9481545,6.428066708143955,-2.3066760786764706,3.99999995,0.08911247857083801,0.0,64,34,523.117067947773,2025.024,mp-17304,Ba4Ru3O10,https://materialsproject.org/materials/mp-17304,7.036889530269983,22.34034092264556,3.603266653752116,34.24785326432126
-2.733886841666666,-16.40332105,4.1215506032269404,-0.9737936686691808,5e-08,2.0974826384305404e-09,1.5470000000000002,63,6,277.8107565476668,689.5418076000001,mp-1080276,Cs2Se,https://materialsproject.org/materials/mp-1080276,1.4162192487058918,-16.837387563671715,14.061158837728549,-10.930551092203732
-5.746496011578947,-218.36684844,8.145474049226099,-2.7017671300986845,7.999999799999999,0.17137785828054208,0.0,87,38,544.0172772905404,2668.5784,mp-18204,Ba5Yb8Zn4O21,https://materialsproject.org/materials/mp-18204,-6.218430228536384,35.8907230763847,-1.9581536055654218,49.191326524815
-7.332892506153847,-190.65520516,5.6230287057063935,-3.211028843636924,0.3628436,0.009971784888985216,0.0,176,26,424.05676253402066,1435.96946,mp-1209779,Pr3Nb(ClO2)3,https://materialsproject.org/materials/mp-1209779,0.062216463924499935,12.207144889348946,7.685597008617708,29.97529967386224
-6.603376226,-33.01688113,7.033604774222478,-0.4637820839999997,3.8365650999999996,0.5585185666353983,0.0,139,5,80.05387976426884,339.08709,mp-13398,Yb(MnSi)2,https://materialsproject.org/materials/mp-13398,-60.573304662086905,15.364250561299384,-60.26417233346715,24.90856323013979
-6.9947099965714274,-489.62969976,5.885322845571982,-2.5492013778214284,2.000002842857143,0.02486362730015093,0.0,194,70,937.440156843856,3322.4982,mp-557081,BaCrO3,https://materialsproject.org/materials/mp-557081,-8.447199083709279,29.41828402519782,-15.461610531169093,49.2080928299886
-4.473034391666666,-26.83820635,3.2711538852887982,-0.624868325793333,0.0,0.0,0.2574000000000001,131,6,110.22465506363156,217.1354,mp-29754,SrLiN,https://materialsproject.org/materials/mp-29754,-8.050288471259552,10.420575954951348,-2.6422857588962554,20.342247623684198
-3.4220849666666666,-20.5325098,3.6490453296092062,-1.1683880678733332,0.0,0.0,3.5468,129,6,152.891843730799,335.98082,mp-24204,CaHI,https://materialsproject.org/materials/mp-24204,1.0623872046563825,8.146604837934033,1.8299097622732927,12.131622402986784
-2.931942351111111,-52.77496232,7.0109458056549725,-0.9456636764444444,0.0,0.0,1.3849,180,18,414.30168128597074,1749.21911784,mp-23110,NaHg2IO2,https://materialsproject.org/materials/mp-23110,-7.070765317929716,12.372041305298064,-12.106226823520696,-9.507971482630165
-5.847322499090907,-64.32054749,8.97167707044177,-0.047392289431817336,1.5406953,0.1115575703125314,0.0,25,11,160.9515407217625,869.6003,mp-1103128,Yb4Ni2C5,https://materialsproject.org/materials/mp-1103128,-4.12371586535189,18.651153388998328,11.720940828819135,49.63359202988382
-6.77191771,-162.52602504,4.639666183723281,-1.8597513491666668,2.999999975,0.1115805547602554,1.9885,12,24,313.3359042841116,875.4831800000002,mp-17289,CoMoO4,https://materialsproject.org/materials/mp-17289,21.06529825134819,0.5899943894128452,54.66361938580732,-6.340362669175307
-3.023586305,-30.23586305,7.486905188322379,-0.19135755900000007,3.95e-06,1.3110229958494876e-07,0.6318999999999999,15,10,351.1269901240976,1583.1331999999998,mp-29711,Tl2Te3,https://materialsproject.org/materials/mp-29711,-4.429221564734954,40.76620879416407,17.888828297741778,54.774975257145684
-5.023720355833333,-120.56928854,5.363834864904687,-1.4702468730172915,0.0,0.0,3.5986,62,24,459.90248876837694,1485.5664000000004,mp-556362,BiSeClO3,https://materialsproject.org/materials/mp-556362,31.554644437417387,24.52371784812069,40.537077535644976,16.348757049659188
-5.85194195,-117.038839,8.15869596606622,-1.81084036475,1.0,0.0462043952312656,1.8279999999999996,14,20,252.2284885285896,1239.2696,mvc-5039,Zn2BiWO6,https://materialsproject.org/materials/mvc-5039,-14.686268986805716,49.29737761614139,12.728443312540515,55.50266781700481
-8.583285940925926,-463.49744081,5.802228067631142,-3.6278283039969135,4.9817130999999995,0.08356298186359573,1.4582000000000006,58,54,694.7718457495807,2427.6603,mp-641117,La5Ti4FeO17,https://materialsproject.org/materials/mp-641117,11.957131427529356,33.181869915253785,26.034683665946808,43.21838016533578
-8.319676167,-166.39352334,5.187110207209659,-3.74072958625,2.5e-08,1.388331138377139e-09,5.5394,62,20,209.8574405343683,655.5423544,mp-3792,YAlO3,https://materialsproject.org/materials/mp-3792,-7.793047400895842,48.69063642091315,-8.112971816986775,56.805780586419104
-8.961369728181818,-197.15013402,7.049997800554514,-3.8504480848863647,6e-07,2.0916460332343708e-08,3.4544999999999995,63,22,334.3031637491364,1419.3201800000002,mp-31415,La3TaO7,https://materialsproject.org/materials/mp-31415,22.16244125067266,56.29878127494524,-1.204270122809701,35.53341544449297
-8.030135620000001,-144.54244116,6.035375560975156,-2.893172648750001,8.0,0.3668922753252031,0.0,46,18,254.11414862261364,923.6002800000001,mp-1076508,La2Cr2O5,https://materialsproject.org/materials/mp-1076508,-25.19365222488109,44.190531128928015,-10.815466970998573,62.56707839558461
-4.842382788,-96.84765576,5.5337699908991205,-1.4256869199687499,0.0,0.0,3.0881,62,20,287.3136413166934,957.4768,mp-9186,CdSeO3,https://materialsproject.org/materials/mp-9186,-21.206020384061024,30.164868269792446,-32.50232853717708,58.867403007699934
-5.2273351880000005,-26.13667594,10.038219733351896,-0.5553134006666667,7.730000000000001e-05,9.354874867116596e-06,0.0,65,5,96.2983706051999,582.1388,mp-1068243,Lu2InNi2,https://materialsproject.org/materials/mp-1068243,-36.36544507639965,21.327641479200853,-29.63799557388077,36.33047367703524
-6.1804573650000005,-173.05280622,5.155962683096451,-2.2669064414285707,0.499731725,0.010949379367221134,0.5201,2,28,531.8936988782999,1651.5264,mp-1194124,YbMoBrO4,https://materialsproject.org/materials/mp-1194124,33.5764718523773,-6.622174268128379,42.49665594304908,-3.644708688715229
-2.722759695,-10.89103878,6.860192468262582,-0.67112845125,0.0012375,0.00012166238575220149,0.0,225,4,118.5403776761106,489.7264,mp-1183503,Ca2HgBi,https://materialsproject.org/materials/mp-1183503,-30.31798909143499,54.292825435040506,-56.04847351901074,52.774072397778
-9.345116416923076,-485.94605368,6.214971634282775,-3.1945057998717945,13.999802775,0.28441437001924513,3.1916,60,52,573.6510723135084,2147.0288,mp-1196136,Gd2Ge(BO4)2,https://materialsproject.org/materials/mp-1196136,7.955574323475398,22.329034458796592,2.500378659639672,35.667368272778354
-3.261855930714286,-45.66598303,3.0443537066010378,-1.6693186283899506,0.9999998,0.028390074482006988,0.1608,64,14,410.49777622573095,752.5871999999998,mp-23508,Rb2CuCl4,https://materialsproject.org/materials/mp-23508,2.8955697017086584,13.035650888585653,4.00617868413329,21.627536013045248
-3.54462149,-70.8924298,2.6913626586356307,-1.6644551690249656,3.15e-06,5.6244487211612365e-08,2.5712,33,20,652.6915943858713,1057.8672,mp-1120729,RbGeCl3,https://materialsproject.org/materials/mp-1120729,10.302597227391974,-7.554755407980398,10.954845633427999,-2.1351389546045474
-2.825535708333333,-16.95321425,6.3252922555137845,-0.2982221061111107,5e-07,3.143375349799416e-08,0.0,191,6,185.37501054882546,706.1268,mp-1241,BaAg2,https://materialsproject.org/materials/mp-1241,-25.985043010600055,28.34306817992941,-13.256450472210984,71.03695255067916
-9.450672157083334,-226.81613177,5.914478288113581,-3.564335355104168,14.00000065,0.6148142386365553,3.3345,113,24,265.3759528289443,945.211328,mp-1212449,Gd2Be2SiO7,https://materialsproject.org/materials/mp-1212449,-2.3677358705153817,12.696701137905714,7.547368141406978,30.780604405287047
-4.401911965,-17.60764786,6.8688802105963775,-0.6779718560416672,1.0,0.24278488226388145,0.0,166,4,48.00160810627805,198.5604,mp-19069,NiAgO2,https://materialsproject.org/materials/mp-19069,-30.701366694271485,16.941551433688666,-32.14163884020464,38.16398615561764
-7.815738714,-78.15738714,5.8564356573484275,-3.1300874560833334,8.400000000000001e-06,7.864446623124975e-07,2.0129,99,10,124.47683706269815,439.0084,mp-1237057,CaTi2PbO6,https://materialsproject.org/materials/mp-1237057,-24.699889165008887,44.588302455059576,-10.059628656420344,62.81809014592976
-3.313498571666667,-19.88099143,6.468289172971853,-0.2729100107986113,4.5e-07,4.1218912257183884e-08,1.0979,63,6,127.23113882603359,495.6028,mp-36216,Ag2S,https://materialsproject.org/materials/mp-36216,-40.922449297284885,29.52658176468107,-41.76020037580838,35.509489075032384
-8.728188759,-87.28188759,6.975116633384298,-3.99368905025,5e-08,3.924142386471236e-09,3.3369,194,10,148.49186936664077,623.7421,mp-754226,YLuO3,https://materialsproject.org/materials/mp-754226,10.661854180689529,56.42593217628096,-7.612496798640075,41.846871916109905
-6.696556946578947,-254.46916397,8.215789850793469,-2.066534761776316,1.45e-06,1.927169163124252e-08,0.0,85,38,876.8505766674131,4338.36236,mp-1195820,Ho9Sb5CO4,https://materialsproject.org/materials/mp-1195820,-43.318370347879934,28.278690640110877,7.084393837209841,57.117619115247344
-4.836052032777777,-174.09787318,4.400890109972844,-1.4302322112847226,1.999999925,0.04376305387037735,0.1834,14,36,532.5983131821955,1411.5336,mp-1196645,Cd2SO6,https://materialsproject.org/materials/mp-1196645,13.607788778876426,24.665219798683797,45.039461133705686,-20.831532605908976
-9.809568578666667,-147.14352868,9.084612154966095,-3.852509101833333,4.0,0.24276328331202854,0.0,160,15,192.02351547668744,1050.53788,mp-1217365,ThZr2U2O10,https://materialsproject.org/materials/mp-1217365,19.157870780104954,65.506641107243,-9.1196331497232,38.61691324658501
-5.813928736923076,-151.16214716,6.186475608669957,-1.842068093942308,0.0022575,6.572788281238059e-05,0.0,63,26,400.27230603414324,1491.2476,mvc-2292,CaSn5O7,https://materialsproject.org/materials/mvc-2292,-0.2639873283362418,27.27417379996088,-12.454070236379211,46.652379808696615
-5.203345773333333,-31.22007464,6.262895408273394,-0.6195183966666669,2.235e-05,2.232716394215254e-06,0.0,63,6,116.65984463658556,439.9947172,mp-1206025,HoAlSi,https://materialsproject.org/materials/mp-1206025,-8.382679359174912,22.525004647557417,-2.9364203636038746,23.248986131254746
-5.962925198333332,-71.55510238,10.758047751853272,-1.1594665383333325,5.325e-06,2.613671856547098e-07,0.0,62,12,237.4356779273148,1538.2621544,mp-1103319,DyAlPt,https://materialsproject.org/materials/mp-1103319,-49.60329935834624,14.248772867008851,-34.28141053213221,21.79833740569816
-8.60237471,-275.27599072,8.54211842805735,-3.226295788281249,0.0,0.0,0.8030000000000004,85,32,440.8271520192694,2267.696,mp-17741,Sm2ReO5,https://materialsproject.org/materials/mp-17741,8.161867626790109,22.73147105501943,36.474543247888974,-4.532119576712764
-2.695871776,-26.95871776,3.1098277339397984,-1.2551398476036293,0.0376245,0.001390647458189643,0.0,225,10,315.30518928642573,590.4979038,mp-989517,Cs2SBrCl6,https://materialsproject.org/materials/mp-989517,-16.932876654580948,-21.63922872966584,-15.614071428548154,-20.903585664567448
-4.487501512272726,-98.72503327,3.983423524710272,-0.6050820093874553,5.0006322999999995,0.08161583928356705,0.9726,14,22,714.0488076765766,1712.9129456,mp-867332,Cs2Mn(PSe3)2,https://materialsproject.org/materials/mp-867332,8.123472282281663,22.889164915183066,4.362599889814288,25.14062100654433
-4.688426576956521,-215.66762254,4.459606616707792,-1.1517253615942031,1.5711416999999999,0.015238155320551559,0.0,58,46,1201.601293167997,3227.066,mp-540672,Ti7Br16,https://materialsproject.org/materials/mp-540672,5.915807856649245,56.51949232106775,-4.63627647672254,24.871861930067304
-2.8810974309090907,-63.38414348,3.9870636699506794,-1.5438862328526646,0.0,0.0,3.6886,167,22,1063.142846912459,2552.67604,mp-23347,Rb4YbI6,https://materialsproject.org/materials/mp-23347,1.4717346373100233,-11.08539036121083,0.3431389598076846,-1.22383813292026
-7.111281958571429,-99.55794742,3.940982388147365,-3.3830338107142857,0.0,0.0,4.6957,164,14,179.4764626401876,425.9542,mp-1214419,BaCa2Mg(SiO4)2,https://materialsproject.org/materials/mp-1214419,-7.9842026020018695,11.89157096329855,-0.971195416942126,63.9270819066715
-5.572244705,-122.58938351,9.770468263204842,-0.6814793022727279,0.0,0.0,0.14040000000000052,15,22,447.82628928374766,2634.9712,mp-14500,Sr(As3Pt2)2,https://materialsproject.org/materials/mp-14500,1.585603287996074,17.267880234806864,3.754357830641041,26.96342599152034
-3.991579532,-39.91579532,4.2671993457717905,-2.688622275614,0.0,0.0,3.513,161,10,149.7380404249534,384.79195776,mp-4360,NaCdF3,https://materialsproject.org/materials/mp-4360,-7.686939523373969,-27.45884444444273,-8.451076688564148,-17.922540633596032
-4.920146433999999,-24.60073217,6.797142122864932,-0.6369897420000001,6.9835852,0.632598543959365,0.0,164,5,128.65529812334998,526.6292,mp-1070314,Eu(CdAs)2,https://materialsproject.org/materials/mp-1070314,-1.0515432407704224,-6.7228207103172535,2.3435210984730803,-18.295152614324348
-8.737776670833332,-104.85332005,5.251384428974762,-2.764261910356666,0.0,0.0,2.0731,14,12,157.12982247468997,496.91641280000005,mp-1207386,ZrNF,https://materialsproject.org/materials/mp-1207386,-0.6266367133308386,10.394810017625424,21.24048432208014,35.39377351770574
-8.998961626470589,-305.9646953,6.352242661143117,-3.76837024129902,1.35e-06,3.4613355695375686e-08,2.649800000000001,26,34,454.53516791085053,1738.78338,mp-1211741,La3TaTi2O11,https://materialsproject.org/materials/mp-1211741,11.992722518409364,32.97668477566761,29.16954085282811,36.54761556823324
-6.132429710882352,-417.00522034,4.302545311022992,-2.1289025673866417,1.95e-06,1.387051388442732e-08,1.9807,146,68,1638.3982955386862,4245.17746,mp-1224434,La9In(SiS7)3,https://materialsproject.org/materials/mp-1224434,10.591559163635884,-2.9477192663704392,12.376156339995287,5.302268979089513
-6.941295193999999,-138.82590388,9.122280891643154,-0.8407188399999995,0.0,0.0,0.0,14,20,420.8064451707176,2311.728,mp-14561,Ba(SiIr)2,https://materialsproject.org/materials/mp-14561,-1.9674766397378936,33.07947768358575,1.2230489082493603,51.73512184339506
-8.504889035625,-272.15644914,5.518922534884688,-3.664420876718751,0.0,0.0,1.9490000000000005,63,32,434.915871613794,1445.4746,mp-557074,BaPr2Ti3O10,https://materialsproject.org/materials/mp-557074,-4.8633006554156015,17.00920890601291,9.868636976276939,58.91327963693964
-8.793424703913043,-404.49753638,8.168970466702774,-3.015238968677536,0.0,0.0,2.5844000000000005,127,46,621.0937702995943,3055.4516,mp-1213131,ErTa5Ag2O15,https://materialsproject.org/materials/mp-1213131,9.337787645308028,32.61067533724957,31.198764379030276,36.43521287502881
-8.815713285,-282.10282512,3.816067757035007,-3.409430795260416,5.999999900000001,0.18452800033268152,0.0,8,32,378.9364613711009,870.8299999999998,mp-1222072,MgTi11O20,https://materialsproject.org/materials/mp-1222072,17.682127517493527,3.1623736407524965,63.513911211712646,33.29369428326429
-9.050946191111109,-81.45851572,8.009329016859178,-4.091274915833333,2.9299999999999997e-05,2.707685516417094e-06,1.8683,164,9,126.10921606872444,608.2664599999999,mp-1226762,Ce2ThO6,https://materialsproject.org/materials/mp-1226762,30.63449973161689,63.27741401002375,-10.174182273592383,34.651205195888124
-7.278927613333334,-87.34713136,4.992202672016179,-2.8655786062500006,0.0,0.0,3.8416,141,12,184.8237105421033,555.6493399999998,mp-772261,LaAsO4,https://materialsproject.org/materials/mp-772261,-14.70300209120653,1.0144440567839388,27.150629004948158,-0.22266248333678307
-5.9199016955172405,-171.67714917,4.389042797535054,-1.3960228348599135,25.2565322,0.44413283995658265,0.0,87,29,662.7324883649983,1751.6970000000001,mp-27489,Ba6Fe8S15,https://materialsproject.org/materials/mp-27489,0.2259626501411817,36.01678088201102,9.487644163697764,33.11516219444686
-7.890789741785714,-220.94211277,6.57683274961841,-3.5052324725,1.916650375,0.04592833509110054,0.0,62,28,486.3395891075744,1926.2264,mp-778873,BaCe2O4,https://materialsproject.org/materials/mp-778873,0.024392336690346097,22.79883906378165,0.6139543717088803,46.09555413156805
-2.5921020122222216,-46.65783622,5.181752617007144,-0.630946217777778,0.0,0.0,2.1668000000000003,128,18,651.0383927742411,2031.5812,mp-31076,Tl2TeBr6,https://materialsproject.org/materials/mp-31076,6.2385983953559085,20.8270213184122,27.80495997216497,-3.1562020110637072
-3.463691425,-62.34644565,5.993212129091022,-1.9327443752377775,1e-07,3.5640045528470257e-09,0.0,141,18,326.9935433513995,1180.1840384000002,mp-675640,Hg2AsF6,https://materialsproject.org/materials/mp-675640,6.338144013979727,17.445987356061632,29.75908979462524,-0.253250067168623
-6.8828822416666675,-41.29729345,5.504823972744439,-3.4615663673366672,2.2e-06,2.2092739769989423e-07,4.698500000000001,129,6,116.05143937131342,384.7201,mp-27984,PrClO,https://materialsproject.org/materials/mp-27984,-7.172667491092897,10.300926668327943,-3.4721388739779075,24.150859918122315
-6.4550409875,-51.640327899999996,7.442508439175112,-1.685786061562499,0.0,0.0,1.0747,44,8,113.7818801740045,509.9685,mp-30200,Bi2CO5,https://materialsproject.org/materials/mp-30200,0.15420556799122592,10.404166667087397,6.919710352672711,25.11840804045993
-7.55790269,-166.27385918,6.745847791293451,-2.640635064280303,5.000000599999999,0.21554372313340686,1.2812,166,22,270.3411169119128,1098.2458,mp-1217235,Ti4FeBi3O14,https://materialsproject.org/materials/mp-1217235,4.049591485592022,60.7173312494686,-28.722738671918936,69.23643723791766
-3.6229182066666663,-10.86875462,1.7700692511347011,-0.9420659657275005,3.98e-05,8.819167381582737e-06,3.1472,160,3,52.593601853674535,56.06270928,mp-36582,NaHS,https://materialsproject.org/materials/mp-36582,-49.33727562970465,3.5555598423864,-58.960476898996106,9.120527306525616
-7.597536029270834,-729.36345881,5.309011419614183,-3.3192521929427086,0.0014235166666666664,1.1772432911877126e-05,3.8454,185,96,1409.2036507945875,4505.4516,mp-1214848,Ba3Dy(BO3)3,https://materialsproject.org/materials/mp-1214848,4.62892815130229,-23.528014864276802,19.804576181775342,-18.430921598203593
-4.65739137375,-149.03652396,4.1758460928765215,-1.2492062200390637,0.0,0.0,1.5339999999999998,56,32,851.092617351549,2140.288,mp-1202711,BaSn2S5,https://materialsproject.org/materials/mp-1202711,6.298060182718452,4.870093189922604,28.63042857559245,11.508248832002414