energy_per_atom,energy,density,formation_energy_per_atom,total_magnetization_uB,total_magnetization_T,band_gap,sgr,num_sites,cell_volume,weight,mp_id,formula,URL,tsne_cry_lin1_0,tsne_cry_lin1_1,tsne_cry_lin2_0,tsne_cry_lin2_1
-4.657948151666667,-55.89537782,6.5601085009907925,-0.6326364548697914,3e-07,1.2374002285954688e-08,0.2754000000000003,12,12,282.545562136864,1116.2216,mp-1095303,FeBi4S7,https://materialsproject.org/materials/mp-1095303,19.201341045572466,5.798299734939058,3.732198302630696,-5.6846816438049474
-5.153058584107144,-288.57128071,6.281234288617271,-0.42216961427,0.0,0.0,0.8759000000000001,18,56,1782.6454955988772,6743.119999999999,mp-29499,Re3Te8Cl3,https://materialsproject.org/materials/mp-29499,51.0992927941542,22.216000759815422,3.513818355410397,-5.23346535043121
-6.310718686666667,-37.86431212,8.744718131465786,0.09066070333333323,7.9450688,0.8030803754278006,0.0,160,6,115.29648743853217,607.17349,mp-1221833,Mn2NiSb2Pt,https://materialsproject.org/materials/mp-1221833,48.32702019592988,42.273386241415,-8.604250342815693,-0.5045126942092143
-5.942685876428572,-499.18561362,7.308744455523901,-0.14271586857142893,3.5e-07,1.4806709562773383e-09,0.6052999999999997,61,84,2754.779955062403,12124.968,mp-583070,Re2Te5,https://materialsproject.org/materials/mp-583070,51.07788560686805,22.30551313073943,-1.9997121010142482,-2.379963116895604
-5.682937034285715,-39.78055924,6.474084936124991,-0.22275760214285714,8e-07,5.018561781328286e-08,0.0,1,7,185.77537199472567,724.2982599999999,mp-690578,Nb2SiTe4,https://materialsproject.org/materials/mp-690578,56.53467203977187,31.75824942179247,-8.604250342815693,-0.5045126942092143
-5.9082596658333335,-70.89911599,7.167043205248746,-1.5471892891796877,3.9333649,0.15532726115918125,0.0,8,12,295.1168325290672,1273.7520999999995,mp-1225648,Er4CrSe7,https://materialsproject.org/materials/mp-1225648,27.067610615576054,6.241266346015143,-8.604250342815693,-0.5045126942092143
-6.0580367045,-242.32146818,8.236115894193743,-0.3822607675,0.0,0.0,0.028899999999999263,62,40,948.3858735198813,4703.90384,mp-1208475,Ta2Ni3Te5,https://materialsproject.org/materials/mp-1208475,52.21590797522186,27.83816208476872,-8.604250342815693,-0.5045126942092143
-4.687496464285714,-32.81247525,9.366328652666374,-0.4137295310267857,1e-07,7.372884182472138e-09,0.0,166,7,158.06656505286466,891.5799999999998,mp-1078089,Pd3(PbSe)2,https://materialsproject.org/materials/mp-1078089,26.488501046015788,39.15859875528035,-8.604250342815693,-0.5045126942092143
-3.8801764983333333,-23.28105899,6.173576288022881,-0.20204541749999966,1.8000000000000001e-06,1.125620961017502e-07,0.0495000000000001,164,6,186.3621709002741,692.8599999999999,mp-1218976,Sn2GeTe3,https://materialsproject.org/materials/mp-1218976,67.44599914537855,25.29694348321212,3.982176480865237,-5.8962344071416615
-5.46133475625,-43.69067805,7.683804918932075,-0.6159664562499998,3.4e-06,1.6333012098271456e-07,0.0,11,8,242.5995890304667,1122.58,mp-1025459,HfTe3,https://materialsproject.org/materials/mp-1025459,56.82568631308878,28.542225633018422,-8.604250342815693,-0.5045126942092143
-6.994642932142857,-97.92500105,6.539217854976562,-0.5733996627678579,0.0,0.0,0.34719999999999995,2,14,309.1866900847343,1217.58,mp-1221499,Mo2RuSe4,https://materialsproject.org/materials/mp-1221499,62.19929586858322,32.22812097652061,3.7620210187736887,-5.054793928528946
-5.46539385671875,-349.78520683,5.8730939010499466,-0.5304298819140625,0.000401175,2.556154667485338e-06,0.17980000000000018,128,64,1829.0440303172504,6469.07244,mp-1208533,Ta3Se12I,https://materialsproject.org/materials/mp-1208533,51.43132929907086,24.414366495811876,2.8189617347756504,-4.9172082991731925
-5.853427249,-58.53427249,2.9157474262557237,-0.8769761898660718,2.4897656,0.14302691194600306,0.0,12,10,202.87013944512285,356.2205239999999,mp-1078971,VPS3,https://materialsproject.org/materials/mp-1078971,22.74294670029744,-0.5600567915211375,-6.052993881572932,-2.4121238771469917
-4.211469908181818,-92.65233798,4.147776085279518,-0.9012550607063636,0.0,0.0,0.6238,28,22,634.7188655165468,1585.4319999999998,mp-1014204,Sn5(S2Cl)2,https://materialsproject.org/materials/mp-1014204,71.1016899513407,23.282479412529387,5.772557715854428,-6.895150583203878
-3.784469706,-37.84469706,5.8218128310916075,-0.22290639250000052,0.00030419999999999997,1.2623410101071331e-05,0.8268000000000004,160,10,280.8406346167733,984.621,mp-1222357,LiGe3SbTe5,https://materialsproject.org/materials/mp-1222357,67.73843149554823,26.111578466325874,4.758038397606025,-6.511493921177774
-5.936537116111111,-106.85766809,6.173961037082237,-0.5226973597743054,8.999999800000001,0.25820168768076485,0.0,12,18,406.21957805288963,1510.3431999999998,mp-1190043,TlCr3Se5,https://materialsproject.org/materials/mp-1190043,23.852705344888463,16.96880670009013,-8.604250342815693,-0.5045126942092143
-6.186087685,-123.72175370000001,6.353507588334982,-1.2083109751562495,2.98371035,0.07739066323098365,0.0,62,20,449.30941575825005,1719.135,mp-861512,PrCrSe3,https://materialsproject.org/materials/mp-861512,26.4062892678315,6.375313407832562,-8.604250342815693,-0.5045126942092143
-5.922015490833334,-71.06418589,7.078007910777964,-1.5573949175130213,3.9297652999999997,0.15438626761978252,0.0,8,12,296.64386640880946,1264.4373799999996,mp-1224093,Ho4CrSe7,https://materialsproject.org/materials/mp-1224093,27.06794594511821,6.239342674887395,-4.8821095327724064,-1.4864772541778761
-5.4590535005,-109.18107001,4.101972430268386,-1.1934839146874991,0.0,0.0,0.4710999999999999,6,20,454.17424357587527,1121.931,mp-1217186,Ti3Sn5S12,https://materialsproject.org/materials/mp-1217186,18.423967246023768,4.694058082890235,3.697729994571781,-5.16391328337628
-4.8483823575,-19.39352943,5.4164830693133625,-0.825899791666667,0.982816,0.1205160929775872,0.0,164,4,95.03960044272371,310.008,mp-10189,LiTiTe2,https://materialsproject.org/materials/mp-10189,55.59949082525122,32.43676000114859,-8.604250342815693,-0.5045126942092143
-5.786679463333333,-69.44015356,7.011781005578692,-1.5110042675130206,4.0000158,0.1564021566568774,0.0,8,12,298.0549899112426,1258.565,mp-1225442,Dy4FeSe7,https://materialsproject.org/materials/mp-1225442,27.052081639652172,6.275616553851387,-8.604250342815693,-0.5045126942092143
-5.359151314545454,-117.90132892,5.9725633643523155,-0.5276996044318181,1e-07,1.870487926117457e-09,0.019699999999999832,97,22,623.0494519550231,2240.96046,mp-30531,Ta2Se8I,https://materialsproject.org/materials/mp-30531,51.412759059336366,24.46881878415152,-6.150479305494683,-3.800462673132844
-2.660708368333333,-63.85700084,5.055947498083062,-0.05941186833333341,0.0,0.0,0.6558000000000002,62,24,1003.9651559421077,3056.83576,mp-27655,Te2I,https://materialsproject.org/materials/mp-27655,66.03581192363356,18.967399744166386,6.51417033720904,-7.149247710473023
-5.989054504285713,-41.92338153,5.713042290832013,-0.2259974034821428,5.0,0.4187386302718602,0.0,2,7,139.15679053773295,478.765395,mp-676073,Cr2CoSe4,https://materialsproject.org/materials/mp-676073,23.571136135839943,16.816210890253785,-8.604250342815693,-0.5045126942092143
-6.25247063,-12.50494126,6.949193405540298,0.33185272249999986,3.1558346,0.8863537185845163,0.0,225,2,41.49393190183598,173.648045,mp-1018145,MnSn,https://materialsproject.org/materials/mp-1018145,48.21791091449214,40.65394557093828,-8.604250342815693,-0.5045126942092143
-5.929005745714287,-41.50304022,6.417216977147398,-0.5799885219047626,2.5960925,0.17794260704125076,0.0,8,7,170.02690167140625,657.0754999999998,mp-1217132,Ti2VTe4,https://materialsproject.org/materials/mp-1217132,54.61048559451206,32.64573370469697,-8.604250342815693,-0.5045126942092143
-4.273697337058824,-145.30570946,5.866164340277188,-0.15829191367647116,0.0,0.0,0.8407,2,34,1324.8569292236314,4680.30458,mp-28464,Re3(TeI)7,https://materialsproject.org/materials/mp-28464,51.61206276137529,8.926308705019784,7.1059282832989155,-6.0308813239582015
-4.206464277857143,-58.89049989,4.8352489158946605,-0.6014109938392858,5.0,0.16458589551764807,0.9857000000000002,5,14,354.0420257734072,1030.9190449999999,mp-1221569,MnZn(GaSe2)4,https://materialsproject.org/materials/mp-1221569,39.50297780431102,2.079859059749332,6.31175424357486,-5.862437702858732
-6.4102193220000006,-32.05109661,5.513173036548313,-0.912443459095239,1.9e-06,1.9249749230961388e-07,0.0,166,5,115.02863129379864,381.907762,mp-12527,Ti2Te2P,https://materialsproject.org/materials/mp-12527,56.103817354738275,32.650531154636475,-8.604250342815693,-0.5045126942092143
-6.143887393571428,-86.01442351,5.368959820321139,-0.6442513474969209,15.000052900000002,0.5516598311008128,0.022699999999999942,12,14,316.88293805911707,1024.5659518999998,mp-505149,CsCr5Se8,https://materialsproject.org/materials/mp-505149,23.966218780059858,17.1193370841712,-8.604250342815693,-0.5045126942092143
-5.864895288333333,-35.18937173,7.883744882755664,-0.11988901000000025,0.0,0.0,0.0,31,6,106.37844937262665,505.05320000000006,mp-988996,FeSbAs,https://materialsproject.org/materials/mp-988996,43.77358071328125,23.641038611309444,-8.604250342815693,-0.5045126942092143
-3.670051279166667,-88.0812307,4.8085387842547425,-0.2283199705000006,0.0,0.0,0.2906000000000004,62,24,823.0782742691371,2383.4452,mp-29374,KGaSb4,https://materialsproject.org/materials/mp-29374,37.62391001363849,22.09709915710952,3.1266485181245995,-5.106611333281908
-4.453486741470589,-151.41854921,5.781642358657058,-0.2928055075000002,0.00019930000000000002,2.0105395294885557e-06,1.1555,148,34,1155.2397130744243,4022.298,mp-623087,Re3(TeBr)7,https://materialsproject.org/materials/mp-623087,51.60774074548871,8.922336653342516,7.228622897482837,-6.086930990940667
-6.545317897142858,-45.81722528,5.508969013776476,-1.1668350820535724,0.26564920000000003,0.02235514187764736,0.0,12,7,138.48684121634724,459.441,mp-1077978,Ti3Se4,https://materialsproject.org/materials/mp-1077978,22.981571253324343,15.53468256994956,-8.604250342815693,-0.5045126942092143
-6.076649030714287,-170.14617286,3.388680666675276,-1.4509163008928578,5.0013363,0.09982702769253037,0.28559999999999963,62,28,583.868903410367,1191.507828,mp-1219318,ScMnGaS4,https://materialsproject.org/materials/mp-1219318,26.251473713193906,0.6393941501345207,4.2888100922557735,-5.634328866156558
-3.663703585,-36.63703585,6.554611714870247,-0.15022614749999974,0.0009042999999999999,3.1047617984565054e-05,0.10269999999999957,160,10,339.43894758898915,1339.8604,mp-1227403,Bi(SbTe2)3,https://materialsproject.org/materials/mp-1227403,67.11933727046176,25.632804864449913,3.6424085516597415,-5.593277560581801
-3.778857322222223,-34.009715899999996,6.0138059474477625,-0.08860615555555601,2.52e-05,1.0358394045290156e-06,0.04400000000000048,164,9,283.5212012445485,1026.8,mp-3534,Ge2Sb2Te5,https://materialsproject.org/materials/mp-3534,67.47051117409016,26.009803024225224,2.9229076462121,-4.965277024218215
-4.22063637375,-33.76509099,5.4880879993793865,-0.3178507555468748,1.685e-05,9.290905202539988e-07,0.8656000000000001,26,8,211.35829839695927,698.54,mp-1218835,SnGeSe2,https://materialsproject.org/materials/mp-1218835,69.78577660091375,17.569575542662673,6.431904322486672,-6.118471652383492
-6.230988754545454,-137.0817526,6.289101389287474,-0.13662420181818194,18.00000015,0.38733763059796056,0.0,2,22,541.5770405017,2051.161,mp-1226086,Cr5Te6,https://materialsproject.org/materials/mp-1226086,53.97320911042381,33.92029687627071,-8.604250342815693,-0.5045126942092143
-5.10522622,-35.73658354,5.614733146560661,-0.7806708090476191,0.9848778,0.06330327788180838,0.0,12,7,181.31493436542092,613.0749999999998,mp-1222726,Li(TiTe2)2,https://materialsproject.org/materials/mp-1222726,55.07046494922188,33.06309740207498,-8.604250342815693,-0.5045126942092143
-3.279990755,-45.91987057,3.7357762365314464,-0.9129717879556652,3.99999995,0.071401512763868,0.0,11,14,652.8749420435977,1468.79696,mp-581600,Rb2FeI4,https://materialsproject.org/materials/mp-581600,21.786623074043412,-0.3004251882573332,2.883779794969395,-4.906813966431278
-4.8265793225,-19.30631729,7.254864198757697,-0.25445849999999925,3.0384455000000004,0.3024099157239597,0.0,164,4,117.09351718881815,511.5794,mp-4638,TlCrTe2,https://materialsproject.org/materials/mp-4638,54.79751534683054,27.828167687913087,-8.604250342815693,-0.5045126942092143
-3.2907272564285712,-46.07018159,3.5081259443309665,-0.8969077601428569,3.9999998999999997,0.07674125254170111,0.0,11,14,607.4471862379504,1283.31896,mp-1211993,K2FeI4,https://materialsproject.org/materials/mp-1211993,21.794952444709693,-0.30770734164982105,3.9375259864445966,-5.2774339586266015
-5.607164227857144,-78.50029919,4.03117499245754,-1.5746775541964289,0.0,0.0,1.0918,227,14,354.3017343611042,860.113648,mp-1001019,Mg(ScSe2)2,https://materialsproject.org/materials/mp-1001019,50.76158455937329,8.114834255617629,7.1677104764564685,-6.165797300285053
-5.5756585350000005,-55.75658535,8.70111547461889,-0.7137781310000001,0.8427124,0.04358368668346318,0.0,129,10,225.3371763973697,1180.752,mp-1080026,Ce(SnPd)2,https://materialsproject.org/materials/mp-1080026,2.9045451012816392,48.397309926723445,-8.604250342815693,-0.5045126942092143
-4.8940925433333335,-73.41138815,8.354733914625884,-0.3768020997291662,0.002264,8.398429770517326e-05,0.0,164,15,314.16352063452325,1580.6629999999998,mp-1219761,Pt3(RhSe5)2,https://materialsproject.org/materials/mp-1219761,50.324196195944864,24.460701266001077,-7.139963592590338,-3.2197435612638485
-3.2771182335714286,-45.87965527,3.6763486513344303,-0.9100992665270938,3.9999998,0.070265676713221,0.0,4,14,663.4285605713753,1468.79696,mp-568928,Rb2FeI4,https://materialsproject.org/materials/mp-568928,21.789570805162423,-0.2941080486241809,2.84331300771218,-4.894137636967996
-6.99148218142857,-48.94037527,6.598681897838023,-0.8109848491964279,2.1096470000000003,0.17680272438173086,0.0,12,7,139.05873267061898,552.59426,mp-1025195,Nb2VSe4,https://materialsproject.org/materials/mp-1025195,48.94299110870737,24.127919330428337,-8.604250342815693,-0.5045126942092143
-6.103914326428572,-85.45480057,4.9467876166585985,-1.2102024421488105,0.9344100000000001,0.035644589584065016,0.0,12,14,305.5070851200305,910.1133,mp-976257,KTi5Se8,https://materialsproject.org/materials/mp-976257,23.060530017207064,15.764336976395581,-8.604250342815693,-0.5045126942092143
-3.2894878165000003,-65.78975633,4.874467226704828,-0.4640192341000002,9.75e-06,1.7530991878137285e-07,0.5440999999999998,62,20,648.150043775676,1902.62684,mp-1247740,KFeI3,https://materialsproject.org/materials/mp-1247740,20.66641309942159,0.3762179516633939,-8.604250342815693,-0.5045126942092143
-5.341050683333333,-32.0463041,7.756288206179593,-0.5970241158333339,2.295e-05,1.701640348408131e-06,0.0,164,6,157.1782114713324,734.1709400000002,mp-1222781,LaSbPd,https://materialsproject.org/materials/mp-1222781,5.286355123689483,35.72867079658045,-8.604250342815693,-0.5045126942092143
-5.630965673333333,-67.57158808,8.11284335322625,-0.9262553641666664,4.03e-05,1.5758061129979911e-06,0.0,62,12,298.04352607861364,1456.14188,mp-1095476,LaSnPd,https://materialsproject.org/materials/mp-1095476,3.5056882327165013,48.5557751751539,-8.604250342815693,-0.5045126942092143
-3.7289407825,-14.91576313,6.875938563292102,0.0637110837499999,0.0006676,6.659990816383826e-05,0.0,139,4,116.82078634434654,483.73,mp-1187080,Sn3Te,https://materialsproject.org/materials/mp-1187080,57.26006114393049,32.251068467313026,-8.604250342815693,-0.5045126942092143
-4.613427876,-92.26855752,2.614771471879654,-1.807200573556,5.000004,0.1144681875581379,1.9607,62,20,509.05296678574797,801.5813800000002,mp-567530,KMnCl3,https://materialsproject.org/materials/mp-567530,17.60516263501461,-7.329723448356685,4.487463941439913,-4.642840219459981
-3.794757460000001,-34.15281714,6.243624630065899,-0.10450629333333378,0.0,0.0,0.2591999999999999,164,9,273.0852008721741,1026.8,mp-1224375,Ge2Sb2Te5,https://materialsproject.org/materials/mp-1224375,67.64771713379507,26.11088219890597,3.98145867936216,-5.925655393239138
-4.232186559444445,-76.17935807,4.8733997250276175,-0.7085096550416673,0.0,0.0,0.7909000000000002,70,18,486.0905807978029,1426.5931999999998,mp-14339,K2Pd3Se4,https://materialsproject.org/materials/mp-14339,65.20036715994593,16.094045929642604,6.268537629179942,-5.880540660028571
-6.94998032642857,-97.29972457,6.6102016134513,-0.5287370570535715,0.0,0.0,0.4552000000000005,1,14,305.86648374066186,1217.58,mp-1221491,Mo2RuSe4,https://materialsproject.org/materials/mp-1221491,62.18577524322385,32.216863229986664,3.841492803007826,-5.079678102596034
-4.4809682330000005,-89.61936466,4.356625859512862,-0.7985581334375006,0.0,0.0,0.7763,62,20,508.6328270489066,1334.46,mp-1509,Sn2S3,https://materialsproject.org/materials/mp-1509,70.68060004815105,17.67280479060167,6.604969371830263,-6.73826797139819
-4.818099793333333,-57.81719752,11.395372726463535,-0.3365753778645833,0.001089525,4.509880255501724e-05,0.0,198,12,281.5461653518008,1932.0976,mp-1103607,BiPtSe,https://materialsproject.org/materials/mp-1103607,50.02629833146437,29.077634324435486,2.681360127920604,-4.865176770354472
-5.1547978275,-61.85757393,10.134084829907422,-0.3589318325000003,9.75e-07,3.944687015531213e-08,0.15730000000000022,198,12,288.05106992032256,1757.9436,mp-1227426,BiTeRh,https://materialsproject.org/materials/mp-1227426,50.183185587236174,21.059281318272003,4.035746883871265,-5.750305536048371
-5.39037038357143,-75.46518537,4.614001850491712,-1.405242014910714,0.0014276,4.905841044239351e-05,0.13960000000000014,227,14,339.1333457255509,942.3216480000001,mp-1001016,Sc2ZnSe4,https://materialsproject.org/materials/mp-1001016,50.72557021885717,8.279755431714403,4.836054768892691,-5.753810164519683
-6.560950471428571,-45.9266533,5.68283308710931,-1.013599372529762,1.8421042,0.15884777595523408,0.0,8,7,135.14826717280758,462.5155,mp-1217146,Ti2VSe4,https://materialsproject.org/materials/mp-1217146,22.96093872549505,15.61473566491167,-8.604250342815693,-0.5045126942092143
-3.0041084016666666,-108.14790246,4.008637412094616,-1.0717238792911878,2.9999999,0.019319476869578498,0.7504000000000001,62,36,1809.6863278594246,4368.687602800001,mp-569323,Cs3CoI5,https://materialsproject.org/materials/mp-569323,21.094205158883867,-1.849434412955249,7.064981902588153,-4.718049038802383
-7.35636705,-147.127341,8.661930478570946,-1.2809762791562498,0.010249625,0.00026230522508136213,0.0,9,20,455.3847282584482,2375.44,mp-1224485,Hf2Se3,https://materialsproject.org/materials/mp-1224485,43.82251629498943,27.23394482524697,-8.604250342815693,-0.5045126942092143
-4.4582417921875,-142.66373735,3.879873992360837,-0.7898276678593747,4.9934644,0.059879860161243824,0.2896000000000001,118,32,971.8485881624696,2270.73858,mp-628305,K2MnSnSe4,https://materialsproject.org/materials/mp-628305,25.021189365897932,0.8702135861359297,4.114117211975616,-5.426093603442892
-2.574018242222222,-23.16616418,4.794673454018907,-0.7869874091570878,4e-07,1.1873135155286583e-08,0.5993000000000002,139,9,392.619628097829,1133.6577238,mp-29806,Cs2PdI6,https://materialsproject.org/materials/mp-29806,9.228931695580274,-5.850801943349394,6.3210791427706345,-5.974762723488963
-4.388072896666666,-26.32843738,7.3434311280219555,-0.14140856166666654,2.9234292999999996,0.19841327037792011,0.0,10,6,171.71147048433616,759.3626689999999,mp-12743,CrTe4Au,https://materialsproject.org/materials/mp-12743,54.102307014073496,33.238532015881425,-8.604250342815693,-0.5045126942092143
-3.4682814775,-13.87312591,0.774925994034715,1.9312075500000003,3.0,0.0474482920376732,0.1882999999999999,71,4,736.8483209030928,343.866,mp-1093790,Ga2TcPd,https://materialsproject.org/materials/mp-1093790,15.739059027686766,-12.061516079771273,6.40236068728438,-4.59513536603768