energy_per_atom,energy,density,formation_energy_per_atom,total_magnetization_uB,total_magnetization_T,band_gap,sgr,num_sites,cell_volume,weight,mp_id,formula,URL,tsne_xrd_lin1_0,tsne_xrd_lin1_1,tsne_xrd_lin2_0,tsne_xrd_lin2_1
-6.9068739316666665,-82.88248718,4.039087653919618,-2.429622085208333,7.999999799999999,0.8345014281953781,1.8717,12,12,111.72241616324287,271.7531,mp-754615,Li3VCr2O6,https://materialsproject.org/materials/mp-754615,1.8345844432573652,-67.46532504244884,-11.944953342728107,-65.73772664107146
-5.7730598428125,-184.73791497,4.194910825242101,-1.837710879434999,22.0000017,0.8958485750238722,0.3527,3,32,286.19730159351,723.001465,mp-1176260,Li9Mn2Co5O16,https://materialsproject.org/materials/mp-1176260,16.523668549048804,-74.78855700496277,-10.56443678226069,-80.50359383547952
-5.797961018214287,-162.34290851,4.131897728616388,-1.857447823372144,9.5801119,0.4444052737780903,0.0,8,28,251.22844214202541,625.12847,mp-1174372,Li4MnCo2O7,https://materialsproject.org/materials/mp-1174372,16.794455221940286,-71.6101994123852,-12.578033978243644,-78.17146255135329
-5.801922615714285,-162.45383324,4.149977323532377,-1.8614094208721423,7.9999999000000015,0.37273035586458897,0.21850000000000014,1,28,250.13395219396068,625.12847,mp-1174676,Li4MnCo2O7,https://materialsproject.org/materials/mp-1174676,18.91944566358153,-83.54462750881163,-11.562672994479401,-88.84304904646879
-4.79445520625,-191.77820825,4.637969460465007,-1.1421111053125004,7.0000000999999985,0.21779056122774565,0.0,2,40,374.57295721836607,1046.2012,mp-768079,Li7(NiO2)11,https://materialsproject.org/materials/mp-768079,24.841731831459924,-72.99564897751084,-4.237873592878573,-71.15283481540996
-7.615690556666666,-91.38828668,3.740696662626998,-2.332345315833332,0.0,0.0,0.3775,141,12,147.2726805306803,331.7612,mp-714960,VO2,https://materialsproject.org/materials/mp-714960,12.761999578372825,-70.24284494254324,-7.604393397792988,-66.73923072808637
-5.835852918571428,-163.40388172,4.206185881405985,-1.8953397237292864,7.99999985,0.3777787270596514,0.6669999999999998,1,28,246.79133512365917,625.12847,mp-1174583,Li4MnCo2O7,https://materialsproject.org/materials/mp-1174583,21.899115296890997,-75.25116150778945,-11.492819927199942,-79.72088130247805
-5.79805050375,-185.53761612,4.241321127133838,-1.8627015403724991,21.9999874,0.9057591869105897,0.22109999999999985,2,32,283.0656115447229,723.001465,mp-1175732,Li9Mn2Co5O16,https://materialsproject.org/materials/mp-1175732,21.91336939289941,-75.31499441909537,-10.886277345568793,-80.61524147171653
-5.7729903171875,-184.73569015,4.170268359915272,-1.83764135381,23.9999998,0.9715483104992596,0.05689999999999972,1,32,287.88846544016786,723.001465,mp-1175958,Li9Mn2Co5O16,https://materialsproject.org/materials/mp-1175958,12.942447979296295,-78.06845268340642,-13.421092305871039,-85.5018382660861
-5.7891101109375,-185.25152355,4.2365621141723615,-1.8537611475599995,16.0000002,0.6579952007666435,0.11799999999999987,1,32,283.38358467434693,723.001465,mp-1175960,Li9Mn2Co5O16,https://materialsproject.org/materials/mp-1175960,19.511678748324453,-79.9571086142314,-11.025740545568373,-87.12291306076055
-5.838329313214286,-163.47322077,4.209072255485025,-1.8978161183721431,9.0000001,0.4252927254004359,0.7890000000000001,1,28,246.62209780260727,625.12847,mp-1174585,Li4MnCo2O7,https://materialsproject.org/materials/mp-1174585,22.01390296066807,-75.02575099515329,-9.320687215617538,-76.64664642781247
-6.192158786666668,-55.72942908,4.362215166601152,-1.3639161547222218,4.0000222,0.4606240769268737,0.3607,12,9,101.20295517656434,265.85889,mp-752462,Cr(CoO3)2,https://materialsproject.org/materials/mp-752462,24.619800891436785,-71.0727940336987,-5.5089605424373405,-71.67964171470808
-6.825577210666666,-102.38365816,3.852883626110828,-2.332526945858667,12.000001,0.949571922646511,0.9324000000000005,10,15,147.275615031892,341.7178350000001,mp-761765,Li3Mn3SiO8,https://materialsproject.org/materials/mp-761765,5.256831263311782,-77.62027294586943,-27.715368795527073,-77.40148966750169
-5.760846833125,-184.34709866,4.12756641483071,-1.8254978697474995,22.0000002,0.8814667088220951,0.1008,1,32,290.86682997902403,723.001465,mp-1176090,Li9Mn2Co5O16,https://materialsproject.org/materials/mp-1176090,12.9486187960076,-83.87397554865117,-17.377922360993725,-87.52547626053314
-5.78407453642857,-161.95408702,4.087754477943603,-1.8435613415864296,9.0000001,0.4130345447092211,0.019000000000000128,2,28,253.9414328946372,625.12847,mp-1174481,Li4MnCo2O7,https://materialsproject.org/materials/mp-1174481,18.36915977427216,-83.83480578329538,-17.178305420186547,-88.16208340164486
-5.7790136721875,-184.92843751,4.184710140420851,-1.84366470881,19.9999998,0.8124273446360656,0.2711000000000001,3,32,286.89493855575705,723.001465,mp-1176315,Li9Mn2Co5O16,https://materialsproject.org/materials/mp-1176315,18.195849328612567,-77.03926198931721,-14.157115368797626,-81.46285935840284
-6.601355575833334,-316.86506764,4.171360633784902,-1.4778128094066671,13.999999925,0.2913058688362793,0.2127000000000001,212,48,560.0879467123913,1406.9701200000004,mp-758012,Mn3CoO8,https://materialsproject.org/materials/mp-758012,21.945058510229586,-68.57363737449033,-8.118135513958467,-71.35674185979978
-5.7615405578125,-184.36929785,4.107450290844349,-1.826191594435,22.0000005,0.8771708011489322,0.18089999999999984,1,32,292.29134221923783,723.001465,mp-1176248,Li9Mn2Co5O16,https://materialsproject.org/materials/mp-1176248,10.838552998844174,-81.95714036959335,-16.682913965394928,-87.20240811198308
-6.619051674285713,-92.66672344,4.2834714841284764,-1.954876067348572,10.0000004,0.8222216524112324,0.0,166,14,141.73872950859155,365.62453000000005,mp-774822,Li2Mn3CoO8,https://materialsproject.org/materials/mp-774822,19.703449737247965,-70.39005792667746,-9.403545049579362,-72.18873136639783
-6.4574331625,-77.48919795,4.333774966703897,-1.46903521774,9.0000007,0.7787687719586607,0.5468,166,12,134.68258472548288,351.5027350000001,mp-1176568,Mn3NiO8,https://materialsproject.org/materials/mp-1176568,24.683762289613924,-69.70497067153832,-7.60081645388597,-72.54156516184185
-5.799033330625,-185.56906658,4.2108138834660425,-1.8636843672474992,24.000001,0.9809942588303442,0.43000000000000016,2,32,285.1164149818629,723.001465,mp-1175494,Li9Mn2Co5O16,https://materialsproject.org/materials/mp-1175494,18.759285419296997,-78.63937892699052,-10.179519097228832,-84.50103378499236
-5.804452569375,-185.74248222,4.22866571817649,-1.8691036059974997,21.999999399999997,0.9030570421287564,0.5621999999999998,12,32,283.9127608146362,723.001465,mp-1175474,Li9Mn2Co5O16,https://materialsproject.org/materials/mp-1175474,18.978964472868558,-73.68288300177235,-9.431325852044344,-77.88068471754195
-5.776084424642857,-161.73036389,4.109245755957566,-1.8355712298007156,9.00000015,0.415206066924373,0.13090000000000002,2,28,252.61332397691424,625.12847,mp-1174465,Li4MnCo2O7,https://materialsproject.org/materials/mp-1174465,18.394269126335345,-83.78723425721047,-17.579900713287433,-87.97125744906592
-5.7831821353125,-185.06182833,4.2062463990065355,-1.8478331719349992,20.0,0.8166084417638823,0.4152,3,32,285.42601757549306,723.001465,mp-1176313,Li9Mn2Co5O16,https://materialsproject.org/materials/mp-1176313,17.509386199602346,-79.03936725469893,-11.103572298429489,-85.96368694778694
-5.7777515928125,-184.88805097,4.204496206755998,-1.8424026294349989,21.9999999,0.8978955177485984,0.14829999999999988,2,32,285.54483095514587,723.001465,mp-1175550,Li9Mn2Co5O16,https://materialsproject.org/materials/mp-1175550,19.44347926953064,-80.0464592161277,-11.826491117405622,-87.30346127498983
-5.831443770714286,-163.28042558,4.152253567974122,-1.890930575872144,10.000000199999999,0.4661685111971179,0.8007,2,28,249.9968300242636,625.12847,mp-1174394,Li4MnCo2O7,https://materialsproject.org/materials/mp-1174394,15.802497780646155,-75.45075864148922,-10.14263824616148,-81.17611682589934
-5.778597411875,-184.91511718,4.182512556006123,-1.8432484484975,20.0000002,0.8120007177847398,0.1870999999999996,1,32,287.0456794889144,723.001465,mp-1176243,Li9Mn2Co5O16,https://materialsproject.org/materials/mp-1176243,17.280647801850314,-79.4427826515086,-10.576171388014666,-86.20348765923254
-5.4403071635,-108.80614327,4.486331461998383,-1.6221947133750014,13.0,0.8368411466243363,0.0,12,20,181.04133939208256,489.12518,mp-1222861,Li5Co4NiO10,https://materialsproject.org/materials/mp-1222861,11.120552419233038,-79.53045281324043,-13.812977730208805,-84.77985491606368
-5.821770677500001,-139.72249626,4.109606986312697,-1.8743718407050012,13.6112737,0.74457130839392,0.0,12,24,213.0442894435516,527.2554749999998,mp-1174483,Li7Mn2(CoO4)3,https://materialsproject.org/materials/mp-1174483,18.718726139059225,-70.53032059043383,-12.56259450388926,-78.43434738966997
-5.5154882225,-176.49562312,4.333416613922348,-1.7202895571875,18.000000600000003,0.7488913532434959,0.0,2,32,280.111623655384,730.991765,mp-1175488,Li9Co7O16,https://materialsproject.org/materials/mp-1175488,21.76610881340439,-72.32198468734892,-8.36984677120718,-77.20314370184231
-5.7992208540625,-185.57506733,4.261299154957928,-1.8638718906849991,20.0,0.8272964854464618,0.3807999999999998,1,32,281.7385297187722,723.001465,mp-1175797,Li9Mn2Co5O16,https://materialsproject.org/materials/mp-1175797,21.595087854756756,-72.14116042423005,-8.42255994257274,-78.41573551722864
-5.767627885,-184.56409232,4.1695116092206375,-1.8322789216224988,23.9999997,0.9713720060809198,0.012399999999999968,1,32,287.9407161152152,723.001465,mp-1176133,Li9Mn2Co5O16,https://materialsproject.org/materials/mp-1176133,14.988491305812467,-79.62771093779067,-13.137891068621595,-86.48720203286615
-5.5222253115625,-176.71120997,4.312313890176823,-1.7270266462499997,22.0000001,0.9108542744126354,0.6141999999999999,12,32,281.4823768895991,730.991765,mp-1175379,Li9Co7O16,https://materialsproject.org/materials/mp-1175379,20.781988056412708,-71.76546713155845,-10.531299957065064,-76.64966249674556
-5.787965781875,-185.21490502,4.184704625198416,-1.8526168184974996,21.9999999,0.8936689061652289,0.36140000000000017,1,32,286.8953166683225,723.001465,mp-1176015,Li9Mn2Co5O16,https://materialsproject.org/materials/mp-1176015,17.46359696579331,-77.78860954141388,-13.060996668249487,-82.02403100694733
-5.788376445,-185.22804624,4.20678507713339,-1.8530274816224992,20.0000015,0.8167130829834509,0.3442000000000003,1,32,285.38946882159087,723.001465,mp-1175987,Li9Mn2Co5O16,https://materialsproject.org/materials/mp-1175987,16.23138356784787,-76.38823477765351,-12.736006812931244,-87.2109593485234
-6.339515004375,-101.43224007,4.150764334703046,-2.019864767055001,16.0000002,1.2281662209524415,0.39360000000000017,10,16,151.8239432991119,379.50653000000005,mp-1174170,Li4Mn3CoO8,https://materialsproject.org/materials/mp-1174170,5.4609137918495545,-74.89160303148333,-27.094462605907353,-74.92426140596044
-5.777554920625,-184.88175746,4.213707046353671,-1.842205957247499,20.0,0.8180568656142145,0.0,2,32,284.92065191114983,723.001465,mp-1175563,Li9Mn2Co5O16,https://materialsproject.org/materials/mp-1175563,18.76146658101747,-78.65617511124603,-9.597016231147103,-82.09342610508344
-6.05391022,-18.16173066,3.8975664768230898,-1.3273564691666675,4.0,1.2455774728859466,0.0,164,3,37.42541921718527,87.8438,mp-1224855,FeO2,https://materialsproject.org/materials/mp-1224855,10.124713971469225,-64.70298747443195,-3.8869141782679235,-72.23591921467163
-5.860241125625,-93.76385801,4.446407108979551,-1.820891484435,14.000000699999998,1.127450449777527,0.4032,12,16,144.7131579094015,387.49683,mp-1174135,Li4MnCo3O8,https://materialsproject.org/materials/mp-1174135,13.365227758741725,-71.44459641910771,-13.566295735720914,-78.40317953852488
-5.474952055416666,-131.39884933,4.132011936244852,-1.7144202827083332,18.0,0.97523473616122,0.5232999999999999,2,24,215.10017858038643,535.245775,mp-1174293,Li7Co5O12,https://materialsproject.org/materials/mp-1174293,15.532395909761211,-79.24664560763055,-12.793226752195624,-84.7527354468554
-6.58740807625,-105.39852922,4.286505874087053,-2.240513198124999,8.9999994,0.7304227175104471,0.8409000000000004,12,16,143.597088981694,370.680695,mp-756252,Li4Cr3CoO8,https://materialsproject.org/materials/mp-756252,16.522432320662936,-70.91643681390009,-10.803285057638671,-70.98787886265458
-5.800513859375,-185.6164435,4.251111477796362,-1.8651648959974996,15.9999997,0.6602548924147219,0.5021,1,32,282.41370871601583,723.001465,mp-1175790,Li9Mn2Co5O16,https://materialsproject.org/materials/mp-1175790,19.57504437959986,-80.01813716751745,-11.329442522106696,-87.52332620021782
-6.2160742366666675,-149.18578168,4.00562922703902,-2.081808335784999,14.0000001,0.7579454074717933,0.6116000000000001,1,24,215.26208401403102,519.265175,mp-1175219,Li7Mn4CoO12,https://materialsproject.org/materials/mp-1175219,18.874458790691328,-79.624751467445,-12.480617290016415,-86.42523501904816
-5.7962306703125,-185.47938145,4.181311592512061,-1.8608817069349997,19.9999999,0.8117675483358564,0.43089999999999984,5,32,287.1281252417762,723.001465,mp-1175647,Li9Mn2Co5O16,https://materialsproject.org/materials/mp-1175647,14.966055748282757,-79.92986079072557,-14.833346622846928,-82.26072204155898
-5.532315446875,-177.03409430000002,4.396718798699944,-1.7371167815624995,18.0000005,0.7598310908114175,0.6727999999999996,2,32,276.0786894217394,730.991765,mp-1175400,Li9Co7O16,https://materialsproject.org/materials/mp-1175400,22.48275104184842,-71.75420498292245,-8.906177093546752,-76.02199297709403
-5.7613419925,-184.36294376,4.160430134458444,-1.8259930291224995,20.0001662,0.8077202996752971,0.0,1,32,288.56923919141116,723.001465,mp-1175976,Li9Mn2Co5O16,https://materialsproject.org/materials/mp-1175976,15.824092090364568,-82.8812542437753,-16.56466193334641,-87.61250036861459
-5.38594658875,-43.08757271,3.3516808371364384,-1.841395390625001,3.6281193,0.6067148843756616,0.0,65,8,69.69062143297252,140.6656,mp-760335,Li3FeO4,https://materialsproject.org/materials/mp-760335,21.406673557050084,-72.4691258443673,-7.139695078199482,-77.84037913365412
-5.7733519365625,-184.74726197,4.253631356806384,-1.838002973185,17.999999600000002,0.7432270439446984,0.1816,2,32,282.24640498961344,723.001465,mp-1175655,Li9Mn2Co5O16,https://materialsproject.org/materials/mp-1175655,22.04157983143849,-80.17573866865294,-9.679670927358242,-86.4209671208792
-5.7921377234375,-185.34840715,4.178919086206314,-1.85678876006,24.0000005,0.9735637004465212,0.5315000000000003,5,32,287.2925112554862,723.001465,mp-1175716,Li9Mn2Co5O16,https://materialsproject.org/materials/mp-1175716,17.681828209939965,-76.72176839370414,-13.769251683472154,-81.19990506369498
-4.855935459772726,-213.66116023,4.378273429133172,-1.4397289375568187,5.0000003,0.15831549722013832,0.0,2,44,368.0645823193972,970.4604,mp-769473,Li13Ni9O22,https://materialsproject.org/materials/mp-769473,25.077526909994443,-70.78349076591381,-6.6571577928438295,-75.2384591344722
-6.19361693,-148.64680632,3.9532721609914345,-2.059351029118333,15.9999188,0.8548966841053735,0.2958000000000003,8,24,218.11301121845528,519.265175,mp-1175296,Li7Mn4CoO12,https://materialsproject.org/materials/mp-1175296,14.466122818663509,-80.88327005364651,-17.06889276134512,-88.55470606639679
-5.10884882875,-163.48316252,4.613363370581342,-1.4943294934675002,11.0000014,0.458188673085092,0.08869999999999978,2,32,279.7858968242974,777.310245,mp-761013,Li8MnNi7O16,https://materialsproject.org/materials/mp-761013,22.355702547521496,-72.53939158915534,-8.353936686282884,-76.76826606369686
-5.0780686018333325,-304.68411611,4.5931385632621655,-1.3497794875319993,9.0000001,0.19001250307638767,0.2864,2,60,551.9983286377625,1526.8564900000001,mp-758650,Li6MnNi7O16,https://materialsproject.org/materials/mp-758650,24.71336556337881,-73.07756403768292,-4.341622717615108,-71.53864347765911
-5.842088755,-105.15759759,5.058633522559359,-1.4023303052777776,1.0000001,0.05289080282103379,0.0,64,18,220.3420125309866,671.24558,mp-867659,Co2SbO6,https://materialsproject.org/materials/mp-867659,6.517127192970929,-65.9893243477234,-4.069368804094377,-68.07441578593632
-6.822805648125,-109.16489037,3.910008989022805,-2.5689039675,8.9999994,0.7291151860961261,3.1284,12,16,143.854603443646,338.7290386,mp-755675,Li4AlCr3O8,https://materialsproject.org/materials/mp-755675,16.512167809854454,-69.70857703643392,-11.1526481430876,-70.8021303676871
-5.8142148532142865,-162.79801589,4.143946820008083,-1.8737016583721424,11.0000001,0.5117595092765376,0.2428999999999997,2,28,250.49796113176083,625.12847,mp-1174460,Li4MnCo2O7,https://materialsproject.org/materials/mp-1174460,17.678618856667054,-75.60899823579473,-12.893774636313973,-81.76067398451347
-5.786528919285715,-162.02280974,4.06797220077529,-1.846015724443572,9.00000025,0.4110357123713048,0.09730000000000016,2,28,255.17633312553932,625.12847,mp-1174480,Li4MnCo2O7,https://materialsproject.org/materials/mp-1174480,13.510524584314163,-84.13958773688181,-17.250074227005115,-87.84768618314541
-5.7936158140625,-185.39570605,4.198495469069212,-1.8582668506849995,23.9999999,0.9781243902231436,0.5560999999999998,2,32,285.95294849177367,723.001465,mp-1175533,Li9Mn2Co5O16,https://materialsproject.org/materials/mp-1175533,17.604704600957692,-75.63700206492491,-11.333704270712149,-81.9584051264332
-5.7892158671875,-185.25490775,4.195897385550438,-1.8538669038099995,19.999999399999997,0.8145992407464789,0.5794000000000001,1,32,286.1300094573682,723.001465,mp-1175809,Li9Mn2Co5O16,https://materialsproject.org/materials/mp-1175809,14.49521869844949,-79.8532929868306,-12.825893582145904,-87.3202343943652
-4.7164805875,-56.59776705,4.523438146896472,-0.5324397033333336,0.939532725,0.07804442008296275,0.0,227,12,140.29670822654728,382.1792,mp-504100,CuO2,https://materialsproject.org/materials/mp-504100,21.422149115597048,-68.97912902463177,-8.302296198390515,-71.55503347331465
-5.784818658214285,-161.97492243,4.089361028704026,-1.8443054633721423,9.00000015,0.4131968759717908,0.06700000000000017,2,28,253.84166919090552,625.12847,mp-1174444,Li4MnCo2O7,https://materialsproject.org/materials/mp-1174444,18.427702872211906,-83.77654010831495,-17.636453304603137,-87.57554521369234
-5.7941647203125,-185.41327105,4.175975494309446,-1.858815756934999,23.9999986,0.97287785417411,0.4305000000000003,2,32,287.49502008469625,723.001465,mp-1175388,Li9Mn2Co5O16,https://materialsproject.org/materials/mp-1175388,17.56376692357177,-75.86771944009111,-11.409162354499134,-82.25504075063692
-6.193112604583334,-148.63470251,3.9370127612214247,-2.0588467037016667,16.0000017,0.8513849936476777,0.23519999999999985,12,24,219.01379230795865,519.265175,mp-1175290,Li7Mn4CoO12,https://materialsproject.org/materials/mp-1175290,13.252075533692322,-80.7034905288183,-18.517894642582483,-84.01659477594453
-5.787779458928571,-162.05782485,4.076736523697254,-1.8472662640864297,8.99999995,0.4119212626360911,0.050899999999999945,2,28,254.6277453586932,625.12847,mp-1174473,Li4MnCo2O7,https://materialsproject.org/materials/mp-1174473,14.047679692271117,-83.9167952085575,-16.333288347207287,-88.59182561053876
-5.7676261240625,-184.56403597,4.153602741708015,-1.832277160684999,23.999999300000002,0.9676656977063544,0.057500000000000114,1,32,289.04356850361734,723.001465,mp-1176046,Li9Mn2Co5O16,https://materialsproject.org/materials/mp-1176046,12.887963041242466,-78.08796580205538,-13.22461259724993,-85.3853088003904
-5.7413614696875,-183.72356703,4.155374934738835,-1.8060125063099992,25.7939146,1.0404390242865846,0.0,10,32,288.92029659536587,723.001465,mp-1100687,Li9Mn2Co5O16,https://materialsproject.org/materials/mp-1100687,18.044445499750744,-76.96338940153042,-14.177483625720534,-82.02416285748066
-5.514886296785713,-154.41681631,4.25178738037535,-1.7345448711607143,8.99999975,0.4241868331521602,0.8438000000000003,2,28,247.26505360881188,633.11877,mp-1174228,Li4Co3O7,https://materialsproject.org/materials/mp-1174228,20.293930385444007,-72.67522537666282,-9.210740141302637,-77.46291990815824