energy_per_atom,energy,density,formation_energy_per_atom,total_magnetization_uB,total_magnetization_T,band_gap,sgr,num_sites,cell_volume,weight,mp_id,formula,URL,tsne_xrd_lin1_0,tsne_xrd_lin1_1,tsne_xrd_lin2_0,tsne_xrd_lin2_1
-7.701717172727273,-254.1566667,3.6991894366392897,-2.94118112780303,2.9999831333333336,0.10119378646013928,0.27830000000000066,2,33,345.4954990366425,769.6617,mp-758843,Li2Ti2VO6,https://materialsproject.org/materials/mp-758843,4.473490252949323,-64.21921505206748,-8.041076137739314,-65.39021988307566
-6.69717646,-107.15482336,4.089247975500415,-2.31960429875,13.999998499999998,1.0930326416411182,2.1636,12,16,149.26991483966017,367.5925,mp-1177503,Li4Cr3FeO8,https://materialsproject.org/materials/mp-1177503,1.0657710634292925,-67.75903875711109,-13.889081677617149,-65.71356282285551
-5.779936325714287,-161.83821712,4.054671963339756,-1.839423130872144,10.0000005,0.4552131555322633,0.14329999999999998,1,28,256.0133689817527,625.12847,mp-1174751,Li4MnCo2O7,https://materialsproject.org/materials/mp-1174751,10.729627833130882,-81.83976325382814,-16.928093971989664,-86.80000068217208
-5.7583268340625,-184.26645869,4.145810082093935,-1.8229778706849995,23.999822100000003,0.9658431089750392,0.0,6,32,289.586868389137,723.001465,mp-1100648,Li9Mn2Co5O16,https://materialsproject.org/materials/mp-1100648,-1.2851156399033177,-76.79617917626099,-24.72388117163654,-75.24017007806066
-5.828828389583332,-139.89188135,4.029720521068171,-1.8814295527883345,18.0000009,0.9655053679090788,0.004900000000000127,1,24,217.26774740675185,527.2554749999998,mp-1175061,Li7Mn2(CoO4)3,https://materialsproject.org/materials/mp-1175061,15.439987336976323,-77.35020083642848,-12.89249252121196,-85.71703311200842
-5.668916898181817,-124.71617176,4.672400089870936,-1.5886969465909082,2.00390315,0.11460953479038592,0.0,2,22,203.76679087607147,573.3559700000001,mp-705847,Li2(CoO2)3,https://materialsproject.org/materials/mp-705847,9.027126166143008,-66.78290628132305,-2.778818285030624,-69.06757398053593
-5.881458929,-117.62917858,3.932991420932173,-1.9244201934710008,6.68923375,0.43001478538563,0.0,8,20,181.2885650696454,429.38248,mp-1174194,Li3MnCoO5,https://materialsproject.org/materials/mp-1174194,5.3808891454284975,-72.50563364055263,-23.143601588620072,-73.55300106780642
-6.430975721818182,-141.48146588,3.997388386492733,-2.1088345871969705,7.99995925,0.40715959234077664,0.9135,64,22,228.98157143085675,551.22358,mp-753110,Li2Ti(CoO3)2,https://materialsproject.org/materials/mp-753110,6.200693123073043,-58.10004535525296,-6.0956713523200206,-62.534624572387884
-6.085353782,-121.70707564,3.8740220508906926,-2.016194808019,13.9998676,0.8948078870871319,0.2669000000000001,1,20,182.3356344664993,425.38732999999996,mp-1174829,Li6Mn3CoO10,https://materialsproject.org/materials/mp-1174829,12.801696827060649,-82.26451919238124,-17.202023583827366,-87.1438048419882
-5.841796288888888,-105.15233319999999,3.439036531931364,-0.977023842764445,5.00000015,0.26480060172265074,0.07510000000000001,4,18,220.05359969664983,455.73898,mp-1213868,Co2NO6,https://materialsproject.org/materials/mp-1213868,32.265128950669066,-42.108280408256974,-1.0840246392092496,-74.83039393601781
-5.83815552875,-140.11573269,3.993727227741493,-1.890756691954999,17.561198100000002,0.933554722173384,0.0,12,24,219.22586355161943,527.2554749999998,mp-1174578,Li7Mn2(CoO4)3,https://materialsproject.org/materials/mp-1174578,5.276997424703837,-70.41078294624867,-22.72696149563744,-73.97731798860335
-8.356289510555555,-451.23963357,3.610295190555792,-3.2998606277160496,0.0885569,0.0017005306172028429,0.0,59,54,606.8975402246382,1319.4987999999996,mp-531914,Li3Ti8O16,https://materialsproject.org/materials/mp-531914,2.2817022863477106,-65.831286980735,-8.715535966013723,-66.15959115501443
-1.3054045281818178,-14.35944981,4.712348259707535,-0.22829757545454546,1.64e-05,3.2080804353568933e-07,0.0,115,11,595.7664283087605,1690.6912900000002,mp-568838,Hg4I7,https://materialsproject.org/materials/mp-568838,1.0393030935913448,-27.833340902714838,-5.942655265150336,-25.31952972560861
-5.043294488333333,-30.25976693,4.607836709161528,-0.2279364415000007,0.00028169999999999996,2.962437205552829e-05,0.0,63,6,110.81922817727457,307.51273856,mp-1077240,NaFeAs,https://materialsproject.org/materials/mp-1077240,11.835837299732725,-49.11336978781964,-3.0670241829261045,-57.618630465521505
-6.4224418025,-205.51813768,3.897655416174585,-2.13671709396,26.0000252,1.0116594357658864,0.4863,2,32,299.5138156741362,703.025715,mp-1100521,Li9Mn7O16,https://materialsproject.org/materials/mp-1100521,3.774486794504481,-78.67647262689042,-28.62125549098059,-77.82942152037715
-5.610027887142856,-78.54039042,5.560431042735618,-1.5329805735714288,3.9999991,0.3110772730092223,0.0,166,14,149.854240879238,501.7974,mp-756370,Li2Ni3WO8,https://materialsproject.org/materials/mp-756370,1.6949466030843556,-66.27386619764265,-10.773880549857138,-62.50016046233672
-4.6339217659375,-148.28549651,4.478228806549682,-1.0309283475000006,5.0000004,0.16876082783973473,0.1995,2,32,345.28349540784035,931.1786464,mp-760267,Na5(NiO2)9,https://materialsproject.org/materials/mp-760267,9.514762177570457,-53.53298552612888,-3.5285183721365425,-59.46032862825799
-6.976412507857143,-97.66977511,4.04838781071082,-2.14168622092,12.999999800000001,1.0297638169205003,0.0,166,14,147.1238717296661,358.68743500000005,mp-768844,Li2Mn3CrO8,https://materialsproject.org/materials/mp-768844,13.791843418290082,-67.74573838152914,-13.084461107576294,-68.5578451474976
-6.592969273125,-210.97501674,4.2937774983648636,-2.383907250625,8.99999895,0.3554834425560278,3.1711,2,32,295.0533222084965,762.941,mp-768872,Li4Cr3GaO8,https://materialsproject.org/materials/mp-768872,13.60780382187674,-67.75575367895097,-12.940982311091267,-68.57463155347719
-5.475186914285715,-153.30523359999998,4.21132723038092,-1.6948454886607145,10.6293258,0.4962126769201755,0.0,12,28,249.6406422558352,633.11877,mp-1174331,Li4Co3O7,https://materialsproject.org/materials/mp-1174331,1.2495730704020065,-72.59606995153284,-21.29978717056807,-75.7690517371758
-7.336039348333332,-220.08118045,3.731198341515449,-2.3675815145833337,5.0000002666666665,0.16994270339055276,1.1219,12,30,342.88219386880934,770.4495,mp-780611,LiV2CrO6,https://materialsproject.org/materials/mp-780611,5.794425952541123,-64.03381075696953,-7.0317626599970495,-65.31328353132051
-5.86968136,-140.87235264,4.061597959377504,-1.922282523205,18.0000005,0.9731430565521544,0.9321000000000002,3,24,215.56252220134326,527.2554749999998,mp-1175073,Li7Mn2(CoO4)3,https://materialsproject.org/materials/mp-1175073,15.879400447477886,-73.09084196782946,-12.446765100306768,-78.21751141138733
-7.192949313571428,-100.70129039,3.9277045097040952,-2.3860006022114293,7.999999400000001,0.6307195663426406,0.0,166,14,147.81927842934525,349.639745,mp-755560,Li2MnV3O8,https://materialsproject.org/materials/mp-755560,14.290732076819454,-68.32680327206093,-13.112863719582926,-68.5768658047065
-7.13582362,-85.62988344,3.8756782644074272,-2.6546613590972234,4.5446854000000005,0.4637346902415793,0.0,12,12,114.2119818444359,266.5694,mp-759411,Li3TiV2O6,https://materialsproject.org/materials/mp-759411,4.228374580261241,-64.8004659873436,-10.778510661656739,-65.1834748729663
-7.817229543333334,-117.25844315,3.957452506971951,-3.0756462837777785,1.3e-06,1.0610676256895136e-07,0.0,12,15,142.7833988854621,340.2862,mp-761891,Li3Ti4O8,https://materialsproject.org/materials/mp-761891,-8.771078284732141,-64.998053121984,-12.423684262965633,-76.08474971862512
-6.71616857375,-107.45869718,3.9724030267045634,-2.3810648850000007,11.0000004,0.8415148229248542,1.5423999999999998,166,16,152.33803810397058,364.4287,mp-765701,Li4V3FeO8,https://materialsproject.org/materials/mp-765701,3.0848590761683674,-65.02528619057814,-10.420061152525802,-64.99271839154676
-6.147183405000002,-184.41550215,3.3299231354672787,-2.632761545615,2.0,0.08071167119133618,0.7229999999999999,1,30,288.7826407393402,579.103516,mp-763193,Li2VO2F,https://materialsproject.org/materials/mp-763193,12.0385617203218,-61.9227576746874,-0.5856641407049427,-75.39660536776137
-5.93291468,-118.6582936,3.991085592999132,-1.9758759444709997,6.99999995,0.4566391002270417,1.0326,1,20,178.64973188816657,429.38248,mp-1174118,Li3MnCoO5,https://materialsproject.org/materials/mp-1174118,13.958458892083836,-72.37041487061822,-11.71838340909192,-78.92221045338219
-5.4844538615625,-175.50252357,4.242621875217027,-1.6892551962499995,25.896971,1.0548705065815789,0.0,10,32,286.106186080727,730.991765,mp-1175529,Li9Co7O16,https://materialsproject.org/materials/mp-1175529,-2.3179409165074123,-75.97156788303407,-19.718530453462552,-76.76634402117699
-6.169099484166666,-148.05838762,3.882261417095509,-2.0348335832849997,18.0000009,0.9444879956667924,0.0,1,24,222.10253317898068,519.265175,mp-1175289,Li7Mn4CoO12,https://materialsproject.org/materials/mp-1175289,3.4427111152928185,-78.13548423167026,-28.4735472798454,-78.07497776770899
-5.781723345357142,-161.88825367,4.04343236701234,-1.8412101505150011,11.00000015,0.4993464113366246,0.19840000000000035,2,28,256.7250136095328,625.12847,mp-1174497,Li4MnCo2O7,https://materialsproject.org/materials/mp-1174497,10.731396804532602,-81.70943080892066,-16.072997856667328,-87.7025787716328
-5.913162578333334,-70.95795094,4.309506347859654,-1.8270961711216671,12.0,1.2531492772695023,0.5333000000000001,12,12,111.59785973418423,289.623835,mp-1173953,Li3Mn(CoO3)2,https://materialsproject.org/materials/mp-1173953,4.794923128279874,-76.867116775759,-26.53802616114169,-75.96673107684076
-5.691447696875,-91.06316315,4.02484228055862,-1.86009941131,4.7309789,0.3983177778178218,0.0,8,16,138.41996920215374,335.504635,mp-1174236,Li5Mn(CoO4)2,https://materialsproject.org/materials/mp-1174236,20.54407909465637,-71.7375222257122,-8.570248916460962,-81.58663297298659
-5.702900547857142,-79.84060767,4.675201410509271,-1.5192402485714271,3.0,0.2606792441798438,0.6021999999999998,160,14,134.11959370865176,377.60998,mp-756773,Li(CoO2)2,https://materialsproject.org/materials/mp-756773,-21.599238774767777,2.189533865884992,-9.657421715097787,9.334252443743377
-5.555116964545454,-61.10628661,4.12647332038344,-1.52203113476909,8.0000002,0.7365813104301335,0.0,8,11,126.57464857049726,314.54057856,mp-1221339,Na2MnCoNiO6,https://materialsproject.org/materials/mp-1221339,9.547346568448358,-53.15138076608813,-3.681668156962954,-58.96811414875489
-5.801384876818182,-127.63046729,4.396457004275793,-1.6192374357254542,12.0000004,0.6503166143392088,0.7336999999999998,12,22,215.04722291993647,569.36082,mp-1177382,Li4MnCo5O12,https://materialsproject.org/materials/mp-1177382,9.369523998411939,-64.78237610645941,-2.809252521381896,-68.48645339065195
-5.687952855625,-182.01449138,4.122478135197967,-1.7526038922474996,27.113228999999997,1.0849975632222983,0.0,8,32,291.2258401952787,723.001465,mp-1100638,Li9Mn2Co5O16,https://materialsproject.org/materials/mp-1100638,13.038389728731644,-75.79789843107922,-13.998461278074519,-79.64745179950305
-6.770742887333332,-101.56114331,4.041245348142794,-2.1311335095253336,13.999999300000002,1.0860044508470468,0.04449999999999976,12,15,150.2359392088435,365.628435,mp-1177699,Li3Mn3CrO8,https://materialsproject.org/materials/mp-1177699,5.178460637554823,-65.3376727424707,-8.46648799263886,-65.99231682458684
-7.351079972162162,-271.98995897,3.6931688774161344,-2.4326398762837833,14.999999800000003,0.4135626717532747,0.8659999999999997,1,37,422.6952314542354,940.1073,mp-758647,Li4V11O22,https://materialsproject.org/materials/mp-758647,5.961625105742555,-64.0709466027581,-7.0425546535418615,-65.43789562069428
-8.293108006354167,-796.13836861,3.6363694282731833,-3.285873752152779,0.60039505,0.006605909509007238,0.0,15,96,1059.2096050186067,2319.5344,mp-1177528,Li3Ti7O14,https://materialsproject.org/materials/mp-1177528,2.4514089713146583,-66.23024218537056,-13.045903407810956,-65.96628790715891
-6.611352721956522,-304.12222521,3.7563292922493208,-2.2512076134782606,12.00000005,0.32044324009337616,0.0,4,46,436.4229303531823,987.2386,mp-781691,Li6Cr5O12,https://materialsproject.org/materials/mp-781691,1.234806184833435,-72.89851361367734,-17.239199247911472,-75.29675293794917
-6.43332048125,-205.8662554,3.9275137654568364,-2.14759577271,25.999961600000002,1.0194068526753588,0.0,2,32,297.2368056730732,703.025715,mp-1100544,Li9Mn7O16,https://materialsproject.org/materials/mp-1100544,3.400698401280508,-78.83359181094683,-28.84592997194372,-77.2718166207945
-6.292004470625,-100.67207153,4.593817881988481,-2.087983575625,10.000000300000002,0.7577712360838914,0.7717999999999998,12,16,153.79397590239805,425.465165,mp-1177461,Li4NbCo3O8,https://materialsproject.org/materials/mp-1177461,3.1785598072296546,-64.19345744323357,-10.31095139298882,-62.93748761203036
-5.64443151,-79.02204114,4.7276454292022585,-1.6103125828571427,9.0000005,0.6691314952623167,0.4562,2,14,156.7503390928436,446.276785,mp-1178026,Li2Co3TeO8,https://materialsproject.org/materials/mp-1178026,3.2100051575417203,-60.872818633334,-9.080662193015668,-61.61657011625285
-5.82765267607143,-163.17427493,4.118591648577471,-1.8871394812292863,10.999999800000001,0.5086282413968909,0.9592999999999998,1,28,252.0400947758448,625.12847,mp-1174614,Li4MnCo2O7,https://materialsproject.org/materials/mp-1174614,1.5483567726781715,-73.03779652347127,-21.18671700649179,-76.3751141160038
-5.807207992857142,-162.6018238,4.101090392177688,-1.866694798015001,10.413281300000001,0.4794529563213375,0.0,12,28,253.11566685543397,625.12847,mp-1174580,Li4MnCo2O7,https://materialsproject.org/materials/mp-1174580,3.698871074683045,-71.17017759704807,-21.1489119852768,-74.94231130811356
-8.423262341568627,-429.58637942,3.475265865280763,-3.2990645568627452,0.00039,7.562871506490471e-06,2.0088,160,51,600.9734870409577,1257.7498,mp-766828,Li4Ti15O32,https://materialsproject.org/materials/mp-766828,0.5367499416632311,-66.66342015793822,-14.9522590753301,-65.52844976295906
-5.62451291875,-44.99610335,3.143952561643233,-2.6895005411325004,4.0,0.3942531623552212,1.3416,12,8,118.23940437600757,223.86650919999997,mp-758601,MnF3,https://materialsproject.org/materials/mp-758601,22.727324949545807,-41.56235590318017,2.2149924084670487,-70.73888152051043
-6.943493905454545,-152.75686592,3.865960869119424,-2.218685209816364,17.000000399999998,0.8626697392757379,0.07679999999999998,12,22,229.65811454273722,534.675345,mp-754440,Li4MnCr5O12,https://materialsproject.org/materials/mp-754440,6.8632088745228685,-57.962132853198064,-5.078265989839305,-63.32407700629353
-5.83503543875,-46.68028351,4.340459045550301,-1.874481529375,9.0000001,1.4230492432205382,0.7736000000000001,10,8,73.70551976196711,192.657795,mp-753409,Li2FeCoO4,https://materialsproject.org/materials/mp-753409,2.8169168619001095,-67.53770286415335,-11.994688035355082,-65.53424908987678
-6.004541075714287,-84.06357506,3.0417863131333958,-2.7892437485542856,1.00000005,0.07917272997974513,0.0,74,14,147.19797281519038,269.6382128,mp-761260,Li2V(OF)2,https://materialsproject.org/materials/mp-761260,4.022365728906393,-75.63564911386129,-6.459066046223444,-66.53775527786647
-4.878696673333334,-175.63308024,4.542788940745235,-1.1636843848611111,4.9986104000000005,0.1679662171245588,0.0,12,36,346.82051171748986,948.807795,mp-775263,Li6CoNi9O20,https://materialsproject.org/materials/mp-775263,8.971005733796007,-67.58264547434993,-4.045765440546918,-70.22124010744147
-6.8520365314285705,-47.96425572,4.01497351767327,-2.0276891552742846,1.0,0.1558394156142946,0.9558,2,7,74.78252357801261,180.81468999999998,mp-1176656,LiMn2O4,https://materialsproject.org/materials/mp-1176656,7.044746946609662,-64.31771927032804,-6.050967985491687,-66.0519410155453
-5.846997062500002,-140.32792949999998,4.027279854049908,-1.899598225705,17.5209461,0.939240048089342,0.0,1,24,217.3994189678167,527.2554749999998,mp-1175088,Li7Mn2(CoO4)3,https://materialsproject.org/materials/mp-1175088,3.9753593597729977,-72.83975608639575,-22.255375565223893,-77.16318465815554
-7.413482827999999,-444.80896968,4.02249189076343,-2.0751577812004447,11.999931825,0.1980574663244322,1.4776000000000002,12,60,706.0980095835898,1710.4527200000002,mp-777945,TiMn4O10,https://materialsproject.org/materials/mp-777945,20.438891127737705,-68.39925913864515,-15.41659460907305,-69.5259039620294
-5.7937076428125,-185.39864457,4.1870529830683925,-1.8583586794349989,23.9999995,0.9754586155468844,0.7480000000000002,1,32,286.7344080585004,723.001465,mp-1176031,Li9Mn2Co5O16,https://materialsproject.org/materials/mp-1176031,-2.2808895725668843,-76.09907902058544,-19.924743710636413,-77.049091927429
-5.014093672142857,-70.19731141,4.570444686133891,-1.1779486285714285,2.9999994,0.2553246010778362,0.1001000000000003,2,14,136.93230960765086,376.890595,mp-1178027,Li2CoNi3O8,https://materialsproject.org/materials/mp-1178027,9.051536143827253,-67.79978809913635,-4.066823359794003,-70.42571647056519
-6.4265125740625,-205.64840237,3.906906437683236,-2.1407878655225003,26.0000109,1.0140600351905191,0.9646,10,32,298.8046078148913,703.025715,mp-1100482,Li9Mn7O16,https://materialsproject.org/materials/mp-1100482,2.3686567586705984,-78.57491311228435,-29.230329813928808,-78.31337611112126
-5.6417753775,-67.70130453,3.5710092519680696,0.1577545113888886,8.025e-06,4.1887263940949785e-07,0.0,63,12,223.27519393874957,480.156,mp-1094384,MgTi2,https://materialsproject.org/materials/mp-1094384,-71.49906283539147,2.7921662663282523,-58.83563642393487,-18.680441647796744
-2.21001679,-8.84006716,7.670948123527443,-0.16591267458333325,5.0999999999999995e-06,7.790172718470248e-07,0.0,123,4,76.29577993711774,352.4524,mp-1221985,MgCdAg2,https://materialsproject.org/materials/mp-1221985,-77.0390881808802,7.1476042233528085,-74.5504522050293,-5.103018937370872
-6.352156145666668,-190.56468437,4.619778267548932,-2.123006725000001,0.0,0.0,0.0,166,30,318.8813558893025,887.1584,mp-554485,Li4Mo3O8,https://materialsproject.org/materials/mp-554485,7.15530277522578,-51.693206324473756,-6.430187077535202,-59.046299110022346
-6.196794826875,-99.14871723,3.718531684574995,-2.0851459451800007,9.9999977,0.7968368501749606,0.0,10,16,146.25405551419874,327.514335,mp-1174722,Li5Mn3O8,https://materialsproject.org/materials/mp-1174722,12.158388237872055,-72.29554373606399,-15.262076901855426,-78.70430453293392
-5.9269041215,-118.53808243,3.998317677409209,-1.9698653859710007,6.9999997,0.4574665410909648,1.2083,2,20,178.32659349719958,429.38248,mp-1173985,Li3MnCoO5,https://materialsproject.org/materials/mp-1173985,13.90580773211364,-72.38173695294287,-11.271906152330615,-78.93394670798037
-6.4704144726666675,-97.05621709,3.486640610312137,-2.1827928920000006,5.999999900000001,0.4709597421330656,0.8954000000000002,166,15,148.472111763207,311.7475,mp-771884,Li4Cr3O8,https://materialsproject.org/materials/mp-771884,6.530720792285397,-58.716233387005346,-6.24562517594007,-63.5744052593282
-6.349337337291666,-304.76819219,3.2269867405582926,-2.099554895608333,9.999827400000001,0.2672203002829037,0.5949999999999998,9,48,436.11445728726,847.5173044000002,mp-759118,LiMn3Al2(HO2)6,https://materialsproject.org/materials/mp-759118,20.41657131843853,-64.4891871425663,-1.7308361545255957,-72.28998818702348
-6.091349186875,-97.46158699,4.259829272165958,-1.9118492476199995,7.93376955,0.6184902265934145,0.0,12,16,149.49413952024162,383.50167999999996,mp-1173906,Li2MnCoO4,https://materialsproject.org/materials/mp-1173906,5.974621535663585,-79.08421146115262,-28.141807637624726,-76.01906937635174
-7.93242291152174,-364.89145393,3.526643474332971,-3.1081128844710157,6.9991686,0.1444609949531689,0.0,2,46,564.6421322579757,1199.18378496,mp-757308,Na7Ti13O26,https://materialsproject.org/materials/mp-757308,10.519986712317372,-53.76289278197673,-4.572948458665013,-58.622995297154034