energy_per_atom,energy,density,formation_energy_per_atom,total_magnetization_uB,total_magnetization_T,band_gap,sgr,num_sites,cell_volume,weight,mp_id,formula,URL,tsne_xrd_lin1_0,tsne_xrd_lin1_1,tsne_xrd_lin2_0,tsne_xrd_lin2_1
-5.7701941565625,-184.64621301,4.074633269507421,-1.8348451931849992,25.9999999,1.0283738695973683,0.0,2,32,294.64545130826696,723.001465,mp-1175843,Li9Mn2Co5O16,https://materialsproject.org/materials/mp-1175843,4.387877867898263,-67.09171515234105,-22.105557121196178,-77.17594395166721
-5.8717833100000005,-140.92279944,4.076401807256283,-1.924384473205001,17.9999997,0.9766899574541952,0.9112,1,24,214.77968602916957,527.2554749999998,mp-1174935,Li7Mn2(CoO4)3,https://materialsproject.org/materials/mp-1174935,13.787513201238005,-72.28168504616794,-10.670410862269419,-78.50435698987026
-6.338856059583333,-152.13254543,3.9049049284672335,-2.111156626658333,18.000019199999997,0.9573635562654954,0.0,10,24,219.11570405124542,515.270025,mp-1175366,Li7Mn5O12,https://materialsproject.org/materials/mp-1175366,-1.4174924746749278,-77.24443856757689,-24.05259719668687,-75.38585590193867
-6.194862391538462,-80.53321109,4.0033860565979245,-1.6778670219230765,7.9999991999999995,0.5742035923341479,0.0,166,13,162.36838309950986,391.4532,mvc-11662,Ca(FeO2)4,https://materialsproject.org/materials/mvc-11662,9.355085212793368,-53.73324498685154,-3.9515202924130732,-58.763719976126175
-5.878546265,-141.08511036,4.0728095383119145,-1.9311474282050003,18.0000013,0.9758293505808616,0.5545,12,24,214.96912439812493,527.2554749999998,mp-1174467,Li7Mn2(CoO4)3,https://materialsproject.org/materials/mp-1174467,14.252100167216899,-73.9180617271461,-11.740656163336453,-78.39130217446444
-6.1204263465,-122.40852693,3.869561868176785,-1.67573070575,2.0000001,0.10040774157170113,0.4091,9,20,232.1347970353614,540.9448,mp-753154,Li(FeO2)3,https://materialsproject.org/materials/mp-753154,6.984005209049197,-58.055667564077304,-5.078361268485191,-63.5531438455396
-5.826245677499998,-163.13487897,4.110981250344134,-1.8857324826578563,10.00000045,0.4615349293028493,0.7521,1,28,252.50668057986698,625.12847,mp-1174682,Li4MnCo2O7,https://materialsproject.org/materials/mp-1174682,1.8271918275440184,-73.32382491484108,-21.871723121903447,-77.47536179747344
-5.75554108625,-46.04432869,3.3293085848673063,-1.992043858245,2.0000001,0.33437494171547777,0.0,65,8,69.70657128475533,139.758645,mp-754245,Li3MnO4,https://materialsproject.org/materials/mp-754245,19.88224491129695,-71.04010190234015,-13.182820626965773,-74.87755802174465
-7.365271716875,-117.84434747,3.8336090864738326,-2.8269596356849997,6.9675332999999995,0.5291102985966019,0.0,166,16,153.4653258470673,354.298245,mp-754722,Li4Ti3MnO8,https://materialsproject.org/materials/mp-754722,2.105296111474813,-63.61989035689084,-13.515060008632435,-64.02436645458097
-4.597667945,-18.39067178,4.39295587304541,-2.101401130595,2.0214096,0.5999916179027599,0.0,166,4,39.263279198163644,103.87100140000001,mp-1097040,LiCoF2,https://materialsproject.org/materials/mp-1097040,-7.287160564245678,-57.11062542617786,-58.2924679285692,-20.157543776035745
-6.404126336666668,-96.06189505,3.9415054115260015,-2.261389719666666,14.9999999,1.2046746704473918,1.4863000000000004,10,15,145.110522127993,344.4387,mp-752904,Li3Fe3SiO8,https://materialsproject.org/materials/mp-752904,5.72959270515123,-68.2363628259405,-8.553122027339006,-67.589480234951
-5.7724019253125,-184.71686161,4.150501596408098,-1.8370529619349991,24.0000001,0.9669432554699804,0.0,6,32,289.2595342328468,723.001465,mp-1100588,Li9Mn2Co5O16,https://materialsproject.org/materials/mp-1100588,-2.215050869776797,-75.77713292380469,-19.546617222948253,-75.84108176111296
-6.2445794150000005,-224.80485894,4.0258999180475845,-1.2978363166400009,0.0,0.0,3.6001000000000003,148,36,517.6284585810251,1254.9661999999996,mp-1228119,BaPb3(NO3)8,https://materialsproject.org/materials/mp-1228119,23.07783462014325,-40.48541559776956,22.634670684628528,-0.189734340184232
-7.297778537083333,-175.14668489,3.3916107054075737,-2.3321361667671425,4.0000001,0.1587835323211527,1.1257,14,24,293.5837210206411,599.6376280000002,mp-697761,MnPO4,https://materialsproject.org/materials/mp-697761,27.57392520047842,-36.33839288223668,31.299074118992237,-50.752723838906
-6.141386183571428,-171.95881314,7.104484134371956,-0.796597820339999,0.113971725,0.002935873089614858,0.0,227,28,452.41528664462976,1935.6228000000006,mp-722937,Zr3Zn3N,https://materialsproject.org/materials/mp-722937,-69.26242718889338,-3.4252762944319053,-65.13531968546246,4.368029972563721
-5.814654677499999,-139.55171226,3.9998292354341096,-1.867255840705,17.9999997,0.9583434682091876,0.08590000000000009,1,24,218.89141979738065,527.2554749999998,mp-1175094,Li7Mn2(CoO4)3,https://materialsproject.org/materials/mp-1175094,12.80957344557874,-83.7327223037247,-17.133549959167905,-87.34055700348615
-5.76506844125,-184.48219012,4.090452189796453,-1.8297194778725,25.9999998,1.0323663143195292,0.22449999999999992,8,32,293.505975110648,723.001465,mp-1100658,Li9Mn2Co5O16,https://materialsproject.org/materials/mp-1100658,5.41295899453867,-69.94228719989603,-23.184960955517088,-74.18446263039205
-5.804240666333332,-174.12721999,4.368004879195467,-1.7232092240000003,22.9858538,0.9273665780671346,0.0,6,30,288.85948164760674,759.837375,mp-759074,Li6Fe3Co5O16,https://materialsproject.org/materials/mp-759074,7.030785044047276,-67.09820680553743,-6.3837320956460175,-68.39745442095912
-7.19183140375,-57.53465123,3.980884052454766,-2.6615267439583343,1.9999997999999999,0.31437358288007633,0.0,10,8,74.14149433541226,177.7427,mp-752969,Li2TiCrO4,https://materialsproject.org/materials/mp-752969,3.8358576828876574,-66.26191303204676,-11.949003688004913,-66.48117363466089
-6.457663856818183,-142.06860485,4.039848892741712,-2.0047291826309106,24.9999997,1.2838404229892657,0.0,2,22,226.93756217723404,552.1059349999999,mp-1177469,Li4Mn3(FeO4)3,https://materialsproject.org/materials/mp-1177469,4.983694455248193,-65.30506584224182,-8.291358946590186,-65.80863574682354
-5.77937382625,-184.93996244,4.152636994153633,-1.844024862872499,21.9999999,0.8868206701902127,0.0,8,32,289.11078919249167,723.001465,mp-1100642,Li9Mn2Co5O16,https://materialsproject.org/materials/mp-1100642,2.115930758635338,-72.99785010280485,-20.993914431278643,-77.58090168707669
-5.8237905979411755,-198.00888033,4.263147234750472,-1.515452834852942,13.995201500000002,0.4528165881101334,0.0,6,34,360.1921596263505,924.7311699999999,mp-759569,Li2Fe2Co3O10,https://materialsproject.org/materials/mp-759569,6.670347453445093,-67.58289389679577,-6.522919071239087,-68.48988500776507
-5.7858399825,-185.14687944,4.175835361254552,-1.850491019122499,25.1151996,1.018050124488289,0.0,1,32,287.5046678681805,723.001465,mp-1175942,Li9Mn2Co5O16,https://materialsproject.org/materials/mp-1175942,1.475014237869952,-72.84115680253035,-21.13672215697159,-75.88234526491419
-6.185367595,-148.44882228,3.88417218982472,-2.0511016941183327,18.0000009,0.9449528540859709,0.11149999999999992,8,24,221.9932724555249,519.265175,mp-1175352,Li7Mn4CoO12,https://materialsproject.org/materials/mp-1175352,0.5790956229009814,-80.47496250053044,-28.144046840336948,-79.43973468629764
-5.6085059033333335,-33.65103542,5.069964910215137,-1.3944941975000005,2.9999999,0.4260822223504484,0.7254,10,6,82.05503848390217,250.530795,mp-768381,CoTeO4,https://materialsproject.org/materials/mp-768381,2.389880779395845,-60.15876338343193,-10.336190446307985,-60.42546301479445
-8.895957665,-17.79191533,12.221144389386234,0.3923254800000002,0.6973634,0.21212169640833256,0.0,38,2,38.31346991477862,281.97738,mp-1186449,PaV,https://materialsproject.org/materials/mp-1186449,-71.46087095260599,2.235669041109421,-68.26147813231944,11.132931145950813
-5.8091112675,-162.65511549,4.100227107093307,-1.8685980726578573,9.78114025,0.4502528365017555,0.0,8,28,253.16895926439378,625.12847,mp-1174823,Li4MnCo2O7,https://materialsproject.org/materials/mp-1174823,-1.8008705561462064,-76.41887383290667,-20.71780661406027,-76.85253530923715
-6.333691485,-126.6738297,3.829417882242301,-2.1524122725670005,7.00000025,0.4464498502499124,0.6521000000000003,2,20,182.72703255644126,421.39218000000005,mp-1173962,Li3Mn2O5,https://materialsproject.org/materials/mp-1173962,2.0804060081449958,-77.66662908377114,-27.58844835070973,-79.93487058755369
-4.898290355,-19.59316142,10.607365472076776,-0.3081732220833331,6.7e-06,1.1518148094973927e-06,0.0,225,4,67.79061471715407,433.04,mp-977367,CdInRh2,https://materialsproject.org/materials/mp-977367,-41.07026117950189,-62.36194606529703,-49.450957811973296,-39.6181258334022
-6.554740733928571,-183.53274055,4.050105847433051,-2.3440343167857143,3.99995465,0.1799492739535349,0.7999000000000005,95,28,259.04928402455283,631.82918,mp-758617,LiCoSiO4,https://materialsproject.org/materials/mp-758617,-34.50543085565836,-6.978294700434527,-43.9273710650489,-9.849776915682554
-5.7576778775,-184.24569208,4.151976139633226,-1.8223289141224992,23.9999712,0.9672856153498738,0.0,1,32,289.1568058759964,723.001465,mp-1176190,Li9Mn2Co5O16,https://materialsproject.org/materials/mp-1176190,-1.6903977274776814,-76.9120709715156,-21.61299219758117,-77.9091559586968
-6.43233224,-205.83463168,3.896202880695472,-2.14660753146,25.9999987,1.0112813908919822,0.0,2,32,299.6254768111645,703.025715,mp-1100530,Li9Mn7O16,https://materialsproject.org/materials/mp-1100530,3.431620994710553,-78.89331905000883,-29.070324199989447,-77.38667785208037
-5.961690380625,-95.38704609,3.833015139337205,-1.990191796995,8.0000015,0.6491767857941986,0.0,8,16,143.61655823461803,331.5094850000001,mp-1174428,Li5Mn2CoO8,https://materialsproject.org/materials/mp-1174428,1.1811865927957526,-73.09538939394646,-20.976430996576003,-76.28757641028156
-5.786668909375,-185.1734051,4.150144769838012,-1.8513199459974992,22.000000399999998,0.8862884608026057,0.4729000000000001,2,32,289.28440456706136,723.001465,mp-1175799,Li9Mn2Co5O16,https://materialsproject.org/materials/mp-1175799,5.475631345720565,-69.86351198545843,-22.161129225583046,-77.2156909479688
-6.497864735,-51.98291788,4.130484322565301,-2.238847135625001,7.999999799999999,1.2487024947673535,1.7079999999999995,10,8,74.66351371952274,185.7207,mp-755048,Li2CrFeO4,https://materialsproject.org/materials/mp-755048,1.706107685663715,-67.09011626460699,-11.804093928872545,-65.67385001617525
-8.63158965125,-69.05271721,5.613561967253102,-0.15054003468749855,0.43157845,0.05900211701802933,0.0,194,8,85.24513127561174,288.1768,mp-1078494,Cr2SiC,https://materialsproject.org/materials/mp-1078494,-53.106969964731434,-46.85667457590302,-60.12879337090375,-31.527830767553315
-7.893216255,-47.35929753,6.576662387847186,-1.2637285243750007,0.0005861000000000001,5.4547703189082177e-05,1.5625,194,6,125.2197061262217,495.94,mp-224,WS2,https://materialsproject.org/materials/mp-224,10.059033677487047,-51.87825831394823,-18.168959880929922,-51.52852217721149
-5.2141478325,-20.85659133,3.71511018230398,-1.2141137663175003,0.0,0.0,0.0,71,4,84.01917438315046,187.9754,mp-29132,RuCl2O,https://materialsproject.org/materials/mp-29132,31.225384767739573,-36.88234458250472,31.647892354831864,-54.87231955572889
-5.5017994446875,-176.05758223,4.196789987779192,-1.706600779375,25.9999998,1.047626400851775,0.5682999999999998,2,32,289.2306661128238,730.991765,mp-1175493,Li9Co7O16,https://materialsproject.org/materials/mp-1175493,10.943573678087642,-79.896279945525,-14.188730711823215,-84.68207998320155
-6.670232350606061,-220.11766757,4.049748427964672,-2.1112618926515148,5.333333433333333,0.18733882746075134,0.0,2,33,331.7785967180065,809.1468,mp-782636,Li2Cr2FeO6,https://materialsproject.org/materials/mp-782636,4.216681620765747,-67.06635339745824,-8.58343259446516,-66.44166467112218
-5.79578489,-185.46511648,4.197550305932805,-1.8604359266224997,23.999999399999997,0.9779041749914644,0.7206999999999999,1,32,286.01733656718983,723.001465,mp-1175685,Li9Mn2Co5O16,https://materialsproject.org/materials/mp-1175685,13.58562688744888,-75.45138281166012,-10.21947004289548,-81.14625457919799
-6.390514673214287,-178.93441085,3.880640522535831,-2.129657939937857,11.000000300000002,0.4918149413152189,0.43800000000000017,2,28,260.65640798052175,609.14787,mp-1174323,Li4Mn3O7,https://materialsproject.org/materials/mp-1174323,4.183953849968991,-79.12369215082467,-28.92844603163845,-78.1909301545258
-5.418086091538462,-70.43511919,4.427112157485541,-1.1841219623076922,6.0000002,0.5032629168753324,0.16510000000000002,12,13,138.94206908849728,370.429185,mp-1176785,LiCo3NiO8,https://materialsproject.org/materials/mp-1176785,8.498296639984376,-66.7438190701119,-4.265237394330613,-69.04117046697344
-5.8353493975,-93.36559036,4.373566648057763,-1.7959997563099996,16.0000002,1.2674064709433348,0.01670000000000016,2,16,147.1233128176957,387.49683,mp-1174090,Li4MnCo3O8,https://materialsproject.org/materials/mp-1174090,-1.3599150668530742,-77.38493907051424,-26.22617836280233,-76.49533215529786
-6.8290069214285705,-47.80304845,3.958465356374864,-2.004659545274285,7.0000008000000005,1.075522657763037,0.015000000000000124,10,7,75.85006428487843,180.81468999999998,mvc-16811,LiMn2O4,https://materialsproject.org/materials/mvc-16811,6.827429384404083,-59.217772924684645,-6.295791207099862,-64.44493804783818
-5.818032264285714,-81.4524517,4.154267340463043,-1.610385713571428,12.4532837,0.9735236360419584,0.0,12,14,149.07842963209444,372.9582,mp-1178069,Li2Fe3CuO8,https://materialsproject.org/materials/mp-1178069,4.529075853652029,-65.49598474212185,-8.002666387251299,-66.21682548637689
-5.81276955125,-139.50646923,3.9669963983238117,-1.8653707144550005,17.9999997,0.9504768486273608,0.05420000000000025,2,24,220.70307415988162,527.2554749999998,mp-1174867,Li7Mn2(CoO4)3,https://materialsproject.org/materials/mp-1174867,2.1819457321054063,-78.10277489166756,-27.83070338826818,-78.59360569230927
-6.6823004860606074,-220.51591604,4.066243854051678,-2.1645115771969694,1.9999999,0.07109416870807134,0.19779999999999956,2,33,327.84866611805154,802.8192,mp-758699,Li2V2FeO6,https://materialsproject.org/materials/mp-758699,5.741389980669813,-64.77172899976618,-6.287477136162398,-65.97853237450376
-4.812050082,-24.06025041,6.3986494367651305,-1.3747576152999996,0.0,0.0,1.4818000000000002,71,5,70.86349674468356,273.06233856,mp-22313,Na2PtO2,https://materialsproject.org/materials/mp-22313,5.49530088041396,-23.490042344637192,-5.410026955218284,-27.037406359609342
-7.577483388333333,-90.92980066,4.468986052819318,-2.828333140486111,7.8e-05,8.00899282097103e-06,0.0,12,12,113.49954639482927,305.45978,mp-1177566,Li3Ti2NbO6,https://materialsproject.org/materials/mp-1177566,4.9348321556627575,-57.63298737810156,-8.242167408569214,-62.65784930257338
-5.79550139,-185.45604448,4.150965207706276,-1.8601524266224996,26.0000001,1.0476388680165776,0.7207999999999997,2,32,289.22722753272626,723.001465,mp-1175425,Li9Mn2Co5O16,https://materialsproject.org/materials/mp-1175425,-2.1219095001921366,-76.25383842665663,-19.947917799248916,-77.00196194717535
-5.788411504642857,-162.07552213,4.059904553986566,-1.8478983098007151,9.826991099999999,0.4479148335554024,0.0,8,28,255.6834072444313,625.12847,mp-1174325,Li4MnCo2O7,https://materialsproject.org/materials/mp-1174325,3.229330370580658,-78.55014251728386,-27.747081117771515,-79.16775777204373
-6.567557343571429,-91.94580281,4.082896178983473,-1.9880834228571436,7.9999994999999995,0.6429176555130206,0.0,166,14,145.01470220015912,356.5589,mp-771776,Li2Cr3NiO8,https://materialsproject.org/materials/mp-771776,15.693971979274444,-68.53147723386613,-13.302358000924444,-69.27153376347457
-6.369444395833334,-152.8666655,3.8940804381472796,-2.1417449629083336,17.9999992,0.954708660688902,0.0,2,24,219.72478644056062,515.270025,mp-1175325,Li7Mn5O12,https://materialsproject.org/materials/mp-1175325,17.651871675509263,-75.6244369702505,-12.02951440450122,-81.52196922794622
-7.180046046111111,-258.48165766,3.822269497292445,-2.45926290375,7.9999997,0.24637522045944435,0.6455000000000002,15,36,378.41676817334417,871.049,mp-767752,Li3V5O10,https://materialsproject.org/materials/mp-767752,5.129799912067627,-64.62181738092248,-7.55579946288984,-65.48683717681253
-7.107101763928571,-397.99769878,4.000580136792661,-2.2516176554257137,11.000000225,0.21885227914560051,0.8514999999999999,96,56,585.759104820811,1411.2141800000002,mp-1177916,Li2MnCr3O8,https://materialsproject.org/materials/mp-1177916,16.759568322655262,-66.764474019006,-15.675559653771057,-68.64686274931357
-6.74983299875,-53.99866399,3.25862297797382,-1.3968539651262493,0.010093600000000001,0.0010934411833495152,0.0,123,8,107.57914552657556,211.112095,mp-1147777,Ca2CoC(NO)2,https://materialsproject.org/materials/mp-1147777,2.94203702575606,-55.13358259963027,-6.893749251982168,-60.75873260342948
-5.7525505965625,-184.08161909,4.141901222684141,-1.8172016331849996,23.9981931,0.9648669726293272,0.0,8,32,289.86016181034563,723.001465,mp-1100657,Li9Mn2Co5O16,https://materialsproject.org/materials/mp-1100657,5.617501341526741,-71.96098989349234,-22.43769785421053,-74.89870079060586
-3.5702078996153848,-92.82540539,6.967395070483258,-0.01115697461538463,6.18e-05,1.7193126183399791e-06,0.0,42,26,418.9006671977857,1757.65,mp-1225030,Ga21Ni5,https://materialsproject.org/materials/mp-1225030,-57.665260113076755,-34.74334658074481,-62.93570322404617,-29.621102424528367
-6.03700336,-90.55505040000001,4.228481683206331,-1.906888264666667,13.999832699999999,1.1070642232951644,0.0,166,15,147.37623496238578,375.286395,mp-753590,Li3Fe3CoO8,https://materialsproject.org/materials/mp-753590,2.27519330074698,-68.23115993342599,-12.736724579487452,-66.07113029081421
-5.8367086125,-140.0810067,3.9978316021710896,-1.8893097757050004,18.0000002,0.9578648696861184,0.2585000000000002,8,24,219.0007952850674,527.2554749999998,mp-1175188,Li7Mn2(CoO4)3,https://materialsproject.org/materials/mp-1175188,4.940992695251938,-69.70554204821762,-19.751272659996207,-74.74209439058505
-6.634065555,-106.14504888,4.0669573171220295,-2.3296391493750006,7.999999799999999,0.6213132551246892,0.8475999999999999,12,16,150.05718143089362,367.516895,mp-771711,Li4V3CoO8,https://materialsproject.org/materials/mp-771711,2.867447313341183,-66.50439615506859,-10.973332941561218,-65.56131100814001
-6.023821116875,-96.38113787,3.8960143102141007,-2.0523225332450004,10.0000006,0.8248081578400491,1.213,3,16,141.29425565239856,331.5094850000001,mp-1174385,Li5Mn2CoO8,https://materialsproject.org/materials/mp-1174385,19.07757681860873,-72.47487847932982,-11.90266106426728,-78.31019908117554
-8.857005495,-35.42802198,9.714241660239717,0.29210116125000063,4e-06,6.708178826997682e-07,0.0,65,4,69.49167619477787,406.53,mp-1218950,SnMo3,https://materialsproject.org/materials/mp-1218950,-44.4705115942936,-65.70958438945691,-53.46152862591529,-37.53815675026453
-6.90398913875,-220.92765244,4.03769897690058,-2.4220185731250004,10.9999992,0.42972492918494615,2.014,2,32,298.31805061449444,725.3779999999998,mp-769593,Li4VCr3O8,https://materialsproject.org/materials/mp-769593,1.0132224537378665,-68.73871150324838,-11.674586454589505,-65.89035697211395
-4.778515255,-28.67109153,8.781426888169607,-0.14962115277777774,7.2999999999999996e-06,9.925522328495677e-07,0.0,216,6,85.71304363039985,453.2762,mp-1070869,ZrCu4Ag,https://materialsproject.org/materials/mp-1070869,-76.17794432023777,-20.24168601931996,-69.66126844641127,-6.903395043769361
-5.502682231875,-88.04291571,3.7641826391480566,-1.6713339463100008,13.211929699999999,1.0403195362621616,0.0,166,16,148.00518410672612,335.504635,mp-1174310,Li5Mn(CoO4)2,https://materialsproject.org/materials/mp-1174310,4.525999368784451,-68.01289251880571,-24.12842074858049,-72.59482279827432