energy_per_atom,energy,density,formation_energy_per_atom,total_magnetization_uB,total_magnetization_T,band_gap,sgr,num_sites,cell_volume,weight,mp_id,formula,URL,tsne_xrd_lin1_0,tsne_xrd_lin1_1,tsne_xrd_lin2_0,tsne_xrd_lin2_1
-5.863907178333334,-140.73377228,4.1374617363438535,-1.9165083415383333,12.0000001,0.6608798018995049,0.3159000000000001,1,24,211.61000538096118,527.2554749999998,mp-1174999,Li7Mn2(CoO4)3,https://materialsproject.org/materials/mp-1174999,19.61474788341604,-82.53613557539356,-14.896057499606671,-83.36438856994145
-5.48153357625,-87.70453722,4.6479192195517545,-1.64623402625,3.0000001,0.2456383387744855,0.0,166,16,142.33199775538085,398.3933,mp-755699,Li4CrCu3O8,https://materialsproject.org/materials/mp-755699,19.151986636814733,-69.6266683965799,-8.684880379882447,-73.6837494803352
-5.748008935,-45.98407148,4.4617000471089945,-1.771226228244999,3.0000002999999995,0.4905193895814812,0.18409999999999996,10,8,71.2758731998929,191.511045,mp-754945,Li2MnNiO4,https://materialsproject.org/materials/mp-754945,19.30552867079801,-69.63409283560746,-8.121980219819052,-73.81118519716206
-5.49869835625,-175.9583474,4.253481042257111,-1.7034996909375,21.999056600000003,0.8983889699218343,0.24309999999999965,1,32,285.37575497383216,730.991765,mp-1175482,Li9Co7O16,https://materialsproject.org/materials/mp-1175482,17.379219298042152,-77.8605431319308,-13.084296082208061,-82.0822847894204
-4.91410950381579,-373.47232229,4.601392986233186,-1.294204564736843,7.0000008000000005,0.11740845931619047,0.0,6,76,694.8261071331517,1925.3795899999998,mp-850772,Li8CoNi9O20,https://materialsproject.org/materials/mp-850772,19.256431349318788,-74.38305274175706,-4.495813333298893,-72.59293866362161
-5.8218909171428574,-163.01294568,4.187461985234359,-1.8813777223007155,6.99999975,0.32908490414810904,0.2771999999999997,2,28,247.8948425348803,625.12847,mp-1174418,Li4MnCo2O7,https://materialsproject.org/materials/mp-1174418,17.321422790154287,-79.49790317780142,-10.954379246670364,-86.19563463819544
-5.657689155,-90.52302648,4.5123444982614025,-1.7196981300600005,8.9705004,0.7335807724400458,0.0,160,16,142.51026830507163,387.257035,mp-1222664,Li4MnCo2NiO8,https://materialsproject.org/materials/mp-1222664,17.943268563925972,-69.489677499097,-10.418172013526585,-73.46277143675476
-5.79774685,-162.3369118,4.127108537390238,-1.857233655157857,9.81318015,0.4546892859329677,0.0,1,28,251.51997337750558,625.12847,mp-1174748,Li4MnCo2O7,https://materialsproject.org/materials/mp-1174748,14.928243649692554,-80.01247833074964,-14.086959178752034,-85.95091973975718
-5.635070210625,-90.16112337,4.624052480027494,-1.7051935843750003,8.9846963,0.7507079925410097,0.0815999999999999,166,16,139.47930977470898,388.403785,mp-765603,Li4FeCo3O8,https://materialsproject.org/materials/mp-765603,22.278586105241555,-74.75306841776093,-8.608192916954634,-76.93587350994414
-6.31713319875,-101.07413118,3.850545183280037,-2.19640277012,9.000001,0.7493445364004371,0.6086,12,16,139.9711207756807,324.5723900000001,mp-1222520,Li5Mn2CrO8,https://materialsproject.org/materials/mp-1222520,20.569763112753538,-71.41488621889056,-10.977129399983113,-76.01202074070638
-4.8643133405,-97.28626681,4.679102308130123,-1.3705484623750004,1.0,0.06727029774796545,0.0,2,20,173.24235454141666,488.166,mp-850062,LiNiO2,https://materialsproject.org/materials/mp-850062,23.141324324706698,-71.1419937712869,-7.597685201215866,-75.50532175989052
-5.785649099375,-185.14077118,4.224057335278856,-1.8503001359974995,19.9999991,0.8200662529125804,0.5872000000000002,1,32,284.222505358213,723.001465,mp-1175840,Li9Mn2Co5O16,https://materialsproject.org/materials/mp-1175840,22.784221890901406,-79.17454867031607,-10.077244267042706,-85.42444725809753
-5.8111295634375,-185.95614603,4.283208750794244,-1.87578060006,13.999999599999999,0.5820850217521853,0.6158999999999999,2,32,280.2973724750326,723.001465,mp-1175438,Li9Mn2Co5O16,https://materialsproject.org/materials/mp-1175438,20.871269882623714,-79.00010904569253,-11.445213399270177,-87.13373338739905
-5.7862651996875,-185.16048639,4.23806889483378,-1.850916236309999,16.0000003,0.6582292282271252,0.3475999999999999,1,32,283.28283196934217,723.001465,mp-1175933,Li9Mn2Co5O16,https://materialsproject.org/materials/mp-1175933,21.216027322523814,-79.28182042043673,-9.972394851486186,-87.26081649607929
-5.7681208940625,-184.57986861,4.166995414691419,-1.8327719306849997,23.999935999999998,0.9707832310791156,0.016999999999999904,1,32,288.11458596207746,723.001465,mp-1176106,Li9Mn2Co5O16,https://materialsproject.org/materials/mp-1176106,14.941234545644045,-79.84196364662611,-13.811407240879,-85.73486425534212
-5.805319633214286,-162.54894973,4.167062757120694,-1.8648064383721432,7.99999875,0.3742648308686296,0.12870000000000026,1,28,249.1083744003241,625.12847,mp-1174706,Li4MnCo2O7,https://materialsproject.org/materials/mp-1174706,19.31094815997597,-82.82463436051779,-11.102306410557096,-88.67233144065283
-4.865157261309523,-408.67320995,4.879017224875884,-1.3307665777083335,26.995623699999996,0.4291886992204867,0.0,2,84,733.0312931045371,2153.802,mp-698842,Li19Ni23O42,https://materialsproject.org/materials/mp-698842,22.58582393943459,-70.22694898932761,-9.383129336783725,-75.75346344817515
-5.7964176340625,-185.48536429,4.239731681501902,-1.8610686706849997,22.0000012,0.9054203193499554,0.6187,10,32,283.1717308545331,723.001465,mp-1100702,Li9Mn2Co5O16,https://materialsproject.org/materials/mp-1100702,18.5407275242997,-77.2581863666593,-14.800351526679261,-81.90630780372474
-5.769743909375,-184.6318051,4.179651548288208,-1.8343949459974995,21.9999999,0.8925897911213804,0.1753,1,32,287.24216474490373,723.001465,mp-1176195,Li9Mn2Co5O16,https://materialsproject.org/materials/mp-1176195,14.895471845200973,-80.35794431338877,-14.385564860718516,-87.13154906046282
-4.850738982,-388.05911856,4.453762209279958,-1.4209597474999995,7.5543533,0.13137304749984635,0.0,2,80,670.1444805343579,1797.4067999999993,mp-705828,Li23Ni17O40,https://materialsproject.org/materials/mp-705828,25.05819302485249,-70.72477112009553,-6.600237913765667,-75.1317829461316
-5.435809380625,-86.97295009,4.0801987610938975,-1.744611393125,7.9999993,0.6747767374026375,0.0,2,16,138.16793741512848,339.49978500000003,mp-1174153,Li5Co3O8,https://materialsproject.org/materials/mp-1174153,21.193106706957387,-72.48756804023563,-10.927186083841384,-76.23851860180177
-5.815917456607143,-325.69137757,4.6711365831922285,-1.5971974051785711,1.49999995,0.032825025478122966,0.7637,5,56,532.5539377810081,1498.08714,mp-1177976,Li2FeCo3O8,https://materialsproject.org/materials/mp-1177976,24.652084466550054,-68.81196350574389,-14.692839481553376,-72.14390975585735
-5.481993194166668,-131.56783666,4.263600439080928,-1.721461421458334,14.0,0.7826716861804802,0.3216999999999999,2,24,208.46149119314447,535.245775,mp-1174292,Li7Co5O12,https://materialsproject.org/materials/mp-1174292,22.208353517690377,-72.03196681147735,-9.066391761130996,-77.0087887230281
-5.7727513775,-184.72804408,4.182695838115621,-1.837402414122499,20.0000005,0.812036312692766,0.29689999999999994,1,32,287.03310139581475,723.001465,mp-1176066,Li9Mn2Co5O16,https://materialsproject.org/materials/mp-1176066,15.057661367524199,-82.0923987606079,-14.644902113330806,-87.73643437438555
-6.6598512662500005,-159.83643039,3.573429771418088,-2.613391216458333,6.0000005,0.3347051788475457,1.6265999999999998,12,24,208.91339268532886,449.5753,mp-1176994,Li7V3(SiO6)2,https://materialsproject.org/materials/mp-1176994,7.415484412514317,-74.06946992472336,-12.208038899118321,-74.47365740999797
-5.7699414753125,-184.63812721,4.162627791246603,-1.8345925119349988,23.9999995,0.9697682734625364,0.2668999999999997,1,32,288.416889238649,723.001465,mp-1176063,Li9Mn2Co5O16,https://materialsproject.org/materials/mp-1176063,15.007655532602046,-79.60292934321551,-13.03318956415712,-85.564373123729
-5.79863957875,-185.55646652,4.245118539398187,-1.8632906153724988,16.0,0.6593241206943445,0.3167,1,32,282.81239910438256,723.001465,mp-1175551,Li9Mn2Co5O16,https://materialsproject.org/materials/mp-1175551,19.65166094886296,-80.05909094087889,-10.364558878838952,-88.37613305301979
-5.40303163125,-86.4485061,3.9990050107233515,-1.7118336437500004,10.0,0.8266863785645538,0.0,10,16,140.97322847868432,339.49978500000003,mp-1174051,Li5Co3O8,https://materialsproject.org/materials/mp-1174051,18.92234469367561,-72.56790886888625,-12.157645203922455,-76.19726106396733
-5.74634111125,-183.88291556,4.162635412595967,-1.8109921478724988,21.944733399999997,0.8867227345078598,0.0,12,32,288.41636117753916,723.001465,mp-1100730,Li9Mn2Co5O16,https://materialsproject.org/materials/mp-1100730,18.12022513657025,-76.95819435422776,-14.101458905833784,-82.3483759600585
-4.799447768181818,-52.79392545,4.589472242549162,-1.1615199602272732,1.9999995,0.22527749562681434,0.0,12,11,103.46405730956056,285.9586,mp-762391,Li2(NiO2)3,https://materialsproject.org/materials/mp-762391,23.61140319727777,-73.06748253893812,-5.344268740555972,-70.65773663825621
-5.805892785,-185.78856912,4.3049649001247765,-1.8705438216224997,13.9999999,0.5850416795034251,0.5176000000000003,1,32,278.88082399345365,723.001465,mp-1175784,Li9Mn2Co5O16,https://materialsproject.org/materials/mp-1175784,20.895892564525735,-78.85688317833551,-10.129746970723893,-87.3797465341026
-5.471008860833333,-131.30421266,4.145695508257199,-1.7104770881249998,18.000000399999998,0.9784643455602576,0.045199999999999914,12,24,214.39020391446823,535.245775,mp-1174345,Li7Co5O12,https://materialsproject.org/materials/mp-1174345,15.927658703840315,-79.03154669633578,-13.470478665624409,-82.83357091422164
-5.419155766,-54.19155766,4.597299383202508,-1.2353812912499995,3.753215,0.4258745180786528,0.0,12,10,102.70680413723288,284.34979,mp-758532,LiCo2CuO6,https://materialsproject.org/materials/mp-758532,24.220190529236323,-72.67634370636969,-5.6042253618501565,-71.29388144225894
-5.7855181757142855,-161.99450892,4.094187558742712,-1.8450049808721425,8.999995599999998,0.4136843486768596,0.08899999999999998,2,28,253.5424219229576,625.12847,mp-1174464,Li4MnCo2O7,https://materialsproject.org/materials/mp-1174464,14.660305608517609,-83.56443793069108,-16.756201510648324,-87.79502795682409
-5.7739178821875,-184.76537223,4.166411067462006,-1.8385689188099992,24.0000001,0.9706496883856994,0.11249999999999982,1,32,288.1549945913112,723.001465,mp-1175998,Li9Mn2Co5O16,https://materialsproject.org/materials/mp-1175998,14.939555068368788,-79.91489309333615,-13.07092172149123,-87.05355422080645
-5.23531572525,-209.41262901,4.548048522615209,-1.5831077678749998,21.9999988,0.7255985218571745,0.3689999999999998,10,40,353.3488606829091,967.7868,mp-771052,Li10Fe3Ni7O20,https://materialsproject.org/materials/mp-771052,21.07949273982103,-79.07918493557507,-10.83853039117774,-85.25680063527783
-4.88690203,-146.60706090000002,4.4837034035469365,-1.3544150539999995,3.9999998,0.1717681218724123,0.4342999999999999,2,30,271.3906180685373,732.7952,mp-769569,Li6MgNi7O16,https://materialsproject.org/materials/mp-769569,24.785521600138825,-72.3938535977032,-5.3427936444265285,-73.74151804198952
-5.77633877625,-184.84284084,4.2046035181880805,-1.8409898128724995,23.419426100000003,0.9558515691857854,0.0,6,32,285.53754317531104,723.001465,mp-1100596,Li9Mn2Co5O16,https://materialsproject.org/materials/mp-1100596,13.908206792141659,-74.69797334118945,-12.671343138704286,-78.87879116879232
-5.22145368875,-41.77162951,4.504678980566551,-1.5249715781250002,5.000000099999999,0.8085403044597049,0.0,12,8,72.06854711731806,195.506195,mp-1222816,Li2CoNiO4,https://materialsproject.org/materials/mp-1222816,13.14763142807766,-77.04240250910108,-14.056572129784172,-83.52690731472705
-6.209425619583333,-149.02621487,3.974110448782209,-2.075159718701666,15.999998800000002,0.8594072692014751,0.5089999999999999,1,24,216.96933346785946,519.265175,mp-1175184,Li7Mn4CoO12,https://materialsproject.org/materials/mp-1175184,18.779252919688467,-83.21170504351396,-17.531547547042585,-83.24084023063827
-5.760335279375,-184.33072894,4.132954769213557,-1.8249863159974995,21.9999998,0.8826174083600259,0.09089999999999998,1,32,290.4876113217532,723.001465,mp-1176145,Li9Mn2Co5O16,https://materialsproject.org/materials/mp-1176145,14.186579109969731,-82.77935211007967,-14.314674782113054,-87.65851764609968
-7.100427483333332,-340.8205192,4.1459703129167,-1.7869904705083322,46.9999975,0.9852535495729604,0.8655,12,48,555.9391442056226,1388.047575,mp-771190,Mn15CrO32,https://materialsproject.org/materials/mp-771190,22.351873310881118,-68.69460562316672,-7.4155434064796015,-71.13543052262825
-6.0610511083333325,-72.7326133,4.287942308373858,-1.2991337408333337,5.0000445,0.4217328096914384,0.7265000000000001,166,12,138.17004778763788,356.790885,mp-753507,CrCo3O8,https://materialsproject.org/materials/mp-753507,23.60663991778585,-73.79176076334859,-6.148592390919178,-70.6089335492368
-5.4944278925,-153.84398099,4.240606016810654,-1.7140864668750009,9.00000005,0.4230713194125944,0.4363000000000001,2,28,247.91702656981892,633.11877,mp-1174327,Li4Co3O7,https://materialsproject.org/materials/mp-1174327,22.672244503412728,-79.35343999308681,-9.727422423848589,-86.68021254825555
-5.7757301840625,-184.82336589,4.198716266739565,-1.840381220684999,17.9999997,0.7336318629574354,0.13759999999999994,1,32,285.9379110991883,723.001465,mp-1175992,Li9Mn2Co5O16,https://materialsproject.org/materials/mp-1175992,18.954336486662093,-83.53875897739341,-11.164267985386411,-88.61167079382216
-6.335519486153848,-82.36175332,4.532832870534797,-1.6318209416861544,7.0000003,0.6140080652174646,0.20630000000000012,12,13,132.86219111021686,362.67868,mp-778584,LiMn2(CoO4)2,https://materialsproject.org/materials/mp-778584,25.215689728824874,-70.56434624203932,-14.524275644122376,-72.346017549931
-5.743607814375,-183.79545006,4.133949732989198,-1.8082588509974995,25.999242300000002,1.0433140181432514,0.0,2,32,290.41769642940915,723.001465,mp-1175686,Li9Mn2Co5O16,https://materialsproject.org/materials/mp-1175686,15.074551293504994,-78.59769941614294,-13.328833403575294,-84.84056990306847
-6.8230445940625,-218.33742701,3.912943738597567,-2.5691429134375,9.0,0.3648312446800007,3.1684999999999994,2,32,287.49342191082053,677.4580771999998,mp-768749,Li4AlCr3O8,https://materialsproject.org/materials/mp-768749,16.696645263113652,-70.01481586445189,-11.056090275891568,-70.76315177187331
-5.4027381058333335,-64.83285727,4.195778818919734,-2.248518079781667,0.0,0.0,0.6811999999999996,164,12,98.00102899611821,247.6247964,mp-764063,Li2CoO2F,https://materialsproject.org/materials/mp-764063,25.76854824992109,-70.42208520757106,-11.68660861982852,-73.81120589590095
-5.7978802053125,-185.53216657,4.2583195264479246,-1.8625312419349989,15.999999800000003,0.661374403625888,0.4670000000000001,2,32,281.93566761561226,723.001465,mp-1175408,Li9Mn2Co5O16,https://materialsproject.org/materials/mp-1175408,19.548910438112227,-79.9582305732442,-11.685215519685494,-87.32577912908337
-5.7917489740625,-185.33596717,4.172843766275888,-1.8564000106849996,23.9999997,0.972148299418532,0.5126,3,32,287.71078570266263,723.001465,mp-1176240,Li9Mn2Co5O16,https://materialsproject.org/materials/mp-1176240,17.582090760042263,-76.60656867995797,-13.772994667516825,-81.08635985696074
-5.790161794375,-185.28517742,4.233972848397948,-1.8548128309974992,16.000000099999998,0.6575930487813204,0.3145000000000002,1,32,283.5568865454502,723.001465,mp-1175921,Li9Mn2Co5O16,https://materialsproject.org/materials/mp-1175921,21.226175103385422,-79.27800570239847,-10.281312934268579,-87.06498012468747
-7.1400117908333325,-342.72056596,4.049997061550567,-1.8114388664499996,20.99999615,0.4346351747941497,0.4473999999999999,1,48,563.0821653390452,1373.33785,mp-771053,Mn5Cr3O16,https://materialsproject.org/materials/mp-771053,20.907787567704485,-68.66118847885353,-8.423842977750242,-71.26671025784779
-5.524607876875,-176.78745206,4.393692379626908,-1.7294092115624995,17.9999986,0.7593079916995029,0.0,166,32,276.2688551728055,730.991765,mp-1175466,Li9Co7O16,https://materialsproject.org/materials/mp-1175466,22.23034454131578,-71.30369095598199,-9.358631668525843,-75.8422479666026
-5.78045480375,-184.97455372,4.234777052129552,-1.845105840372499,16.0000005,0.6577179689028333,0.4769000000000001,1,32,283.50303778234553,723.001465,mp-1176042,Li9Mn2Co5O16,https://materialsproject.org/materials/mp-1176042,21.11056202270528,-79.22991681241353,-9.853908678530669,-87.22975725628561
-5.4597677146666665,-81.89651572,4.383679103393243,-1.739545975666667,2.9999995,0.2614769300554802,0.2509000000000001,10,15,133.7104136997035,352.9839,mp-753399,Li3SiNi3O8,https://materialsproject.org/materials/mp-753399,23.04651989153073,-79.07781136303518,-4.06246198132927,-73.54805014817441
-5.53186111875,-177.0195558,4.375028258454348,-1.7366624534375,15.9999995,0.6720733649951445,0.5023999999999997,2,32,277.4474339349393,730.991765,mp-1175410,Li9Co7O16,https://materialsproject.org/materials/mp-1175410,22.422713412200565,-71.78800945505094,-8.828619582378456,-76.12260463458014
-5.841914321785715,-163.57360101,4.249393295725339,-1.901401126943572,6.000000099999999,0.28624456196532505,0.5804999999999998,5,28,244.28198502941385,625.12847,mp-1174786,Li4MnCo2O7,https://materialsproject.org/materials/mp-1174786,22.863516875032,-79.11553400150152,-9.928981364738725,-85.00573643148073
-5.7986190896875,-185.55581087,4.273388429909246,-1.8632701263099989,18.0000001,0.7466791717932213,0.22420000000000015,2,32,280.94150070865203,723.001465,mp-1175534,Li9Mn2Co5O16,https://materialsproject.org/materials/mp-1175534,21.978133763889122,-72.43168314392749,-8.97374553153646,-76.13919953087319
-5.7898617178125,-185.27557497,4.238312520315617,-1.8545127544349995,16.000000699999998,0.6582670830051846,0.39190000000000014,1,32,283.26654838569806,723.001465,mp-1175920,Li9Mn2Co5O16,https://materialsproject.org/materials/mp-1175920,21.939109652885726,-80.28773360729186,-9.82713356937869,-86.5587394145253
-5.8461970925,-93.53915348,4.4513734677067465,-1.8068474513099997,11.8024312,0.9515370287133956,0.0,10,16,144.5517026956484,387.49683,mp-1174027,Li4MnCo3O8,https://materialsproject.org/materials/mp-1174027,16.804614071280632,-76.62692617865257,-12.211983474763212,-83.58799895276279
-5.5112216714285704,-154.31420680000002,4.267117718932289,-1.730880245803572,9.0,0.4257163023991281,0.7135999999999996,2,28,246.3767122892592,633.11877,mp-1174233,Li4Co3O7,https://materialsproject.org/materials/mp-1174233,21.869085570417813,-71.93159103633924,-8.376611029732494,-77.68407267633344
-6.431555595,-77.17866714,3.5967200588093933,-2.739435067708334,5.0,0.5569194865418979,2.6366,12,12,104.6297090888643,226.6274772,mp-770727,Li3Al2FeO6,https://materialsproject.org/materials/mp-770727,20.121919277466738,-71.79567764934704,-11.936175977799305,-74.91934238005189
-5.924549934,-88.86824901,4.316393192709024,-1.7904725899999998,6.9999999000000015,0.5728148128158046,0.0,12,15,142.41679931685684,370.1972,mp-756976,Li3Cr2(NiO4)2,https://materialsproject.org/materials/mp-756976,22.020543867200736,-71.8860880972278,-10.430301842055924,-71.77037478435109
-6.7296743743650795,-847.93897117,3.986139512477919,-2.0379561996165068,5.6403801666666675,0.050726489600752725,0.0,12,126,1295.8388471497733,3110.6732850000003,mp-685293,Li7Mn11O24,https://materialsproject.org/materials/mp-685293,16.708104885179672,-68.33277835512774,-15.39613127500426,-68.66651290984024
-7.124520688333334,-341.97699304,4.076822959027422,-1.8020021285733336,11.000000025,0.22819639601404496,0.8819,212,48,561.7736082984331,1379.2217400000004,mp-772951,Mn3CrO8,https://materialsproject.org/materials/mp-772951,21.24167386006548,-68.71376917236542,-8.509888384922466,-71.3447072707383