energy_per_atom,energy,density,formation_energy_per_atom,total_magnetization_uB,total_magnetization_T,band_gap,sgr,num_sites,cell_volume,weight,mp_id,formula,URL,tsne_xrd_lin1_0,tsne_xrd_lin1_1,tsne_xrd_lin2_0,tsne_xrd_lin2_1
-6.6176202,-52.9409616,4.0205857426555935,-2.1578196646150003,3.99999945,0.6011522675464246,1.0628000000000002,59,8,77.54483380852116,187.75569,mp-18767,LiMnO2,https://materialsproject.org/materials/mp-18767,-4.308660015342107,-72.66665721925551,-26.142360237454948,-62.37973093090931
-5.7529419925,-184.09414376,4.116169748539656,-1.8175930291224995,24.0000017,0.9589450213691262,0.0,6,32,291.67216901966566,723.001465,mp-1100578,Li9Mn2Co5O16,https://materialsproject.org/materials/mp-1100578,5.459371635634119,-72.20492791579794,-23.443290791111284,-75.68486662194455
-6.21281936875,-198.8102198,4.5223266056881855,-2.761187017735,1.0,0.02698550428591769,0.6712,62,32,431.8638869625028,1176.14190272,mp-555433,NaYbCO3F2,https://materialsproject.org/materials/mp-555433,26.15892018549305,-22.122432695320324,6.486181685360462,-38.4215960304712
-5.970808542142858,-83.59131959,4.113029391438278,-1.646909234285714,5.9999998,0.4741793099749546,0.4701,1,14,147.46401800668718,365.2572,mp-1178108,Li(FeO2)2,https://materialsproject.org/materials/mp-1178108,8.589991474151232,-58.6178663085715,-2.792448536816333,-64.9997350307197
-7.068016001538463,-91.88420802,4.04331765901989,-1.9969775309169235,11.000000199999999,0.8949047760385062,0.6640000000000001,2,13,143.2495593513891,348.80449,mp-780798,LiMn2Cr2O8,https://materialsproject.org/materials/mp-780798,17.87883537145243,-67.24559756361421,-15.905166276835565,-68.74561578947198
-6.783029738571429,-94.96241634,3.66115788651332,-2.853188100867144,3.0000001,0.2019223752337134,1.2762,9,14,173.14671265439927,381.75401919999996,mp-764379,V2O2F3,https://materialsproject.org/materials/mp-764379,22.67628430152071,-39.766507410464335,21.857432087436727,-0.05328424498842944
-6.03060408857143,-84.42845724,4.3129205379816735,-1.676393109285714,8.9968196,0.7346796117423848,0.4008000000000001,12,14,142.71461558157412,370.672885,mp-752954,Li2CrCo3O8,https://materialsproject.org/materials/mp-752954,7.1255824270345975,-68.23480122802383,-6.298220835165094,-68.73096615128807
-5.500604045,-176.01932944,4.183514213746062,-1.7054053796875,26.0000058,1.0443126682124964,0.1378999999999997,12,32,290.14849757474377,730.991765,mp-1175497,Li9Co7O16,https://materialsproject.org/materials/mp-1175497,-1.3867342005842802,-77.35100651336539,-15.090743353211982,-85.81902271067415
-7.146316774615384,-92.90211807,7.414062539127658,-2.250794506923077,0.00025269999999999996,1.7308688491913876e-05,0.5630999999999995,12,13,170.14473219052073,759.6711999999999,mvc-15493,Ca2W3O8,https://materialsproject.org/materials/mvc-15493,10.854687163681817,-49.992401280189355,-21.605437256217204,-49.85006199411654
-6.9833268725,-195.53315243,3.451111943307435,-2.264122325267858,13.24466435,0.43621842591153537,0.0,12,28,353.8460712730532,735.4012,mp-1193684,Fe3Si2O9,https://materialsproject.org/materials/mp-1193684,11.940393396129195,-62.42133382338621,33.963387717791555,-62.5046967938713
-5.480713921666666,-32.88428353,10.163474089113203,-0.4155884088888886,0.00020390000000000002,2.772641603585924e-05,0.0,216,6,85.70396563521379,524.5586000000002,mp-1206270,LuInNi4,https://materialsproject.org/materials/mp-1206270,-76.22426557896273,-20.12490932838027,-70.34522992668572,-6.382014554963628
-6.204528767916668,-148.90869043,3.728221709656825,-1.9768293349916668,20.907646399999997,1.0616963780095858,0.0,164,24,229.4997613575493,515.270025,mp-1175490,Li7Mn5O12,https://materialsproject.org/materials/mp-1175490,1.5369043322952562,-64.25232316840668,-13.412705587593686,-63.962015402875245
-6.1905492127777775,-445.71954332,3.732605563758903,-2.1929327607716664,34.999999700000004,0.6554339734267021,1.2342000000000002,5,72,622.3239564633047,1398.8769949999999,mp-770619,Li24Mn11CrO36,https://materialsproject.org/materials/mp-770619,-11.883104533971558,-68.77999811860732,3.089812395230288,-81.58214118917479
-3.18013070875,-25.44104567,2.4420933437621946,0.03203041624999958,4.4e-06,3.582554109879456e-07,0.0,194,8,143.132199616625,210.49923160000003,mp-1039119,MgAl3,https://materialsproject.org/materials/mp-1039119,-48.53620193742874,-33.088318723754604,-58.515692705603456,-27.890163088370514
-10.419656135,-125.03587362,8.943989619810322,-0.1029362345833332,7.5e-08,5.7724938475801904e-09,0.0,60,12,151.41720043727332,815.5627999999998,mp-1552,Mo2C,https://materialsproject.org/materials/mp-1552,-70.08325854640697,2.0732668159461283,-66.20517796422236,5.237317033489972
-5.055620991944443,-182.00235571,3.11276816705153,-1.7186710524366664,2.99999995,0.08785186139036469,3.4661,14,36,397.96759205389327,746.0112784,mp-1211841,KH8W(NF3)2,https://materialsproject.org/materials/mp-1211841,21.636803326395288,-38.07239825657807,25.273451504442143,-42.51201868965867
-7.092230095,-28.36892038,4.378609212683009,-0.2798199612499994,0.2150591,0.03821540993518935,0.0,225,4,65.58382300697343,172.935369,mp-999208,Sc2MnSi,https://materialsproject.org/materials/mp-999208,-37.77468398135152,-58.41514687255503,-49.38355612581536,-41.151181607687114
-6.082095005,-121.64190009999999,3.85658585306171,-2.012936031019,13.999999300000002,0.8907889156706008,0.024500000000000192,1,20,183.16000096966084,425.38732999999996,mp-1174834,Li6Mn3CoO10,https://materialsproject.org/materials/mp-1174834,2.2017411071458737,-78.17936423116801,-28.15064785488687,-79.199568216637
-6.4180817178125,-205.37861497,3.915089811482399,-2.1323570092725,26.0009142,1.016219381489152,0.3589000000000002,2,32,298.18004237287005,703.025715,mp-1100509,Li9Mn7O16,https://materialsproject.org/materials/mp-1100509,3.636646408784334,-78.27959233678456,-28.57553702607903,-78.00607625849796
-5.830825508333334,-139.9398122,4.057701214182672,-1.8834266715383343,17.999997,0.972209222535392,0.1966000000000001,1,24,215.76953404825744,527.2554749999998,mp-1175033,Li7Mn2(CoO4)3,https://materialsproject.org/materials/mp-1175033,12.725194353815795,-77.65363438212901,-14.430684830806722,-84.48856274620472
-6.728575491904763,-282.60017066,3.9736247076871374,-2.0368573171561897,36.0,0.9682433892876628,0.8212000000000002,5,42,433.30668347842726,1036.891095,mp-690435,Li7Mn11O24,https://materialsproject.org/materials/mp-690435,18.086419060835507,-68.10344673032706,-17.415779833213705,-68.21661430972645
-7.1530512511475415,-436.33612632,4.1193667267900045,-1.807100612789508,66.9999986,1.0799156766949771,0.12419999999999964,5,61,723.040085718056,1793.6749450000002,mp-849596,Mn21O40,https://materialsproject.org/materials/mp-849596,17.095990711809705,-66.89611568870542,-15.500586221538427,-68.89990210533686
-5.751021623076923,-74.7632811,4.6211310893791,-1.4156651730769223,5.9999997,0.5014864639914178,0.0,216,13,139.43424231752618,388.03298,mp-1222210,Mg(CoO2)4,https://materialsproject.org/materials/mp-1222210,21.43777173974958,-69.06950347261008,-9.506225667360887,-73.21630008472411
-5.820542013571428,-81.48758819,2.3085303769069667,-2.08531933673,0.0,0.0,4.5766,1,14,112.21680737662449,156.00711719999995,mp-626500,Al(HO)3,https://materialsproject.org/materials/mp-626500,23.869483032928336,-41.71667185208202,-2.5576459912137093,-75.60285786250991
-6.136869809166666,-147.28487542,3.3300574463049233,-2.622447949781666,2.00000005,0.10089366084424263,1.1574,6,24,231.0167946408962,463.28281280000004,mp-763182,Li2VO2F,https://materialsproject.org/materials/mp-763182,12.066426167426224,-61.997800768674715,-0.6703539135867259,-75.40544153348883
-10.513083983333333,-31.53925195,11.65117058879693,0.04655399333333321,5.489999999999999e-05,1.2120888073618735e-05,0.0,69,3,52.785584037037495,370.37,mp-1224345,HfMo2,https://materialsproject.org/materials/mp-1224345,-44.808604104923326,-65.51572969740971,-53.51140107886568,-37.17981219339122
-6.890313400625,-110.24501441,4.397704155262671,-2.0823612115499994,22.0000013,1.60330076249368,0.0,166,16,159.9135022850138,423.508425,mp-754811,Li3Mn5O8,https://materialsproject.org/materials/mp-754811,-5.56141825594278,-60.83010937344375,-46.37872005978817,-54.85460395684589
-5.813849215,-23.25539686,10.79128331533103,-0.6776581024999997,7.219999999999999e-05,1.253725426716649e-05,0.0,225,4,67.11385592476921,436.15032,mp-864624,HoZnRh2,https://materialsproject.org/materials/mp-864624,-40.463383125537526,-61.52196065976543,-47.57342571698082,-39.43769190755219
-5.735843844500001,-114.71687689,3.7997926274584097,-1.7788051089709995,8.73813545,0.5427035784304864,0.0,166,20,187.64349558963485,429.38248,mp-1174206,Li3MnCoO5,https://materialsproject.org/materials/mp-1174206,1.1848336871946838,-65.76488665688308,-22.957333070665026,-70.73421850444818
-5.7696235490625,-184.62795357,4.133112028896536,-1.834274585684999,23.9999755,0.9628910171977912,0.0,1,32,290.4765586357028,723.001465,mp-1176263,Li9Mn2Co5O16,https://materialsproject.org/materials/mp-1176263,-1.7219191640857707,-76.92692581630392,-21.65681790655817,-77.99957733323174
-5.11186237,-61.34234844,3.639809061473368,-0.08881897229333369,0.0,0.0,0.1730999999999998,62,12,174.62098806646347,382.75947712,mp-1029466,NaNiN,https://materialsproject.org/materials/mp-1029466,19.298662227348046,-76.2132645077367,-14.386906407301133,-55.250429460114276
-6.7157606083333325,-80.58912729999999,3.9599752995118007,-2.2627262203683336,10.0000004,1.001021727441427,0.6789999999999999,12,12,116.42170114039007,277.63699,mp-755092,Li3Mn2VO6,https://materialsproject.org/materials/mp-755092,5.642697857282555,-78.12671065576649,-29.495424876058987,-75.78173093974598
-4.8695579150000015,-58.43469498,5.8348771534858415,-3.3497227407933337,1.00000015,0.07998954541841709,0.0,88,12,145.69487124483808,511.9492256,mp-12264,LiYbF4,https://materialsproject.org/materials/mp-12264,-9.693486891554338,-5.0535119837831655,-3.7290152104737446,-50.05035731941026
-9.483936725,-37.9357469,13.091754298414164,-0.6226681175,1.1e-06,1.8003065431470013e-07,0.0,225,4,71.20715801769381,561.4,mp-1184594,Hf2TcPd,https://materialsproject.org/materials/mp-1184594,-47.847901576202744,-65.51594500145886,-50.51712115753542,-36.533048179923185
-6.040489119333332,-90.60733679,4.290395273593081,-1.8776515886666667,17.0000001,1.3753090411142204,0.25580000000000025,12,15,144.05424262928796,372.1982,mp-758469,Li3(FeO2)4,https://materialsproject.org/materials/mp-758469,-8.507281789326067,-64.59130834572021,-25.09942084878661,-62.81671773372818
-5.7559586840625,-184.19067789,4.087304069082417,-1.820609720684999,25.999999600000002,1.0315717698324636,0.17180000000000015,1,32,293.73203909422307,723.001465,mp-1176231,Li9Mn2Co5O16,https://materialsproject.org/materials/mp-1176231,0.1949027301541704,-80.08231480944221,-26.954844284859945,-78.36856081934012
-4.790642246666667,-57.48770696,2.3921864589897024,-2.373982911825,1.5e-07,8.628386328504773e-09,0.0,63,12,202.5998430446828,291.867032,mvc-6494,VF5,https://materialsproject.org/materials/mvc-6494,18.70805576091848,-77.35237259543628,34.25657795805727,-46.809808914047935
-5.7980718284375,-185.53829851,4.174836039429571,-1.8627228650599996,26.000000699999998,1.0536635179006069,0.8938000000000001,1,32,287.5734872629235,723.001465,mp-1175877,Li9Mn2Co5O16,https://materialsproject.org/materials/mp-1175877,-2.266941040239788,-76.1796271111813,-19.858966420342146,-77.1922497566042
-5.93295852,-118.65917040000001,3.999541110711316,-1.975919784471,7.0000000999999985,0.4576065460625364,0.8934000000000002,12,20,178.27204456593552,429.38248,mp-1174053,Li3MnCoO5,https://materialsproject.org/materials/mp-1174053,16.301060237026853,-72.9413538710857,-11.572060478665405,-78.68274349842551
-6.09270162125,-97.48322594,4.254800492934451,-1.913201681994999,8.0000001,0.6229171092883372,0.4689999999999999,2,16,149.67082771638616,383.50167999999996,mp-1173920,Li2MnCoO4,https://materialsproject.org/materials/mp-1173920,4.6334445932692585,-77.19388821080268,-27.82493426936389,-76.03528625630678
-7.2261445464285705,-101.16602365,3.918297079552918,-2.3718880099676203,10.9999991,0.8531603188270789,0.0,166,14,150.25863156146298,354.558335,mp-756866,Li2TiMn3O8,https://materialsproject.org/materials/mp-756866,0.2118882787853672,-65.85427096238196,-16.459641942819193,-65.31193580352607
-6.602645581999999,-33.01322791,2.6685320829836234,-1.183956400951999,0.0,0.0,2.8075,160,5,34.25575621361297,55.049946,mp-1070456,Be3N2,https://materialsproject.org/materials/mp-1070456,-78.73775718102434,4.1223482914427185,-63.233933674806394,-27.8688949751372
-6.1565873522727275,-135.44492175,4.0830734073161,-1.7719939944927268,6.99999885,0.35402682666833696,0.2349000000000001,64,22,230.43010828715674,566.6009799999998,mp-755903,Li2Mn2CuO6,https://materialsproject.org/materials/mp-755903,6.42541884512592,-57.439283241045544,-5.7499267481879,-62.30990678338178
-6.4226262234375,-205.52403915,3.8979862091745288,-2.1369015148975,26.0000165,1.0117449564934786,0.5173000000000001,2,32,299.4883981717914,703.025715,mp-1100512,Li9Mn7O16,https://materialsproject.org/materials/mp-1100512,3.9193839886257886,-78.64534056980163,-28.77102266057951,-77.3340909479356
-6.433771034375,-205.8806731,3.9064184699155566,-2.148046325835,25.9999991,1.01393292018046,0.0,2,32,298.84193280159474,703.025715,mp-1100524,Li9Mn7O16,https://materialsproject.org/materials/mp-1100524,0.58234270761334,-80.57241434549591,-28.809662422659827,-79.04398110657726
-5.485712582916666,-131.65710199,4.326868472494383,-1.6699358190383335,6.000000099999999,0.3150712239525271,0.0,15,24,221.9320092884788,578.2884899999998,mp-867526,Li3Mn(NiO3)2,https://materialsproject.org/materials/mp-867526,7.997491082952398,-64.31133331443007,-2.6340797471897828,-67.65032289711118
-6.078626658392857,-340.40309287,4.540797994216788,-1.724415679107143,0.500000375,0.010746821598546313,0.7970999999999999,155,56,542.2102435702794,1482.69154,mp-1178130,Li2CrCo3O8,https://materialsproject.org/materials/mp-1178130,24.215700038239518,-68.59834487711336,-15.699796544362545,-72.06677579515402
-5.51155422,-33.06932532,10.435380689163546,-0.0833481627777779,3.6e-05,4.856355755695957e-06,0.0,139,6,86.3911856786992,542.9110000000002,mp-1228665,BPd5,https://materialsproject.org/materials/mp-1228665,-81.21768124013397,-5.288295300104788,-86.10219994111263,1.6779138284771395
-5.968937754375,-95.50300407,4.5741426094304405,-2.046997069375,13.0000001,0.9377098747103156,1.2771999999999997,12,16,161.56686337070502,445.0542,mp-780303,Li4Fe3SbO8,https://materialsproject.org/materials/mp-780303,1.4056506519900689,-60.07137458073003,-11.202391589834127,-60.00244820569537
-8.58391395875,-68.67131167,5.754936047644567,-0.560951660520832,0.0004146,4.1390797913520455e-05,0.0,156,8,116.73549431925623,404.57061719999996,mp-1216715,TiNb3(AlC)2,https://materialsproject.org/materials/mp-1216715,-71.50701972501892,2.039982007218913,-54.744596765855725,-36.10739883492351
-8.88497503,-195.46945066,2.9937407043578474,-0.2790967036845457,5.99999985,0.2813135875682505,1.1910000000000005,167,22,248.56384468199147,448.129,mp-1190798,Cr2(CN2)3,https://materialsproject.org/materials/mp-1190798,16.399533358350002,-48.14035605747166,6.347304834199457,-32.66486363230297
-7.046155946875,-112.73849515,4.403258582678516,-2.192796023125001,16.9999991,1.2851147836964394,0.0,166,16,154.16450978409625,408.7987,mp-1177691,Li3Cr5O8,https://materialsproject.org/materials/mp-1177691,-6.396829100667057,-61.50101960657916,-24.026372125962208,-64.66700376802125
-6.3094274185714285,-176.66396772,3.740966946918424,-2.048570685295,12.6490362,0.5451887851770694,0.0,12,28,270.3883337170533,609.14787,mp-1174463,Li4Mn3O7,https://materialsproject.org/materials/mp-1174463,5.719319127281598,-79.17214530610461,-25.900889897606486,-72.65722187162359
-6.391713912272728,-140.61770607,4.030263019453277,-1.9037840026745447,9.00038065,0.4567460816331772,1.0792000000000002,64,22,229.64842675329876,557.37537,mp-754926,Li2Mn2CoO6,https://materialsproject.org/materials/mp-754926,6.349543717747568,-57.872341962416364,-6.029634620782246,-62.50879795407603
-8.158397017818181,-448.71183598,3.533569997302069,-3.268106515636364,0.09267180000000001,0.0017877751290665683,0.0,160,55,604.1045891233466,1285.5138,mp-759713,Li8Ti15O32,https://materialsproject.org/materials/mp-759713,-0.6631882540195277,-66.15553078658039,-17.176930491106507,-65.159262322322
-7.108466943846153,-92.41007027,4.0474268544969805,-2.0831397956800006,14.000000400000001,1.0688857985114115,0.4926000000000004,2,13,152.64204249385926,372.05237999999997,mp-1003484,MgMn4O8,https://materialsproject.org/materials/mp-1003484,6.9262892828536184,-64.32536817017744,-6.697600157147707,-65.85724929519012
-8.744750415,-52.46850249,19.191756134653314,-0.7550454349999995,0.0,0.0,0.0,63,6,98.82995682626068,1142.23176,mp-30849,TaPt2,https://materialsproject.org/materials/mp-30849,-51.03542738508315,-34.56524839973293,-69.22708626162752,-7.652167858881687
-6.269642998333333,-75.23571598,4.167875610207839,-1.9967095270350004,11.999998800000002,1.228916762940548,0.6905999999999999,2,12,113.79840157050907,285.628685,mp-1173950,Li3Mn2CoO6,https://materialsproject.org/materials/mp-1173950,4.93694386420575,-77.75333341805691,-28.824732972908077,-76.13553933094154
-1.4190820816666667,-8.51449249,3.904147929092366,0.01949881083333338,3.3333333333333334e-08,3.393531398254655e-09,0.0,156,6,114.47332591405672,269.14200000000005,mp-1094429,MgZn,https://materialsproject.org/materials/mp-1094429,-71.36754733973841,1.5405089166084418,-57.148731108093,-30.58782995138855
-5.5439808677272735,-121.96757909,4.604786009072399,-1.5154291920454546,2.0026648000000002,0.11198031326870364,0.07869999999999999,12,22,208.42221829583104,577.968775,mp-773165,Li4Co5CuO12,https://materialsproject.org/materials/mp-773165,9.327850749242176,-65.23657910879976,-2.8208011436594536,-68.5310113766665
-5.988843521818183,-131.75455748,3.9959309034575914,-1.79706981340909,22.9999987,1.1561284392255649,0.0,5,22,231.8457582430359,557.9149950000002,mp-769792,Li4Fe5CoO12,https://materialsproject.org/materials/mp-769792,7.195196523657378,-57.458113874436776,-5.208855351775614,-63.10663961356594
-6.670466372962962,-180.10259207,3.7471138760899474,-2.0302854514062965,23.9999997,0.957366471710352,0.0,8,27,292.153067096165,659.2623150000001,mp-774493,Li5Mn7O15,https://materialsproject.org/materials/mp-774493,17.822894037225613,-68.0468200172333,-15.356427653557994,-77.64441555297091
-5.070671628636363,-111.55477583,4.6571652292123416,-1.2853131061363634,1.0,0.05710219381666326,0.2599999999999998,41,22,204.09136661153752,572.39679,mp-757774,Li2Co(NiO3)2,https://materialsproject.org/materials/mp-757774,9.478905663858082,-65.45331407927743,-2.931721457142843,-68.48244775022053
-5.521859574545455,-121.48091064,4.112373146106069,-1.441639622954545,10.9999999,0.5537187041641454,0.03120000000000012,64,22,231.51594910680114,573.3559700000001,mp-1178064,Li2(CoO2)3,https://materialsproject.org/materials/mp-1178064,6.2339890687173725,-57.83621619260651,-6.214578707078623,-62.344908372434034
-5.74044430875,-137.77066341,3.931035288032633,-1.7930454719550006,17.333909100000003,0.9070071195661884,0.0,8,24,222.72206585289132,527.2554749999998,mp-1175084,Li7Mn2(CoO4)3,https://materialsproject.org/materials/mp-1175084,6.4913762156658485,-79.89037387956974,-25.086786680238852,-74.14492909887903
-6.091964856875,-97.47143771,4.253973008055669,-1.9124649176199997,7.99999975,0.6227959354703285,0.05699999999999994,2,16,149.6999417578941,383.50167999999996,mp-1173895,Li2MnCoO4,https://materialsproject.org/materials/mp-1173895,4.818477183559184,-77.14588501784138,-27.71232582517777,-76.03671646718716
-7.3308559495454535,-161.27883089,3.6411455508306365,-2.7667936318939392,3.00000015,0.14489624242907898,2.2997999999999994,64,22,241.2912542083444,529.09119,mp-757277,Li2Ti2CoO6,https://materialsproject.org/materials/mp-757277,6.551831103461847,-56.936370312260685,-5.449361946651666,-62.408791100822704