energy_per_atom,energy,density,formation_energy_per_atom,total_magnetization_uB,total_magnetization_T,band_gap,sgr,num_sites,cell_volume,weight,mp_id,formula,URL,tsne_xrd_lin1_0,tsne_xrd_lin1_1,tsne_xrd_lin2_0,tsne_xrd_lin2_1
-8.278150828,-248.34452484,4.111223110327449,-3.69920424725,0.0,0.0,4.0582,63,30,397.16416841508317,983.3135315999999,mp-756705,YAlO3,https://materialsproject.org/materials/mp-756705,-5.556723592699216,11.627043638981785,6.587688518964634,28.700403214313372
-5.2517543233333335,-47.26578891,7.8979079881894805,-0.5105479588888886,1e-07,6.723657204821774e-09,0.0,38,9,173.3292524818509,824.39404,mp-12987,Ho2NiGe6,https://materialsproject.org/materials/mp-12987,-46.31169222205979,13.387301236749707,-42.059752695641905,29.385757074919788
-6.0415568199999985,-90.6233523,7.6998673022534305,-2.1913858569999998,0.0013856,7.390033697926785e-05,0.0,139,15,218.5087755877063,1013.21832,mp-1208840,Sr2HoCu2(BiO4)2,https://materialsproject.org/materials/mp-1208840,-5.882797746058567,21.27216453545527,-10.818771716792998,45.26476629569917
-6.7969157088636365,-299.06429119,4.450999016575079,-1.9620729380681816,6.000000075,0.11048098254591496,0.9613999999999998,62,44,632.9088309868447,1696.4832,mvc-9231,MgMo3O7,https://materialsproject.org/materials/mvc-9231,6.048963860896519,20.616586434428296,36.657655380609114,-7.7729911841013895
-7.8084256990625,-249.86962237,6.34695402248071,-2.70347284590125,6.00000045,0.1912156216147539,0.06320000000000013,55,32,365.6834796717888,1397.72458,mp-1213015,DyMnCrO5,https://materialsproject.org/materials/mp-1213015,-2.0704609715520266,27.344382573154373,1.0595918566297822,49.61810982374107
-8.0725996771875,-258.32318967,5.868683271790707,-2.8839382209895827,0.000446825,1.0821825800950882e-05,2.4452,62,32,481.1875175020311,1700.61472,mp-1216909,TiNbTlO5,https://materialsproject.org/materials/mp-1216909,-0.6473742747661524,16.239597059108576,10.255848594491336,9.510549300038708
-4.81228409,-19.24913636,3.9559784392409054,-1.6686766189100002,0.0,0.0,1.9398000000000004,166,4,94.31866979484468,224.6997,mp-23033,Sr2NCl,https://materialsproject.org/materials/mp-23033,-2.0489391268946755,25.758977947154246,-19.462769317868485,42.645115617413815
-9.108126575333332,-136.62189863,7.8147459672554,-3.9551371715,1.998393,0.1143504599323192,0.0,166,15,203.66688054262505,958.48691,mp-1226869,Ce4UO10,https://materialsproject.org/materials/mp-1226869,27.445103104153272,64.28872835603256,-10.825585498701805,36.118364932715735
-7.373512549565217,-169.59078864,4.532180675865758,-2.8914316901086963,15.0000003,0.5008677741542011,2.4002,150,23,349.01621566652466,952.58498,mp-31758,Ba3NbFe3(SiO7)2,https://materialsproject.org/materials/mp-31758,3.877378898512786,25.0875430504218,27.89248869973745,-2.130461121585001
-7.232507185999999,-36.16253593,7.685728974226175,-2.8562538935000004,1.3500000000000001e-05,1.3753441706517695e-06,0.0,139,5,114.39309358834734,529.4631999999998,mp-973451,Nd2BiO2,https://materialsproject.org/materials/mp-973451,-16.134518513496527,22.865324737489477,-14.774250272817564,39.091358177335984
-8.41052355,-151.3894239,6.762549509289867,-3.259520341342592,1.3139703999999999,0.06544494968100266,0.0,74,18,233.98438268295055,952.9019999999999,mp-1099757,Sm2Ti2O5,https://materialsproject.org/materials/mp-1099757,-24.192920792697603,50.81773111368036,-10.81174303780753,63.27389550166794
-7.94481247631579,-150.95143705,6.346777192629329,-3.0412636442105274,4.9356292,0.2001043056086571,0.2431000000000001,12,19,287.4507982983075,1098.67105,mp-558974,Pr5(RuO6)2,https://materialsproject.org/materials/mp-558974,8.605518761281749,-14.083796149415774,14.986553870514625,3.63895416221694
-5.0610214933333335,-91.09838688,8.06782941701091,0.3187586415348144,0.0,0.0,0.7021999999999995,15,18,373.46979492729,1814.5256,mp-1246204,In2Pb3N4,https://materialsproject.org/materials/mp-1246204,8.929463041732644,13.308564728740047,7.952342974664606,25.33880202991233
-7.764075195,-46.58445117,4.498241083992382,-1.7210722191266672,0.0,0.0,1.6957999999999998,59,6,136.686047398703,370.2694,mp-570157,ZrBrN,https://materialsproject.org/materials/mp-570157,-7.420508709972541,15.035810135276005,5.93490315781162,25.59628236728053
-5.48859122125,-131.72618931,4.730418144391166,-2.239259226573276,1.0001294,0.023068156201034917,0.0,70,24,505.26677151676097,1439.3658,mp-770322,Rb2PrO3,https://materialsproject.org/materials/mp-770322,30.02614368198556,61.19122322240837,-8.65852801226528,36.04418750257126
-6.877475743846153,-89.40718467,5.683703506282786,-2.34709099394231,17.0000001,1.0568644002301548,0.0,82,13,187.45933939659298,641.6370099999999,mp-1103591,BaTmFe4O7,https://materialsproject.org/materials/mp-1103591,7.570238884684608,56.01011641414651,-8.498135250695608,51.604601192368364
-7.508497062000001,-37.54248531,6.3447659119501285,-0.7257929270000005,6.677279400000001,0.8767633798882212,0.0,107,5,88.75535682386676,339.1260000000001,mp-1068807,EuSi3Rh,https://materialsproject.org/materials/mp-1068807,-47.30373071766567,29.96260347190784,-26.296613515155954,33.72929022402512
-6.610769613,-66.10769613,5.924059399065169,-2.4400800814375003,0.9821341999999998,0.049642437903162834,0.0,63,10,230.56594449437492,822.556,mp-1092225,CeLuS3,https://materialsproject.org/materials/mp-1092225,8.253082448646092,-7.1941318820365225,13.919954266933964,5.168991612983949
-8.75658653,-280.21076896,6.411213134472902,-2.82384470859375,9.999999825,0.31084239820736537,2.3178,55,32,374.9187574096325,1447.5324,mp-1212488,GdCrGeO5,https://materialsproject.org/materials/mp-1212488,-2.6178607943119983,27.681977086723165,0.5736370934308984,49.472683945191775
-7.8386338733333325,-23.51590162,8.081536040114102,-0.1955920625,3e-07,8.818324903786102e-08,0.0,139,3,39.64720590264058,192.95561,mp-269,TmC2,https://materialsproject.org/materials/mp-269,25.424960358393932,59.80687674291057,-12.559938122534357,38.33566241047549
-6.65023009,-26.60092036,4.590395779213436,-3.02779103075,0.0,0.0,3.8889,166,4,75.96675379591898,210.00257000000002,mp-7958,KLaO2,https://materialsproject.org/materials/mp-7958,14.824257742551675,62.653636159979925,-7.463773568542432,40.80341643209388
-8.337218708125,-133.39549933,5.405777654954133,-3.4248982713775153,0.0001001,4.931924580208382e-06,1.5095,8,16,236.53481815489067,770.0238319,mp-1228954,CsNd2Ti2NbO10,https://materialsproject.org/materials/mp-1228954,0.8942856817906506,21.519698367826265,5.403800874896961,34.418597426305354
-5.628224307142856,-78.7951403,4.018204023160613,-0.9628414753057136,5e-07,2.1244341626997572e-08,0.4973000000000001,176,14,274.2863247348075,663.7232772000001,mp-1246311,Sr3AlN3,https://materialsproject.org/materials/mp-1246311,-4.6225116904620585,22.55928372290666,-12.048985126453037,43.82149351296585
-6.216877110061728,-1007.13409183,6.23664662711758,-2.316548008240741,48.03315255,0.22373240897976845,0.0,21,162,2502.0133363806062,9397.0528,mp-616616,Sr15Fe10(Bi5O23)2,https://materialsproject.org/materials/mp-616616,7.079936881196223,19.780691149494654,28.240224488009197,12.209433035126102
-6.980930563333334,-251.31350028,6.397334225196492,-3.633062894120625,0.0,0.0,2.6888,176,36,656.3526848385317,2528.6412384,mp-1194517,Nd2SeOF2,https://materialsproject.org/materials/mp-1194517,-0.7077615133661661,15.42318695040931,15.625829021225815,51.23739723687873
-6.709482504166666,-80.51379005,4.2419325435025295,-2.3343610261333327,4.00000035,0.33102385960601416,0.3699000000000001,14,12,140.82448082335904,359.74339280000004,mp-754018,MnOF,https://materialsproject.org/materials/mp-754018,15.488446752394195,6.303349498481986,15.20564482455313,58.10137720574191
-6.422489450238095,-269.74455691,4.325327094664398,-2.8748073329138086,0.0,0.0,3.9034,176,42,670.9652134480033,1747.7120063999998,mp-17777,Sr5As3O12F,https://materialsproject.org/materials/mp-17777,-2.0544761861750915,21.864222769059534,7.217255127639022,40.179766379073264
-4.7759041983333335,-28.65542519,5.049662634138922,-3.13617726373,0.0,0.0,4.3562,99,6,170.81980929196067,519.4592763999999,mp-1228367,Ba2IBrF2,https://materialsproject.org/materials/mp-1228367,-17.978095355218187,11.193970048350216,-29.378919092519112,-7.094773118358614
-3.513675158333333,-21.08205095,4.924865952660175,-0.8548306449999998,0.0052041000000000006,0.00022687644311283707,0.0,139,6,267.3213562886921,792.828,mp-9908,Ba2Sb,https://materialsproject.org/materials/mp-9908,-6.470370627421963,20.763601919649172,4.389967271558874,15.487144378788331
-4.544353475555555,-122.69754384,6.767578154478816,-1.6387784706518516,0.0017484000000000002,3.6634743698359415e-05,1.4648000000000003,65,27,556.1924225842433,2266.7794,mp-1226921,CdBi8(Cl5O4)2,https://materialsproject.org/materials/mp-1226921,-6.599520826751523,16.14446686584002,4.052218046309285,23.40246756474994
-7.191342367692307,-93.48745078,4.7072045187074085,-3.026805991538462,1.8000000000000001e-06,1.004223922686652e-07,3.7317,160,13,208.89082720202234,592.1522,mp-1228399,Ba2SrV2O8,https://materialsproject.org/materials/mp-1228399,-14.02872747039908,3.452109318780797,-30.40283972912425,-19.002831680801858
-3.056969068,-15.28484534,5.0007920211419865,-0.6816211250000002,0.0,0.0,1.1348999999999998,8,5,171.5846480654408,516.7353,mp-998153,TlGeBr3,https://materialsproject.org/materials/mp-998153,11.744540739949105,23.055602275122105,33.331397911529365,1.4468781575891516
-3.809117257142857,-26.6638208,3.8985872098322316,-0.3633141614285717,0.0003792,1.9871821835972407e-05,0.0,71,7,222.386321608161,522.1150772,mp-9578,Ba3(AlSi)2,https://materialsproject.org/materials/mp-9578,2.7931573992614753,-11.337169350698336,21.278351493187863,-15.062131191268225
-4.845924508,-24.22962254,5.30435919702451,-1.438836733916667,1.0444016999999999,0.20778100322356785,0.0,221,5,58.578623028762465,187.1212,mp-1185889,MgInO3,https://materialsproject.org/materials/mp-1185889,-29.36317481146593,55.71920323535873,-18.237085851148887,64.63827089775548
-6.1707406065,-123.41481213,6.958410957313148,-0.7991121420000006,0.0,0.0,0.0,72,20,302.76363239077125,1268.7168,mp-15204,Tb2Si5Ni3,https://materialsproject.org/materials/mp-15204,-44.77586562320235,-0.9781500061597588,-21.628537561512516,14.27932852727634
-3.741360868,-18.70680434,3.698176087321616,-0.07215412199999989,3.8e-06,4.4119296722331617e-07,0.0,164,5,100.3765912553885,223.5480772,mp-1232292,Mg(AlGe)2,https://materialsproject.org/materials/mp-1232292,-9.203272402649613,-19.268662581775587,-45.729746306593505,8.877372176045277
-6.051604129583333,-145.23849911,4.7494603201359995,-1.934577963828125,1.00365015,0.022510243401550053,0.001000000000000334,173,24,519.6125003376828,1486.1914671999998,mp-1190730,Nd3AlCoS7,https://materialsproject.org/materials/mp-1190730,7.587617574020236,-4.436847377018041,12.4735291581719,3.770966380082274
-5.048006135833334,-60.57607363,4.617656370105363,-1.9277214761566093,0.0,0.0,2.1213,36,12,242.8377802834034,675.2876,mp-753798,Rb2SnO3,https://materialsproject.org/materials/mp-753798,0.8290724526003954,20.82831277263629,4.341210703952449,29.831141271267683
-7.91348305625,-189.92359335,6.482231102952155,-3.6131458134375016,0.0,0.0,5.0968,113,24,252.388664676672,985.247328,mp-1212878,Er2Be2SiO7,https://materialsproject.org/materials/mp-1212878,-1.7746966169539482,13.288006433709455,7.790520803795809,31.549010406277752
-6.438043632173914,-148.07500354,5.288866174790077,-2.546916859239132,0.0,0.0,2.2538,150,23,334.684036730198,1065.9786,mp-554139,Ba3Ga2(Ge2O7)2,https://materialsproject.org/materials/mp-554139,3.2801037661807357,21.514401303816786,-4.7216655533489655,44.5785630093351
-6.523652886250002,-156.56766927,3.544836929463476,-2.7554132418510546,0.0,0.0,3.8602,64,24,499.9193510097929,1067.2032,mp-5403,Rb2TiO3,https://materialsproject.org/materials/mp-5403,0.7053667411135676,29.754424714720926,2.33007228061265,27.832263822332717
-5.7901878387500005,-138.96450813,4.979337993106807,-1.851166593411459,0.0,0.0,1.6761999999999997,173,24,529.1534249618959,1586.734,mp-554150,Nd3CuGeS7,https://materialsproject.org/materials/mp-554150,9.698484018631227,-4.431256578145057,12.59293917981924,4.459333217397909
-8.1690013575,-32.67600543,7.771514750142425,-1.9965969957812495,2.7197998,0.37933443446183024,0.0,166,4,83.55878127057913,391.06476000000004,mp-1215765,YUS2,https://materialsproject.org/materials/mp-1215765,0.8837480549418114,19.513244662218664,-12.671649956937944,40.13606115383734
-8.198028144642857,-229.54478805,7.981172112366946,-3.402226635029762,0.0,0.0,3.7847,173,28,343.77081516598946,1652.2912,mp-556997,Dy3BWO9,https://materialsproject.org/materials/mp-556997,3.5035668373272366,17.65707590496951,7.770036677198175,30.88163787455993
-2.5113273125,-10.04530925,4.849223012312021,-0.09530248437500033,0.0010021000000000001,9.458874602095856e-05,0.0,225,4,123.46646720524649,360.55547,mp-1185064,LaYbMg2,https://materialsproject.org/materials/mp-1185064,-10.541995716364546,50.608561955294505,-55.603439693684976,52.7731692281345
-6.4244458325,-128.48891665,5.341380778970551,-2.68625826975,0.0,0.0,2.3338,62,20,257.1444143320763,827.1448,mp-4438,CaSnO3,https://materialsproject.org/materials/mp-4438,-27.66516205023053,35.2703714529009,-9.877753754118206,62.92559886053994
-3.4398355071875,-110.07473623,4.824419815305091,-0.5034346428125,0.185487625,0.0017357748848469954,0.0,130,32,1245.3716291953435,3618.22,mp-21538,Ba5Ge3,https://materialsproject.org/materials/mp-21538,3.4007477587044006,28.08650051488448,21.30983752478629,-15.247181264883896
-4.8991742785,-97.98348557,7.431787537997644,-1.724054761875,0.00136755,4.3325656082076365e-05,0.0,107,20,367.85400893922724,1646.3406,mp-619126,Ba2TlCuHgO5,https://materialsproject.org/materials/mp-619126,-12.922134022829841,25.50059535139413,-17.88478016566246,40.99717628331517
-6.209240175714285,-347.71744984,7.888239360705406,-1.6682396422799997,2.996312375,0.03887808885798857,0.7675000000000001,114,56,898.1721973171801,4266.68516,mp-21823,Mn(PbO2)2,https://materialsproject.org/materials/mp-21823,8.880470275780702,17.891356253064867,31.43912677488859,4.461494810658213
-5.9357515361538455,-77.16476997,6.836245341924883,-2.220195518942308,9.9e-06,6.252957775485495e-07,0.0,123,13,184.51306628147339,759.61875,mp-1208792,Sr2PrTlCu2O7,https://materialsproject.org/materials/mp-1208792,-24.373767063742953,42.77596261737836,-9.813808543100604,63.768478565680255
-6.091591198333332,-73.09909438,5.046218603626434,-2.6908663797772987,0.0,0.0,2.2270000000000003,36,12,298.74264882392015,907.8502076,mp-768223,Cs2CeO3,https://materialsproject.org/materials/mp-768223,5.338155302445261,-5.061534321994881,13.105630558857017,1.464071396425627
-4.8996816658333335,-58.79617999,4.393616097720616,-1.1969763926250003,1.5e-07,1.1675383298707623e-08,0.0,59,12,149.72610929848068,396.15993856,mp-1101698,NaCu2O3,https://materialsproject.org/materials/mp-1101698,11.728406703287424,54.01678603125389,9.29842977410152,38.09480557165941
-5.302271288787878,-174.97495253,7.975690119395102,-1.6455792535242428,0.40211640000000004,0.007653329075163188,0.0,12,33,612.3205373353946,2941.0202,mp-766035,Bi12Cl5O16,https://materialsproject.org/materials/mp-766035,1.4661673251184473,24.46478301185658,-0.11659428793596024,25.825730507714987
-7.776210416785713,-217.73389167,5.415305995949051,-3.416415225309524,0.00011059999999999999,3.3524347005084937e-06,2.2649000000000004,57,28,384.4786488010033,1253.8516,mp-1211619,KDyTiO4,https://materialsproject.org/materials/mp-1211619,-13.237527570027249,38.16147749674328,-4.067830038449287,62.0630329670449
-7.5058958111111105,-135.10612460000002,6.018726462181787,-3.2481644643477767,0.0,0.0,3.2922,12,18,294.2425161527997,1066.5002,mp-558340,Nd5As2ClO10,https://materialsproject.org/materials/mp-558340,1.9910646314004343,24.046305252571806,0.9407947920104128,46.741831038709535
-6.551617738500002,-131.03235477,4.382825842424817,-1.9532470062500007,0.0,0.0,2.9179999999999997,148,20,227.9206348022895,601.5735999999998,mp-1222101,MgCd3(CO3)4,https://materialsproject.org/materials/mp-1222101,-10.957241757228521,22.603165629452548,-14.228654040362194,50.255361006760985
-5.509202863333333,-99.16565154,4.494591724246273,-1.8722498055902783,3.00667975,0.07595930212401318,0.0,185,18,461.30019072102965,1248.6042,mp-30903,Ba3CrS5,https://materialsproject.org/materials/mp-30903,2.8980592082672536,28.3870029531427,1.9711410233060136,23.321456116235304
-6.2390135175,-349.38475698,6.364731174561042,-2.212438631071429,1.13375e-05,1.334711204632474e-07,1.949,141,56,989.9366911756633,3794.3588,mp-1203156,YCdBiO4,https://materialsproject.org/materials/mp-1203156,2.2534202265048773,20.042302053790287,50.44238458501412,5.201540439080577
-8.151907044166666,-97.82288453,5.958919707426123,-0.12091921812499963,2.2276827,0.14101357889870078,0.0,123,12,184.1067979500083,660.6756,mp-1226856,Ce3NdC8,https://materialsproject.org/materials/mp-1226856,-8.282222419060764,-25.62648370723154,-3.796339151234263,-18.951312264407395
-6.079150215714287,-85.10810302,6.050666085215298,-2.213023972976192,3.3e-06,1.255474905281102e-07,1.6500000000000004,82,14,306.32562696134585,1116.1882,mp-37923,Sm5AgS8,https://materialsproject.org/materials/mp-37923,-0.9966999737763302,-5.5944041665045985,4.980723192964551,7.732888867465882
-8.707456659,-174.14913318,6.893593566017636,-3.98948777625,0.0,0.0,4.4724,62,20,248.47833748435397,1031.537728,mp-31121,HoScO3,https://materialsproject.org/materials/mp-31121,-20.58073367753668,44.74769326533925,-6.629764234636424,62.75355984271521
-6.6319680125,-159.16723230000002,4.2001084137032425,-2.7553292669899427,3.575e-06,8.494194181566059e-08,3.5381,62,24,490.4912775871992,1240.6312,mp-1101461,Rb2ZrO3,https://materialsproject.org/materials/mp-1101461,0.7991162469858627,20.834872962363054,4.642583905588187,30.044480592467288
-3.8402216833333336,-34.56199515,5.359610154707192,-0.8501326155555557,1.3e-06,5.804201849017662e-08,0.0134000000000003,12,9,261.02269697756503,842.4854,mp-1079622,Ba3(ZnAs2)2,https://materialsproject.org/materials/mp-1079622,9.908558599680983,42.38737277164368,9.080885715232004,19.50431583006328
-5.5093483515,-110.18696703,3.277085505555529,-2.186076938448,0.0,0.0,3.9595,62,20,246.53508053482147,486.53872,mp-27425,Sr(HO)2,https://materialsproject.org/materials/mp-27425,1.7699419795538067,0.14259695863152222,-2.265845583150597,-11.681199551346769
-9.2339168725,-184.67833745,6.847742149345247,-2.823523922812498,0.37687492,0.01266472519292784,0.0,6,20,346.79984460190866,1430.13555,mp-684639,UO3,https://materialsproject.org/materials/mp-684639,6.628001021395395,-5.636677221841568,14.083400764948964,6.9148718585348785
-4.9134276844444456,-44.22084916,3.7453211832847946,-1.5581761039032571,0.0,0.0,1.7193,121,9,185.27255469104992,417.8795,mp-545760,Rb4CO4,https://materialsproject.org/materials/mp-545760,0.8836923131115048,-18.327725748828346,15.609149790763624,-17.533029374192562
-7.305875248571428,-102.28225348,6.757438899845309,-3.188871173035714,1.0000001,0.06418642922298165,0.1902000000000008,38,14,181.56588673098338,738.8687386,mp-1218168,SrNd3AlCuO8,https://materialsproject.org/materials/mp-1218168,-7.4234720356053785,19.913014788347628,-24.500929687856946,38.215443464966604
-6.960873919473685,-264.51320894,6.24691633408675,-2.4288670326973687,2.505e-05,2.832083119388792e-07,0.0,85,38,1030.811280057431,3877.8924600000014,mp-542503,La9(SbO)5,https://materialsproject.org/materials/mp-542503,-1.554516115796029,24.68232822453209,6.642520503967017,49.469250884215356
-3.766104241666667,-22.59662545,5.47100724749096,-0.05459554000000052,0.21671525,0.013301592320380414,0.0,139,6,189.87302421167846,625.578,mp-1186250,Nd2Mg,https://materialsproject.org/materials/mp-1186250,-20.94350400473785,41.5193022968191,-53.57979496203033,54.45689120148192
-6.361439266388889,-229.01181359,5.317985024482682,-0.8243612424999998,0.151684125,0.0024329647432819656,0.0,62,36,726.5771617119448,2326.910944,mp-1212960,Er2Sc3Si4,https://materialsproject.org/materials/mp-1212960,-2.766828435259276,23.18713460648593,19.872164176860124,34.30954403746627