energy_per_atom,energy,density,formation_energy_per_atom,total_magnetization_uB,total_magnetization_T,band_gap,sgr,num_sites,cell_volume,weight,mp_id,formula,URL,tsne_xrd_lin1_0,tsne_xrd_lin1_1,tsne_xrd_lin2_0,tsne_xrd_lin2_1
-5.8778453695454544,-129.31259813,4.584851018470653,-1.6822286624999998,27.000014899999996,1.4255926584722909,0.2320000000000002,5,22,220.72218219885903,609.4276,mp-753185,Li3Fe5(NiO6)2,https://materialsproject.org/materials/mp-753185,-10.76821954789071,-62.277208635081216,-30.781596107365772,-62.278757796523415
-4.065312671,-40.65312671,6.688964275673131,-0.43784660300000056,0.0,0.0,0.0,129,10,227.51268926479855,916.464,mp-505515,Sr(CuSb)2,https://materialsproject.org/materials/mp-505515,-30.405957347308675,9.32607511391165,-45.45936353281069,20.510679173474273
-6.4056125925,-51.24490074,10.355929477220645,-0.2522047949999999,1.10099065,0.10807690077945097,0.0,194,8,118.72117220743073,740.403,mp-979980,VPd3,https://materialsproject.org/materials/mp-979980,-53.83176656855013,-45.75533680254449,-63.791417589919746,-34.19777389467143
-4.485039556,-44.85039556,4.7100450758875185,-0.2953905330000005,1.2e-06,9.640655731991633e-08,0.0,156,10,145.06147834596038,411.4604266,mp-1228194,Al6CoCu3,https://materialsproject.org/materials/mp-1228194,-48.30293280334767,-52.04134749875414,-49.77783652670796,-28.896046501568105
-7.920432246,-39.60216123,7.147327243163258,-0.067504117,8.9041806,1.7761823651793085,0.0,69,5,58.422997262724024,251.4655,mp-1225135,Fe4Si,https://materialsproject.org/materials/mp-1225135,-49.65084978169239,-51.24634543648982,-66.59362805666962,-31.434699410507363
-2.7960271266666665,-16.77616276,7.028657769186865,-0.3591107191666663,1e-07,8.966920108848013e-09,0.0,74,6,129.96730907706166,550.12,mp-30800,NdZn2,https://materialsproject.org/materials/mp-30800,-50.082949036241466,16.808560327837338,-42.80163494269585,22.376083690663986
-5.5480500883333335,-33.28830053,8.371881160199688,-0.7384415216666671,3e-07,4.4804462646039265e-08,0.0,123,6,78.03283925952795,393.4154158,mp-1228921,Al3Ni2Pt,https://materialsproject.org/materials/mp-1228921,-53.854770274195786,-23.573954299542603,-56.51154750780733,-14.61550367276089
-11.2073414975,-89.65873198,18.73476658693208,-0.20481694729166652,5e-08,5.772643837929878e-09,0.0,63,8,100.9421774472314,1138.864,mp-15671,Re3B,https://materialsproject.org/materials/mp-15671,-61.60213171090386,-21.597371658093085,-59.3049045373767,-6.701191687139605
-3.69762160725,-147.90486429,8.819082886639361,-0.002559517249999743,0.0,0.0,0.005799999999998917,2,40,594.448936780306,3157.1040000000007,mp-21985,In3Cu7,https://materialsproject.org/materials/mp-21985,-59.33774762999794,-30.39728109918977,-49.06328543338939,-25.12683431620005
-6.919223801666668,-83.03068562,8.312412776247433,-0.2740487348611123,2.1325307000000002,0.15939704691846054,0.0,35,12,155.9166332610002,780.4956,mp-1219126,SmFe2Ni2B,https://materialsproject.org/materials/mp-1219126,-59.76048381994929,-14.243085424175744,-54.084244232240316,-1.3863899119051974
-6.38955175625,-51.11641405,9.13459552793221,-0.49844034875,1.2718827,0.08752297938289817,0.0,25,8,169.3567046438368,931.6282,mp-1226998,Ce4Ni3Pt,https://materialsproject.org/materials/mp-1226998,-35.15913082925704,13.762138624544596,-43.6058310654947,23.045925652744433
-6.032802846304349,-555.01786186,4.354708414385543,-2.168935915245652,2.75e-07,1.2704734041540782e-09,1.1513,51,92,2522.577648595344,6615.376000000001,mp-1211876,KHf6CCl15,https://materialsproject.org/materials/mp-1211876,35.40522810520697,-50.357908803494304,0.4692777133548908,-55.55783996715315
-4.1484750592857145,-58.07865083,3.818712531500421,-2.0405152317857143,3e-07,6.421414214958729e-09,3.0379,11,14,544.4625303291352,1252.09094,mp-756437,SrLaBr5,https://materialsproject.org/materials/mp-756437,30.403571014966797,-27.58244236046864,11.380691337038135,-40.733194105666314
-3.26055763,-13.04223052,8.380115010514464,-0.15475702999999985,1.2e-06,2.7889486650423517e-07,0.0,123,4,50.14390512942361,253.0574,mp-1215438,Zn2CuNi,https://materialsproject.org/materials/mp-1215438,-47.76807575537354,-50.02651806873311,-66.78990974649426,-44.377673040188704
-4.6310574,-27.786344399999997,7.582269103730877,-0.482453689083334,1.3e-06,1.1934115358300524e-07,0.0,183,6,126.94936951309208,579.66976928,mp-1220866,NaSn2Pd3,https://materialsproject.org/materials/mp-1220866,-47.93103643848229,-24.51629293181773,-58.29264109315889,-20.165377199355817
-5.61110205,-89.77763279999999,7.336358826775283,-0.8119272134375004,2e-07,8.693343586402146e-09,0.0,121,16,268.11467087965116,1184.546334,mp-1225338,Dy4Cu5P7,https://materialsproject.org/materials/mp-1225338,-38.16195407694271,-16.90659823350869,-40.90956373297298,-20.525922650382885
-6.88958396875,-110.2333435,8.011565196134669,-0.0498189787500003,13.0943895,0.7061118121386691,0.0,51,16,216.1171372107804,1042.69547,mp-1222167,Mn3Ni4Sb,https://materialsproject.org/materials/mp-1222167,-57.87325300470393,-31.8228084772363,-62.78461588263443,-30.991926218253642
-6.898177413611112,-248.33438689,8.864475753824273,-0.6500783536111112,0.726773,0.0238608752175781,0.0,55,36,354.9685223075076,1894.93278,mp-505543,Lu2CoB6,https://materialsproject.org/materials/mp-505543,-36.93726193952722,-11.201851707344334,-37.035187309260074,-10.976720987581091
-7.0280876150000005,-84.33705138,4.431544180586587,-0.9765878836979168,0.0015389000000000002,5.206671542664118e-05,0.31659999999999977,156,12,344.45115524447937,919.25,mp-1027304,Te2Mo3WS6,https://materialsproject.org/materials/mp-1027304,-8.813682605122967,-80.2803855050721,-24.412174152018213,-49.95409750105921
-6.171197775714285,-43.19838443,7.0156156451058225,0.4318539585714285,7.9311387,0.6633842307847836,0.0,187,7,139.33102392351134,588.6600000000002,mp-1225139,Fe4Sb3,https://materialsproject.org/materials/mp-1225139,-34.83110268762868,-24.40528728497632,-45.35763197622882,20.132657934377647
-8.381881895000001,-100.58258274,7.3564029053180535,-0.29277222666666697,12.5749242,0.8686368707423341,0.0,160,12,168.71144441703026,747.4135386,mp-1215720,Zr3AlFe8,https://materialsproject.org/materials/mp-1215720,-75.95380298189995,-21.078362123334813,-69.89851982576957,-7.324216571095412
-7.350818585833332,-88.20982303,11.330587649970315,-0.8771864774999992,0.00113695,5.5813091279526366e-05,0.0,62,12,237.40109424869297,1619.8920000000005,mp-20022,CeGeIr,https://materialsproject.org/materials/mp-20022,-52.59113246801116,13.6538857963745,-37.51036562644804,20.24726070431639
-6.21132674,-86.95857436,5.1357366571178185,-2.1713934994196435,5.999987,0.3389317470415456,0.4051,139,14,206.30772343655647,638.0712,mvc-13306,Sr3Cr2Cu2S2O5,https://materialsproject.org/materials/mvc-13306,-26.054307990110928,48.03745250693367,-14.253440571586491,62.862178982378865
-6.6765453975,-80.11854477,17.872021714474727,-0.6574125712500004,0.07715119999999999,0.004148360581384305,0.0,160,12,216.74226828678192,2332.750048,mp-1226640,CeU(Pt4Au)2,https://materialsproject.org/materials/mp-1226640,-71.62229761770091,-10.29880882043344,-74.14116513976431,-8.74743965786171
-8.660117354583333,-207.84281651,7.124864543414361,-0.1883361245833335,1.58e-05,3.8018231908581534e-07,0.0,216,24,484.33136987856636,2078.1176,mp-1215917,Zr4NiMo,https://materialsproject.org/materials/mp-1215917,-70.64977598844312,-2.9476471241661186,-65.24656469364038,6.8667855587167725
-8.734507636666667,-104.81409164,5.97110886548184,-0.33221060952333303,0.95582205,0.09736054453845416,0.0,36,12,114.41197391147678,411.4124000000001,mp-1245504,CrFe2N3,https://materialsproject.org/materials/mp-1245504,-51.03305804603012,4.667474495125099,-57.554453719904444,4.181427165375893
-7.203359364761906,-151.27054666,7.812926697441325,-0.7720670326190473,4.569201799999999,0.20804964084762406,0.0,174,21,255.9474436925203,1204.246674,mp-1191328,Ce2Co12P7,https://materialsproject.org/materials/mp-1191328,-63.831079572255724,-30.13178148809348,-65.95083517006866,-17.24371429095385
-6.729979865,-26.91991946,7.1424132799572515,-0.907216815,2.4e-06,3.079603724876943e-07,0.0,63,4,90.82257963323154,390.6517,mp-1066136,YPd,https://materialsproject.org/materials/mp-1066136,-51.17564195923283,5.682921174900148,-40.76464473210984,19.81965127604439
-5.13053010375,-41.04424083,7.622289153178247,-0.5001333487500004,0.0114096,0.0007831216182867736,0.0,194,8,169.79255114919462,779.3902400000001,mp-1184714,HoAs3,https://materialsproject.org/materials/mp-1184714,-70.42206571900398,-0.10874867779815726,-56.99276045549297,-30.557128471114243
-5.73330781875,-45.86646255,6.9854706221451375,-0.41655592541666653,8e-07,7.572282850154812e-08,0.0,129,8,123.12339624050287,517.9492,mp-1078472,TiCuGeAs,https://materialsproject.org/materials/mp-1078472,-64.06195751585467,-30.220781665179853,-65.97908392104459,-17.63271266691924
-6.721066818157895,-255.40053909,8.036575900665555,-0.10811836026315734,21.359677899999998,0.5014511794028331,0.0,194,38,496.4133698200759,2402.51125,mp-1197924,Y2Ga2Co15,https://materialsproject.org/materials/mp-1197924,-56.65840011137183,-24.63469822427177,-60.85597652219201,-12.509534206057275
-5.390697175568182,-474.38135145,3.284505524503375,-1.7314638964429467,9.575e-06,4.697315781200725e-08,0.9725,51,88,2375.5624572622432,4698.80432,mp-1210315,Rb(Nb2Cl5)3,https://materialsproject.org/materials/mp-1210315,35.065559444649665,-50.430745584684374,1.756655939467774,-55.31059624186956
-4.07159139,-32.57273112,12.857549517330082,-0.11206231500000063,1.685e-05,1.4624411673173628e-06,0.0,194,8,134.27616495359266,1039.7,mp-977129,HgPd3,https://materialsproject.org/materials/mp-977129,-50.086023654719476,-35.03181017203867,-59.21275180924424,-27.40319302307816
-5.009930064375,-80.15888103,10.262174903981432,-0.6370906018750002,0.00010949999999999999,5.319563955187719e-06,0.0,55,16,239.89186018729882,1482.5379999999998,mp-2408,Ga3Pd5,https://materialsproject.org/materials/mp-2408,-58.146802752500975,-31.570666883959927,-62.784370369221534,-20.21527427274512
-6.4973475647368435,-123.44960373,8.513283066845643,-0.06163096947368424,21.097508899999998,0.9657391074252644,0.0,166,19,254.59436546560462,1305.259225,mp-1190263,Pr2Ga2Co15,https://materialsproject.org/materials/mp-1190263,-54.92354833029173,-24.825760893463716,-57.09667154745957,-12.196647723892156
-6.55010047625,-104.80160762,4.602389143841918,-1.98365720149,18.9999985,1.4363793798780784,0.0,12,16,154.15649674414846,427.26378000000005,mp-756351,Li3Mn4NiO8,https://materialsproject.org/materials/mp-756351,-6.2662039190826535,-61.28490120416196,-23.571087617702993,-63.90967641261214
-5.729482467619048,-120.31913182,7.284203766387504,-0.4223002559523799,10.215752199999999,0.4084744862432761,0.0,174,21,291.46260500665227,1278.5444690000004,mp-1191383,Dy2Mn3Cu9P7,https://materialsproject.org/materials/mp-1191383,-51.77051279997729,-0.9212846151679092,-55.68975164358136,18.671404165304853
-2.857575028888889,-51.43635052,5.5210657634923,-0.06462866055555555,0.00014213333333333334,4.922778195217732e-06,0.0,155,18,336.48297918757265,1118.76,mp-1094638,MgGa5,https://materialsproject.org/materials/mp-1094638,-47.70467142065433,-31.461546881720082,-67.3295831717676,12.359377277009294
-8.5469179625,-68.3753437,6.552641524938693,-0.538986460937501,0.0,0.0,0.0,194,8,95.69733848739584,377.6306,mp-10046,V2AsC,https://materialsproject.org/materials/mp-10046,-35.72669777276787,-45.975585208829315,-77.05600313017986,-10.519825213247909
-5.7962310725,-139.10954574,5.662779419045522,-0.4670322449999992,0.002202216666666666,5.842041242281144e-05,0.0,8,24,439.3117852506378,1498.1434799999995,mp-676566,LiNbAs2,https://materialsproject.org/materials/mp-676566,-63.369656591393024,-28.60878195386388,2.5570962066893186,-11.699722834617793
-5.399607678888889,-48.59646911,6.319057874217923,-0.42510347888888905,6e-06,3.929311379169872e-07,0.0,38,9,177.9558347196469,677.1977,mp-1079213,Y2CuGe6,https://materialsproject.org/materials/mp-1079213,-45.99860954579203,13.482472516881426,-42.549073849513256,29.24535626717409
-2.6741707580000003,-40.11256137,3.8953811339423865,-0.15791295081249976,1.9995299,0.04182454964767173,0.1023,12,15,557.1524658500897,1306.998,mp-1104676,Os(SeBr6)2,https://materialsproject.org/materials/mp-1104676,37.5004005749848,-24.765485523789483,11.717510175459273,-42.04525830364293
-7.40947379125,-59.27579033,5.6500503523983525,-1.1545853614283337,0.0004841,5.479946826608977e-05,0.0,63,8,102.95232663575469,350.2994,mp-1014227,Ti2ZnN,https://materialsproject.org/materials/mp-1014227,-63.22518164178886,-33.680387033883626,-66.56878656373706,-20.827977532293612
-8.998467838095237,-188.9678246,3.974273530106938,-3.3736861089087307,0.0,0.0,0.15479999999999985,148,21,246.90282098185742,590.9282,mp-752989,Ti8O13,https://materialsproject.org/materials/mp-752989,-8.241786414031285,-65.37437796418017,-23.516975476597878,-69.09577254234561
-6.316270940952379,-132.64168976,7.882040406625744,-0.7704343897619039,8.8e-06,3.929005386102641e-07,0.0,174,21,261.02221789076,1238.987834,mp-1190664,Tb2Ni12P7,https://materialsproject.org/materials/mp-1190664,-63.66771709054039,-29.893536072696328,-65.76950985483114,-17.218093110504878
-7.275962683333333,-43.6557761,6.099733123148553,-0.5082253703472214,4e-07,7.137120437008979e-08,0.0,139,6,65.31521991490267,239.92535,mp-6576,YNi2B2C,https://materialsproject.org/materials/mp-6576,-39.81646218881874,-18.2097311644642,-43.30188022853447,-21.245247546679295
-6.957886268275861,-201.77870178,9.064730181184824,0.0679460479310337,52.566965100000004,1.4398182607649097,0.0,225,29,425.4834327818765,2322.675,mp-669649,Yb6Fe23,https://materialsproject.org/materials/mp-669649,-56.619152261162064,-17.542436368364132,-50.863687613824474,-14.861275265344364
-6.5407416554545454,-71.94815821,10.321161264176066,-0.7042114409090914,4e-07,2.6578280972966585e-08,0.0907,187,11,175.3923029772064,1090.1594,mp-20082,Yb(As2Rh3)2,https://materialsproject.org/materials/mp-20082,-50.29796929167942,-0.769130801202999,-53.718572462643635,17.538081082528223
-7.534883513333334,-90.41860216,5.796730689353103,-0.8970354908854171,0.0006017,2.075430790756532e-05,1.5642999999999998,156,12,337.8696512010923,1179.46,mp-1028764,WSeS,https://materialsproject.org/materials/mp-1028764,-7.4108239333319865,-82.00607237667701,-21.753414667984945,-50.72495022611562
-3.420826204285714,-47.89156686,10.225341506762383,-0.2460239568571428,6.7e-06,2.2586679690905862e-07,0.0,120,14,345.7003643062615,2128.769152,mp-30402,K(SnAu2)2,https://materialsproject.org/materials/mp-30402,-50.150778134568526,-28.75479946216899,-57.24166511038558,-21.89860638493218
-7.392667122500002,-147.85334245,10.446619526857507,-0.2462526005000001,8.675e-05,4.224549801703074e-06,0.0,186,20,239.31310233625013,1505.543,mp-1106065,B3Rh7,https://materialsproject.org/materials/mp-1106065,-61.099853250196006,-22.50502757637713,-59.84566836985172,-9.917746285673426
-7.087257560277778,-255.14127217,8.499231652231062,-0.8971330989087305,7.3927416,0.18944558961721653,0.0,189,36,454.7769606422492,2327.710849,mp-1225819,Er5Co19P12,https://materialsproject.org/materials/mp-1225819,-63.97104277767208,-29.092422119355803,-65.61416055804212,-16.84229321882563
-7.203786117999999,-144.07572236,4.47346537377204,-2.4926906418749994,7.9999999000000015,0.4709353459827001,0.22299999999999984,2,20,197.97307169739602,533.3362599999999,mp-754421,Li5Nb2V3O10,https://materialsproject.org/materials/mp-754421,-3.514121070448915,-60.8491886199445,-16.288320902261678,-82.46756020770695
-8.2613488725,-33.04539549,11.799453388876287,-0.3099019899999993,0.0006077999999999999,0.0001389023572845087,0.05590000000000028,225,4,50.99510697470189,362.36088,mp-867507,TaGaFe2,https://materialsproject.org/materials/mp-867507,-38.80470677441159,-31.40493221856465,-60.83065460084875,-42.09235771210985
-8.013334738333333,-96.16001686,7.234835269917281,-0.5701622633333336,2.528066625,0.1466675817071467,0.034800000000000615,62,12,200.87773899432042,875.2081800000002,mp-20059,ZrMnGe,https://materialsproject.org/materials/mp-20059,-52.821321638766925,-8.167099440783938,-53.96071734630892,17.212122754787796
-2.96574846,-23.72598768,11.920522684688525,-0.025837872499999914,0.00035660000000000005,2.865463408818381e-05,0.0,194,8,145.03202117693462,1041.142338,mp-1183205,Ag3Au,https://materialsproject.org/materials/mp-1183205,-48.222535409187486,-32.73235975158723,-57.855398858596686,-28.04091792842818
-7.94110286625,-63.52882293,6.9626431631405765,-0.11112668743999964,8.5e-07,1.4972897920941509e-07,0.0,63,8,66.15923723637357,277.4058,mp-1245595,CrNiN2,https://materialsproject.org/materials/mp-1245595,-56.248853916341524,-37.66549016215848,-70.64548849816619,-25.081389695220555
-9.2049039375,-73.6392315,18.415431116699747,0.34946705499999986,5.22e-05,4.571138564538628e-06,0.0,194,8,133.08329479375928,1475.898,mp-1184334,ErOs3,https://materialsproject.org/materials/mp-1184334,-49.99412105442464,-34.93522440838105,-59.001799147120046,-27.88487897974349
-6.065573042142858,-84.91802259,4.1687487229346765,-1.176976052083334,2.80853265,0.12228002096345328,0.0,11,14,267.6710484759504,671.9826,mp-1238851,TiCrAgS4,https://materialsproject.org/materials/mp-1238851,-29.76074786180077,-7.6570913737805775,-38.777003957933296,-29.929803381044106
-6.579817271875,-105.27707635,4.224070529274844,-1.953084898861607,6.99556745,0.45313323498054997,0.0,141,16,179.91793558600844,457.674304,mp-1105140,Co2PO5,https://materialsproject.org/materials/mp-1105140,-1.3730007761931355,-18.027969832434813,-9.489372386508327,-42.34118001431602
-8.05765836,-64.46126688,15.217663583426932,0.8554335324999993,9.3e-06,8.131169117186299e-07,0.0,194,8,133.2930121398211,1221.5359999999996,mp-1183599,CaOs3,https://materialsproject.org/materials/mp-1183599,-50.0680869165309,-34.805365869282134,-61.15837707260135,-28.286155817071926
-8.247519465,-181.44542823,7.582104571508462,-0.017478172102275126,34.986288200000004,1.4691514303491962,0.0,166,22,277.529232461305,1267.2124,mp-978091,Pr2Fe17C3,https://materialsproject.org/materials/mp-978091,-51.52195461128069,-22.6772875143835,-57.40009081197195,-10.559237477437645
-7.063938379166667,-169.53452109999998,8.550737964046228,-0.6258624644444453,2.5e-08,1.1967437864275075e-09,0.0,55,24,243.45363027430335,1253.634,mp-13342,ErB4Rh,https://materialsproject.org/materials/mp-13342,-37.611898061605004,-11.74035480794565,-38.05092346119651,-10.709393342821956
-5.58558369625,-89.36933914,2.709554018750973,-2.0873655917500002,0.0,0.0,2.8988,15,16,156.89038912574998,256.00300512,mp-753443,NaBeO2,https://materialsproject.org/materials/mp-753443,-58.350543541677176,-31.93130197234477,-65.46026389586542,-17.114944555314953
-7.483932218333332,-44.90359331,8.51929888287207,-0.8842108408333331,0.0,0.0,0.0,166,6,108.99026302426195,559.1682000000002,mp-10214,Y2GeRh3,https://materialsproject.org/materials/mp-10214,-57.34079946822873,-15.940770482317724,-56.163327107717,-8.236598296308113
-4.973586378333334,-29.84151827,9.234612427786438,-0.3377024766666672,1.7199999999999998e-05,1.6652223538437668e-06,0.0,191,6,120.3742633080418,669.427,mp-2606,BaPd5,https://materialsproject.org/materials/mp-2606,-73.457643485538,-3.9664336289255977,-66.6187918739608,8.706167249852095
-4.75111593625,-38.00892749,8.889213894105048,-0.6493646924999998,3.205e-05,2.7360440821187584e-06,0.0,63,8,136.51562794678895,730.7968,mp-1025508,ErGa2Ni,https://materialsproject.org/materials/mp-1025508,-49.86580997491204,7.9720797490041875,-38.13275492937107,22.157343763642764
-7.224390125,-86.69268149999999,4.931494310956119,-0.9360892792187508,0.00026875,9.26763093069682e-06,1.4177,156,12,337.953672416034,1003.66,mp-1026911,MoW(SeS)2,https://materialsproject.org/materials/mp-1026911,-7.410389477938608,-82.02482286858537,-21.980654935733586,-50.759137291737005