energy_per_atom,energy,density,formation_energy_per_atom,total_magnetization_uB,total_magnetization_T,band_gap,sgr,num_sites,cell_volume,weight,mp_id,formula,URL,tsne_xrd_lin1_0,tsne_xrd_lin1_1,tsne_xrd_lin2_0,tsne_xrd_lin2_1
-6.788921902,-33.94460951,8.358696162290912,-2.0333373332500004,0.9999995999999999,0.1916227418430348,0.0,221,5,60.817729664259005,306.1397,mp-1070440,VPbO3,https://materialsproject.org/materials/mp-1070440,-30.09464131370515,50.740918425237616,-18.165462886085567,64.99580600539967
-7.216288964999999,-101.02804551,7.7424820727535435,-0.21318851595238086,6.8e-06,2.793231443022799e-07,0.0,140,14,283.71311890877587,1322.8498,mp-1208257,Ti4CrBi2,https://materialsproject.org/materials/mp-1208257,6.586209893588754,-6.916213441932608,13.880924164242108,3.454674200239328
-7.5480540489473675,-286.82605386,3.833671964826253,-2.742466873910977,14.0000456,0.3208217368931653,0.2862,74,38,508.56104645902235,1174.110442,mp-1204296,BaMn3(PO4)3,https://materialsproject.org/materials/mp-1204296,10.271222436871891,13.329269482545975,46.83500269246557,23.73729395599761
-7.360759229069767,-316.51264685,7.050853156724037,-2.9566840711337217,2.65e-05,5.356511000712009e-07,0.0,5,43,576.5557401670238,2448.12664,mp-757399,La12Cu6O25,https://materialsproject.org/materials/mp-757399,-21.438847012096726,38.104582042942525,-13.276684726472237,56.222232432922276
-6.831126285,-81.97351542,4.074794743110987,-2.618743873180834,6.0501949,0.5057581477340009,0.0,139,12,139.41320286607444,342.1058900000001,mp-19124,Ca3Mn2O7,https://materialsproject.org/materials/mp-19124,-5.807687877895219,53.997612243047506,-9.461006882236953,74.44581861234876
-4.6275236300000016,-46.275236299999996,4.36401393677008,-0.2610772222514882,2.0000003,0.08819856232823654,0.0,5,10,264.26885457153054,694.517224,mp-6543,VAg(PSe3)2,https://materialsproject.org/materials/mp-6543,-4.252060649907199,4.360217028729415,-12.856123698351336,-8.779093201582395
-5.513753404,-55.13753404,3.823263095293886,-3.6205811497829656,0.0,0.0,6.8909,225,10,165.37920590861427,380.7728692,mp-1114432,Rb2LiYF6,https://materialsproject.org/materials/mp-1114432,-22.83886468540061,6.5597817030632495,-27.720953652434336,-9.42307289554206
-7.502171716363635,-82.52388888,3.2083816537564545,-3.003650358348485,0.0,0.0,3.3991,166,11,148.56071282682294,287.039,mp-8891,K2Zr(BO3)2,https://materialsproject.org/materials/mp-8891,-8.035329839049249,25.44934732948097,-1.4968355410618253,15.81442489859846
-4.662179271428571,-32.6352549,3.834303965238706,-1.7349954412499995,0.0,0.0,0.9137000000000004,139,7,181.81824817179162,419.8314,mp-13660,Ca4Sb2O,https://materialsproject.org/materials/mp-13660,0.8277072981865764,7.9165866734379025,-0.6511357703513844,22.1604520529474
-5.6049822375,-89.6797158,7.7831749612035575,-1.8523640245237496,0.0,0.0,2.0043,13,16,302.92996052081963,1419.8744064000002,mp-757162,Bi3O4F,https://materialsproject.org/materials/mp-757162,8.72144991770542,23.69470889301855,28.117555300622996,-3.4482565215578185
-5.651565234444443,-101.72817422,5.929437895175954,-2.217610978472222,1.0586209999999998,0.047653376501122564,0.0,139,18,258.8953524269427,924.4612,mp-1189753,Sr5Ni2BiO10,https://materialsproject.org/materials/mp-1189753,-17.99047340746146,38.385109534403725,-12.50985134004018,55.27297106428978
-7.298166472999999,-72.98166473,6.308026983776068,-0.5812626274999999,6.0916269,0.4339347495263637,0.0,115,10,163.60112791232882,621.485135,mp-1220287,Nd2Mn3FeSi4,https://materialsproject.org/materials/mp-1220287,-60.22152683959993,15.54023572398104,-60.299363911642544,24.837014986367336
-8.572597240714286,-360.04908411,6.444560673874121,-3.0676457604761915,8.5e-06,1.6575010208868058e-07,0.0,129,42,597.643979210088,2319.4594,mp-1228321,Ba3ZrNb5O12,https://materialsproject.org/materials/mp-1228321,-24.095722798867513,18.534923450908,-25.29999449120303,53.101579838606426
-6.41787929111111,-57.76091362,6.634103150751103,-1.856533916574074,1.7068076,0.1414473068308917,0.0,99,9,140.62654687712273,561.8242,mvc-14940,Ti(BiO3)2,https://materialsproject.org/materials/mvc-14940,-16.214310957535773,11.161955160961563,-27.847030384783107,40.896475598111465
-8.167479327999999,-81.67479328,9.041110582046649,-0.6174312917500003,4.8e-06,3.718883250416e-07,0.0,63,10,150.42018568888668,818.9903999999998,mp-1205505,ErSiRu2C,https://materialsproject.org/materials/mp-1205505,-35.13119230831381,21.342931242366017,-28.193930817945336,36.70260599406305
-6.609380458,-33.04690229,9.464311678607974,-0.8960138699999994,4e-07,5.209466667369328e-08,0.0,139,5,89.48374577810478,510.01635,mp-2881,Tb(GeRh)2,https://materialsproject.org/materials/mp-2881,-49.563458097684034,29.082914824099657,-50.46443085746522,20.547991082477093
-7.894667644,-78.94667644,7.7212070173092755,-1.2372724040473329,0.0758841,0.006837818665240073,0.0,139,10,129.3333824576273,601.3769000000002,mp-21136,Ce3Ni2B2N3,https://materialsproject.org/materials/mp-21136,-11.108439590873912,18.826788922479192,-24.41463133678896,39.18548116771166
-5.821970702857143,-81.50758984,5.313075748599283,-0.5732290053057137,1.56341025,0.05682710957373181,0.0,176,14,320.6231049978641,1025.86859,mp-1246164,Ba3CoN3,https://materialsproject.org/materials/mp-1246164,4.609887003813668,16.222938283857225,6.876374975396677,22.88368517876995
-7.922977310555557,-142.61359159,6.590366457534122,-2.832734878194445,8.00000005,0.3816951418804961,0.0,46,18,244.2591181639161,969.4184,mp-1099951,Sm2Cr2O5,https://materialsproject.org/materials/mp-1099951,-23.687125359061078,45.600473212125465,-10.967891471935609,65.19296039482502
-8.808126410909091,-96.88939052,6.308100921648758,-3.393506985750001,2.1000000000000002e-06,1.4622942024236135e-07,2.2524,119,11,167.36396808393818,635.7867992800002,mp-1220741,NaLaTa2O7,https://materialsproject.org/materials/mp-1220741,-5.6505475945322905,16.43073440053682,2.7281314482482677,46.68186514011305
-7.0738332109090925,-155.62433064,7.5041613639999865,-2.801494815568184,0.0,0.0,1.3472,74,22,303.3235242451057,1370.75288,mp-755742,Ho2Sb2O7,https://materialsproject.org/materials/mp-755742,16.050026597844642,62.113326861286886,-6.831707434695828,41.45766480738588
-8.486811882916667,-203.68348519,5.351885873883973,-1.9292224402864582,15.99999945,0.3660604939048957,0.3884999999999996,173,24,509.3831021264589,1641.73209,mp-1191699,Gd3MnGaS7,https://materialsproject.org/materials/mp-1191699,7.1984198550676,-4.493805103643779,12.15742317966537,5.583754298716911
-4.682188287000001,-46.82188287,4.744206531272561,-0.4426593359519998,0.0203849,0.0009964393334599047,0.0,59,10,238.4158643730531,681.1608,mp-1245912,BaSr2N2,https://materialsproject.org/materials/mp-1245912,1.1268478689535808,26.852815899383984,4.473396133911639,45.86000825013829
-6.411450057391304,-147.46335132,5.772617422530325,-2.2714261975582604,17.048064399999998,0.5682731125316066,0.0,139,23,349.61929815625183,1215.39958,mvc-138,Ba2Ca3Mn4Tl2O12,https://materialsproject.org/materials/mvc-138,-15.823768751987743,24.099495264541453,-13.738338576020706,43.51259741136695
-6.8937588283333335,-41.36255297,6.119201303612875,-3.494887069836667,3.5000000000000004e-06,3.7240309268023423e-07,4.876199999999999,129,6,109.52977433778402,403.62480000000005,mp-27823,SmClO,https://materialsproject.org/materials/mp-27823,-7.141225276938343,10.571855195762238,-3.3063225548539066,23.971092228357893
-5.435140560833332,-65.22168673,4.202168578844803,-2.1858085661566093,0.9999978,0.040978840786289564,0.0,36,12,284.3916252876614,719.6829,mp-755057,Rb2PrO3,https://materialsproject.org/materials/mp-755057,3.364258735661706,-0.666443959384373,13.047769251795852,1.5019671202815952
-9.347806343333334,-56.08683806,8.926832488574831,-4.15622565875,5.429999999999999e-05,7.731074011060666e-06,2.2688,123,6,81.85353241278466,440.03348,mp-1219918,PmPaO4,https://materialsproject.org/materials/mp-1219918,28.097924691341078,64.27637052040214,-11.335734117289482,34.70527351841782
-6.5148537895833325,-156.35649095,2.9050492535997368,-2.4884127541279764,2.9999995999999998,0.10967129083157352,3.0679000000000003,113,24,318.7907189835667,557.7121151199998,mp-1013911,Na2CoP2O7,https://materialsproject.org/materials/mp-1013911,4.06257199509653,8.899765384931436,9.040485763912296,31.712409720385075
-6.9674394232142856,-585.26491155,4.1005860681949375,-3.305446281892551,0.0,0.0,4.9583,2,84,1282.5714672411184,3167.221344,mp-1218945,Sr20P12Br3ClO48,https://materialsproject.org/materials/mp-1218945,-4.4461822243372175,45.97860471583546,5.8666563926468775,55.07078489218049
-3.76691793,-60.27068688,1.7429423152814885,-1.2669132561124998,1.1e-06,5.624430994232953e-08,1.9964,10,16,227.9247671979653,239.2354,mp-37498,Li5NCl2,https://materialsproject.org/materials/mp-37498,23.386440153698352,62.44463676255222,-12.241754572350581,6.8558761008364275
-7.108621267999999,-35.54310634,8.019202227310304,-0.8499929002500011,2.0968111,0.4080994647789342,0.0,221,5,59.87847200059235,289.1697,mp-1187750,VOsO3,https://materialsproject.org/materials/mp-1187750,-30.14190657043544,53.92780689302893,10.43929557390406,35.369368693511525
-8.662326973333334,-207.89584736,5.1396035809222065,-2.0516216465364594,20.8699445,0.4862240772847776,0.0,173,24,500.22139249240433,1548.2560772000004,mp-1192190,Gd3AlVS7,https://materialsproject.org/materials/mp-1192190,7.328224675723102,-5.521421292923435,12.185850684416778,-11.719280324254479
-7.978289878181817,-351.04475464,6.566432143994709,-3.322695685795455,1.00000005,0.017983283819835248,0.06610000000000005,19,44,648.0499041231112,2562.6472,mp-557299,Nd3MoO7,https://materialsproject.org/materials/mp-557299,21.18523388351377,56.018785510753354,-1.2282758250137495,36.02121810978433
-7.864705685625,-125.83529097,5.445592763128111,-0.9981452118149994,1e-07,4.396234370011844e-09,0.059800000000000075,64,16,265.0919808110297,869.346,mp-1029770,BaCrN2,https://materialsproject.org/materials/mp-1029770,-9.126531510127414,42.193364477685215,-5.867209987481494,52.47503704706679
-5.570012765,-22.28005106,7.409740053992431,-0.28904379750000064,0.0,0.0,0.0,63,4,89.46206844905615,399.2021,mp-11799,PrNi,https://materialsproject.org/materials/mp-11799,-50.84194240395559,6.105269921237498,-39.78974968989087,21.442681291349594
-4.6051627716666665,-55.26195326,4.65251926418271,-1.4211462278313576,0.0,0.0,2.1117,63,12,374.1151676170937,1048.2006038,mp-574620,CsYZnSe3,https://materialsproject.org/materials/mp-574620,1.0951400190574914,1.203580449756238,-6.377938680777374,-12.212156717691471
-3.6756853266666663,-44.10822392,4.199137450836247,-0.4569015382814285,5.3e-06,2.2111498383681826e-07,1.1294,15,12,279.3412830862234,706.392572,mp-644431,Cd2P3Cl,https://materialsproject.org/materials/mp-644431,-3.3142836251262824,30.63742600353186,1.6115641583210032,20.512545142984568
-5.5405961925,-66.48715431,4.859400266259716,-1.3340150832480238,5.0000007,0.14825869558322968,0.5045999999999999,63,12,393.03146295342873,1150.1669938,mp-574651,CsSmMnSe3,https://materialsproject.org/materials/mp-574651,2.4947701563042286,1.1419699068675075,-2.1424015023583767,-10.695825879944794
-8.9767041505,-179.53408301,5.021137647492637,-3.957910425625,1e-07,4.532772053984221e-09,4.2086000000000015,6,20,257.1067910268285,777.4394679999999,mp-1222847,LaY3Sc4O12,https://materialsproject.org/materials/mp-1222847,-20.968882487807953,43.98379708312249,-7.340184939078107,63.27416426042226
-8.7082178545,-174.16435709,7.0162112337779154,-3.99237908975,2.75e-07,1.3009916780312012e-08,4.4528,62,20,246.34037761900692,1040.852448,mp-1212985,ErScO3,https://materialsproject.org/materials/mp-1212985,-20.505284152647892,44.8093872950451,-6.538705547355407,62.792434735653714
-6.326729454166667,-75.92075345,6.762484946796715,-2.439911029036459,1.06e-05,4.705563106335479e-07,0.0,12,12,262.52561871460233,1069.12605,mp-1102847,Tm5S7,https://materialsproject.org/materials/mp-1102847,36.564987368160686,29.513707873294106,17.379079648447014,13.551602392834258
-5.902498835416666,-141.65997205,5.407554597524917,-1.9363637427864584,1.99999995,0.047580367550015205,0.3022,173,24,489.8686194030609,1595.2598772,mp-1192418,Dy3AlNiS7,https://materialsproject.org/materials/mp-1192418,6.87045828059208,-5.697770926959072,11.080779527193,2.7577469200577305
-6.473405787000001,-517.87246296,2.838666038393544,-2.2326342484092847,4.999999975,0.0712062403193434,3.3891,1,80,818.3316983191081,1398.925496,mp-759579,LiMnPH2O5,https://materialsproject.org/materials/mp-759579,24.827274306268173,-3.836721247998761,52.823597382530615,-0.3303511048443801
-7.31886849025,-292.75473961,7.119656003638403,-0.6963993016779995,2.9999455875,0.052067188674518594,0.0,206,40,671.4700962525684,2878.9664,mp-1204171,Tb2N3,https://materialsproject.org/materials/mp-1204171,28.588651325565092,62.5418583100239,-8.561651854193366,33.36960712169714
-8.2265859825,-263.25075144,5.279177793042452,-3.1712859449895827,0.0,0.0,1.9151,57,32,442.6613076210151,1407.30671712,mp-557744,NaUBO5,https://materialsproject.org/materials/mp-557744,7.680252706839465,2.5305454379678722,47.23588115385329,1.264394931015418
-7.564332399791668,-363.08795519,3.7478592027055777,-2.5433911068923614,12.000000300000002,0.2971528218239484,3.8237,161,48,470.62915273202685,1062.2164,mp-1181439,Fe3B7BrO13,https://materialsproject.org/materials/mp-1181439,-14.167811075383934,18.07831411325773,-13.347291540643035,25.610875097816137
-7.218093294285715,-101.05330612,5.270838843336972,-2.995039299642858,5.00000035,0.3094778924626645,0.9362000000000004,20,14,188.28591431212124,597.65214,mp-1227123,CaLaFeO4,https://materialsproject.org/materials/mp-1227123,-24.24733659004768,40.21427567853437,-12.180357220473876,61.88150307123554
-8.887291735833333,-319.94250249,7.672613194172463,-2.826360648333333,11.999999925,0.2767293905854887,0.0,15,36,505.3629327220256,2335.0576,mp-1213585,Eu2WO6,https://materialsproject.org/materials/mp-1213585,22.153719743791452,55.67555455432869,-1.3662063452691144,34.92993702108931
-5.455776403888889,-98.20397527,8.86286333239556,-1.3752146598611108,0.0,0.0,0.5453999999999999,9,18,343.2115639655365,1831.8372,mp-684589,Bi4O5,https://materialsproject.org/materials/mp-684589,7.716411546083371,19.031363947105746,28.583751312873673,-3.676135493241917
-8.855596563333334,-53.13357938,9.243892868103117,-2.9739093842708333,0.0,0.0,1.0634000000000006,129,6,81.39480438634166,453.1088,mp-1096995,HfSO,https://materialsproject.org/materials/mp-1096995,-19.2680951636214,8.430561239327327,-19.632026283624175,44.56149180936514
-3.614010118333333,-21.68406071,6.441814951056754,-0.5373144491666668,1.05e-06,8.661356932529245e-08,0.0,194,6,141.28003390820146,548.0749400000002,mp-1018757,LaZnGa,https://materialsproject.org/materials/mp-1018757,-52.135813192665346,22.44930800396769,-17.200481720278507,62.71088683424276
-3.539243158333333,-21.23545895,4.145596204717225,-0.8672603366666666,0.0,0.0,0.0,139,6,200.40692947189683,500.3232,mp-15697,Sr2As,https://materialsproject.org/materials/mp-15697,-1.2031035454878496,62.440084259312364,-34.36679436249122,70.53430900632323
-7.433696868979593,-728.50229316,6.812884227387048,-3.159554137551022,2.65e-06,2.3748907920083858e-08,0.4793000000000003,12,98,1300.408075655806,5335.333560000001,mp-774918,Li3La14(CuO7)4,https://materialsproject.org/materials/mp-774918,-7.616723021088822,19.754120639187246,-24.287593241121982,38.830844224163464
-7.747822158076923,-201.44337611,3.6746972073552033,-3.44573062474359,0.0,0.0,3.9442,100,26,368.08096579607854,814.5464000000002,mp-1192641,Sr2Ti(SiO4)2,https://materialsproject.org/materials/mp-1192641,3.3499277315280502,26.09444960485941,-6.135525061706352,29.388617304416428
-7.719530997692307,-200.70780594,6.702885663334138,-3.5111673807523074,0.0,0.0,1.4115000000000002,176,26,432.5998767701874,1746.2206199999998,mp-558533,Nd3U(ClO2)3,https://materialsproject.org/materials/mp-558533,0.21523486922407556,11.623452674795955,8.195037205766697,29.548227041562075
-6.8758598565,-137.51719713,5.1274186289158665,-2.5075202479420002,3.00000015,0.14163324738517788,1.0065,20,20,246.8502043923879,762.22498,mp-559975,SrMnO3,https://materialsproject.org/materials/mp-559975,-9.479484153579689,12.493949273404779,12.057147153101196,63.88236667009015
-7.0980565730769225,-184.54947090000002,5.6963151765315425,-2.77691430235577,2.9999857999999997,0.09424448779958687,0.0,8,26,370.9716042417981,1272.58145,mvc-12163,Ba3Y5(NiO5)3,https://materialsproject.org/materials/mvc-12163,-7.227503684893321,29.31203339824444,5.155396968426879,59.512440067596025
-7.893848543333332,-378.90473008,3.4166067627070564,-2.6514299518198605,11.9998448,0.30281287614483554,2.7083,219,48,461.8263606894138,950.221,mp-561520,Cr3B7ClO13,https://materialsproject.org/materials/mp-561520,-24.85375865335838,-41.304258016744406,-32.26087905353669,-12.571526170844484
-5.0988441025,-40.79075282,5.554198513677024,-0.5889544993750002,2e-07,1.5173585109247607e-08,0.0,63,8,153.60990416769826,513.7969544,mp-1206051,NdAl2Ni,https://materialsproject.org/materials/mp-1206051,-12.545732959953414,52.83189311167869,6.318396402560619,47.98868386089397
-7.258962064999999,-174.21508956,7.960954434576838,-2.3870711280555548,0.0,0.0,3.1573,12,24,319.57097166878856,1532.0867999999996,mp-1212988,DyAg(WO4)2,https://materialsproject.org/materials/mp-1212988,15.626035061333921,24.87797282890344,24.900253313211717,36.42906582202292
-7.920711200217391,-364.35271521,5.72881008078933,-2.6534021251992748,0.99999955,0.01838753451005797,0.0,127,46,633.8021838575359,2186.5986000000007,mp-1207566,YbNb5Ag2O15,https://materialsproject.org/materials/mp-1207566,9.458392767008476,32.72844699937955,30.970439923361763,36.56469882993382
-7.355897220833333,-88.27076665,6.385728049864308,-2.9545351538541667,10.000000199999999,0.7015485282903684,1.0099999999999998,139,12,166.11915691764398,638.82374,mp-1227917,BaLa2Fe2O7,https://materialsproject.org/materials/mp-1227917,-24.36716471021957,35.113736798282645,-18.963585208090404,59.598158495669324
-4.2616853625,-51.14022435,5.442583142567314,-1.4092031319980243,0.0,0.0,2.1716,63,12,368.6408464473,1208.2573238,mp-505713,CsTmZnSe3,https://materialsproject.org/materials/mp-505713,1.7639235280019063,1.6807012083132156,-2.086110662291861,-10.486403802729106
-5.2152850275,-62.58342033,6.814481190254656,-1.4365853478645836,0.0,0.0,1.6030000000000006,36,12,261.1619819409744,1071.7504199999996,mp-1216911,TmCuPbS3,https://materialsproject.org/materials/mp-1216911,8.70335422251026,8.704819966971156,6.644194991124146,17.077802360058392
-5.8839448842857145,-123.56284257,10.557898016520687,-0.2505936985714282,0.051306500000000005,0.0014455129455984367,0.0,147,21,413.64504972025236,2630.0027550000004,mp-1222465,Lu4Co3,https://materialsproject.org/materials/mp-1222465,-38.5802262647065,19.581538997542427,-39.931373286299,30.503057591215377
-5.329341051111111,-191.85627784,5.621414916366553,-1.8194171970303707,0.00045975,9.668307873221726e-06,3.4072,20,36,554.1772510186843,1876.0536128,mp-1204544,InTe2O5F,https://materialsproject.org/materials/mp-1204544,12.848641013410168,19.650672129955105,35.48090634516056,2.093425245917445
-8.174966287272726,-89.92462916,5.012984608250172,-3.3217518436553024,0.0,0.0,0.8251999999999997,139,11,175.01300475666974,528.345,mp-552028,Nd2Ti2S2O5,https://materialsproject.org/materials/mp-552028,-0.8614789518477659,4.3289277888039255,6.977042776307865,6.69029592770465
-6.943666015,-277.74664060000003,6.5438846650271225,-2.68186064175,3.25e-06,5.841616260889324e-08,3.1367,217,40,648.3772438871707,2555.1377,mp-1208503,Tb3Sb5O12,https://materialsproject.org/materials/mp-1208503,25.97840861233739,64.79451045611529,-7.615819320037557,34.33894115279259
-6.171296445,-49.37037156,6.479781251117914,-0.8349864656250006,0.0,0.0,0.0,63,8,135.93528963175845,530.4488,mp-1025420,SmSi2Ni,https://materialsproject.org/materials/mp-1025420,-37.215439465803115,9.364086118845664,-22.653126517908674,22.318007175022522