energy_per_atom,energy,density,formation_energy_per_atom,total_magnetization_uB,total_magnetization_T,band_gap,sgr,num_sites,cell_volume,weight,mp_id,formula,URL,tsne_xrd_lin1_0,tsne_xrd_lin1_1,tsne_xrd_lin2_0,tsne_xrd_lin2_1
-5.7261553073333324,-85.89232961,7.4027057564020655,-1.77862099025,3e-07,1.2209942318736358e-08,0.0,1,15,286.34201051080316,1276.5166,mp-753517,SrBi5O9,https://materialsproject.org/materials/mp-753517,12.243874430997494,18.986153690645185,45.97107719963883,3.7693969788324044
-8.335236440500001,-166.70472881,9.235915479274102,-3.9881393147500006,0.0,0.0,4.4954,62,20,274.6226825089205,1527.45092,mp-1178178,HoTmO3,https://materialsproject.org/materials/mp-1178178,-22.162934402580433,31.012600289728326,-22.450741897568253,56.93064449043935
-5.6708344425,-158.78336439,5.264046787601868,-1.4908850889285716,0.99999965,0.024890841578139325,0.2979000000000003,135,28,468.2067762575106,1484.2544,mp-756132,Cu(SbO2)2,https://materialsproject.org/materials/mp-756132,7.170666413217764,-24.49243010452282,20.59448411411804,-19.294761793880237
-8.570150616666666,-154.2627111,4.639519854389209,-3.125478219027777,0.0,0.0,1.281,123,18,253.92584109449768,709.46479,mp-775122,LiLaNb4O12,https://materialsproject.org/materials/mp-775122,-12.071196891597829,48.90354547165246,25.924658807183967,54.37159239572431
-7.6555587675,-153.11117535,4.2464708380843685,-2.678650126958334,14.9837565,0.8243973323083399,2.2836,155,20,211.8173627494837,541.67727,mp-22252,LaFe3(BO3)4,https://materialsproject.org/materials/mp-22252,-10.885510358699758,28.207582213331452,4.404126126877887,31.78311560425375
-9.679357233333333,-29.0380717,9.882025209471074,-4.391779149166666,0.0,0.0,4.424999999999999,225,3,44.36777935041127,264.03686,mp-643,ThO2,https://materialsproject.org/materials/mp-643,-12.830661660395505,-25.440194195023537,-11.644156673200095,31.30188409802263
-6.770678926081081,-501.03024053,3.7210342131172784,-2.346901069144144,2.8e-06,2.5242013444099903e-08,3.557,146,74,1292.7408281210007,2896.8502,mp-1224533,K5HfIn(MoO4)6,https://materialsproject.org/materials/mp-1224533,28.725210879964923,-17.235956869060768,45.76070065742178,-28.05458487858627
-5.221722359285714,-146.20822606,4.166978947079952,-1.628820374349047,0.0,0.0,2.7772,148,28,264.3486622819234,663.3600799999998,mp-626411,In(HO)3,https://materialsproject.org/materials/mp-626411,3.354345757722585,-37.22041388595154,3.053338582384304,-32.397216098728514
-7.182089782727274,-158.00597522,3.746316599842952,-2.467711894139612,7.99999985,0.3682001176668423,3.6944,14,22,253.21153350832768,571.266648,mp-510367,Fe2P2O7,https://materialsproject.org/materials/mp-510367,6.400217106343042,31.582565457228608,31.11379565882404,-2.7417312348302896
-7.20705705,-100.89879870000001,6.831061878334736,-2.778588085535714,0.0006296,3.9951858684283696e-05,0.0,123,14,183.65601557581542,755.51708,mp-1208772,Sr2NdTa(CuO4)2,https://materialsproject.org/materials/mp-1208772,-24.851359581682445,46.222668096766064,-9.775982113871935,63.89496095751415
-3.71050427375,-29.68403419,5.993774026928543,0.831439514375,1.98671775,0.2018373783948708,0.0,194,8,114.71283231789364,414.06,mp-983152,Li3Re,https://materialsproject.org/materials/mp-983152,4.147669173878653,-24.0022717866574,-2.599350906046959,-29.664314958198148
-5.7574739896428575,-161.20927171,2.9603976483168606,-2.0601078992442856,3.999999325,0.16788065811151573,2.4805,14,28,277.6749373521036,495.03698,mp-754219,Li3MnO3,https://materialsproject.org/materials/mp-754219,26.023509695023836,-23.63873945908071,6.984986626072459,-37.458244190476606
-7.725009765892858,-865.20109378,6.069278707984999,-3.2995709090178567,2.9999998875,0.018824697646896968,0.0,14,112,1857.251237836476,6788.2628,mp-559956,Pr5O9,https://materialsproject.org/materials/mp-559956,-11.414282756877634,-29.079032757501,-0.6894717986810254,-28.67669650112345
-6.9597796028125,-222.71294729,3.3297945989004964,-1.7877974644618746,0.0,0.0,2.3254,15,32,493.84456297683363,990.2814199999999,mp-554783,KUN3O11,https://materialsproject.org/materials/mp-554783,35.27036957629267,-23.723321015804306,43.08385831774999,-29.074661027908405
-7.996953488974357,-311.88118607,5.8200745554400815,-3.3565777810256416,3.9e-06,7.973763866893963e-08,1.9606,156,39,570.0049985388815,1997.82812,mp-1228557,Ba8Ti3Nb4O24,https://materialsproject.org/materials/mp-1228557,-17.150019325169104,19.4074598891304,-14.551728241795232,47.10156409715232
-5.719825374230768,-594.86183892,8.08242692949415,-1.6648244362500009,0.0,0.0,2.168,61,104,2006.24234993089,9765.0864,mp-583345,GePb5O7,https://materialsproject.org/materials/mp-583345,6.908240723226968,30.176588213377123,31.99326876137173,-5.204756803003935
-7.938186919642857,-444.53846749999997,4.899574743723507,-2.6636428766964286,6.0000019,0.1079535389016653,0.0,2,56,647.7268970475833,1911.1784,mvc-15234,Y2Cr3O9,https://materialsproject.org/materials/mvc-15234,-4.510431128670381,52.57850688414457,27.21141482825421,58.805390380855634
-7.712475633333333,-115.6871345,6.281847821112574,-3.223595569166668,4.0033231,0.2043398437101262,0.0,139,15,228.3205559218721,863.7406,mp-1226585,CePr4O10,https://materialsproject.org/materials/mp-1226585,-10.057532257649324,-28.783973226109637,-16.143745966197418,-38.68529407841852
-4.732378083095238,-397.51975898,1.7287881040210171,-0.4611827781697618,0.0,0.0,4.4285999999999985,60,84,1126.0709165796798,1172.353048,mp-1204117,BeH12C4(SBr)2,https://materialsproject.org/materials/mp-1204117,23.729108247622708,-6.253238210708095,39.001921028662906,-18.85518901969157
-6.95693725,-389.588486,5.907613992344857,-2.5266739442410717,4.000054375,0.039594755885840674,1.7452999999999994,33,56,1177.3501752205846,4188.597919999998,mp-1201876,La2Fe(SeO)2,https://materialsproject.org/materials/mp-1201876,-8.323920478218499,36.49498774607047,-5.622472047179344,43.689635279939935
-5.6660854445,-113.32170889,5.63148361627217,-1.858302847,3.0000002,0.1611142637547348,0.4922,1,20,217.00249148464715,735.9332999999998,mp-775998,Li4CrBi(TeO6)2,https://materialsproject.org/materials/mp-775998,21.934402203991674,-11.052591212772649,39.42052528289502,-5.309329428783304
-5.639561680833333,-67.67474017,12.46625329319611,-1.1176697408333345,1.25e-06,6.303527020606776e-08,0.0,62,12,231.10206267184918,1734.9648399999999,mp-1103049,TmGaPt,https://materialsproject.org/materials/mp-1103049,-52.107399101185294,13.901181003104886,-36.501850095652436,21.855747540922465
-6.271003266071429,-175.58809145,5.190032883997364,-1.9224153747704091,6.75e-07,1.921137884508905e-08,0.0,43,28,409.4705426877093,1279.804648,mvc-8689,BiPO5,https://materialsproject.org/materials/mvc-8689,24.85177766605088,-4.319376429636873,14.17684437982151,-22.64576012631668
-4.924150740294118,-167.42112517,4.348725869608868,-2.8672357895133884,12.000000300000002,0.20595439860298376,3.1395,64,34,679.0278902298214,1778.2816792,mp-616023,Cs4Fe3F10,https://materialsproject.org/materials/mp-616023,11.53832177096124,-18.989687631247076,16.88701049887018,-13.843105380671231
-6.584769467758621,-381.91662913,2.796837631924681,-2.427746123476256,11.99998545,0.20404208190385875,3.8516,14,58,685.3910056160289,1154.400656,mp-780175,Li4Fe3P4(HO8)2,https://materialsproject.org/materials/mp-780175,40.60824118566333,-51.73521491260032,36.16891385561599,-59.845812753740184
-1.6838394075,-20.20607289,2.5821776978956037,-0.02635884750000006,0.00137235,3.115864104391827e-05,0.0,63,12,513.2911851989769,798.1800000000002,mp-1094281,Sr2Mg,https://materialsproject.org/materials/mp-1094281,-19.1700340284412,-36.944757812938036,-14.182311376435644,-29.43773253971932
-3.188743153181818,-70.15234937,2.022695939564092,0.4701412982654544,3.99999985,0.07448801246162579,0.0953,167,22,625.822273968506,762.3116,mp-1191938,Cd(N2Cl3)2,https://materialsproject.org/materials/mp-1191938,34.048955276415555,-5.9951233350367,48.43227553989652,-27.294573199295765
-4.795376113928572,-134.27053119,6.288960396301977,-3.3737797396357148,2.9911806,0.08822685111012911,0.0,225,28,395.1111483658272,1496.4046640000001,mp-640562,KYb3F10,https://materialsproject.org/materials/mp-640562,-7.0535611687646185,-19.65683417561402,7.419128885222545,-17.322288306527852
-4.5822213750000005,-64.15109925,5.415093350028342,-0.8604346145610121,0.0,0.0,0.5841,70,14,219.98711819460786,717.3879999999998,mp-11641,Ag2SeO4,https://materialsproject.org/materials/mp-11641,0.2435758518553463,27.074646692148004,21.127615795733192,-16.098456426225535
-6.000600342916666,-144.01440823,3.892728336926018,-1.7002351012500003,0.0,0.0,2.1917,12,24,309.52713802708166,725.6108,mp-772296,ZnCrO4,https://materialsproject.org/materials/mp-772296,8.627110209127821,-26.92558316202177,68.11065508780271,-37.37594328288479
-3.428298500357143,-95.99235801,4.077624077467857,-1.8200505746935376,0.0,0.0,1.3369999999999995,140,28,481.6837874721848,1182.823988,mp-554766,AgP(XeF5)2,https://materialsproject.org/materials/mp-554766,-14.937566078613242,-42.37554491558289,-13.61758433458948,-30.051500378920302
-6.506418084848485,-429.42359360000006,3.7136676256273313,-1.9835602563257584,1.0000007833333333,0.012670589648695177,0.08960000000000001,13,66,919.7736036520796,2057.0028,mvc-6490,V2ZnCuO7,https://materialsproject.org/materials/mvc-6490,29.527425184122528,-12.566520939483,66.22283428071263,-21.407440154308794
-8.001687367999999,-160.03374736,6.503233723568616,-3.0009897209420004,8.0000002,0.37332847483964415,0.059899999999999835,26,20,249.7332156389536,978.03992,mp-1222928,LaNdMn2O6,https://materialsproject.org/materials/mp-1222928,-21.31442382339405,44.671787321564466,-7.522744171926857,63.2777397901649
-2.1811389975,-8.72455599,2.387476064268713,1.1401686965,3.2504607999999995,0.18413497913605906,0.0,139,4,205.72452274738916,295.7849,mp-1184923,K3Hf,https://materialsproject.org/materials/mp-1184923,-7.835613266780157,-33.025619250443434,-4.633537834207997,-31.227513838805628
-1.9810131725,-31.69621076,5.8305301267106895,-0.4030486422656252,1.3925e-05,3.352071861107695e-07,0.0,65,16,484.1270076598752,1699.88,mp-1188137,CdHgSBr,https://materialsproject.org/materials/mp-1188137,-11.38721616577368,37.457540786382395,-7.9127295022769415,19.452631182764307
-5.32224141225,-212.88965649,5.542291987067939,-1.1018776245625,8.00000005,0.06806480952305784,0.0,2,40,1369.7609589518804,4571.7776,mp-568922,Ce7C3I10,https://materialsproject.org/materials/mp-568922,-0.9980974334996804,-12.895999873628345,0.3464595950037055,2.573542831747671
-5.81123097,-174.3369291,5.638125768510075,-1.394196264083333,0.00165925,3.0096216440291926e-05,0.0,194,30,642.5062436745987,2181.5392,mp-540692,Ba3SmIr2O9,https://materialsproject.org/materials/mp-540692,0.8916921733111036,-28.107821778370102,-2.3141190579796804,-25.609551415324685
-5.575855312777778,-100.36539563,3.782060843211263,-1.2714146285069443,1.916666666666667e-06,2.8450078025706648e-08,0.328,148,18,785.1281624098323,1788.216,mp-1080320,CeSe2,https://materialsproject.org/materials/mp-1080320,36.799478143860995,-35.94288409619706,2.3237937676407756,-53.3712407830297
-2.9777974014285715,-20.84458181,6.6031096003848155,-0.2366367227678577,1e-07,5.868629649091653e-09,0.428,82,7,198.58238582772915,789.66,mp-3167,Hg2GeSe4,https://materialsproject.org/materials/mp-3167,-8.166610226938774,-33.288839466818,-7.107633468858862,-26.041067991530646
-6.753119941333335,-202.59359824,3.1082343828445667,-2.318964618261905,0.99159225,0.02205728617776653,0.0,15,30,523.9121538494878,980.6705720000001,mp-1101484,Sn2P3O10,https://materialsproject.org/materials/mp-1101484,27.258717467604605,-43.31879947346877,30.164251001487536,-53.4758885654848
-5.6856147725,-227.4245909,6.713972697608613,-2.0175838453750004,2.4e-06,5.0827160576134976e-08,0.0,148,40,550.2915200672448,2224.9656,mp-867998,In15SnO24,https://materialsproject.org/materials/mp-867998,2.61980007314548,62.82343901423042,2.5762392279557718,74.68676300270492
-6.614071949166667,-158.73772678,4.143000996521941,-2.8719229509375013,0.0,0.0,3.3054,63,24,349.75264457860465,872.6235999999999,mp-560441,BaZn2Si2O7,https://materialsproject.org/materials/mp-560441,17.546710902165223,-7.737568941072374,17.460873019235862,-17.03208534993755
-5.77998094875,-231.19923795,4.0678807264406736,-1.2160902467499999,0.99999985,0.020697557919950985,0.0,14,40,563.0646412259238,1379.3592,mp-1198558,CdCO3,https://materialsproject.org/materials/mp-1198558,27.15863984187181,-3.682065464142753,18.129975374342898,-25.499357732048374
-7.0337614631578935,-534.5658712000001,3.184421824167853,-2.5908961103909776,4.99999975,0.05980759921490601,0.0,198,76,974.2962719486557,1868.411544,mp-1212179,K2Cr2(PO4)3,https://materialsproject.org/materials/mp-1212179,5.2409104135625,28.6307478290505,69.66499308308347,-22.89145354440797
-5.814176238214286,-162.79693467,8.949809814627098,-0.8492796317857148,2.1774913,0.04100709279876775,0.0,59,28,618.8350092608313,3335.336,mp-662558,Ce3Sb5Pd6,https://materialsproject.org/materials/mp-662558,-54.58713826114547,28.25720718492566,-47.708006319294604,32.059506628056376
-5.5461379342,-277.30689671,1.8821623348260093,-1.708651615961713,4.9999997,0.1246448802963184,4.1674,31,50,467.49068415849035,529.884174,mp-850407,LiMnP(H6O5)2,https://materialsproject.org/materials/mp-850407,42.593817148408434,-35.50991083988141,25.333763158549207,-50.82038026062745
-7.087076105714287,-99.21906548,3.261787103968753,-1.9735386662499996,2.00000005,0.08419988340823327,1.5101999999999998,63,14,276.8190309102435,543.754,mp-1244569,Mo2O5,https://materialsproject.org/materials/mp-1244569,42.46736896096528,-39.64535826167091,36.25218003310117,-56.683665090346395
-5.714601928409091,-251.44248485,2.7186853109297444,-2.5936203415538635,4.000000675,0.06666980295202017,1.3257,60,44,699.2111104675157,1144.7698183999996,mp-19304,K2MnSO4F3,https://materialsproject.org/materials/mp-19304,29.799864225002764,4.578152724579722,31.454305509182824,-29.354408741913318
-3.10709341,-68.35605502,3.7205686238984703,-1.6421102614537617,5e-08,5.761417053170307e-10,1.7847,167,22,1011.3887490705838,2266.0962228,mp-1178399,Cs6Br4O,https://materialsproject.org/materials/mp-1178399,8.012634762290642,16.902232208378305,23.79404665192655,-13.861518819466506
-3.251700236,-65.03400472,1.0189138913869344,-0.3606561261719996,0.0,0.0,3.6018,148,20,175.52738403169684,107.70435719999999,mp-31096,Li3AlH6,https://materialsproject.org/materials/mp-31096,-2.6044575763497373,-22.139168857954417,3.133093765853154,-19.284655420938712
-6.420048141666666,-38.52028885,5.602221590456681,-2.910329512916667,0.0,0.0,3.6691,129,6,168.24757869790824,567.6230400000001,mp-29254,PrIO,https://materialsproject.org/materials/mp-29254,-15.066405577931425,21.53958234988071,-14.820363328759587,41.05370500520185
-4.850657545,-58.20789054,4.213509409181045,-1.3828574946991743,0.0,0.0,1.3735,63,12,468.12231250691804,1187.8298075999999,mp-9856,Cs2ZrSe3,https://materialsproject.org/materials/mp-9856,19.999357588680265,-14.982248331123571,25.21323771955133,-12.898882853156314
-7.298381637045455,-321.12879203,3.416141142757805,-2.3384788445795457,1.00000005,0.0210816489175971,0.0,2,44,552.8061586081697,1137.25953856,mp-757364,NaV6O15,https://materialsproject.org/materials/mp-757364,28.293115244025632,-25.41378167981551,54.97639842193366,-9.018467663983364
-6.25608446142857,-87.58518246,4.4204242148003665,-1.2745739561309526,2.99999845,0.1226719245555779,0.5796000000000001,8,14,285.00552494420737,758.6966,mp-1246416,ZrCrAgS4,https://materialsproject.org/materials/mp-1246416,-29.855987092571763,-8.575517348676634,-38.857359125801786,-29.00429401012324
-4.12061803,-32.96494424,5.8032656347285805,-0.5439599500000005,2.8999999999999998e-06,1.1750064659732844e-07,0.0,12,8,287.63065412094113,1005.2139999999999,mp-6950,BaSb3,https://materialsproject.org/materials/mp-6950,3.768260560327072,26.947210033691512,25.7730183700208,-8.58552370158786
-5.460998957105264,-207.51796037,5.681480041440048,-1.4465077454385964,0.0002571,5.054687501633306e-06,2.1124000000000005,15,38,592.7686038072433,2028.1384,mp-1197464,Ag2Te4MoO12,https://materialsproject.org/materials/mp-1197464,14.67790672122082,26.516181303322266,26.24959662649334,37.0020992736779
-6.129428362666668,-367.76570176,3.0718985144411426,-2.0991254625833333,0.0,0.0,1.7558,33,60,790.5168603842873,1462.4092,mp-1177474,Li3VAs2O9,https://materialsproject.org/materials/mp-1177474,29.256715055875578,-40.18772385716834,37.265764483171104,-49.902583569679784
-1.668284272,-8.34142136,2.098676053802114,0.9900364199741378,1.9355006000000001,0.08055800531223345,0.0,139,5,280.0025804052865,353.8819,mp-1207162,Rb4C,https://materialsproject.org/materials/mp-1207162,0.06555488781032429,-21.560901002807018,31.655970991380332,-11.756847069829874
-6.7561890985,-135.12378197,3.999530219431164,-2.3259151015535737,0.0018925,6.936349029581406e-05,0.0,4,20,317.96724022983904,765.8474480000001,mp-26210,BiP2O7,https://materialsproject.org/materials/mp-26210,39.66691395790885,-35.43523615153547,45.88499142674364,-33.86524606203373
-5.947486380499999,-118.94972761,3.705145941819275,-2.31327842446875,0.0,0.0,4.1419,62,20,299.4431372460925,668.1448,mp-754140,CaSeO3,https://materialsproject.org/materials/mp-754140,-8.866332905877904,40.23393671376074,-2.885558831772359,42.87563805939031
-5.844111952142858,-81.81756733,5.926856581560142,-1.1550895150000002,0.0,0.0,0.0,11,14,470.4916335496485,1679.29592,mp-28748,Y3IrI3,https://materialsproject.org/materials/mp-28748,-0.2912661710706701,-11.688879011726536,0.026174709825202702,-0.7427687903706961
-5.2621032428125,-168.38730377,5.2051626681867775,-1.5294420853645834,7.9025e-05,1.6518159418427441e-06,0.997,14,32,557.5454536563657,1747.6944,mvc-9055,CaAgBiO5,https://materialsproject.org/materials/mvc-9055,39.592263595530035,-36.21059450550672,12.967261646807346,-40.44670726177103
-4.971641955555556,-89.4895552,5.370216954980194,-1.1574693478848614,0.0,0.0,0.0,11,18,264.62062760879655,855.78848,mp-696931,TlCuHSeO5,https://materialsproject.org/materials/mp-696931,12.875040690613327,12.939712627606895,41.05739967331238,13.914261608187301
-8.144029453846155,-105.87238290000002,4.904353351654629,-3.241716165384616,0.0,0.0,2.7881,21,13,198.23922948434932,585.49375,mp-759216,LiY3WO8,https://materialsproject.org/materials/mp-759216,6.145484700180313,-34.56175831500852,49.19048726211968,-8.152574399931655
-9.367888647333332,-140.51832971,8.958831219594693,-4.143145211166666,1.0,0.05341755538557556,0.0,87,15,218.16918966880803,1177.0520900000001,mp-772510,YTh4O10,https://materialsproject.org/materials/mp-772510,-13.105841154904134,-24.30370570916248,-11.349757966743846,32.11247720705671
-8.0842195445,-161.68439089,5.458160434374263,-3.622520089500002,0.0,0.0,1.9676,1,20,247.32412999923284,812.94974,mp-1218781,Sr2La2MgTi3O12,https://materialsproject.org/materials/mp-1218781,-28.12229098114427,47.63944812392661,-11.989091965688104,65.78883819828334
-6.003449385,-24.01379754,4.164097845375713,-0.0559662749999994,7.1623201000000005,0.5937410184708727,0.0,51,4,140.58341898320612,352.538,mp-1184410,EuMg,https://materialsproject.org/materials/mp-1184410,-25.703304127954517,27.04512084823689,-6.719152461790255,44.259162953388184
-4.2778932075,-34.22314566,4.789230996010276,-1.0967666580729172,0.0,0.0,0.3815,23,8,208.0456939400043,600.0334,mp-555166,BaAg2SnS4,https://materialsproject.org/materials/mp-555166,6.354815503073549,27.41729393042352,16.46717251042652,-16.908669823152042
-8.192903790833334,-294.94453647,9.674895807612963,-0.8648773622420644,0.00029189999999999994,6.335763034522177e-06,0.0,189,36,536.9237278247937,3128.310144,mp-1200410,Er5P12Ru19,https://materialsproject.org/materials/mp-1200410,-50.952607461436855,2.4438746426191202,-54.98816444121663,20.797381574503422
-3.179164978,-31.79164978,3.465964215136032,-0.8577750166344827,3.0000001,0.07147178998941799,1.4308,225,10,489.17475675734454,1021.03122,mp-1114406,K2RbMoI6,https://materialsproject.org/materials/mp-1114406,-22.75815926170605,-47.29609198745439,-21.290375559907954,-25.58626950759855