energy_per_atom,energy,density,formation_energy_per_atom,total_magnetization_uB,total_magnetization_T,band_gap,sgr,num_sites,cell_volume,weight,mp_id,formula,URL,tsne_xrd_lin1_0,tsne_xrd_lin1_1,tsne_xrd_lin2_0,tsne_xrd_lin2_1
-5.839832735625,-93.43732377,4.408633681120769,-1.800483094435,11.9999994,0.958176293380346,0.3576999999999999,12,16,145.95306859962645,387.49683,mp-1174043,Li4MnCo3O8,https://materialsproject.org/materials/mp-1174043,12.221574861380795,-82.78467953130615,-18.961956605075134,-87.06745119111706
-5.838398358571429,-163.47515404,4.205045109810632,-1.897885163729286,9.0000001,0.42488581488536575,0.7246000000000001,1,28,246.8582862591968,625.12847,mp-1174639,Li4MnCo2O7,https://materialsproject.org/materials/mp-1174639,19.200132930018466,-73.43762554880063,-9.635679440031225,-77.30227418063386
-5.799547245714287,-162.38732288,4.153305776107392,-1.8590340508721428,8.00000005,0.3730293079412457,0.1741999999999999,1,28,249.93349524661332,625.12847,mp-1174710,Li4MnCo2O7,https://materialsproject.org/materials/mp-1174710,18.939539045546308,-83.60425272556729,-11.65571532634242,-88.91865653632178
-6.188980257916668,-148.53552619,3.9522321949862143,-2.054714357035,16.0000004,0.8546761498895444,0.02519999999999989,10,24,218.17040413106082,519.265175,mp-1175292,Li7Mn4CoO12,https://materialsproject.org/materials/mp-1175292,12.470012882867087,-78.78200777708315,-18.514801032696838,-83.96726475696642
-5.24131186,-157.23935580000003,4.539376136750502,-1.4990651375555557,5.9999996,0.25272533639260525,0.2958999999999996,1,30,276.6813370271103,756.3572,mp-758326,Li6TiNi7O16,https://materialsproject.org/materials/mp-758326,24.60648223040239,-73.20659476141965,-4.243675319069622,-71.2791366330836
-6.44129816875,-206.1215414,3.93812345543706,-2.1555734602100003,26.0001307,1.0221673014916903,0.863,2,32,296.4360206305044,703.025715,mp-1100536,Li9Mn7O16,https://materialsproject.org/materials/mp-1100536,10.808023162162273,-82.56265088102994,-18.79751089321861,-86.37776742768406
-5.741760416875,-183.73633334,4.127745088991547,-1.8064114534974989,23.9999001,0.9616376601702582,0.0,6,32,290.85423947606375,723.001465,mp-1100565,Li9Mn2Co5O16,https://materialsproject.org/materials/mp-1100565,16.902439351020426,-76.58716198738746,-13.873464297058822,-80.42581095925138
-5.762039873125,-184.38527594,4.1785828572287835,-1.8266909097475,22.0000002,0.8923615778700805,0.0,2,32,287.3156281998216,723.001465,mp-1175718,Li9Mn2Co5O16,https://materialsproject.org/materials/mp-1175718,14.979619492631128,-79.93823144209316,-14.150191784881756,-85.2969051196138
-5.7903956746875,-185.29266159,4.255449698172576,-1.8550467113099989,16.0000004,0.6609287054084052,0.16590000000000016,1,32,282.1258019158955,723.001465,mp-1175929,Li9Mn2Co5O16,https://materialsproject.org/materials/mp-1175929,21.00611722285065,-80.83845420902655,-11.416834158473225,-87.99372396455959
-5.7612914,-184.3613248,4.139539787389933,-1.8259424366224997,20.0000001,0.8036579010446007,0.015499999999999847,1,32,290.02551497800187,723.001465,mp-1176130,Li9Mn2Co5O16,https://materialsproject.org/materials/mp-1176130,14.511775984597126,-83.63122839130664,-16.884034712645377,-87.61193957194268
-5.8056387903125,-185.78044129,4.2296540767914825,-1.8702898269349992,22.0000008,0.9032681695466184,0.6981999999999999,1,32,283.84641788966815,723.001465,mp-1175708,Li9Mn2Co5O16,https://materialsproject.org/materials/mp-1175708,13.902443148993195,-74.6917726675978,-8.990839735869594,-78.9056761057681
-5.7771892540625,-184.87005613,4.133287353682528,-1.8418402906849989,22.000000699999998,0.8826884698884929,0.0,12,32,290.4642372711036,723.001465,mp-1100746,Li9Mn2Co5O16,https://materialsproject.org/materials/mp-1100746,2.4437407098253945,-74.54809679776973,-22.489956106176034,-76.6888190359657
-6.981019534583332,-167.54446883,3.5513198376066857,-2.872069233125,0.0053319,0.0003017868722745953,0.0,12,24,205.9012954820364,440.3518,mp-766202,Li7Ti3(SiO6)2,https://materialsproject.org/materials/mp-766202,7.409150079365058,-74.045732770042,-12.172113154166777,-74.4211588991193
-5.7503428275,-184.01097048,4.147503343189828,-1.8149938641224992,21.9999995,0.8857243319672841,0.0,10,32,289.46864155782396,723.001465,mp-1100717,Li9Mn2Co5O16,https://materialsproject.org/materials/mp-1100717,11.368211211440485,-80.14363183940964,-14.89077810078942,-82.37283295251895
-5.790222963125,-185.28713482,4.247730779015123,-1.8548739997474997,16.0000003,0.6597298490819817,0.4977999999999998,1,32,282.63847712308575,723.001465,mp-1175943,Li9Mn2Co5O16,https://materialsproject.org/materials/mp-1175943,21.150889217407073,-79.21148894060106,-9.713509092651877,-87.63632465110233
-5.80493454125,-185.75790532,4.2423850854643606,-1.869585577872499,21.9999999,0.9059869162638576,0.6160999999999999,3,32,282.9946208144097,723.001465,mp-1175684,Li9Mn2Co5O16,https://materialsproject.org/materials/mp-1175684,16.667692767369054,-73.23177847763748,-8.738842341471777,-78.72962538153398
-6.658328766,-199.74986298,4.227104040096403,-2.1488390726666657,7.99999985,0.3262425169409793,0.3769,2,30,285.7767200503623,727.4793900000001,mp-756512,Li3Cr3CoO8,https://materialsproject.org/materials/mp-756512,17.670023075565396,-69.79299647649118,-9.67389366429366,-70.63580963716859
-5.5013670575,-176.04374584,4.226944943015603,-1.7061683921875002,25.999998100000003,1.0551537819630854,0.5385999999999997,2,32,287.1672993296721,730.991765,mp-1175435,Li9Co7O16,https://materialsproject.org/materials/mp-1175435,15.217790757540817,-79.2319169979405,-12.713758714803259,-84.33045992484901
-6.199421950416667,-148.78612681,3.9671729185257,-2.065156049535,16.0000004,0.8579071038014858,0.08579999999999988,2,24,217.34875512317453,519.265175,mp-1175169,Li7Mn4CoO12,https://materialsproject.org/materials/mp-1175169,15.200189254240641,-81.27119272069403,-15.420772395169434,-85.49992834986745
-6.191638885416666,-148.59933325,3.9472929870474296,-2.057372984535,16.0000484,0.8536105995763058,0.2871000000000001,12,24,218.44339855930008,519.265175,mp-1175280,Li7Mn4CoO12,https://materialsproject.org/materials/mp-1175280,12.636258171086519,-81.12391751923863,-18.19111296373014,-84.29963286892527
-5.797091980625,-185.50694338,4.190024095451342,-1.8617430172474991,23.9999988,0.9761507677535955,0.8498000000000001,2,32,286.5310869961405,723.001465,mp-1175607,Li9Mn2Co5O16,https://materialsproject.org/materials/mp-1175607,13.552655107260044,-75.39449462873634,-11.827507093462694,-81.68726662133791
-7.100993443571428,-99.41390821,3.5152192263949003,-2.8211445957142858,0.99999995,0.08286439032942809,1.7166,74,14,140.6401971163442,297.7232772,mp-753631,LiAlVO4,https://materialsproject.org/materials/mp-753631,20.226323919120237,-68.78383287281433,-15.260066209034516,-69.98117827935515
-5.832665712142857,-163.31463994,4.199903735336326,-1.8921525173007143,9.000000199999999,0.4243663252726385,0.8390000000000001,1,28,247.16048149311737,625.12847,mp-1174644,Li4MnCo2O7,https://materialsproject.org/materials/mp-1174644,13.896824124851674,-74.70905728710659,-10.220030351997748,-80.63467148935476
-5.798617456666666,-139.16681896,4.0229509756723125,-1.8512186198716676,17.4008905,0.9318016029802988,0.0,2,24,217.6333506388121,527.2554749999998,mp-1174876,Li7Mn2(CoO4)3,https://materialsproject.org/materials/mp-1174876,19.120680627918173,-82.83085287951923,-13.526424893447258,-85.39752764537137
-5.680533303125,-90.88853285,3.9712783905744766,-1.8491850175600009,7.714465400000001,0.6408641545121602,0.0,10,16,140.28695289676202,335.504635,mp-1173999,Li5Mn(CoO4)2,https://materialsproject.org/materials/mp-1173999,19.736840994546714,-71.71635019331273,-12.229607497955847,-77.79765566487444
-5.793086112857143,-162.20641116,4.086304374023318,-1.8525729180150008,11.00000005,0.5046409142130801,0.1971999999999996,1,28,254.03154890990623,625.12847,mp-1174702,Li4MnCo2O7,https://materialsproject.org/materials/mp-1174702,14.41828070616239,-79.67744998617464,-13.189968321716796,-85.4787857325569
-5.7516968128125,-184.05429801,4.156354868780527,-1.8163478494349992,21.4600315,0.8658290146574331,0.0,12,32,288.8521785344911,723.001465,mp-1100736,Li9Mn2Co5O16,https://materialsproject.org/materials/mp-1100736,13.075179214457297,-76.15256979225323,-14.652013748334214,-80.79392838221753
-5.7644407615625,-184.46210437,4.182252300006419,-1.829091798184999,18.0000027,0.7307552743892776,0.0,1,32,287.0635419598791,723.001465,mp-1176017,Li9Mn2Co5O16,https://materialsproject.org/materials/mp-1176017,16.080772618817534,-82.67144170909037,-12.939286397607667,-88.50282178090296
-5.7635221015625,-184.43270725,4.1262845812882984,-1.8281731381849988,20.0000003,0.8010845188573362,0.1868000000000003,1,32,290.95718798795355,723.001465,mp-1176127,Li9Mn2Co5O16,https://materialsproject.org/materials/mp-1176127,13.08471599434809,-83.9763276812442,-16.96263265190965,-88.21326473649536
-5.7971073371875,-185.50743479,4.209136661935136,-1.861758373809999,22.0000009,0.8988865557921772,0.7643,8,32,285.2300257834192,723.001465,mp-1100680,Li9Mn2Co5O16,https://materialsproject.org/materials/mp-1100680,15.408546411498554,-75.68630627318616,-13.84981739547017,-83.16077816933236
-5.219799241052631,-198.35237116,4.464113849746976,-1.4757894253947368,19.9966819,0.6567748334664286,0.0,10,38,354.82880010624535,953.9048,mp-759370,Li8Fe3Ni7O20,https://materialsproject.org/materials/mp-759370,12.592858691924846,-72.752556128175,-5.813493835113099,-70.53157331881592
-5.79251275625,-185.3604082,4.171134187469446,-1.8571637928724989,21.999999399999997,0.8907708371146964,0.5697000000000001,1,32,287.8287066899805,723.001465,mp-1176246,Li9Mn2Co5O16,https://materialsproject.org/materials/mp-1176246,11.0252234807285,-80.03903545261436,-13.85956586221466,-85.38951370794423
-5.7635982025,-184.43514248,4.172723142071062,-1.8282492391224991,23.9999992,0.9721201773193836,0.17110000000000006,1,32,287.7191027856713,723.001465,mp-1176053,Li9Mn2Co5O16,https://materialsproject.org/materials/mp-1176053,15.149225993615374,-78.67972056655033,-11.081478773703454,-82.91461232972544
-5.712921695,-159.96180746,4.0605895082348065,-1.772408500157857,10.662944699999999,0.4860996448810021,0.0,12,28,255.6402776851293,625.12847,mp-1174623,Li4MnCo2O7,https://materialsproject.org/materials/mp-1174623,11.274383988586928,-81.03807487402723,-18.28752027184777,-83.95595875738114
-5.7780359471428575,-161.78500652,4.092759519072579,-1.8375227523007152,9.00499665,0.4137698497192993,0.0,1,28,253.63088757428173,625.12847,mp-1174744,Li4MnCo2O7,https://materialsproject.org/materials/mp-1174744,18.36938705721392,-83.85622276074305,-17.47428039423495,-88.0310179721173
-5.8067680465625,-185.81657749,4.235287579697865,-1.8714190831849988,21.9999999,0.9044712011099968,0.5352000000000001,1,32,283.4688639243098,723.001465,mp-1175637,Li9Mn2Co5O16,https://materialsproject.org/materials/mp-1175637,16.684962275984226,-73.52788070153558,-10.03434587261865,-80.43650126660947
-5.7988278175,-185.56249016,4.185319931070973,-1.8634788541225,25.999999399999997,1.0563094358595162,0.5457999999999998,2,32,286.85313868048354,723.001465,mp-1175580,Li9Mn2Co5O16,https://materialsproject.org/materials/mp-1175580,13.018386593570964,-72.1540815295159,-12.149990394915232,-81.49630229700242
-5.7751971646875,-184.80630927,4.262613645373809,-1.83984820131,16.0000013,0.662041400225022,0.000800000000000356,3,32,281.6516481414326,723.001465,mp-1176305,Li9Mn2Co5O16,https://materialsproject.org/materials/mp-1176305,20.634275744348308,-72.23996917176297,-12.432531636373794,-76.40374708163887
-5.8024504175,-185.67841336,4.228212578367146,-1.8671014541224995,20.0000003,0.820873008693514,0.5972999999999997,1,32,283.943187897457,723.001465,mp-1175861,Li9Mn2Co5O16,https://materialsproject.org/materials/mp-1175861,13.162406608716779,-72.40589389972664,-9.05946985963676,-77.87338582433638
-5.801855905,-185.65938896,4.267071336747162,-1.8665069416224995,16.0,0.6627336859808175,0.4817,1,32,281.3574144567509,723.001465,mp-1175560,Li9Mn2Co5O16,https://materialsproject.org/materials/mp-1175560,21.051494830122305,-80.80139938454197,-11.157883051415226,-87.86174607094027
-5.8423428641666675,-140.21622874,4.075644569514069,-1.8949440273716656,15.9999995,0.8680075662283623,0.0,8,24,214.8195911979712,527.2554749999998,mp-1175090,Li7Mn2(CoO4)3,https://materialsproject.org/materials/mp-1175090,13.427374599138256,-72.07366705622368,-12.787497223733025,-78.94027352137223
-5.7529493925,-184.09438056,4.160160212600943,-1.817600429122499,22.0000003,0.8884273150073005,0.0,8,32,288.58796230328176,723.001465,mp-1100755,Li9Mn2Co5O16,https://materialsproject.org/materials/mp-1100755,13.159475857736346,-75.92223359635906,-14.54641794122612,-81.33267755427892
-5.847227180416668,-140.33345233,4.112255278742722,-1.8998283436216676,11.999999699999998,0.6568535340189084,0.0,1,24,212.90708891956902,527.2554749999998,mp-1175060,Li7Mn2(CoO4)3,https://materialsproject.org/materials/mp-1175060,15.30101913939392,-79.2553892790811,-13.89333056970333,-83.5245974522717
-5.7966628996428575,-162.30656119,4.0966837936298495,-1.8561497048007152,9.9999999,0.4599297457070285,0.23939999999999986,1,28,253.38793076111654,625.12847,mp-1174753,Li4MnCo2O7,https://materialsproject.org/materials/mp-1174753,14.418513420527315,-80.05610430336445,-14.005263752932253,-86.8010352525623
-5.802860811785713,-162.48010273,4.129973520661056,-1.8623476169435715,9.8978222,0.4589294989143602,0.0,8,28,251.3454927150029,625.12847,mp-1174836,Li4MnCo2O7,https://materialsproject.org/materials/mp-1174836,6.297444157480855,-72.5415773339887,-23.40019443571625,-74.47146591283115
-5.7980557109375,-185.53778275,4.184726725750155,-1.862706747559999,24.0,0.9749166872001492,0.7113999999999998,1,32,286.8938015049188,723.001465,mp-1176044,Li9Mn2Co5O16,https://materialsproject.org/materials/mp-1176044,14.135812307811468,-74.30963859414635,-10.000809608505085,-78.72592540316656
-5.7778474090625,-184.89111709,4.200623351384228,-1.8424984456849989,21.7451016,0.8866747541790312,0.0,1,32,285.8080951757005,723.001465,mp-1176030,Li9Mn2Co5O16,https://materialsproject.org/materials/mp-1176030,13.384708990263428,-76.38085998810737,-10.206127622471174,-81.30881488511501
-5.7612738909375,-184.36076451,4.153033148456532,-1.8259249275599991,21.990598000000002,0.8865262442981761,0.0,1,32,289.083211159989,723.001465,mp-1176289,Li9Mn2Co5O16,https://materialsproject.org/materials/mp-1176289,17.647293686235816,-74.97297562076355,-11.713227795797502,-81.4836559197078
-6.47584365375,-51.80674923,4.207001767631105,-2.446719916458334,2.0000001,0.3201665346172131,1.6488999999999998,10,8,72.80002183361465,184.44,mp-755096,Li2TiNiO4,https://materialsproject.org/materials/mp-755096,14.596620645105107,-68.8102411319272,-13.226901124274091,-77.33105610860643
-5.809280452142858,-162.65985266,4.124446771126654,-1.8687672573007144,10.99999995,0.5093513306336898,0.3603000000000001,12,28,251.6822951183123,625.12847,mp-1174562,Li4MnCo2O7,https://materialsproject.org/materials/mp-1174562,16.520999163710393,-70.90084911846995,-13.150148556273471,-78.27394123371353
-5.79896857,-185.56699424,4.244400685119307,-1.8636196066225,20.0000009,0.8240158223935875,0.3626999999999998,1,32,282.86023108488547,723.001465,mp-1175859,Li9Mn2Co5O16,https://materialsproject.org/materials/mp-1175859,20.007201040839103,-72.64040719743879,-7.799789367345703,-77.14160869020539
-5.7489775615625,-183.96728197,4.127256459534398,-1.8136285981849989,22.0000012,0.8814005560623176,0.0,6,32,290.88867396069975,723.001465,mp-1100478,Li9Mn2Co5O16,https://materialsproject.org/materials/mp-1100478,13.818442251795895,-81.2959403056273,-14.085553144610465,-87.36971784532601
-5.923171586666666,-71.07805904,4.345827602967492,-2.072500802430556,2.9999999,0.32438461327717605,0.0,12,12,107.78006021635359,282.0732,mp-774353,Li3Ti(NiO3)2,https://materialsproject.org/materials/mp-774353,18.459891914258197,-76.42909227655454,-8.528024638865247,-79.8426722726597
-5.80533139125,-185.77060452,4.2585373941101885,-1.8699824278724997,22.0000002,0.9094363515737852,0.7475,1,32,281.921243727989,723.001465,mp-1175724,Li9Mn2Co5O16,https://materialsproject.org/materials/mp-1175724,21.93787434260305,-75.11691188485746,-10.740467748665981,-80.18179829128546
-5.7446411025,-183.82851528,4.1022223159834805,-1.8092921391224996,24.0000001,0.955695621057328,0.0,8,32,292.6638456262857,723.001465,mp-1100620,Li9Mn2Co5O16,https://materialsproject.org/materials/mp-1100620,2.5312485603303165,-76.00595675064562,-26.950570855707603,-79.40420880318379
-5.7984047590625,-185.54895229,4.270367238695411,-1.863055795684999,13.9999997,0.5803398735399081,0.5009000000000001,1,32,281.14026066209374,723.001465,mp-1176143,Li9Mn2Co5O16,https://materialsproject.org/materials/mp-1176143,19.199320529869553,-78.8694755366433,-10.419640333575668,-84.01838572482403
-6.864190965714287,-96.09867352,4.821133413840358,-2.037813870000001,7.99999965,0.6641873604775417,1.1618000000000004,74,14,140.37080445873278,407.5462,mp-1103684,Fe2SiO4,https://materialsproject.org/materials/mp-1103684,-36.164612740645424,-8.6994462428293,-44.08660872808529,-9.441969019477524
-5.8143465192857136,-162.80170254,4.174047928516853,-1.873833324443572,8.0000001,0.3748922674504003,0.4225000000000003,1,28,248.6914973732261,625.12847,mp-1174670,Li4MnCo2O7,https://materialsproject.org/materials/mp-1174670,18.944393447522724,-79.19627894375347,-13.18924618892463,-83.6386949462876
-6.210920825416667,-149.06209981,3.9558737913004487,-2.076654924535,15.9999986,0.8554635543238726,0.6934,3,24,217.96956644475588,519.265175,mp-1175272,Li7Mn4CoO12,https://materialsproject.org/materials/mp-1175272,18.597099926506502,-83.33399032162127,-18.78345716286681,-83.77900190412164
-4.820443075609756,-395.27633219999996,4.703868582359995,-1.210644619817074,6.99997925,0.10971430549035416,0.37780000000000014,1,82,743.5512736599878,2106.2844,mp-758772,Li8(NiO2)11,https://materialsproject.org/materials/mp-758772,25.00741516127289,-72.50320919118678,-4.7132333036783205,-72.47416157828715
-5.61388323125,-314.37746095,4.71391579963016,-1.6552549293749996,50.0000006,1.1630949760949556,0.5693999999999999,2,56,500.99369148410057,1422.214125,mp-757323,Li13Co15O28,https://materialsproject.org/materials/mp-757323,16.223537191645566,-71.73240769402592,-12.487958010361517,-79.16248859549644
-5.5005610115625,-176.01795237,4.2079520321386665,-1.7053623462499994,26.000000399999998,1.0504127575967963,0.42289999999999983,2,32,288.46345073094335,730.991765,mp-1175464,Li9Co7O16,https://materialsproject.org/materials/mp-1175464,13.033137979716926,-78.12418748164505,-13.139551935204775,-85.08453518692892
-6.5886306946875,-210.83618223,4.3011775834225645,-2.2417358165625,8.9999995,0.3664613960846582,0.0,2,32,286.2145324081405,741.36139,mp-768934,Li4Cr3CoO8,https://materialsproject.org/materials/mp-768934,17.70251765046989,-69.83575581372389,-10.724139714311264,-71.08429692007671
-5.846447532916668,-140.31474079,4.088311608967192,-1.8990486961216664,13.9999999,0.7618671734904808,0.0,1,24,214.15400390980068,527.2554749999998,mp-1174992,Li7Mn2(CoO4)3,https://materialsproject.org/materials/mp-1174992,17.251002214407393,-79.48165973632568,-10.547888101575227,-86.02502589508806
-5.77694584125,-184.86226692,4.170348936284076,-1.8415968778724991,25.6179892,1.037066467968145,0.0,12,32,287.88290307415974,723.001465,mp-1100744,Li9Mn2Co5O16,https://materialsproject.org/materials/mp-1100744,16.235592320788985,-71.57548301244803,-12.764841106052936,-80.05615527585884
-6.298713402142857,-352.72795052,4.107082304538946,-1.9249721733333331,11.500000225,0.22608603657274565,0.14640000000000009,5,56,592.7909106561656,1466.1751399999996,mp-762215,Li2TiCo3O8,https://materialsproject.org/materials/mp-762215,2.6325535211792546,-74.19766359586923,-7.818586065689619,-67.35298595873628