energy_per_atom,energy,density,formation_energy_per_atom,total_magnetization_uB,total_magnetization_T,band_gap,sgr,num_sites,cell_volume,weight,mp_id,formula,URL,tsne_xrd_lin1_0,tsne_xrd_lin1_1,tsne_xrd_lin2_0,tsne_xrd_lin2_1
-8.22844565090909,-90.51290216,5.795050150713582,-3.722049009204546,0.0,0.0,4.7942,12,11,144.0415032666812,502.6848,mp-7064,Er2Si2O7,https://materialsproject.org/materials/mp-7064,28.681920388750115,10.22481627014974,35.80804473231989,36.560809109811565
-6.755928345714287,-47.29149842,5.1195674645577,-2.7705752964285733,1.9999985,0.24674573215229514,0.028999999999999918,139,7,94.4620677355267,291.2337,mp-18854,Sr2CrO4,https://materialsproject.org/materials/mp-18854,-21.57877196354805,38.330079371975174,-14.036611498731826,58.118553027126005
-3.118111062,-15.59055531,3.5309936969870157,1.5343421790480007,4.999999400000001,0.4929311669549769,0.11599999999999995,12,5,118.21187373952736,251.3674,mp-1069055,Cu(BrN)2,https://materialsproject.org/materials/mp-1069055,-2.7003243966734165,-7.04165965589806,-3.8526216811463065,-16.183680442305516
-8.647901777000001,-86.47901777,3.721762782393109,-3.496355223083333,0.0,0.0,4.5642000000000005,148,10,112.20291329744845,251.480162,mp-1215941,YSc(BO3)2,https://materialsproject.org/materials/mp-1215941,-11.001085772816806,22.700910001145438,-18.444966754392773,52.18483945209474
-6.2543506125,-125.08701225,6.402135184485493,-2.3109711807499997,2.8300000000000003e-05,1.1779601663819516e-06,0.0,31,20,279.9840287269094,1079.4661,mvc-9332,PrZn(SnO3)2,https://materialsproject.org/materials/mvc-9332,-14.505043964614675,38.203887805877216,-13.185468242450053,53.25449004315239
-7.232673329444443,-260.37623986,7.970197194990903,-3.0707552386111114,0.0,0.0,3.1122,19,36,467.9102563648109,2245.85928,mp-780172,Tm2TeO6,https://materialsproject.org/materials/mp-780172,12.763832596714547,17.106539382366414,38.14045934338683,1.336148191333938
-5.946708599130435,-136.77429778,5.9644993157894906,-2.111305302608696,15.440423499999998,0.5302101908524023,0.0,139,23,339.38181251375613,1219.0274,mvc-145,Ba2Ca3Tl2(FeO3)4,https://materialsproject.org/materials/mvc-145,-4.816638491583436,20.025523511596173,-1.7159902581374211,22.182914140913613
-6.8323704338888875,-122.98266781,5.235694782384253,-2.887671030416667,2.5e-07,1.002789958224445e-08,2.4942,9,18,290.54102200012437,916.0785,mvc-5445,Ca2YBiO5,https://materialsproject.org/materials/mvc-5445,-0.6991802521574595,8.123618449798348,22.44724554199413,34.203236185346974
-3.7872301,-83.31906219999999,4.152730569138324,-0.4917868947932995,4.1e-06,6.598861076546281e-08,0.7032999999999998,15,22,724.0895817207105,1810.8270076,mp-1192609,Cs2As2Se6O,https://materialsproject.org/materials/mp-1192609,9.9564941748281,18.876867286673342,28.862475827478317,4.01277731871408
-4.840760697777778,-43.56684628,2.9768937896634737,-1.2687378425488889,4.999999400000001,0.4165571666542511,3.6891,12,9,139.88552240832018,250.776605,mp-24129,MnH4(BrO)2,https://materialsproject.org/materials/mp-24129,24.643118374559425,0.7292170262415001,-3.1604893103611897,-7.251030134167101
-2.9300411,-29.300410999999997,3.6998206062962615,-1.3124187205189657,0.00073,2.5509429816421193e-05,1.4401,225,10,333.5028397417202,743.07236928,mp-1110631,Rb2NaGaBr6,https://materialsproject.org/materials/mp-1110631,-21.876607395927962,-19.95617088808261,-18.446609284239283,-10.81013227057365
-3.5178070975,-14.07122839,4.640112557830147,-0.000410926874999884,1.0106614,0.10045624058209666,0.0,225,4,117.24820031564067,327.6314700000001,mp-1185169,LaCeMg2,https://materialsproject.org/materials/mp-1185169,-29.712254363608604,55.622570294164106,-56.650043458868325,51.92385018438926
-9.21705774875,-73.73646199,10.701120933923454,-1.3518064153013378,4.12398815,0.2872621746208777,0.0,141,8,167.3078785426545,1078.193164,mp-37297,U2PS,https://materialsproject.org/materials/mp-37297,31.347856837985912,63.462439225463235,-14.660183453312307,35.043093458944725
-8.625183382333335,-258.75550147,7.142654429588628,-3.8737614891666654,0.0069627,0.0002001869379086632,0.0,2,30,405.3399169776194,1743.5320000000004,mp-674320,Ce9DyO20,https://materialsproject.org/materials/mp-674320,26.246218890882325,64.86643307150827,-11.534928672291825,35.894824723039896
-5.213412576666667,-31.28047546,2.8653254289957295,-1.876557446927084,0.7894055,0.07640616085252412,0.0,139,6,120.4062961175591,207.7658,mp-1147722,Ca2CuSO2,https://materialsproject.org/materials/mp-1147722,23.64000007542209,63.483360028087986,5.029582544489147,37.25780198281922
-7.110253108999999,-71.10253109,6.18417300665546,-2.8256053357500006,2.9999997000000005,0.2982318843754512,0.7263999999999999,148,10,117.23156594968539,436.59334,mp-1078209,LiLa2FeO6,https://materialsproject.org/materials/mp-1078209,-24.97384428895147,55.35392941537741,6.250040701856853,59.03719245030975
-5.632157083243244,-416.77962416,7.433187932336218,-1.7543333032916217,0.0,0.0,2.3267,15,74,1526.4531023860513,6832.9695999999985,mp-1204784,V2Pb14Cl4O17,https://materialsproject.org/materials/mp-1204784,2.497549684520907,24.124570655744552,0.6289964963873682,26.39870629532931
-6.836169761875,-437.51486476,5.409310863034395,-2.3306704838020837,1.87625e-05,2.186736211900769e-07,2.7869,33,64,999.9349217576026,3257.3512,mp-1208295,TiTlAsO5,https://materialsproject.org/materials/mp-1208295,17.70711726181246,-10.1016122951559,27.60993284542677,-3.1286193423727844
-4.297572132,-42.97572132,3.399279002605359,-0.24328526199999986,1.35e-06,6.507467718915132e-08,0.0,63,10,241.76819805382686,494.9221544,mp-567377,Ba(AlSi)2,https://materialsproject.org/materials/mp-567377,4.438623199691524,31.99695400883991,50.80089866705111,-0.05070190932201761
-6.147041099999999,-92.2056165,8.55448857875626,-1.9833375714166663,0.0,0.0,1.5238999999999994,8,15,257.74389133013244,1327.80207,mp-753069,LaBi5O9,https://materialsproject.org/materials/mp-753069,7.055492005867777,20.94829824293333,26.434121157264048,-5.474801103426427
-8.284239390714285,-231.95870294,4.987333726056015,-3.1122745763809525,5.999858975,0.1733165269011193,0.0,57,28,403.4395701961303,1211.7076,mp-1211712,KEuTiO4,https://materialsproject.org/materials/mp-1211712,-12.207166896771342,33.75385707851821,-0.5206237696394547,49.15592757436802
-6.885281106111113,-123.93505991,7.75839695919244,-3.649821522827223,0.0,0.0,1.7392000000000003,9,18,273.48976110396603,1277.8032191999996,mp-1225708,Er3S2OF3,https://materialsproject.org/materials/mp-1225708,-3.4456261148057323,8.71465852552769,1.3076860925361142,18.569687709717428
-4.9246042433333335,-44.32143819,3.370524671871685,-2.9045965097588504,2.0000003,0.14041916449763925,0.0,225,9,165.98968612814008,336.9221192,mp-560562,Rb2CrF6,https://materialsproject.org/materials/mp-560562,-23.29682703494297,6.3750340365933855,-27.65220902373743,-9.722269795526019
-7.067721345,-56.54177076,6.771822369454986,-3.335667788125,0.0,0.0,4.1714,141,8,101.12526251296495,412.3976,mp-10971,LiErO2,https://materialsproject.org/materials/mp-10971,1.2714361018242482,-34.59886418456462,-0.6145583041141637,-24.509723584185327
-8.344712011,-83.44712011,6.592564597612637,-3.0161378452500003,0.0,0.0,2.3644,148,10,173.89745042325592,690.3964,mp-776083,HfSnO3,https://materialsproject.org/materials/mp-776083,4.663727317552606,7.976796393092197,9.198259442770947,31.798003792622914
-6.601612393571429,-92.42257351,5.4659962234841375,-1.9913477101785717,5.00012225,0.19141162608425416,0.13539999999999974,36,14,304.43160514485834,1002.09749,mp-1217708,Tb2MnS4,https://materialsproject.org/materials/mp-1217708,8.958760346056389,12.458164563326076,11.005671313876583,10.485391057811093
-4.492346496000001,-22.46173248,4.1624485406977625,-0.3107198399999994,0.976194,0.12395044057031332,0.0,107,5,91.78368430349,230.0727978,mp-1226619,CeBeAl3,https://materialsproject.org/materials/mp-1226619,-46.38674442887035,31.29149053658494,-4.707664692605762,21.498591063705
-7.201768046071429,-201.64950529,6.174516081185695,-2.23547398930381,4.0000009,0.12860866329592055,0.915,62,28,362.46601421893274,1347.7865800000002,mp-19882,MnBPbO4,https://materialsproject.org/materials/mp-19882,1.7519218584663985,13.934682133178725,6.053453118566617,32.08116421843403
-5.756290634375,-92.10065015,3.140418329615063,-1.876774939875,4.99999615,0.2485731407467999,2.0949,92,16,234.4190479292532,443.33427712,mp-21880,NaFeO2,https://materialsproject.org/materials/mp-21880,18.008965115617137,16.896760588082838,62.75368917181971,26.951238348981267
-7.9578418381818175,-175.07252044,7.298242139027387,-3.1396624944318203,3.0000001,0.1156843067002932,0.0,63,22,302.22072881210374,1328.2916,mp-5779,Sm3RuO7,https://materialsproject.org/materials/mp-5779,16.730334942699546,59.31640228184072,-3.2502800829981826,37.98439641305031
-6.6334749723333335,-199.00424917,6.086476596853283,-2.31453532625,9.9999999,0.2935394953005567,2.4492,55,30,397.01862415776077,1455.2169543999996,mp-1229040,Al2Fe2Bi2O9,https://materialsproject.org/materials/mp-1229040,6.262472774381099,9.041864674954779,9.265966075807592,22.806870740105452
-4.17465619125,-33.39724953,6.883349140255665,-1.3530690649479178,6e-07,4.200318380883997e-08,0.0,141,8,166.47402004950374,690.0763999999998,mp-7962,YbAgS2,https://materialsproject.org/materials/mp-7962,31.788537455123702,63.46570537258992,-15.299877085394456,35.21192906890782
-2.9302477254545454,-64.46544996,4.707582738513912,-0.4023404345454544,1.8808581000000002,0.02811905159880776,0.0,176,22,779.5299229196958,2209.946,mp-1228211,Ba5Ga6,https://materialsproject.org/materials/mp-1228211,4.9421295859995,-7.368985934664147,10.49582631469894,7.945164174336503
-2.8298771592857146,-79.23656046,3.47304439549957,-1.426741318669951,0.0,0.0,3.6395,62,28,1063.2680448290434,2223.8424,mp-570168,Rb2ZnBr4,https://materialsproject.org/materials/mp-570168,35.01224224272564,33.41191016099238,29.723278432814464,6.5125000401646504
-9.870588926666667,-118.44706712,7.051880007349987,-3.5163343578819464,20.9073807,1.559237366950647,0.0,139,12,156.26611705623438,663.6218,mp-1212973,Eu3Ti2O7,https://materialsproject.org/materials/mp-1212973,-26.828942851572595,46.132765789615604,-13.161976181804922,63.701105154867584
-4.89103598,-24.4551799,8.609896654085633,-0.4866082329999998,3e-07,4.1453933744813504e-08,0.0,139,5,84.33987117580453,437.30232,mp-4539,Ho(CuGe)2,https://materialsproject.org/materials/mp-4539,-46.884136950670054,25.769131399549817,-31.066693519058266,34.27398421273542
-7.004263798333334,-84.05116558,5.275371748595439,-2.8387471376041677,1.9776955000000003,0.13902129408656425,0.0,107,12,165.78892901866126,526.695375,mp-1218496,Sr3NbCoO7,https://materialsproject.org/materials/mp-1218496,-23.492319752305914,35.44901855072865,-14.605862202134393,56.74361877289574
-4.883709685714286,-68.37193559999999,3.756362070188168,-0.02701264668367287,0.0,0.0,0.8283000000000005,8,14,293.66781007659324,664.3159820000002,mp-27821,Ag3P11,https://materialsproject.org/materials/mp-27821,7.684227310973637,20.450667384261102,22.891728940702247,-15.853460720219672
-5.410761871666666,-32.46457123,7.152428675663666,-0.8520541224999997,0.048709699999999995,0.0030044801733486825,0.0,139,6,188.93983854093847,813.8192999999999,mp-1219742,PrNdSb,https://materialsproject.org/materials/mp-1219742,-44.606384107036675,26.586241152246217,-33.10980138797216,31.986981678605684
-7.295041900434782,-167.78596371,4.929140796321965,-3.12025624054348,0.0,0.0,3.8553,150,23,314.35793789082237,933.13948,mp-16136,Sr3TaGa3(SiO7)2,https://materialsproject.org/materials/mp-16136,3.4968110635644463,15.165352939584887,28.50459935286191,-1.1988867195085728
-5.2442632003125,-167.81642241,6.1001090050856535,-1.6603700927604177,1e-07,1.5883206103115942e-09,1.7799999999999998,92,32,733.7350341549377,2695.42816,mp-18262,HoAgS2,https://materialsproject.org/materials/mp-18262,-3.5440016912121624,8.63362526107046,-5.735405702500634,26.77693520449939
-7.355780048,-73.55780048,6.228846097346468,-2.3286902820312507,6.652909200000001,0.3164644522176885,0.0,71,10,244.99887491131184,919.015,mp-1219448,Sm4GdS5,https://materialsproject.org/materials/mp-1219448,-33.025034593192004,-27.666396949922532,-42.34672031948568,-7.353273640455573
-3.498881735,-41.98658082,3.1996692703310416,-2.2762319917867244,0.0,0.0,4.3849,139,12,360.94371442243744,695.4973557000002,mp-568137,Cs3Mg2Cl7,https://materialsproject.org/materials/mp-568137,-0.09368715912269038,14.450926844914465,6.735435746958928,14.96240694578201
-5.295624706666667,-47.66062236,2.361199095361466,-2.5043322176947225,0.0,0.0,4.9456,215,9,163.40682545407924,232.35590319999997,mp-1223822,K3SO4F,https://materialsproject.org/materials/mp-1223822,27.69515881253211,65.39108300054525,-14.151548113811428,32.875622021444784
-4.226274822,-21.13137411,7.372866694451777,-0.6213451063333331,0.0,0.0,0.23159999999999936,156,5,108.56778239913629,482.04575,mp-1217412,TbZnAgAs2,https://materialsproject.org/materials/mp-1217412,-33.198331021694486,-13.759246906098108,-27.429106786601075,-18.925647192218413
-4.621458064473684,-175.61540645,7.123576264320715,-1.1262498680701754,2.075e-05,4.35255460715773e-07,0.13640000000000008,14,38,555.5860083476957,2383.4184,mp-553949,Ag2Hg2(TeO4)3,https://materialsproject.org/materials/mp-553949,16.512372712146675,32.61088232559532,23.895044715472487,32.42873036751261
-3.2596687458333338,-39.11602495,3.8288570354171783,-0.4297622493665851,1e-07,3.1954442188697913e-09,1.3344999999999998,72,12,364.70875328506486,840.94239416,mp-1213705,Cs2NaGaP2,https://materialsproject.org/materials/mp-1213705,6.234598566833268,18.079059741975087,29.593577938613077,3.5829471326695166
-3.8706145136666663,-116.11843541,7.9128980625014895,-0.8947083227760412,1e-07,2.3832773563146493e-09,0.4431000000000001,144,30,488.99322362466467,2330.1792,mp-754598,Hg3SeO6,https://materialsproject.org/materials/mp-754598,-11.420074778853508,21.188978972369426,-13.848987847494874,18.282899132295796
-4.865931248333333,-29.19558749,4.4180324382218625,-0.09822193178160887,4.56937375,0.2702139791846575,0.0,129,6,197.07262301238322,524.33169,mp-3165,RbMnSb,https://materialsproject.org/materials/mp-3165,3.7260875028981233,18.8027682393645,-10.745435853533275,-19.987233397971874
-9.728465986,-97.28465986,13.372244907414059,0.20617429474999935,3.35696215,0.20533213848926746,0.0,127,10,190.53156813625716,1534.342,mp-1079895,Np3Si2,https://materialsproject.org/materials/mp-1079895,-37.96476589080035,10.943682599007223,-28.494185225659308,36.69402281097121
-4.784732226153847,-124.40303788,5.266986192422966,-1.1603322207933338,0.0,0.0,0.7401,43,26,279.56183439081235,886.7291200000002,mp-1193238,Ag2Te(H2O3)2,https://materialsproject.org/materials/mp-1193238,8.585565315131468,4.7102278266426865,12.11524804537219,8.700811450761549
-3.9406494566666654,-11.82194837,1.8664018214714764,-0.25228235512666625,0.027946600000000002,0.003928491133103326,0.0,160,3,82.90498197345694,93.183,mp-1247003,KCaN,https://materialsproject.org/materials/mp-1247003,-4.260338357503404,-3.0809906596534216,-15.478264855835285,-8.793852522220687
-4.0453673925,-16.18146957,4.65614644269283,-0.24396209125000026,0.0071719999999999996,0.0007121487134687133,0.0,123,4,117.36727311025349,329.0974786000001,mp-1223211,La2MgAl,https://materialsproject.org/materials/mp-1223211,-25.247125315580487,52.318843634571635,3.3307319196168463,22.61794710049974
-8.162821252666667,-489.76927516,5.166627777975833,-3.81346730525,0.0,0.0,4.3796,14,60,968.7930528386256,3014.3182288000007,mp-780409,La4Al2O9,https://materialsproject.org/materials/mp-780409,9.776392534669933,23.731486850060534,34.36335919026578,-1.6273482833814612
-7.251364082820513,-565.60639846,6.095825133604207,-2.899210740256412,1.91288575,0.019553597863058943,0.004299999999999749,88,78,1140.0916899862516,4185.2672,mp-29908,Sr11(ReO6)4,https://materialsproject.org/materials/mp-29908,-18.000707005665003,28.101985607130388,-0.16771737664683278,47.44245935280732
-3.78432279125,-30.27458233,7.633789669764947,-0.5371793174218755,0.0002484,1.267629834845118e-05,0.7417999999999996,166,8,228.3686932832036,1049.851,mp-1226877,CdPb3Se4,https://materialsproject.org/materials/mp-1226877,-27.109489259186358,-39.609165202451145,-35.58041838278264,-21.10870875442186
-5.381235702666666,-161.43707108,6.7961249728235,-1.8748832676666671,0.0,0.0,0.0,139,30,478.20778204863467,1957.1716,mp-573069,Ba2CaTl2(CuO4)2,https://materialsproject.org/materials/mp-573069,-1.8225473422686924,10.142165337690304,6.302399014845536,21.806963335368415
-5.801761851,-58.01761851,6.641672843030856,-0.5789860019999999,5e-08,3.188126689278625e-09,0.0,65,10,182.77292448495274,731.0385,mp-8467,YNiGe3,https://materialsproject.org/materials/mp-8467,-46.032986375079574,13.631270606625678,-42.86224063877876,29.49102225508899
-5.549823902499999,-66.59788683,5.798784732703211,-0.9584140485344824,6.99856165,0.17789047769147295,0.07350000000000012,125,12,458.49385443390617,1601.1109038,mp-1104966,CsGdTe4,https://materialsproject.org/materials/mp-1104966,-6.254264422101891,17.690071012852638,2.4056734046025525,14.865087946780125
-3.349267653333333,-20.09560592,4.353435222651068,-1.7351203233333334,0.0,0.0,3.3749,166,6,279.42360925543846,732.56488,mp-754852,BaSrI4,https://materialsproject.org/materials/mp-754852,-23.225983964037013,26.566940361603354,-15.013498989119569,50.12735403336261
-7.722028785625,-247.10492114,5.583213819050091,-3.1662675610937487,0.0010732,2.4045984202071798e-05,2.6298000000000004,156,32,520.1343479562566,1748.84252,mp-1228195,Ba7Nb4MoO20,https://materialsproject.org/materials/mp-1228195,-17.577982916009688,16.83566680482856,-15.855756038991863,46.8257191401356
-6.763484326458332,-324.64724767,4.713947246256637,-3.5265650935291664,0.0,0.0,4.3625,186,48,728.3913187321158,2067.761232,mp-1182538,Ba3Sr4B3O9F5,https://materialsproject.org/materials/mp-1182538,5.421108227072146,6.162837784501747,7.417285238779273,26.035586307848806
-7.581093025555557,-68.22983723,3.8558031683910445,-3.036212700305556,0.0,0.0,2.0295,123,9,132.82601958817736,308.4245385600001,mp-1186029,Na2Zr2O5,https://materialsproject.org/materials/mp-1186029,-28.991471378201894,34.65630983805912,1.337019815238543,42.229018039155775
-7.549508630833333,-181.18820714,6.547064200960796,-3.3097135171875007,0.0,0.0,4.4623,113,24,267.6620467678377,1055.320328,mp-20778,Dy2Be2GeO7,https://materialsproject.org/materials/mp-20778,-2.4085532757909927,12.651493435409385,6.8621312277041255,30.82086434838957
-6.91163626076923,-89.85127139,4.763644009740699,-1.9315246887834472,12.9999989,1.003245650285857,0.0,12,13,151.01269482766932,433.21518,mp-752932,RbMn4O8,https://materialsproject.org/materials/mp-752932,6.027068805498789,25.325133485016238,59.030656993568584,33.58873065830029
-4.600761433500001,-92.01522867,5.175357048028864,-0.5076075215000003,0.0,0.0,0.02479999999999993,105,20,555.0151870038111,1729.8008,mp-27810,Ba(GeAs)2,https://materialsproject.org/materials/mp-27810,-12.244192547073851,34.00978496121916,-16.217690890320622,45.61578587746099
-6.002132828333332,-180.06398485,7.149560035298888,-2.35210464825,0.0,0.0,2.0712,165,30,511.68021169140036,2203.0728,mp-556407,Ba3Bi2TeO9,https://materialsproject.org/materials/mp-556407,-19.30862258810405,-51.418001012833976,-12.73785437736624,28.15063602473288
-8.856043487727273,-194.83295673,7.897584334051758,-3.8024606876136375,0.0,0.0,3.3946,63,22,312.8755110591188,1488.0473600000007,mp-755941,Sm3TaO7,https://materialsproject.org/materials/mp-755941,19.742911450822998,56.118727282599494,-2.914007549430396,37.528900530776745
-7.843901092272728,-172.56582403,8.256215248310463,-3.062284678522728,1.9999999,0.07671741795788818,0.0,63,22,303.8179464343708,1510.5856,mp-15326,Sm3IrO7,https://materialsproject.org/materials/mp-15326,16.683921798049113,59.67610408451153,-3.261684325674307,38.10742042261961