energy_per_atom,energy,density,formation_energy_per_atom,total_magnetization_uB,total_magnetization_T,band_gap,sgr,num_sites,cell_volume,weight,mp_id,formula,URL,tsne_xrd_lin1_0,tsne_xrd_lin1_1,tsne_xrd_lin2_0,tsne_xrd_lin2_1
-4.187306035909091,-92.12073279,1.377047330752053,-0.5887771818490909,1.0,0.06800857725446717,0.0,72,22,171.36169058431804,142.10636,mp-696717,H7O4,https://materialsproject.org/materials/mp-696717,5.593029480815947,-32.90459923515101,10.946408211067645,-25.87071108414136
-5.8137914,-29.068957,2.4143958447796035,-1.4841413537949657,0.0,0.0,2.9667000000000003,155,5,101.4266886739784,147.47269999999997,mp-752446,RbNO3,https://materialsproject.org/materials/mp-752446,1.6093013995151269,-30.471232316374486,-7.25761256255841,-35.266608029386646
-6.440392766538461,-334.90042386,4.0456981213673595,-2.533156079384395,0.0,0.0,3.7986,14,52,884.7150296284642,2155.4988152,mp-556330,Cs2Ga2B2O7,https://materialsproject.org/materials/mp-556330,14.019678182047903,-14.36258899528898,32.11898568241187,2.6817369589642785
-4.942784223214286,-138.39795825,4.602699775440901,-1.2567120026785707,2.0000038,0.04739173762509208,0.8493999999999999,4,28,491.81935498867966,1363.23012,mp-1209646,PrI3O10,https://materialsproject.org/materials/mp-1209646,46.06026034216536,11.093092950309472,41.92522679145181,-11.007470599380564
-8.529023781363636,-187.63852319,3.939498251753375,-3.677177511477274,0.0,0.0,5.176,11,22,291.6669938842791,691.957,mp-561551,Y2Si2O7,https://materialsproject.org/materials/mp-561551,5.6701894446275105,19.598278195276414,22.84908858388283,-2.990096643698517
-6.285426882272727,-138.27939141,5.03266238972333,-2.5567839847272724,3.00000015,0.10970986182872827,0.4965000000000002,167,22,318.6786992801927,965.83233856,mp-6233,NaSr3RuO6,https://materialsproject.org/materials/mp-6233,-15.28055965046,13.092743837621331,-14.878700081697733,23.801561497582522
-5.379011876071429,-301.22466506,4.116528030272302,-1.417749517610409,3.746377625,0.050714739229238116,0.0,5,56,860.9041112656877,2134.2081215999997,mp-1197801,Ag3P2N(O3F)2,https://materialsproject.org/materials/mp-1197801,6.65329351439485,31.830699353757566,30.254752418891684,-3.104299028029484
-6.055169775714285,-169.54475372,3.0034554425286037,-2.2592117656071418,0.0,0.0,4.4701,15,28,508.82288231146896,920.31973856,mp-557669,K3Na(MoO4)2,https://materialsproject.org/materials/mp-557669,19.6406909934542,-1.0069816769380653,25.60315169015023,-28.97407361114116
-5.1041799003125,-326.66751362,5.84950880965944,-1.3715187428645832,0.3162461,0.0037143038160876007,0.0,61,64,992.2593077890716,3495.3888,mvc-7497,CaAgBiO5,https://materialsproject.org/materials/mvc-7497,6.7282467215368555,26.737187640550136,35.41011045267419,-5.578137749147039
-4.3910275175,-17.56411007,5.198134656320995,-1.404698545926725,0.0,0.0,1.3066,166,4,170.05787367388356,532.3474518999999,mp-11742,CsNdTe2,https://materialsproject.org/materials/mp-11742,2.304855623103569,-33.35898223294506,-4.174836730347485,-28.29936592426225
-6.32779509015625,-404.97888577,5.6481726516276165,-1.1851749410937495,2.990962525,0.02166454154127117,0.0,20,64,1608.936470326224,5472.6512,mp-1215059,Ce3C2Br3,https://materialsproject.org/materials/mp-1215059,-3.995294885113353,29.29447922318026,-6.248857019380944,-1.5916412687840562
-6.044230085357143,-169.23844239,3.0134531563891285,-2.240126817982142,0.0,0.0,4.3748,1,28,498.2582881172177,904.21120784,mp-1223849,K5Na3(MoO4)4,https://materialsproject.org/materials/mp-1223849,19.634452153989013,-1.0339589327198535,25.653062924824376,-28.840109068577195
-3.5970547589999997,-35.97054759,3.863184144736802,-0.4501936904827592,0.0,0.0,0.5720000000000001,69,10,421.7350650215387,981.1514076,mp-15557,Cs2As3,https://materialsproject.org/materials/mp-15557,10.182771314188397,-23.238666095123435,23.51227400828968,-15.851785015465861
-7.033489014523809,-295.40653861,4.431285119919021,-2.820408167380952,3.0000001,0.05392848170357901,2.8851,173,42,648.3066902431498,1730.0597699999996,mp-562027,BaCoSiO4,https://materialsproject.org/materials/mp-562027,4.441141924431049,26.27209597107837,20.573537288303584,-17.654791283613008
-9.66970786575,-386.78831463,5.405807120274717,-3.975703261000001,20.9999999,0.3960824716805745,3.4374,1,40,617.8899006056417,2011.51165,mp-766237,Gd3Y13O24,https://materialsproject.org/materials/mp-766237,17.959517845921464,59.45173948686815,-5.026359749705581,37.49380072785815
-1.17653937,-4.70615748,1.337634609194759,0.08139489153879298,4.2499999999999996e-05,2.58346810419318e-06,0.0,139,4,191.7181605725568,154.43710784,mp-975298,RbNa3,https://materialsproject.org/materials/mp-975298,-8.307701734371388,-30.698120583194413,-4.261215272376252,-31.91821919210989
-7.108446344666668,-213.25339034,3.3818168342377457,-2.4644714766293108,4.00000005,0.09151564679132652,2.3314,84,30,509.38021319169786,1037.3924,mp-505219,Rb2V4O9,https://materialsproject.org/materials/mp-505219,8.679838424779364,17.704737464415214,46.854938353660685,7.935258501787393
-5.60218887,-44.81751096,5.0132393927138015,-1.6917753567187503,0.3530159,0.030848561424918024,0.0,99,8,133.3634365530025,402.63,mvc-7253,BaCuSbO5,https://materialsproject.org/materials/mvc-7253,-0.8443725948990769,17.8388016141563,34.85692736914941,-6.311439962919117
-5.723910547916668,-137.37385315,4.950945783326397,-1.831355228619792,0.0,0.0,1.7721999999999998,173,24,556.3815542940706,1658.8678999999993,mp-560014,Pr3CuSnS7,https://materialsproject.org/materials/mp-560014,8.986338811036894,-5.234637518528371,13.506932951663885,4.018572105517631
-5.85983117625,-375.02919528,6.765083330119898,-2.02932451421875,0.0005427375,7.456331773832318e-06,0.0,61,64,848.2854802269907,3455.9392000000007,mvc-7443,MgSnBiO5,https://materialsproject.org/materials/mvc-7443,-8.158104722539251,39.375016140707324,-5.467395004773938,31.59215347902468
-7.24984207125,-173.99620971,8.334599132063206,-2.3845823909722217,0.0,0.0,3.1655999999999995,12,24,310.2121390032588,1557.0208,mp-1210947,LuAg(WO4)2,https://materialsproject.org/materials/mp-1210947,9.03300969156045,26.176257447087607,33.77872706106179,-1.2129827165241152
-4.542960254444443,-163.54656916,4.1430895743138585,-0.7825442794444442,0.0,0.0,0.6217999999999999,14,36,906.1231361661279,2260.8016,mp-18504,Ca3(GeAs2)2,https://materialsproject.org/materials/mp-18504,-25.744207377757448,-37.75083564957248,-35.01008759358632,-23.845128456641024
-7.068453744444443,-63.616083700000004,7.907309495667208,-3.08158553375,2.0000006,0.1846716183907656,2.2452,71,9,126.21396152081242,601.0174,mp-19416,BaDy2NiO5,https://materialsproject.org/materials/mp-19416,-13.573131733400464,36.93063591791953,-11.27050465023012,54.35605591661115
-6.777234533200001,-338.86172666,3.6239330642915655,-1.2598353782384004,2.40215265,0.030522497697726907,0.0,2,50,917.1871468028895,2001.6541300000001,mp-1199293,U2Mn(AsO10)2,https://materialsproject.org/materials/mp-1199293,44.083863795513366,-45.76052937591164,48.58363866535852,-35.890589953892125
-5.2177277045,-104.35455409,2.6091323693420487,-3.742871800814,0.0,0.0,6.6471,62,20,346.6563988603698,544.6860383999999,mp-5926,KCaF3,https://materialsproject.org/materials/mp-5926,-19.76897351495202,-50.57334485888138,-10.819027899714971,7.324732684542347
-6.839374341111111,-123.10873814,4.4424566680361695,-2.1524900789177783,10.99999995,0.6427091699100268,0.0,1,18,199.45990802247212,533.6170827999999,mp-763176,Mn3(O2F)2,https://materialsproject.org/materials/mp-763176,50.2564745619143,63.099610699755075,71.58643715109882,31.150666890868212
-6.537174686499999,-130.74349373,2.2896823702256173,-2.697299837778572,0.0,0.0,4.821199999999998,62,20,342.51087760213545,472.281048,mp-13981,KPO3,https://materialsproject.org/materials/mp-13981,10.069404589371397,-18.368555970878276,27.77343371512363,-29.431569856223483
-4.638616806612903,-287.59424201,1.0698766577586858,-0.5224920852447313,0.0,0.0,4.9962,88,62,588.9047699737831,379.42827712,mp-1204556,Na2MgB4(H5N)4,https://materialsproject.org/materials/mp-1204556,23.91312873220008,-20.866530678108774,26.440116686199765,-27.921309480753692
-3.421936535,-20.53161921,3.8419864915361868,-0.8599885671733333,0.0,0.0,0.6978999999999999,14,6,153.28359246224412,354.6520000000001,mp-1018891,PdCl2,https://materialsproject.org/materials/mp-1018891,27.352647080466127,-22.83483361123051,3.5399783146305643,-28.530342205914216
-6.914483693125,-221.26347818,6.7998742440191515,-2.8649063379687503,1.000000025,0.02626987254506044,0.0,15,32,443.62853469963414,1816.65,mp-17702,Yb2SiO5,https://materialsproject.org/materials/mp-17702,8.487597005433983,15.253649484251087,31.46517174584198,-0.4601664181828747
-7.162537107142858,-100.2755195,7.416709845641687,-2.442497068331072,2.5e-07,9.788644483433974e-09,2.0801000000000003,12,14,297.64245683564,1329.4043,mp-1104046,Tb3Se2NO,https://materialsproject.org/materials/mp-1104046,-10.021288836022775,34.70211726452203,-17.793524948782512,28.521513123628694
-3.818253862727273,-84.00158498,5.585914018842069,-2.0440739272290918,0.0,0.0,1.9355,14,22,339.02472349629124,1140.4507272,mp-8708,Mg(AuF4)2,https://materialsproject.org/materials/mp-8708,23.891145101467565,-12.005164418920806,37.30866397269731,-12.184242192891475
-6.622040283333334,-317.8579336,4.536964633269953,-2.3626086306666667,1.00012145,0.014964555752909428,0.0,60,48,778.8724470795097,2128.054,mp-1211488,KYb(MoO4)2,https://materialsproject.org/materials/mp-1211488,6.104076656221071,18.60294263779884,35.066083077095435,-2.566596491813556
-8.14565243,-32.58260972,8.00636936664023,-0.2610917493749998,0.9831062,0.23133698745057185,0.0,38,4,49.52594679894412,238.79175,mp-999122,TbFeC2,https://materialsproject.org/materials/mp-999122,-36.32158131918038,28.710536583090896,-39.904247624949726,35.791490564862535
-7.5781768059615375,-394.06519391,3.699267700561202,-3.0556392225137365,0.0,0.0,5.741700000000002,11,52,739.549194568547,1647.531544,mp-768503,Lu(PO3)3,https://materialsproject.org/materials/mp-768503,35.91050592714008,-16.160858874107042,44.04097576921709,-31.71522874392566
-7.20594849763158,-273.82604291,5.337572439332211,-2.1651496673684214,4.00000005,0.1014481740031679,2.1656,87,38,459.50811959894247,1477.02512,mp-1021950,BaNb2(FeO3)4,https://materialsproject.org/materials/mp-1021950,6.6859356009867374,25.752497185616235,54.459880503335974,1.9959666898358543
-7.104921254800002,-177.62303137,3.3547645337772893,-2.395729532800001,1.0000857,0.0404259004469466,0.0,6,25,288.3068378701016,582.4624,mp-756397,Li3V6O16,https://materialsproject.org/materials/mp-756397,29.445402957315178,-34.78749466786245,37.99552622677897,-49.96326963280895
-2.903626941875,-46.45803107,3.790303496254104,-0.4845212600624995,0.0,0.0,0.4546,14,16,514.9271209301363,1175.359338,mp-1181025,KAu(Br2O)2,https://materialsproject.org/materials/mp-1181025,40.21966361964553,-37.593516297113645,22.166283646566434,-58.26936939782014
-9.102209484893617,-855.60769158,3.824979966501772,-3.072423043991773,5e-08,5.235873794953148e-10,0.11439999999999985,2,94,1112.90543173453,2563.5296,mp-779464,Ti17(NO4)6,https://materialsproject.org/materials/mp-779464,17.815471221976107,3.1408108449406584,63.54841395113986,33.2464171591409
-4.76989059,-47.6989059,3.7864567765081194,-3.007730776232965,5.0000005,0.3652712626110901,4.0723,225,10,159.52618137351843,363.76078848,mp-558078,Rb2NaFeF6,https://materialsproject.org/materials/mp-558078,-23.700175551403014,10.378964807550144,-29.091359054565377,-9.145519722779241
-6.376817535750001,-255.07270143,8.577492087175965,-2.2087484715000003,0.0,0.0,2.6502,199,40,682.888583992477,3527.4518,mp-757715,Tb(BiO2)3,https://materialsproject.org/materials/mp-757715,28.48042692792648,62.378147712511385,-8.483197832491784,33.40810478601631
-4.122682371363637,-90.69901217,5.7177524545654475,-0.16576593364363648,5.445e-05,3.284673450831762e-06,0.0,11,22,193.1893189276358,665.21092,mp-1191044,BaReH9,https://materialsproject.org/materials/mp-1191044,-14.807269071910124,-0.2749496190317907,1.959530556105116,22.67054651451471
-4.823693907,-192.94775628,4.544667754201914,-0.6876831332812501,15.9119549,0.23506147598319166,0.0,121,40,788.8955529059497,2159.099,mp-1216401,ZnFe4Cu10(SnS4)5,https://materialsproject.org/materials/mp-1216401,23.65418093206813,66.26308576899872,-13.227503917140377,7.585444396748894
-7.1376166988888885,-256.95420116,4.440415097870873,-2.5630842550555557,0.0,0.0,3.6325,15,36,590.8927980232663,1580.09492,mp-556638,K2Th(MoO4)3,https://materialsproject.org/materials/mp-556638,15.091140039708696,-16.503266098223342,26.065334737486392,-14.182861838613482
-7.502824967826087,-172.56497426,5.005620427746888,-2.9449911531521757,15.0000491,0.5063887620904516,2.5105000000000004,150,23,345.2121312513463,1040.6264800000001,mp-1190340,Ba3TaFe3(SiO7)2,https://materialsproject.org/materials/mp-1190340,4.053252276723824,25.23926953741416,34.37658567768731,-6.436007801796796
-7.234503619999999,-159.15907964,3.041451979386568,-1.0952356228654545,0.0,0.0,2.8242000000000003,15,22,407.4856254226564,746.3528,mp-638236,OsC4(ClO2)2,https://materialsproject.org/materials/mp-638236,34.1887563126038,-26.619564361359988,59.13326136806021,-9.213884091136698
-5.791992319555557,-260.63965438,2.498723376279339,-1.462342273350522,0.0,0.0,3.1341,145,45,882.0334423891368,1327.2543,mp-614951,RbNO3,https://materialsproject.org/materials/mp-614951,11.651653325199144,-20.26798839760466,18.891913683002354,-16.603869635230698
-10.331389956499999,-206.62779913,9.273182115785417,-3.47873534475,5.000012775,0.18573893584067547,0.0,62,20,313.7224431686182,1751.9644399999997,mp-1213318,EuUO3,https://materialsproject.org/materials/mp-1213318,-21.581259488566563,13.76789018347608,-28.83607297491966,49.71993510512211
-8.28526462890625,-530.25693625,6.080860506710086,-1.0910311326824562,0.0,0.0,2.4442000000000004,61,64,1286.425778224727,4710.86528,mp-568557,RbTaN2,https://materialsproject.org/materials/mp-568557,-22.027630508946967,11.35825875955896,-30.424576498520093,48.34663577077831
-6.33858413775,-253.54336551,5.0445276690829965,-1.2357267607500009,2.0000006,0.035712626326992965,0.0,58,40,652.658147405448,1982.7008,mp-1201934,WO4,https://materialsproject.org/materials/mp-1201934,30.817736440396434,-26.275933105907587,48.35326310547875,-28.396446233580146
-7.7606004946428575,-217.29681385,7.9000519040083255,-1.5886284857589297,5.999816,0.1311065514270048,0.0,60,28,533.3238005758246,2537.3,mp-1209834,Np2S5,https://materialsproject.org/materials/mp-1209834,-0.31838948737531503,-20.662532881328374,14.540781624271569,-15.351787231864511
-6.237464040833332,-149.69913698,4.782552700420375,-1.7999062884114585,2.9999988999999996,0.06633088578896393,0.0,173,24,527.0875110795641,1518.0756,mp-1192173,La3Co2S7,https://materialsproject.org/materials/mp-1192173,9.303732809597964,-4.628836184641527,12.800693139488557,4.661182985818661
-5.657656768,-226.30627072,3.5195119842114293,-1.6604274189687491,5.000000225,0.09749210856222117,2.6327,122,40,597.6927501549924,1266.8096,mp-558555,LiFe(SeO3)2,https://materialsproject.org/materials/mp-558555,24.84848216679773,-10.832608192670069,51.94124147597262,-19.765496612428105
-3.5553258631999998,-177.76629316,3.505377002532365,-1.7047616268,0.00015403999999999998,1.0846826636260286e-06,4.1414,1,50,1655.0390245603046,3493.7665392,mp-685415,Na3SmBr6,https://materialsproject.org/materials/mp-685415,3.068937301681204,-23.153951810343514,-12.426155026798108,-28.391099557968197
-5.624326418750001,-134.98383405,7.686666525965187,-1.6332729470833336,1.25e-07,4.208519125174081e-09,2.2396000000000003,9,24,346.14505797444946,1602.3120000000001,mp-863374,BiTeO4,https://materialsproject.org/materials/mp-863374,9.909807291627054,25.22442727606719,34.332840130571384,-2.308247611219845
-5.274047271666666,-189.86570178,4.130060017777591,-1.5231075950347224,5.00000655,0.05914657928523015,0.5065,62,36,985.186310030169,2450.336,mp-1199946,Ba2FeSbS5,https://materialsproject.org/materials/mp-1199946,0.7647046507532425,-12.006498131830062,19.614684564409664,-13.142918900415982
-7.086794643571428,-198.43025002,3.077565986214075,-2.46283623248755,10.00000085,0.35089940880900006,3.418,4,28,332.1198460467822,615.5355079999998,mp-755339,LiMn2P2HO8,https://materialsproject.org/materials/mp-755339,25.29133370838262,-12.926692752679243,31.290821029090182,-11.562618989523488
-6.061984493846153,-157.61159684,5.332804803464746,-2.2281183504326925,3.0000001,0.1058875756022519,0.0,155,26,330.18222661377115,1060.376975,mp-19235,Sr6(CoO3)5,https://materialsproject.org/materials/mp-19235,-13.359103600372,19.497614357540964,-12.579093131331284,26.20080091118455
-4.6711217000000005,-65.39570379999999,4.779089753217676,-2.0540912712376853,0.0,0.0,1.4585,14,14,408.93392169568017,1176.9262076,mp-752539,Cs2Ba2O3,https://materialsproject.org/materials/mp-752539,11.535550161161813,-19.123267706983864,16.53572138768536,-14.155138720682077
-7.99192723736842,-151.84661751,4.7603264403396865,-4.239254504382632,0.0,0.0,4.9225,5,19,267.00031774261583,765.4193256,mp-758174,Y6O5F8,https://materialsproject.org/materials/mp-758174,1.5921188464669316,-17.323937651409945,28.57950280897021,-5.111597818185524
-6.668899924523809,-280.09379683,4.262057252611188,-2.131503695838333,12.999991699999999,0.3097832972448854,0.0,14,42,489.06040661958167,1255.25712,mp-1194919,Eu2CuH4(SO6)2,https://materialsproject.org/materials/mp-1194919,27.420378618936773,-3.6347768202253317,39.26270834541077,-19.509755472848273
-5.245747367,-52.45747367,6.296863858739336,-2.1349097834999995,0.0,0.0,2.8703000000000003,63,10,240.24074328635967,911.00734,mp-552547,SrBiIO2,https://materialsproject.org/materials/mp-552547,-19.81194808705608,13.850377201745449,-16.338610195096713,38.211188686877506
-4.9044694025,-19.61787761,3.8571666787404655,-0.5353070004218754,4.0000001,0.4591186024658954,0.0,156,4,101.53424410440444,235.84781428,mp-10232,NaMnSe2,https://materialsproject.org/materials/mp-10232,-19.033485021945225,-35.314174811896024,-16.111037331248276,-29.864120562000043
-3.8663886260000004,-38.66388626,7.28581423269135,-0.31751628957812483,0.0026523000000000002,9.317224324280676e-05,0.3632,160,10,331.7519780618402,1455.6016,mp-1227438,Bi4(TeSe)3,https://materialsproject.org/materials/mp-1227438,-22.336487395088078,-35.65905489764766,-32.8976696627462,-22.99254830436145
-5.737097219545455,-126.21613883,4.8013953156312015,-3.8781798891718187,2.795e-05,6.932460403416137e-07,3.6858,186,22,469.8636435521962,1358.5956384,mp-755009,Ba4OF6,https://materialsproject.org/materials/mp-755009,-9.725102432897826,-35.44135086434074,-15.947012843243801,-33.6370166009931
-6.02130398,-72.25564776,5.027868013695764,-1.5385909091979169,2.0000001,0.08077217622450447,0.0,63,12,288.5663331113108,873.73642,mp-13349,KUCuS3,https://materialsproject.org/materials/mp-13349,34.6361408769498,-32.64686288959857,9.514742416495183,-38.92760781902026
-7.368830915,-221.06492745,6.076791732158282,-2.9797005972500004,10.000000199999999,0.28185229212596397,0.8606999999999996,71,30,413.4812925499507,1513.14702,mp-1218655,Sr3UFe2O9,https://materialsproject.org/materials/mp-1218655,-24.47021350071196,30.087324007367567,-21.0190729210612,56.595173043876144
-7.173517605,-114.77628168,3.5194039001809263,-2.7022789644866068,2.99999985,0.19784093541845746,1.5490000000000004,15,16,176.71869825938754,374.543724,mvc-3244,MgCrPO5,https://materialsproject.org/materials/mvc-3244,18.053165056882264,20.289080108588642,58.34612063415693,33.334008738855154
-6.6086619025000015,-502.25830459,4.1710327524786415,-2.0846906749954623,8.000000525,0.06829079923927887,0.05710000000000015,198,76,1365.2281908751906,3429.2548151999995,mp-1202238,Cs2Fe2(MoO4)3,https://materialsproject.org/materials/mp-1202238,10.106912322924412,-27.949224052512434,36.846411993370964,-2.383291378419093
-6.932741074791667,-332.77157159,3.839172350471295,-2.366363719625,0.0,0.0,2.7192,19,48,743.962574192571,1720.0442,mp-558923,KTbCr2O8,https://materialsproject.org/materials/mp-558923,24.98332084803165,-7.9276147870072755,37.62314507661667,-22.7123733986236