energy_per_atom,energy,density,formation_energy_per_atom,total_magnetization_uB,total_magnetization_T,band_gap,sgr,num_sites,cell_volume,weight,mp_id,formula,URL,tsne_xrd_lin1_0,tsne_xrd_lin1_1,tsne_xrd_lin2_0,tsne_xrd_lin2_1
-5.195091475714285,-72.73128066,4.898887464225901,-1.4381355835714282,2.9999990000000003,0.2345704271564425,0.0,166,14,149.04770003380222,439.7174,mp-754735,Li2Ni3SbO8,https://materialsproject.org/materials/mp-754735,12.850469109929712,-69.63459226846987,-8.621087927625513,-72.60871355175347
-6.356792313333332,-209.77414634,3.3036604116448363,-2.6963296167315147,3.0,0.10318578637943593,0.9428,1,33,338.8276190396583,674.1012192000001,mp-764424,Li3V2(O2F)2,https://materialsproject.org/materials/mp-764424,12.0756166951471,-61.99613064321151,-0.6185955970827998,-75.35780308699454
-6.331241107954545,-278.57460875,3.2226060912916865,-2.6707784113527264,3.0,0.07549061547359524,0.9684,1,44,463.1329880984742,898.8016256000001,mp-759102,Li3V2(O2F)2,https://materialsproject.org/materials/mp-759102,3.8817683379493615,-63.275986015397656,-21.99144926341165,-69.92819779531607
-6.40368985409091,-140.88117679,3.8471084789343832,-2.090955554166668,21.999998100000003,1.0862208865230578,0.3398000000000001,12,22,236.0379974595044,546.8488,mp-755645,Li4TiFe5O12,https://materialsproject.org/materials/mp-755645,6.950695511520176,-57.44191533210552,-4.925266200114362,-63.108605490903976
-7.306408824166668,-87.67690589,3.904715472895009,-2.7835863954861115,1e-07,1.0400291613766898e-08,0.0,12,12,112.0551731177727,263.4949,mp-867959,Li3Ti2VO6,https://materialsproject.org/materials/mp-867959,4.488085172445179,-66.99706302976007,-10.425486755220742,-65.56900226795507
-5.8601409362500005,-140.64338247,4.186484861895206,-1.926256393541668,26.000001100000002,1.3365694448256835,0.0,12,24,226.70404301030646,571.5572,mp-765833,Li6Fe5NiO12,https://materialsproject.org/materials/mp-765833,7.839893092016622,-64.21850268638696,-25.776140270823873,-76.61893438249122
-5.752682357659575,-270.37607081,4.711887186451615,-1.40137531393617,6.999999799999999,0.1702408339510167,0.8614999999999999,2,47,479.19438118223394,1359.745125,mp-758387,Li4Co15O28,https://materialsproject.org/materials/mp-758387,8.704578357142953,-66.7700648107273,-3.9876666542107966,-69.20561630905183
-6.407833203571428,-179.4193297,3.879313289725648,-2.1469764702949994,10.99999985,0.4916467136802481,0.6884999999999999,2,28,260.74558658276885,609.14787,mp-1174320,Li4Mn3O7,https://materialsproject.org/materials/mp-1174320,0.5814217517033795,-80.54152742854771,-28.575163917895576,-79.32440163484976
-4.167462425714286,-58.34447396,2.816126906276121,0.13378355999999972,0.9964809000000001,0.040890760400268726,0.0,176,14,284.0018830547905,481.642,mp-1094481,Mg4Ti3,https://materialsproject.org/materials/mp-1094481,-71.00389982457638,4.6263085140523135,-56.983575823686174,-29.8645159079294
-8.605392676875,-137.68628283,9.654898562459584,-0.8082357418750004,1.6e-06,6.877488680913856e-08,0.0,63,16,271.1237270057976,1576.399,mp-2626,Zr3Rh5,https://materialsproject.org/materials/mp-2626,-55.39506326790728,-31.91954388641136,-58.06875574366181,-32.659590232877854
-6.136293934583333,-147.27105443,3.32247652526147,-2.6218720751983327,1.999999975,0.10066397127893968,1.0384000000000002,8,24,231.5439074937843,463.28281280000004,mp-1177786,Li2VO2F,https://materialsproject.org/materials/mp-1177786,12.065808986720985,-61.98880938612315,-0.668214527105523,-75.402722600572
-5.7659017828125,-184.50885705,4.195877564967286,-1.830552819434999,21.618440600000003,0.8805141319667399,0.0,8,32,286.13136108490187,723.001465,mp-1100668,Li9Mn2Co5O16,https://materialsproject.org/materials/mp-1100668,-2.270080138213531,-76.15265554483749,-19.968090375534604,-76.58759721494684
-4.758945615333333,-214.15255269,4.625107343667717,-1.0185019461666671,5.999999400000001,0.15955562757094044,0.0,2,45,438.24453394368703,1220.6446,mp-768104,Li6(NiO2)13,https://materialsproject.org/materials/mp-768104,9.111388301639666,-67.4817558375044,-3.838194519770556,-69.98390364280618
-5.8881952675,-117.76390535,3.916233419308619,-1.931156531971,6.99999415,0.4480745354773593,0.0,8,20,182.06431915334989,429.38248,mp-1174284,Li3MnCoO5,https://materialsproject.org/materials/mp-1174284,4.691582747555392,-70.62778631680199,-22.008079181665703,-73.75123822279485
-7.23639579952381,-151.96431179,3.827515014006431,-2.4028897116666665,4.0000001,0.20598891363541635,1.3653,1,21,226.30470462188202,521.6286,mp-776068,LiVCrO4,https://materialsproject.org/materials/mp-776068,5.79237799760112,-64.80086770014798,-7.3150594018051445,-65.74362927500728
-5.7974830871875,-185.51945879,4.170502901407701,-1.8621341238099989,25.9999988,1.0525698245121824,0.7420999999999998,10,32,287.8722751168583,723.001465,mp-1100719,Li9Mn2Co5O16,https://materialsproject.org/materials/mp-1100719,-2.2674057882539524,-75.811958441654,-19.518679108169067,-76.17873695555213
-4.777663102857144,-33.44364172,4.668943185064294,-1.057356477857144,1.0,0.17399550451835133,0.2784999999999997,2,7,66.97911422953193,188.3254,mp-755045,Li(NiO2)2,https://materialsproject.org/materials/mp-755045,24.96727068734028,-72.97996301153499,-4.136547175819462,-70.98028221559717
-6.8178326741666675,-81.81399209,3.958970713370965,-2.3715644336216672,7.9999999000000015,0.8123072317190241,0.3581000000000003,12,12,114.77494397996456,273.640445,mp-773501,Li3MnV2O6,https://materialsproject.org/materials/mp-773501,4.830640617259709,-76.96937693466606,-28.443847476232467,-75.674999620872
-7.027000355568182,-618.37603129,4.0424261720649985,-1.8712467605327263,22.002228525,0.2535419476584413,0.0,15,88,1011.333228048087,2461.99566,mp-1176738,LiMn7O14,https://materialsproject.org/materials/mp-1176738,17.458332445231658,-67.00187014412406,-15.297660923747962,-69.12632488080239
-5.794473493125,-185.42315178,4.194264773681272,-1.8591245297475,24.0000014,0.9771388252820856,0.7841,1,32,286.24138517510926,723.001465,mp-1175806,Li9Mn2Co5O16,https://materialsproject.org/materials/mp-1175806,-2.297511695286338,-76.05182411140265,-19.80197807152522,-76.78442584280997
-6.40122098625,-204.83907156,3.8664484392626672,-2.11549627771,26.001549899999997,1.0036183319635748,0.0,2,32,301.9312591955932,703.025715,mp-1100503,Li9Mn7O16,https://materialsproject.org/materials/mp-1100503,4.899173193384928,-77.82987464411896,-28.91947018846653,-75.99434740058413
-5.8276437825,-139.86345078,4.029271612523512,-1.8802449457050008,16.8792227,0.9052868796681685,0.0,1,24,217.29195360520882,527.2554749999998,mp-1175068,Li7Mn2(CoO4)3,https://materialsproject.org/materials/mp-1175068,3.988489298454256,-72.74944996182414,-22.303229199744887,-77.3084795985249
-3.732359882,-18.66179941,4.572964445287847,-0.3049730965833334,0.0,0.0,2.3843,160,5,85.61316370605904,235.7704,mp-1178562,AgBrO3,https://materialsproject.org/materials/mp-1178562,-10.425412191193454,-30.6395261560657,-5.531685948852034,-29.428388814329427
-5.8434446373333335,-87.65166956,4.6139060897936215,-1.7460519773333336,7.0000005000000005,0.5990639634021199,0.004100000000000215,2,15,136.17654243740736,378.37459,mp-755944,Li3Fe2(CoO4)2,https://materialsproject.org/materials/mp-755944,24.202698899617435,-68.5977248141132,-15.304724408522912,-72.13388517354906
-5.911804475833333,-70.94165371,4.333770478020459,-1.8257380686216669,11.9999999,1.2602049651982394,0.4655,12,12,110.97304007472357,289.623835,mp-1173925,Li3Mn(CoO3)2,https://materialsproject.org/materials/mp-1173925,0.05305864490727702,-79.78678086799734,-26.59506264805133,-76.11974666019862
-8.282632333090909,-455.54477832,3.6328820687228767,-3.2834481090303034,0.0006004,1.1540716591925265e-05,0.0,121,55,606.2968823218938,1326.4398,mp-530141,Li7Ti16O32,https://materialsproject.org/materials/mp-530141,1.4036904285865328,-65.55786004610728,-13.42374645329612,-65.65181099940334
-5.9299519575,-118.59903915,4.153715188542348,-1.5588817962499997,16.9999995,0.9007120362283922,0.0,2,20,219.9583078028788,550.209385,mp-752595,Li2Fe3(CoO4)3,https://materialsproject.org/materials/mp-752595,7.167901854464348,-65.32116422893766,-6.488921969066907,-65.61887798703121
-7.6074788025,-30.42991521,9.74482960954171,0.5809060956249992,3.0250421000000003,0.5253099892212589,0.0,225,4,67.1109198311306,393.838665,mp-631633,LaCoTc2,https://materialsproject.org/materials/mp-631633,-40.43355223597924,-61.541933182285995,-47.711303864310466,-39.47258672337317
-6.456267973928571,-361.55100654,4.240697923418802,-1.8732853719914289,8.0000006,0.16077387955937922,0.13439999999999985,1,56,579.8984600510462,1480.94934,mp-773062,Li2Mn3CuO8,https://materialsproject.org/materials/mp-773062,17.104738475315784,-66.79694744299393,-15.446209931733096,-69.15311380275529
-6.13230860625,-98.1169377,4.3352703828116566,-1.9528086669949989,5.9999998,0.4760236071389206,0.8340999999999998,13,16,146.89268611028945,383.50167999999996,mp-1173910,Li2MnCoO4,https://materialsproject.org/materials/mp-1173910,-2.142241202887238,-75.236075971289,-19.47152095843666,-74.91554358287206
-5.764766974285713,-161.41347528,4.055056467406486,-1.8242537794435716,11.000005,0.5007821582657077,0.0,12,28,255.98909356603355,625.12847,mp-1174613,Li4MnCo2O7,https://materialsproject.org/materials/mp-1174613,1.934559625091044,-73.0272064245651,-21.0518717950437,-76.99094383196551
-5.781131280357143,-161.87167585,4.064378585181535,-1.8406180855150012,11.00000005,0.5019331741347103,0.1612,2,28,255.40195326171963,625.12847,mp-1174475,Li4MnCo2O7,https://materialsproject.org/materials/mp-1174475,13.679705499926815,-82.70117809637993,-14.804600638503802,-87.84887637137425
-5.7584383203125,-184.27002625,4.132570180122863,-1.8230893569349995,25.9994906,1.042975811281456,0.0,8,32,290.51464495008287,723.001465,mp-1100645,Li9Mn2Co5O16,https://materialsproject.org/materials/mp-1100645,6.460472514558706,-71.990963727051,-21.97697386533588,-73.51263016867534
-5.04330193,-20.17320772,4.134141402714311,0.8597396084524993,5.5976992999999995,0.9452401846181328,0.0,139,4,69.0152103995311,171.82290319999996,mp-1187787,V3F,https://materialsproject.org/materials/mp-1187787,-61.48729278562888,-30.828571640164537,-76.25706567449491,-10.929870177347727
-3.1368046875,-12.54721875,14.95113655109458,0.00637611916666625,1.4000000000000001e-05,2.0816109623687844e-06,0.0,187,4,78.38011509613213,705.717707,mp-1223816,InAu3,https://materialsproject.org/materials/mp-1223816,-73.39560987032819,4.260886904564408,-70.58990124334427,11.382050572053645
-5.644464196666667,-67.73357036,4.7741354138933305,-1.0815226225000008,1.85e-06,1.7041902956506556e-07,0.1953999999999999,227,12,126.5118096509514,363.72798,mp-504097,CoO2,https://materialsproject.org/materials/mp-504097,26.8464184243787,-69.76177375508894,3.113813812118812,-39.846090550234024
-6.2391882525,-24.95675301,9.51323547916816,-0.32846840749999995,4.315614599999999,0.7396893354921907,0.0,225,4,67.9940208254297,389.538045,mp-3499,MnSbPd2,https://materialsproject.org/materials/mp-3499,-41.251397178861644,-62.333156702036675,-48.56386400613205,-38.63653987984749
-5.875854604772727,-258.53760261,3.786580195377341,-1.8353546095454556,20.99992335,0.5515424680883778,0.04699999999999993,1,44,443.72733035033133,1011.8456,mp-759022,Li5Fe5O12,https://materialsproject.org/materials/mp-759022,5.832371054276357,-67.26076118095976,-16.780349341321823,-75.39999646053036
-6.92746781,-277.0987124,3.941930902296023,-1.957301697538,10.00000005,0.2583124781529498,0.4377,1,40,451.1615123729917,1071.00614,mp-762514,LiMn3O6,https://materialsproject.org/materials/mp-762514,6.724156979506588,-64.80836470662292,-6.575568208559848,-65.49359833382555
-5.868143445416668,-140.83544269,4.064867704399142,-1.9207446086216664,17.999999399999997,0.9739264152103096,0.8967999999999998,1,24,215.38912554121163,527.2554749999998,mp-1174708,Li7Mn2(CoO4)3,https://materialsproject.org/materials/mp-1174708,-2.355728404046186,-75.8907110860136,-19.208391654752237,-76.02410021981731
-5.7879557246875,-185.21458319,4.160664430862332,-1.85260676131,22.0000012,0.8885350302085345,0.4508000000000001,8,32,288.5529892063093,723.001465,mp-1100677,Li9Mn2Co5O16,https://materialsproject.org/materials/mp-1100677,-1.7173945537780109,-76.55083449904525,-22.887162462650647,-77.5743562436407
-3.503227534444445,-31.52904781,4.130297408748213,-0.11599708132222215,3.9999998999999997,0.34397476526948384,0.0,225,9,135.5223191687077,337.08781919999996,mp-1080536,Pt(NF3)2,https://materialsproject.org/materials/mp-1080536,0.011863777007345342,-40.167666027648394,3.792606501810611,-42.03608817224572
-7.050580315,-42.30348189,5.740175335500853,-1.789189167500001,5e-08,7.872111395734842e-09,0.6634000000000002,194,6,74.02121353919063,255.8776,mp-1094123,MoO2,https://materialsproject.org/materials/mp-1094123,5.993334330710094,-57.860626462201395,-6.203789715131547,-62.275406021990406
-1.8367719933333333,-11.02063196,1.0320253872986775,-0.030011906666666494,0.00013440000000000001,1.2745957021293933e-05,0.0,189,6,122.8865202365962,76.374,mp-1094576,Li2Mg,https://materialsproject.org/materials/mp-1094576,-69.75639316704739,5.8355125372926295,-65.92876093752541,15.955812689501348
-6.4156366178571425,-179.6378253,3.890066748095791,-2.1547798845807145,10.99999885,0.4930095137962476,0.9013,12,28,260.02479771407167,609.14787,mp-1174337,Li4Mn3O7,https://materialsproject.org/materials/mp-1174337,2.2699918698054637,-78.54014513032263,-28.997537715294136,-78.70356594950852
-6.2167767666666665,-149.2026424,4.004079422137858,-2.082510865785,14.0000005,0.7576521749407567,0.6869999999999998,1,24,215.34540259932052,519.265175,mp-1175221,Li7Mn4CoO12,https://materialsproject.org/materials/mp-1175221,21.946214108062925,-75.5998615685853,-11.748419291425204,-80.75275765251641
-6.432867669375,-205.85176542,3.9211912923537935,-2.147142960835,25.999980700000002,1.0177665691990223,0.0,2,32,297.71606607354545,703.025715,mp-1100516,Li9Mn7O16,https://materialsproject.org/materials/mp-1100516,0.6072459181329003,-80.58612164049188,-28.957713707367333,-78.93544589887695
-6.169204227083332,-148.06090145,3.9062924902845393,-2.0349383262016656,18.0007889,0.95037594947752,0.14509999999999978,1,24,220.73618331051387,519.265175,mp-1175287,Li7Mn4CoO12,https://materialsproject.org/materials/mp-1175287,0.5607280226387971,-80.60546084671022,-28.62934304319655,-79.70115047336353
-6.338906017083333,-152.13374441,3.8823315461827534,-2.111206584158333,17.999999600000002,0.9518282151707306,0.0,10,24,220.38972779013625,515.270025,mp-1175385,Li7Mn5O12,https://materialsproject.org/materials/mp-1175385,-1.3039499645016113,-77.33226127577366,-25.13568301333937,-77.4487504841098
-7.112091390909091,-156.4660106,3.8832975915650776,-2.4115640956818183,13.0000004,0.6703015050091167,1.1844,2,22,226.02194023544868,528.5696,mp-849340,Li4V3Cr3O12,https://materialsproject.org/materials/mp-849340,4.85945543618304,-65.29804105741201,-8.452123219992895,-65.88594092435882
-7.1755818967857135,-200.91629311,3.861189583019685,-2.3258973432142858,9.0,0.3496043153452135,0.7947000000000002,1,28,300.01512667104225,697.6139999999998,mp-769577,Li2VCr3O8,https://materialsproject.org/materials/mp-769577,5.295262408357439,-65.34435566443285,-7.534675044475871,-65.89944556634325
-5.306591426428572,-74.29227997,4.481959064203541,-1.3102746136399992,4.999999900000001,0.4217733546460667,0.0,2,14,138.15553319220422,372.895445,mp-758714,Li2MnNi3O8,https://materialsproject.org/materials/mp-758714,8.687569387378764,-67.74679987259445,-4.057715767376413,-70.21271638234273
-8.448918623333332,-101.38702348,7.009875854312629,-3.481686631666667,0.0,0.0,1.6948000000000008,74,12,154.6065076184681,652.6630200000001,mp-7858,MgUO4,https://materialsproject.org/materials/mp-7858,1.6108816126212926,-3.5384559752741285,6.5499204158278825,-31.444522341374945
-6.117585545714285,-42.82309882,4.000334169072628,-1.7936862378571428,9.0000009,1.3835611917766124,0.26060000000000016,2,7,75.80914676206844,182.6286,mp-1178103,Li(FeO2)2,https://materialsproject.org/materials/mp-1178103,7.143785692433765,-64.32863115533941,-5.809564495506352,-66.12946866452027
-8.760254466666668,-52.561526799999996,10.631628806172404,-0.4320854333333332,0.00012755,1.330051995558896e-05,0.0,227,6,111.76074068558219,715.55,mp-623827,EuRh2,https://materialsproject.org/materials/mp-623827,-72.84285542058613,-8.120380476890542,-75.74054189737484,-9.441624069960005
-6.0991810079999995,-121.98362016,3.846672812677984,-2.0300220340189994,13.9999994,0.8884992215330043,0.3755999999999999,8,20,183.6320121270204,425.38732999999996,mp-1174362,Li6Mn3CoO10,https://materialsproject.org/materials/mp-1174362,-1.2085334241338257,-76.58135430522847,-24.324211740948485,-77.45170847650066
-6.543791259333331,-98.15686889,4.061031897198167,-2.030640080858668,15.999998999999999,1.234232251662237,0.20290000000000008,2,15,151.07774444863458,369.477335,mp-1177852,Li3Mn3FeO8,https://materialsproject.org/materials/mp-1177852,4.192515105986324,-65.11538444210119,-8.367925046533246,-65.75305908206938
-10.652243065,-63.91345839,14.98609064070325,-0.5224294405555554,2.8e-06,3.9507309790887277e-07,0.0,140,6,82.59580704402674,745.4135200000001,mp-1032,Ta2B,https://materialsproject.org/materials/mp-1032,-72.34141253651693,-0.2478081333598526,-65.347211595112,4.159631232788366
-6.359023014583332,-152.61655235,3.8683815728779143,-2.1313235816583336,18.0019389,0.9485102914694904,0.9699999999999998,10,24,221.1844867252136,515.270025,mp-1175357,Li7Mn5O12,https://materialsproject.org/materials/mp-1175357,12.258864111672995,-83.13307566733457,-19.23075418589343,-84.33908475221146
-4.644547851290323,-143.98098339,4.321879436534977,-0.9685030814677424,3.9999997000000005,0.1335933267272307,0.5941999999999998,1,31,348.94149832199224,908.18887712,mp-764295,Na4(NiO2)9,https://materialsproject.org/materials/mp-764295,9.63711686369468,-53.49060890137425,-3.4930571793045564,-59.584559022873364
-6.4314590690625,-205.80669021,3.921064525144841,-2.1457343605225,25.999952800000003,1.0177325739717755,0.0,2,32,297.7256911726772,703.025715,mp-1100529,Li9Mn7O16,https://materialsproject.org/materials/mp-1100529,0.6396538876441972,-80.61166681566529,-29.02877816542968,-78.94542505294349
-6.818770405,-81.82524486,4.510603055513639,-1.7974440464900001,9.0000008,0.6923333459637285,1.3338,166,12,151.49724173734091,411.519335,mp-849767,Mn3SnO8,https://materialsproject.org/materials/mp-849767,22.952858566950468,-78.65025311447924,-8.275104238954858,-73.37251983470874
-6.355901053030302,-209.74473475,3.2932537512134368,-2.6954383564284847,2.9999979666666667,0.1028606773710136,0.9377,1,33,339.89831211176863,674.1012192000001,mp-761180,Li3V2(O2F)2,https://materialsproject.org/materials/mp-761180,12.074351682766528,-61.996154458890025,-0.6532672171921415,-75.37981642549695
-10.6226815525,-42.49072621,15.307810097463019,-0.6978688668749982,0.0012482,0.0002075538919687164,0.0,225,4,70.08591123553371,646.0925,mp-977407,Hf2ReRh,https://materialsproject.org/materials/mp-977407,-46.994806597410935,-64.8034407073942,-51.24762145260358,-37.019339927751716
-6.176720101538462,-80.29736132,4.2352731372827765,-1.690337026923076,11.9999995,0.9494512754345672,0.0,166,13,147.29431100050357,375.6802,mvc-11658,Mg(FeO2)4,https://materialsproject.org/materials/mvc-11658,5.4346880150265005,-68.10801001992765,-20.61592116229981,-73.1147898967442
-4.90463132,-24.523156600000004,3.864830078591959,-1.1953192829480002,2.0000004000000002,0.5851554268891676,3.1318,164,5,39.832381510425634,92.70808000000001,mp-27912,Ni(HO)2,https://materialsproject.org/materials/mp-27912,16.13892708443584,-48.51711291048842,-12.685219169404352,-55.187906973959066
-8.70258162,-34.81032648,10.324961822599732,-0.9574214437499996,0.0001628,2.7482351824131425e-05,0.0,225,4,69.03636767020689,429.25691200000006,mp-865041,HfScRh2,https://materialsproject.org/materials/mp-865041,-45.594156979813384,-62.702548698715795,-46.05153266391016,-37.465063592110326