energy_per_atom,energy,density,formation_energy_per_atom,total_magnetization_uB,total_magnetization_T,band_gap,sgr,num_sites,cell_volume,weight,mp_id,formula,URL,tsne_xrd_lin1_0,tsne_xrd_lin1_1,tsne_xrd_lin2_0,tsne_xrd_lin2_1
-6.251800442777778,-112.53240797,4.036645274802886,-1.3707397932688898,6.000000900000001,0.3212450120714281,1.0134,64,18,217.66687885092801,529.1317799999998,mp-25285,Mn2NiO6,https://materialsproject.org/materials/mp-25285,9.229084505016928,-64.77930616565037,-4.916343967271007,-66.42085281542163
-5.7928408621875,-185.37090759,4.170523888808857,-1.8574918988099995,24.000000399999998,0.9716078654103704,0.6302000000000003,1,32,287.87082645211484,723.001465,mp-1176188,Li9Mn2Co5O16,https://materialsproject.org/materials/mp-1176188,12.644251293324704,-72.8739981952198,-12.58082307398855,-82.75835842288885
-6.327313285,-101.23701256,4.325788656406808,-2.0682956856250003,3.99999975,0.3269364112472814,2.133,15,16,142.58508557942156,371.4414,mp-754952,Li2CrFeO4,https://materialsproject.org/materials/mp-754952,17.792846511343715,-69.85831029244581,-10.877894217538836,-71.19245649631613
-5.4720341449999985,-131.32881948,4.13271792807013,-1.7115023722916665,17.9999999,0.9754013584680128,0.1168,10,24,215.06343303657317,535.245775,mp-1174439,Li7Co5O12,https://materialsproject.org/materials/mp-1174439,11.161151068356977,-79.45226023720791,-13.102537614389396,-84.47466735141002
-5.828464938928571,-163.19701829,4.129032772620321,-1.8879517440864289,10.9999999,0.5099176796577012,0.8891,1,28,251.4027586154789,625.12847,mp-1174591,Li4MnCo2O7,https://materialsproject.org/materials/mp-1174591,16.344215043995213,-74.97747570358366,-9.201304431064823,-80.63493383127296
-6.5602474908928565,-367.37385949,4.0804379679046505,-1.9807735701785716,8.000002275,0.160632698382234,0.9145,78,56,580.4082582963471,1426.2356,mp-1178044,Li2Cr3NiO8,https://materialsproject.org/materials/mp-1178044,15.750169870529824,-68.88246918240482,-9.790783060048586,-70.56046901097287
-5.759327836875,-184.29849078,4.15314955192092,-1.8239788734974995,23.7226711,0.9563796299145828,0.0,6,32,289.07510880613574,723.001465,mp-1100574,Li9Mn2Co5O16,https://materialsproject.org/materials/mp-1100574,6.491278383534494,-71.92196582781717,-22.467360695285606,-74.76438626481544
-5.75634416625,-184.20301332,4.154955114782332,-1.8209952028724992,21.861297,0.8817214795569037,0.0,8,32,288.949489331027,723.001465,mp-1100627,Li9Mn2Co5O16,https://materialsproject.org/materials/mp-1100627,20.251344789130094,-76.0887288649852,-14.243638431649995,-80.39227496367539
-5.868479253333334,-140.84350208,4.086006785551546,-1.9210804165383344,18.0000002,0.9789912999470638,0.7254,2,24,214.27480330849755,527.2554749999998,mp-1174543,Li7Mn2(CoO4)3,https://materialsproject.org/materials/mp-1174543,17.3393217564808,-72.26457626703365,-9.167479245243966,-78.1946399326003
-5.7667620853125,-184.53638673,4.17798472867648,-1.8314131219349996,21.325823100000004,0.8648918611847672,0.0,8,32,287.35676087308633,723.001465,mp-1100651,Li9Mn2Co5O16,https://materialsproject.org/materials/mp-1100651,13.27465647076165,-71.97376660842211,-12.868933982768366,-78.42602794268184
-5.500849317916668,-132.02038363,4.338749659671601,-1.7403175452083337,7.9999999000000015,0.4551239220898557,0.14869999999999986,2,24,204.85083839795186,535.245775,mp-1174305,Li7Co5O12,https://materialsproject.org/materials/mp-1174305,21.786688925044228,-72.44916491338417,-10.34269764050541,-76.2609085479399
-5.791169206875,-185.31741462,4.203654321012212,-1.8558202434974989,23.9999998,0.9793262449866184,0.6626000000000003,1,32,285.60201836972266,723.001465,mp-1175714,Li9Mn2Co5O16,https://materialsproject.org/materials/mp-1175714,17.613554281522863,-75.901410121721,-11.352686674499815,-81.29630874154338
-5.789050165,-185.24960528,4.196629610573428,-1.8537012016224992,21.9999998,0.8962155546251204,0.5510999999999999,1,32,286.0800856918243,723.001465,mp-1176035,Li9Mn2Co5O16,https://materialsproject.org/materials/mp-1176035,13.554184174363488,-75.51417492765813,-10.224179418070511,-81.92586149910078
-4.908845465714286,-68.72383652,4.187941950475598,-1.332104663571429,0.0,0.0,0.8165,12,14,135.7086807422326,342.2624,mp-756920,Li2MgNi3O8,https://materialsproject.org/materials/mp-756920,9.558283626917826,-67.65289567966884,-4.162376737861063,-69.7467803112786
-6.7353626178125,-215.53160377,3.638681131684733,-2.5906420571875,9.9999999,0.40577795099926,1.6313999999999993,2,32,287.2030041878816,629.3379,mp-767624,Li9V5(SiO8)2,https://materialsproject.org/materials/mp-767624,16.82383148713071,-70.54670968932498,-10.975486873446805,-70.98967868482137
-5.8007649590625,-185.62447869,4.252266342422131,-1.865415995684999,15.999999800000003,0.6604342625795826,0.4384999999999999,1,32,282.33700853409766,723.001465,mp-1175593,Li9Mn2Co5O16,https://materialsproject.org/materials/mp-1175593,19.58807750253924,-80.041760134501,-11.620630559123926,-87.30189676115576
-6.5886564865625,-210.83700757,4.300676454829359,-2.2417616084375,8.99999985,0.36641871405393744,0.8497999999999997,2,32,286.24788304204367,741.36139,mp-768718,Li4Cr3CoO8,https://materialsproject.org/materials/mp-768718,17.784675993630017,-69.8532680076415,-10.750532560152886,-71.14045715657763
-5.792099348888889,-104.25778828,4.3174313594812475,-1.1746203825,6.000115,0.337046535139646,0.0,64,18,207.46609610994872,539.41558,mp-753096,Fe(CoO3)2,https://materialsproject.org/materials/mp-753096,22.104981365725816,-65.7972660676818,-3.522349493657707,-71.79852616806775
-5.71500999,-91.44015984,3.981372652109822,-1.883661704435001,10.000000300000002,0.8328420696077592,0.4575,2,16,139.93127325652878,335.504635,mp-1174124,Li5Mn(CoO4)2,https://materialsproject.org/materials/mp-1174124,19.67970711717255,-74.67312229204646,-8.762441890781497,-81.9023415253531
-5.828733276666667,-139.88959864,4.061399407096538,-1.8813344398716665,18.0000003,0.9730954733865596,0.16620000000000035,1,24,215.5730605469193,527.2554749999998,mp-1175056,Li7Mn2(CoO4)3,https://materialsproject.org/materials/mp-1175056,16.323707617252406,-80.15257149361801,-12.287401448226051,-85.99406353634504
-5.799538346666668,-52.19584512,4.294410261466989,-1.1820593802777781,6.0000134,0.6704873659693704,0.0,12,9,104.28913108412014,269.70779,mp-761530,Fe(CoO3)2,https://materialsproject.org/materials/mp-761530,23.18087602753055,-72.43692132858891,-6.675788583707496,-71.34677312797402
-5.7025857540625,-182.48274413,4.120975904870687,-1.7672367906849988,19.9516632,0.7981202684034899,0.0,12,32,291.3320015268,723.001465,mp-1100753,Li9Mn2Co5O16,https://materialsproject.org/materials/mp-1100753,2.7510261616740954,-76.22628277981826,-24.67885809998045,-75.01420813243911
-5.7896938584375,-185.27020347,4.197669429843971,-1.85434489506,19.999999,0.8149432523881087,0.4828000000000001,2,32,286.00921980040687,723.001465,mp-1175868,Li9Mn2Co5O16,https://materialsproject.org/materials/mp-1175868,12.947246931454261,-77.87966586144016,-13.293697795438005,-85.32417747019
-5.4996623175,-175.98919416,4.285509908475047,-1.7044636521875,20.000000399999998,0.8229024598161891,0.4506999999999999,10,32,283.24292549190204,730.991765,mp-1175459,Li9Co7O16,https://materialsproject.org/materials/mp-1175459,12.869294378627393,-72.6824015125477,-9.474776812055836,-79.45438289872077
-6.3825231649999985,-153.18055596,3.897225625958446,-2.154823732075,17.9999939,0.9554794825932166,0.7646000000000002,2,24,219.54746139283412,515.270025,mp-1175313,Li7Mn5O12,https://materialsproject.org/materials/mp-1175313,13.194164006763822,-81.93607833423306,-17.690208850268238,-85.23246609286498
-6.455321097142857,-90.37449536,4.244157737436471,-1.9069839087771416,7.000480900000001,0.5706861450259553,0.5467,166,14,142.95783866271444,365.384735,mp-769631,Li2Mn3NiO8,https://materialsproject.org/materials/mp-769631,18.3425874097578,-69.60172485197596,-11.804681443914536,-70.94427294414017
-5.792845661875,-185.37106118,4.1696834786067924,-1.8574966984974992,25.9999999,1.0523630595127045,0.6499999999999999,12,32,287.9288475418854,723.001465,mp-1176296,Li9Mn2Co5O16,https://materialsproject.org/materials/mp-1176296,12.618388966818365,-72.18080508216202,-14.283057543635385,-80.42341502960466
-5.7997475459375,-185.59192147,4.208154197135421,-1.864398582559999,22.000001100000002,0.8986767526702607,0.4403999999999999,2,32,285.2966175590591,723.001465,mp-1175489,Li9Mn2Co5O16,https://materialsproject.org/materials/mp-1175489,15.652054625139074,-75.72134186775372,-9.965100479710273,-81.56544194499773
-5.834993803928571,-163.37982651,4.193511366434843,-1.8944806090864283,9.00000005,0.4237204210016824,0.8127999999999997,1,28,247.53723997485602,625.12847,mp-1174671,Li4MnCo2O7,https://materialsproject.org/materials/mp-1174671,16.745571405290555,-73.46135538044534,-9.992568806939136,-80.75896147516829
-5.799881830714287,-162.39669126,4.152964295523678,-1.8593686358721433,8.0,0.37299863551907303,0.2827000000000002,1,28,249.9540462144939,625.12847,mp-1174726,Li4MnCo2O7,https://materialsproject.org/materials/mp-1174726,18.93734572212612,-83.55478784122653,-11.383327129445831,-88.7900892298809
-5.7780515,-184.897648,4.171114024100548,-1.8427025366224996,25.9999999,1.0527241068776436,0.3317000000000001,10,32,287.8300980680054,723.001465,mp-1100699,Li9Mn2Co5O16,https://materialsproject.org/materials/mp-1100699,16.42950514869071,-71.22668188523281,-13.085235480851464,-77.63017250530204
-6.1839893394444445,-111.31180811,4.249174159538588,-1.3557467075000005,4.00008755,0.22434747335224128,0.6454,64,18,207.7905255942741,531.71778,mp-755124,Cr(CoO3)2,https://materialsproject.org/materials/mp-755124,9.817915366298033,-65.71686936816296,-3.207606450090152,-68.65412355719329
-5.7764785621875,-184.84731399,4.161346424612239,-1.8411295988099996,22.0000001,0.8886806296607729,0.15979999999999972,1,32,288.5056989028653,723.001465,mp-1175661,Li9Mn2Co5O16,https://materialsproject.org/materials/mp-1175661,14.998854077607286,-80.12308955585326,-13.066268225702386,-86.47228519771154
-5.47773228125,-131.46557475,4.231275812728133,-1.7172005085416668,13.9999997,0.776737818516477,0.16869999999999985,12,24,210.0540226446502,535.245775,mp-1174274,Li7Co5O12,https://materialsproject.org/materials/mp-1174274,19.93007695442398,-71.09400649554533,-10.388640507139293,-76.57530335603937
-5.771150818125,-184.67682618,4.159864680723607,-1.8358018547474997,19.266026800000002,0.777965831729528,0.0,10,32,288.6084646390118,723.001465,mp-1100724,Li9Mn2Co5O16,https://materialsproject.org/materials/mp-1100724,11.490459916836526,-80.09335020533054,-13.512077487099035,-84.88139004249214
-5.77291366625,-184.73323732,4.157638606834119,-1.8375647028724995,24.0000001,0.9686059663340436,0.3376999999999999,1,32,288.76299076024867,723.001465,mp-1176200,Li9Mn2Co5O16,https://materialsproject.org/materials/mp-1176200,14.481542277680411,-79.87554316642986,-13.988470125530393,-85.24678952552563
-5.7915586465625,-185.32987669,4.22578599138231,-1.856209683184999,17.9999995,0.7383616843626991,0.4634,1,32,284.10623752789024,723.001465,mp-1175711,Li9Mn2Co5O16,https://materialsproject.org/materials/mp-1175711,17.29842318209155,-79.552060445408,-10.97106578560677,-86.27717283968524
-5.77252006375,-184.72064204,4.124635437831674,-1.8371711003724995,25.999999,1.0409936007731122,0.0,1,32,291.07352072813393,723.001465,mp-1176004,Li9Mn2Co5O16,https://materialsproject.org/materials/mp-1176004,2.158892871447062,-73.94028194223851,-21.92000963480961,-76.8113379601155
-5.7659802425,-184.51136776,4.19900519584106,-1.8306312791225,19.999997,0.8152024989317376,0.0,10,32,285.9182360142851,723.001465,mp-1100726,Li9Mn2Co5O16,https://materialsproject.org/materials/mp-1100726,18.566981500504514,-71.0274921671293,-12.43833415470047,-79.22559025318499
-5.50467269,-176.14952608,4.2595786729230865,-1.709474024687499,24.0,0.9815077614991008,0.0,12,32,284.9672366464408,730.991765,mp-1175383,Li9Co7O16,https://materialsproject.org/materials/mp-1175383,21.751688450618442,-75.08452458991641,-12.048178081706462,-79.36193913968295
-5.5920306549999985,-67.10436786,4.64823874783938,-1.0290890808333326,2.0000001,0.17937836878857089,0.0,160,12,129.93835805251754,363.72798,mp-756488,CoO2,https://materialsproject.org/materials/mp-756488,-21.374395797763096,2.3088437497788066,-9.489054682407232,8.91510201546049
-6.39417799125,-102.30684786,4.2548169429306695,-2.148641729375,9.9999992,0.8061024694353229,0.0,2,16,144.57298274248203,370.4409,mp-754443,Li4Cr3NiO8,https://materialsproject.org/materials/mp-754443,15.888407436286018,-68.94686922627427,-10.810265979500922,-70.63554328718442
-5.77072821625,-184.66330292,4.156733895675143,-1.8353792528724997,23.9999997,0.9683951794395532,0.14609999999999967,1,32,288.8258398880968,723.001465,mp-1176116,Li9Mn2Co5O16,https://materialsproject.org/materials/mp-1176116,14.289633744145837,-79.68582975761474,-13.969337213043554,-87.20621308264437
-5.477791124583334,-131.46698699,4.2042623455483215,-1.7172593518750006,16.000000099999998,0.8820330990116911,0.0,2,24,211.4036737796957,535.245775,mp-1174366,Li7Co5O12,https://materialsproject.org/materials/mp-1174366,21.841557829867163,-71.98971026572772,-8.007878140019919,-77.93147322697249
-4.9867607275,-199.4704291,4.642421940628168,-1.4401814896250005,4.0000001,0.1338764876595166,0.0,2,40,348.20349017672737,973.4836,mp-769545,Li10FeNi9O20,https://materialsproject.org/materials/mp-769545,22.584098981595783,-71.78515169958561,-8.347632280185763,-76.02599306362117
-4.993756343125,-79.90010149,4.281408116397148,-1.6256115600000005,2.0000003,0.1687403346090295,0.0,166,16,138.13018147287454,356.1444,mp-756312,Li4MgNi3O8,https://materialsproject.org/materials/mp-756312,22.69959120789334,-70.15396734826646,-10.78924643534323,-74.86548450285737
-5.782937563125,-185.05400202,4.169073896748641,-1.8475885997475,20.0000002,0.8093917116390271,0.6797,1,32,287.97094710793937,723.001465,mp-1176271,Li9Mn2Co5O16,https://materialsproject.org/materials/mp-1176271,11.02860161803299,-80.20439947723983,-14.379180882252708,-85.62026865379715
-5.809248701666667,-139.42196884,4.032754728218131,-1.8618498648716664,14.000000199999997,0.7515140248279006,0.0,2,24,217.104277174351,527.2554749999998,mp-1174913,Li7Mn2(CoO4)3,https://materialsproject.org/materials/mp-1174913,14.745873815839154,-82.58248259437559,-15.501485525492372,-86.42989906068874
-6.110805097999999,-122.21610196,3.9323073818345273,-2.0416461240190005,11.9998815,0.7785171829578849,0.3906999999999998,1,20,179.63302458233096,425.38732999999996,mp-1174835,Li6Mn3CoO10,https://materialsproject.org/materials/mp-1174835,16.320104405601715,-80.4535221994448,-10.488217445834742,-85.90398214344928
-7.1966434633333325,-21.58993039,3.786397966546205,-1.837798715833333,1.9999997999999999,0.6327492369642391,0.0,166,3,36.836278659351,83.9949,mp-25302,CrO2,https://materialsproject.org/materials/mp-25302,14.581685665468585,-68.64961344414273,-8.83732327695099,-68.34036815864572
-6.9678748473333325,-104.51812271,4.058537244178852,-2.3088915027306665,11.9999995,0.9501340528413996,1.7146000000000003,166,15,147.18846359149288,359.744545,mp-1177618,Li3MnCr3O8,https://materialsproject.org/materials/mp-1177618,2.4757663396574867,-68.01293628081575,-11.985931616309239,-65.96035834490642
-5.7717668490625,-184.69653917,4.168564919984257,-1.8364178856849989,23.9999929,0.9711511805286616,0.20609999999999973,1,32,288.00610801432066,723.001465,mp-1176181,Li9Mn2Co5O16,https://materialsproject.org/materials/mp-1176181,12.986189815585725,-78.09653215715859,-14.04324253437425,-85.48254942436249
-5.718965784666668,-85.78448677,3.766865603436636,-1.8107188020000005,11.9999995,0.9812773559454636,0.1331,166,15,142.5170677753378,323.2942,mp-771986,Li4Fe3O8,https://materialsproject.org/materials/mp-771986,8.220426083046181,-70.5877354013494,-20.456215223846442,-75.08738956533523
-6.930981466666667,-124.7576664,3.931802882051206,-1.7178809827666663,18.999999300000002,1.003376835693078,0.0,12,18,220.68201561364427,522.528025,mp-755276,Mn5FeO12,https://materialsproject.org/materials/mp-755276,6.674939238582214,-65.42515629592666,-5.3601718069630655,-66.62822789742995
-5.8141690425,-162.79673319,4.162852272861235,-1.8736558476578569,9.0000004,0.4206225838180344,0.3655,2,28,249.36033311049732,625.12847,mp-1174544,Li4MnCo2O7,https://materialsproject.org/materials/mp-1174544,13.259754347931766,-76.44561067747902,-9.336755897315284,-81.33258770891315
-5.7770632690625,-184.86602461,4.174640550135311,-1.841714305685,23.997706,0.9724739475063402,0.006000000000000227,2,32,287.58695370090726,723.001465,mp-1175699,Li9Mn2Co5O16,https://materialsproject.org/materials/mp-1175699,13.508098949147037,-75.67717815132158,-10.937897152315823,-81.98878846938021
-5.819101853571429,-162.9348519,4.151065288092964,-1.8785886587292864,8.00000035,0.3728280924105489,0.3315000000000001,5,28,250.06839387181938,625.12847,mp-1174783,Li4MnCo2O7,https://materialsproject.org/materials/mp-1174783,19.190202726460953,-79.82509216575971,-12.874177071181656,-88.53711323725607
-5.797624425,-185.52398159999998,4.2312440624995515,-1.8622754616225,22.000000600000003,0.903607712381346,0.4556999999999998,2,32,283.73975617480016,723.001465,mp-1175453,Li9Mn2Co5O16,https://materialsproject.org/materials/mp-1175453,21.907095301851236,-75.27514326512937,-11.459796895317194,-79.94174617763711
-5.827304214166666,-139.85530114,4.031923852342357,-1.8799053773716672,15.999999599999999,0.8586961822778418,0.0,8,24,217.14901678577166,527.2554749999998,mp-1175165,Li7Mn2(CoO4)3,https://materialsproject.org/materials/mp-1175165,1.7750377710991327,-73.73792307626532,-22.648262819679235,-73.69444596428106
-5.78770602375,-185.20659276,4.237499451730927,-1.8523570603724997,16.0000011,0.6581408189442393,0.0,2,32,283.320900046202,723.001465,mp-1175666,Li9Mn2Co5O16,https://materialsproject.org/materials/mp-1175666,18.900257128445208,-73.74162178099832,-9.106447044545767,-77.90106745299491
-5.762451214375,-184.39843886,4.12517477040062,-1.8271022509974992,25.974370699999998,1.0401034742860549,0.0,1,32,291.0354652666265,723.001465,mp-1176073,Li9Mn2Co5O16,https://materialsproject.org/materials/mp-1176073,15.147734273132324,-77.99476326422283,-11.367970440606447,-83.2824855605494
-5.80514918875,-185.76477404,4.245971716633641,-1.869800225372499,20.000000600000003,0.8243208130012399,0.7997999999999998,1,32,282.7555713351643,723.001465,mp-1175669,Li9Mn2Co5O16,https://materialsproject.org/materials/mp-1175669,21.959121745648705,-75.23787557635892,-10.133667666144255,-80.72677482691668
-5.773401434375,-184.7488459,4.233523597418559,-1.838052470997499,17.999973,0.7397125691116475,0.20820000000000016,2,32,283.586976895973,723.001465,mp-1175717,Li9Mn2Co5O16,https://materialsproject.org/materials/mp-1175717,21.08933230611401,-80.86951081329047,-10.145466329611486,-87.19563688981077
-5.795425828571429,-162.27192319999997,4.100879034913,-1.8549126337292856,10.00000015,0.460400751893165,0.055199999999999694,1,28,253.1287123109426,625.12847,mp-1174756,Li4MnCo2O7,https://materialsproject.org/materials/mp-1174756,10.97758059298687,-80.41704589310636,-14.067086610108063,-85.54018574493756
-6.632239108333334,-79.5868693,4.118290657969337,-2.2941851343750006,10.999999800000001,1.1492035891049364,1.8848000000000005,12,12,111.55091350453304,276.6566,mp-755051,Li3Cr2FeO6,https://materialsproject.org/materials/mp-755051,1.923403328412064,-67.76739711507297,-12.474712644858924,-65.98043247645485
-5.792016565625,-185.3445301,4.165470414484067,-1.8566676022474988,25.9999979,1.0512996669861778,0.7088999999999999,2,32,288.22006619830864,723.001465,mp-1175570,Li9Mn2Co5O16,https://materialsproject.org/materials/mp-1175570,12.898024408862726,-72.32184934056541,-12.452014949220285,-81.4028510251125
-5.7699993175,-184.63997816,4.169783417334686,-1.8346503541224992,23.999999399999997,0.9714353171320971,0.335,1,32,287.92194664563567,723.001465,mp-1176126,Li9Mn2Co5O16,https://materialsproject.org/materials/mp-1176126,15.041288830992775,-80.18423382651517,-14.455265607733693,-85.14634589046815