energy_per_atom,energy,density,formation_energy_per_atom,total_magnetization_uB,total_magnetization_T,band_gap,sgr,num_sites,cell_volume,weight,mp_id,formula,URL,tsne_xrd_lin1_0,tsne_xrd_lin1_1,tsne_xrd_lin2_0,tsne_xrd_lin2_1
-6.790359968750002,-380.26015825,4.100394325955721,-2.035015139542857,48.999995500000004,0.9722999799205742,0.5663,155,56,587.3178372983014,1450.272875,mp-772976,Li8Mn15NiO32,https://materialsproject.org/materials/mp-772976,13.870114556090936,-67.92956959713406,-13.004388652922788,-68.61581892687317
-5.797161204285715,-81.16025686,4.3490721439586375,-1.5784411528571434,10.9964403,0.8961897762435811,0.1896,12,14,142.9978682204406,374.521785,mp-763922,Li2FeCo3O8,https://materialsproject.org/materials/mp-763922,6.865839033149553,-67.61307599206485,-6.449462206338394,-68.47293208863707
-5.801434818125,-185.64591418,4.18342511355478,-1.8660858547474997,22.000263699999998,0.8934063713645463,0.9584,2,32,286.98306436027775,723.001465,mp-1175759,Li9Mn2Co5O16,https://materialsproject.org/materials/mp-1175759,-2.270588511666852,-76.1274335718348,-19.897334023662967,-76.82372994368032
-5.8594208535000005,-117.18841707,3.8916665028797737,-1.902382117971,7.000005499999999,0.445264441923315,0.016600000000000392,2,20,183.2136362672406,429.38248,mp-1174056,Li3MnCoO5,https://materialsproject.org/materials/mp-1174056,13.424588812059786,-84.13774921346547,-17.223769930906755,-87.29192528104548
-5.5892784821428565,-78.24989875,4.428401400640261,-1.4162773450000006,1e-07,8.443118643454534e-09,0.0,12,14,138.0303329219994,368.1056,mp-753165,Li2Fe3NiO8,https://materialsproject.org/materials/mp-753165,8.493878730063033,-66.99526463285599,-4.391324859540133,-69.58900578691686
-6.8377097791666674,-82.05251735,4.089550728756877,-2.630133088819445,2.1839699,0.23109255910748555,0.0,12,12,110.13823540758163,271.2468,mp-755155,Li3Ti2NiO6,https://materialsproject.org/materials/mp-755155,4.38856529947172,-67.90463100939802,-13.065378854508287,-67.18875754733949
-5.77890672,-184.92501504,4.166183859516573,-1.8435577566224997,23.854613699999998,0.964717107052498,0.0,8,32,288.17070947728246,723.001465,mp-1100667,Li9Mn2Co5O16,https://materialsproject.org/materials/mp-1100667,-1.995461516112688,-76.12556069354916,-20.01138034890809,-76.67419721835391
-5.870276632083333,-140.88663917,4.086665440576237,-1.9228777952883327,17.999999300000002,0.9791490621663104,0.9558999999999996,1,24,214.2402682632593,527.2554749999998,mp-1174924,Li7Mn2(CoO4)3,https://materialsproject.org/materials/mp-1174924,16.229995529557414,-73.30385376541145,-11.07639448085238,-78.9337508616138
-5.736637533888889,-103.25947561,4.269794248800888,-1.1464272636111117,9.0000632,0.49713928060986295,0.0,12,18,210.98175819311825,542.503775,mp-756471,FeCo5O12,https://materialsproject.org/materials/mp-756471,9.428769478669345,-65.35973308755885,-3.5904398614898168,-68.77736711945249
-6.5412943075,-26.16517723,4.035566486667183,-2.0814937721150004,3.9999997000000005,1.2067844096349818,0.0,166,4,38.62848676353006,93.877845,mp-25373,LiMnO2,https://materialsproject.org/materials/mp-25373,2.123389230644572,-63.61530207380157,-12.719039026723912,-63.90063599636139
-5.2369486718181815,-172.81930617,4.376428593477575,-1.4069686465909088,5.999999933333334,0.21698147550836472,0.0,2,33,322.259712238545,849.3306,mp-758983,Li2Fe(NiO3)2,https://materialsproject.org/materials/mp-758983,7.4880192721996455,-67.19094897411986,-5.677118152990867,-69.4944927362085
-7.092971244375,-113.48753991,3.892836043744565,-2.6222240254166667,7.0000003,0.5365287966917199,0.5875000000000004,12,16,152.04860840118303,356.4507,mp-764005,Li4TiV3O8,https://materialsproject.org/materials/mp-764005,3.2892299943296943,-64.50617042470068,-10.52315672697125,-65.09596478411589
-6.203698766666666,-74.44438520000001,4.159773613410589,-1.9307652953683327,11.406667,1.1658830153254014,0.0,164,12,114.02004687401407,285.628685,mp-1173938,Li3Mn2CoO6,https://materialsproject.org/materials/mp-1173938,1.7440167892098275,-64.54109499835491,-13.17565484440344,-64.04783785191732
-5.800248501875,-185.60795206,4.1653390248076745,-1.8648995384974996,25.999999300000002,1.051266562890857,0.8176999999999999,12,32,288.2291576890616,723.001465,mp-1176286,Li9Mn2Co5O16,https://materialsproject.org/materials/mp-1176286,-2.3352827608708044,-75.8007532869032,-19.581942891266173,-76.16408022243881
-5.367301461666667,-64.40761754,3.807085198198497,-1.7454372593750012,2.99999995,0.3317394315171284,0.1602999999999999,2,12,105.39052766529706,241.62679,mp-1173883,Li2CoO3,https://materialsproject.org/materials/mp-1173883,21.91480035481146,-80.95396134176643,-14.629524982557411,-76.21880147673215
-5.70620200142857,-159.77365604,3.9872837919583177,-1.7656888065864282,12.221666,0.5470998768705622,0.0,8,28,260.3401923745788,625.12847,mp-1174529,Li4MnCo2O7,https://materialsproject.org/materials/mp-1174529,6.5082641124945475,-79.77192852641856,-24.67170419335471,-74.17397745538318
-5.93070713,-118.6141426,4.0144494172728775,-1.9736683944709996,6.999999799999999,0.4593122567313914,1.0833,1,20,177.61000252343032,429.38248,mp-1174052,Li3MnCoO5,https://materialsproject.org/materials/mp-1174052,14.058275807947467,-74.33734312905251,-10.462296203021555,-78.45756110043334
-6.093681411666666,-73.12417694,3.962788966975837,-1.367127660833334,9.1925e-05,7.275985333063053e-06,0.0,141,12,147.237776765357,351.3752,mp-714904,FeO2,https://materialsproject.org/materials/mp-714904,12.7040539545847,-78.19747142333225,-6.693640284906576,-67.89120947158071
-7.031320924,-351.56604619999996,4.065351273421865,-1.8570085807072008,25.000000399999998,0.5077264887540666,0.0,59,50,573.835776602043,1404.87152,mp-36240,LiMn8O16,https://materialsproject.org/materials/mp-36240,17.9599148297878,-67.06887916503577,-15.297287224908981,-69.66438740167692
-6.2903560245,-125.80712049,3.5751965241693884,-2.489541830374999,5.0,0.3395335097021196,2.2421999999999995,2,20,171.61877163146676,369.501,mp-772106,Li3FeSiO5,https://materialsproject.org/materials/mp-772106,21.27820168575144,-72.47487127846267,-12.804925070253,-75.58278703977497
-4.9010871940000005,-24.50543597,3.8606055523583063,-1.1917751569480004,2.0,0.5845156946856431,3.1594,12,5,39.87596869859016,92.70808000000001,mp-1180084,Ni(HO)2,https://materialsproject.org/materials/mp-1180084,18.28291159688055,-48.111799712885215,1.837135287894348,-69.40514262159705
-5.701904920357142,-319.30667554,4.426362326645032,-1.6756789472619056,1.999999425,0.042459268566082016,0.6658,19,56,548.9525286512236,1463.2976,mp-775328,Li2TiNi3O8,https://materialsproject.org/materials/mp-775328,23.285760170303387,-68.85692229428297,-14.832833153563845,-71.91362058704713
-2.4382292616666668,-14.62937557,3.178742388693372,-0.2382598033333334,0.0108469,0.0010615959091309056,0.0,189,6,119.07588762749278,227.945,mp-1185816,Mg5Pd,https://materialsproject.org/materials/mp-1185816,-69.53499871257604,5.468325009122182,-66.30311256883874,15.495850100707042
-6.850194796875,-109.60311675,4.005935749979738,-2.41069270375,2.000000075,0.1563986470928614,0.02470000000000017,227,16,149.03025603114764,359.5252,mp-1176523,LiVO2,https://materialsproject.org/materials/mp-1176523,1.9585893435119068,-67.50256338283647,-12.317851127551274,-64.60676536947194
-6.59317141625,-210.98148532,4.2953506930892384,-2.3841093937499998,8.99999915,0.3556136958372794,3.0361,2,32,294.9452573814138,762.941,mp-768686,Li4Cr3GaO8,https://materialsproject.org/materials/mp-768686,13.614588659174357,-67.76392621931788,-12.927518781128006,-68.59781023234666
-6.4225220084375,-205.52070427,3.9089480379427375,-2.1367972998975,26.0000016,1.0145895813686008,0.5481000000000003,2,32,298.6485454781874,703.025715,mp-1100511,Li9Mn7O16,https://materialsproject.org/materials/mp-1100511,3.747932119768457,-78.21905819687751,-28.87331212253534,-76.84168734583547
-5.77336819125,-184.74778212,4.120453482708776,-1.8380192278725,25.305504199999998,1.0121599998581166,0.0,10,32,291.3689387946785,723.001465,mp-1100723,Li9Mn2Co5O16,https://materialsproject.org/materials/mp-1100723,4.38852525367524,-70.13710790890282,-21.44025904408638,-74.19428347613582
-6.08671810625,-97.3874897,4.276187958348788,-1.9072181669949997,8.0000001,0.6260483061924051,0.2991000000000001,11,16,148.92224517452908,383.50167999999996,mp-1173912,Li2MnCoO4,https://materialsproject.org/materials/mp-1173912,5.105366287957748,-74.7326361623372,-27.00298223619675,-75.13747365341769
-6.390790251666666,-153.37896604,3.8764847255894654,-2.1630908187416664,17.9999988,0.9503947124591992,0.8743000000000003,2,24,220.72213699337303,515.270025,mp-1175314,Li7Mn5O12,https://materialsproject.org/materials/mp-1175314,3.5712717682721182,-76.84073881532628,-16.81128456595425,-85.11003737071401
-5.75671877375,-184.21500076,4.094919300113302,-1.8213698103725,26.0000002,1.0334937591684783,0.1701999999999999,1,32,293.1857921049812,723.001465,mp-1176211,Li9Mn2Co5O16,https://materialsproject.org/materials/mp-1176211,10.718499528057807,-81.40291758651155,-15.083637277719625,-86.83834746933475
-6.36343761125,-152.72250267,3.873038334712819,-2.1357381783250005,17.9999747,0.9495484921758308,0.4914000000000001,2,24,220.91854474704536,515.270025,mp-1175326,Li7Mn5O12,https://materialsproject.org/materials/mp-1175326,10.805515663825998,-81.91959730789506,-17.412696264901626,-86.0204956263619
-7.634683106666666,-68.71214796,2.5830199115138264,-1.9450560344444443,0.9999996999999999,0.10603841555895116,1.3189,148,9,109.90414384173144,170.95929999999996,mp-752541,V(CO3)2,https://materialsproject.org/materials/mp-752541,30.29038846217208,-35.81295897583655,7.384071237328223,-37.47622257472382
-6.23790843625,-99.80653498,3.774707181456768,-2.1262595545550003,9.9999918,0.8088741098170771,0.5693000000000001,2,16,144.07749085778116,327.514335,mp-1174761,Li5Mn3O8,https://materialsproject.org/materials/mp-1174761,21.655845539619264,-75.84396859528849,-15.16374769980968,-77.7138277804944
-5.770008615,-184.64027568,4.145787486055216,-1.8346596516224996,23.1749455,0.9326418888459328,0.0,8,32,289.5884467421309,723.001465,mp-1100628,Li9Mn2Co5O16,https://materialsproject.org/materials/mp-1100628,-2.310558581620981,-75.76501118421417,-19.681702985627247,-75.74052325122678
-9.531956955,-95.31956955,5.051886544582963,-1.6126916679519994,9.02e-05,9.317614562681964e-06,0.0,167,10,112.8182149425925,343.2288,mp-1187591,Ti3N2,https://materialsproject.org/materials/mp-1187591,-47.27479782915408,-32.117352447876435,-59.46117561022381,-31.629024618755828
-6.397621274642857,-179.13339569,3.8819215187346847,-2.136764541366428,10.999999699999998,0.4919772621818996,0.7695999999999996,12,28,260.5703939108868,609.14787,mp-1174387,Li4Mn3O7,https://materialsproject.org/materials/mp-1174387,2.347028824302766,-78.51735953344601,-29.36781841366572,-78.1294474734695
-7.089701756153848,-92.16612283,4.035646326073135,-2.0643746079876935,13.9999994,1.0657746001867994,0.1615000000000002,166,13,153.08762265004268,372.05237999999997,mvc-11655,MgMn4O8,https://materialsproject.org/materials/mvc-11655,2.1935069045385007,-63.961556061148755,-12.400099072153052,-63.99090831152977
-5.85247521375,-140.45940513,4.115750375673441,-1.9050763769550003,16.0000006,0.8765491326510021,0.6697000000000002,2,24,212.72628813111268,527.2554749999998,mp-1174863,Li7Mn2(CoO4)3,https://materialsproject.org/materials/mp-1174863,21.935144489670048,-75.4924158191283,-11.812035016794693,-80.73957667317295
-5.836001936875,-93.37603099,4.361858069332522,-1.7966522956850002,15.999057500000001,1.2639389930083855,0.0,2,16,147.51823738036214,387.49683,mp-1174081,Li4MnCo3O8,https://materialsproject.org/materials/mp-1174081,5.250681770897751,-74.73731057271618,-26.10129712383424,-76.59488156462292
-5.800668630625,-185.62139618,4.159055504478463,-1.8653196672474996,25.9999999,1.0496807246478412,0.7496999999999998,2,32,288.664615636151,723.001465,mp-1175566,Li9Mn2Co5O16,https://materialsproject.org/materials/mp-1175566,-2.314120810405698,-75.91507208465373,-19.626894828478935,-76.09336874475028
-5.495697559375,-87.93116095,4.032951383049179,-0.9012632040625004,0.0,0.0,2.0756,15,16,272.7042304230179,662.3168000000002,mp-1181891,CaPtO6,https://materialsproject.org/materials/mp-1181891,29.711007154445248,-38.32993225846026,-6.726513925614578,-58.97851387699614
-6.96087533375,-111.37400534,4.158983802866499,-2.336403544555,14.0000001,0.9883013681337599,0.0,166,16,165.0882142249144,413.47971500000006,mp-771729,Li4Mn3NbO8,https://materialsproject.org/materials/mp-771729,1.4065803544079334,-59.92565017755877,-11.153916295473444,-60.627476933389005
-6.7020572183928575,-375.31520423,3.897960202133397,-2.0766536443471435,21.99999995,0.4456421845349902,0.7799,58,56,575.3257508176478,1350.52343,mp-530177,Li5Mn7O16,https://materialsproject.org/materials/mp-530177,16.477996161494882,-70.54797192762497,-15.40178490138228,-77.3224857573749
-6.886030370833333,-165.26472890000002,3.8636041974030464,-2.043264716560001,6.999999675,0.2682861208156857,1.4567,62,24,304.07256764650793,707.4907728000002,mp-767610,Mn2O3F,https://materialsproject.org/materials/mp-767610,5.984715619578004,-60.282410792432486,-10.850520707747066,-68.30345206068047
-6.987382098666668,-104.81073148,3.971450453330277,-1.8640299386493324,16.0000006,1.0189141178611036,0.5250000000000001,1,15,183.00368999187083,437.6832282,mp-766870,Mn5O9F,https://materialsproject.org/materials/mp-766870,21.862528436102266,-66.77964163739958,-7.511858271243263,-70.34071896115397
-5.57978466,-55.7978466,2.844687178137925,-2.963903484952,0.99999995,0.0786413683653564,1.8724,15,10,148.1925407975273,253.8702256,mp-757410,VF4,https://materialsproject.org/materials/mp-757410,20.704601166333216,-34.191971914069235,24.2889726614587,-41.003483552953135
-4.815979544375,-77.05567271,4.788295301648052,-1.3222146662499998,4.85e-05,4.1734333926716655e-06,0.0,74,16,135.43336823384942,390.5328,mp-755200,LiNiO2,https://materialsproject.org/materials/mp-755200,-9.455440085827481,-65.64870817912376,-28.274568982369647,-61.600678665807294
-5.684727573200001,-142.11818933,4.487766300561914,-1.2279847559999997,6.999999799999999,0.3002103959031632,0.11389999999999988,2,25,271.73759533437044,734.3969599999998,mp-674388,Li(CoO2)8,https://materialsproject.org/materials/mp-674388,8.838981000658537,-66.85895192747789,-3.8804245139198112,-69.62682746957012
-6.3507205825,-101.61152932,4.115406612988875,-2.0310703451800007,15.9833378,1.2164361367667125,0.0,12,16,153.12834630020913,379.50653000000005,mp-1174169,Li4Mn3CoO8,https://materialsproject.org/materials/mp-1174169,5.643538254072131,-78.51824121630551,-29.70987505422245,-76.16212047167707
-7.095565887857143,-99.33792243,4.0145009519439,-2.240081779354285,10.9999999,0.8784552509540351,0.0,166,14,145.93197683493375,352.80354500000004,mp-775295,Li2MnCr3O8,https://materialsproject.org/materials/mp-775295,15.05131825470928,-68.5641780781561,-13.01363959071262,-69.1560919921838
-3.8109647460000002,-19.05482373,5.2422724409858485,-0.5750224525000001,0.0001099,9.137810693110704e-06,0.0,164,5,140.16286411688677,442.49,mp-1068052,Sm(MgSb)2,https://materialsproject.org/materials/mp-1068052,-1.012122396045726,-29.66864418363109,-9.041849729927392,-24.544250570349842
-6.4012831596875,-204.84106111,3.875939816572657,-2.1155584511475,26.007467899999998,1.006311005449149,0.0,2,32,301.19189180643707,703.025715,mp-1100504,Li9Mn7O16,https://materialsproject.org/materials/mp-1100504,3.8040356529644384,-78.20640722268638,-29.375291873435888,-77.34559242795876
-5.018115763571429,-70.25362069,2.5560289052694336,-1.4186330638839293,2.0000035,0.10680468038922966,0.0,161,14,218.23173150655785,335.91900000000004,mp-1177470,Li3VS3,https://materialsproject.org/materials/mp-1177470,8.676472928415235,-53.186249642212154,-3.785121744408271,-58.314197662274026
-6.2689975575000005,-75.22797069,4.167489617737846,-1.9960640862016668,11.9999995,1.2288030230147422,0.6611000000000002,2,12,113.80894156703756,285.628685,mp-1173957,Li3Mn2CoO6,https://materialsproject.org/materials/mp-1173957,5.228327952568543,-77.9105305768867,-29.34731749605659,-76.36343172179107
-5.972998357333333,-89.59497536,4.3322346421471085,-1.8428832620000009,11.9999994,0.972206928237282,0.0,8,15,143.84671227537808,375.286395,mp-763428,Li3Fe3CoO8,https://materialsproject.org/materials/mp-763428,6.7979712808112165,-68.19389125246515,-6.243589762694759,-68.69571614987169
-5.783224060714286,-80.96513685,4.697538147532593,-1.564504009285714,5.0002262,0.440160655077263,0.0,160,14,132.39020648499616,374.521785,mp-775721,Li2FeCo3O8,https://materialsproject.org/materials/mp-775721,-21.530559789574067,2.354554439621666,-9.456180303317096,9.093422184057694
-5.113302367857143,-71.58623315,4.959316634193327,-1.4266986964285715,3.9999989,0.3124686026161486,0.0,166,14,149.1869771249726,445.5574,mp-764098,Li2Ni3TeO8,https://materialsproject.org/materials/mp-764098,12.878390550561738,-69.6326569005421,-8.510055533875908,-72.70116310136262
-6.1335077104166675,-147.20418505,3.3263083771373823,-2.6190858510316666,1.9999999,0.10078006446056828,1.0888,8,24,231.27717276696686,463.28281280000004,mp-1177750,Li2VO2F,https://materialsproject.org/materials/mp-1177750,12.059210284197937,-62.020120509245004,-0.6725710357818029,-75.4221077395798
-5.453769829374999,-261.78095181,3.83636987772012,-1.4749510974404758,1.85e-06,1.935235907770314e-08,2.1666000000000003,142,48,1114.077087070788,2573.870096,mp-5241,DyPS4,https://materialsproject.org/materials/mp-5241,-5.743085009750488,-3.215101447599608,3.201650052392746,-23.801534958619232
-5.679350580909091,-187.41856917,4.28286906757347,-1.6132241756818182,7.163461133333333,0.25173617935270226,0.0,1,33,331.6306788251268,855.3432,mp-849448,Li2Fe2CuO6,https://materialsproject.org/materials/mp-849448,6.028504309614878,-67.07912021351525,-7.827161517139032,-67.38540031097001
-1.8253957916666668,-10.95237475,1.0178335807006964,-0.01863570500000004,1.7199999999999998e-05,1.608748008281182e-06,0.0,194,6,124.59994545832652,76.374,mp-977207,Li2Mg,https://materialsproject.org/materials/mp-977207,12.213841351641603,-53.656162867395146,-66.17594075917194,16.325668172835144
-6.070719683333333,-91.06079525,4.515591848022047,-2.014514462666666,14.0000003,1.0127091269495991,0.7917000000000001,12,15,161.10935111595498,438.1132,mp-772131,Li3Fe3SbO8,https://materialsproject.org/materials/mp-772131,2.07750581838286,-60.4181169813597,-9.998014565037428,-61.35052470716025
-6.868211959999999,-96.15496744,3.9858308639090057,-2.137839868571428,3.109803,0.24594167630912026,0.0,166,14,147.35951277468175,353.7105,mp-774415,Li2Cr3FeO8,https://materialsproject.org/materials/mp-774415,13.635532118045553,-67.74973883959976,-13.041126411393002,-68.56338660232716
-6.3422582913333345,-95.13387437,4.03200217869139,-2.052962561333333,16.9999998,1.3059849209069143,0.0,166,15,151.70090835744267,368.3493,mp-754773,Li3CrFe3O8,https://materialsproject.org/materials/mp-754773,4.72509316819287,-65.29807316637675,-8.342126796852929,-65.73600608603357
-7.0926155980487815,-290.79723952,3.8503498165572716,-2.4678796432317083,19.0000001,0.530474505422324,0.8115000000000001,2,41,417.4135223855045,967.8713,mp-768084,Li8V11O22,https://materialsproject.org/materials/mp-768084,5.045331054906809,-64.71488842439435,-8.087661289565935,-65.60850856835246
-8.140391826,-40.70195913,5.0572978947351315,0.10465082866666647,0.4302323,0.06272128595081619,0.0,69,5,79.94024700608178,243.4641,mp-1217156,Ti4Cr,https://materialsproject.org/materials/mp-1217156,-39.095832337005646,-55.67905053352414,-57.91999154146986,-32.73824533061911
-6.930418340555555,-374.24259039,4.0284037706330516,-1.9980570856548143,27.00000075,0.5328308875845579,0.0,59,54,590.5433880270788,1432.6355199999998,mp-531365,Li3Mn8O16,https://materialsproject.org/materials/mp-531365,10.972588735814627,-69.76704283885147,-16.460975597076054,-67.69966523525486