energy_per_atom,energy,density,formation_energy_per_atom,total_magnetization_uB,total_magnetization_T,band_gap,sgr,num_sites,cell_volume,weight,mp_id,formula,URL,tsne_xrd_lin1_0,tsne_xrd_lin1_1,tsne_xrd_lin2_0,tsne_xrd_lin2_1
-8.7379485884375,-279.61435483,5.3610986968429435,-3.8776502916145836,0.0,0.0,3.2856,62,32,502.6127019943518,1622.69976,mp-18051,La2TiO5,https://materialsproject.org/materials/mp-18051,9.188898883802317,23.434629160060343,2.2219171293969757,36.26588845625233
-7.020432796666667,-42.12259678,5.13702985668141,-2.9494799362500013,0.0,0.0,3.4117,129,6,149.86445500635574,463.61944000000005,mp-753712,YIO,https://materialsproject.org/materials/mp-753712,-15.85668229326402,23.99485043915956,-5.064696682447622,44.74672560384576
-6.584951752083334,-158.03884205,4.566212717481585,-1.9650595452864583,6.99999825,0.15496922127452026,0.0,173,24,526.4170029530727,1447.5612772000004,mp-866516,Ce3AlCrS7,https://materialsproject.org/materials/mp-866516,7.594630213534392,-3.911346704865203,11.955374461855481,5.5146032144557955
-8.371716881600001,-209.29292204,7.902865749574242,-2.9787902148,1.0000004,0.03537098307135805,0.0185000000000004,2,25,329.4810723997825,1568.071945,mp-698050,La5CoRe3O16,https://materialsproject.org/materials/mp-698050,25.130171627739703,35.30920297288601,32.74257738483051,37.23128050014246
-3.745599896428572,-104.87679709999999,4.737493106912715,-0.653097507849446,0.0,0.0,1.5892,82,28,735.7336756704448,2099.0372,mp-1219697,Rb3Ag9(SbS3)4,https://materialsproject.org/materials/mp-1219697,-12.682719658242391,23.052943170649275,-8.0345631971172,-1.071100007080358
-6.883462251999999,-137.66924504,5.919539773459585,-2.467014583442,2.9999999,0.12968513262780354,0.6737000000000002,194,20,269.5929166577184,961.05298,mp-35078,BaMnO3,https://materialsproject.org/materials/mp-35078,-8.488533757664534,29.348799450228768,0.443482638939376,23.622615359963397
-5.751785450714286,-161.04999262,6.947914477299437,-0.689577734285714,0.003938925,7.90891140925616e-05,0.0,8,28,580.4147335691556,2428.5318399999996,mp-1224909,Ho3Si4,https://materialsproject.org/materials/mp-1224909,-5.703061226685885,18.70004545578617,-1.8121446431079689,21.866387055731675
-6.6164697085,-132.32939417,9.505040649949562,-2.30546543775,0.999999975,0.05148168762545941,0.0,62,20,226.37300793233416,1295.7748,mp-1207518,YbRhO3,https://materialsproject.org/materials/mp-1207518,-9.065201874785288,43.2948012395296,-4.086748155153258,64.24610094338986
-4.466716112,-22.33358056,4.6856050489084655,-0.639506608904572,0.0004675,3.364310383577808e-05,0.0,221,5,161.94330070632887,456.961462,mp-1013533,Ba3PN,https://materialsproject.org/materials/mp-1013533,25.22571581081956,66.84380268798623,-18.39071313616461,-10.038945347067651
-5.32528718175,-213.01148727,5.804672646694441,-1.4546799444374998,2.0000003,0.039464469197484704,2.9687,148,40,590.6105799802415,2064.5712,mp-1196304,NiTe6O13,https://materialsproject.org/materials/mp-1196304,4.653107604280361,19.35163818041416,32.43739949226985,-6.56761772271121
-7.551675064583333,-181.24020155,6.4161597065648355,-3.3082098192708336,0.0,0.0,4.4703,113,24,269.42241151876993,1041.021728,mp-1208513,Tb2Be2GeO7,https://materialsproject.org/materials/mp-1208513,-2.5443971670440297,12.700449184647265,6.509832462927277,30.774070531073367
-6.252211970416668,-450.15926187,4.219454617462016,-1.6377937595311107,0.0,0.0,2.7508,214,72,1647.836313965252,4187.1768,mp-568923,Ba2BN2Cl,https://materialsproject.org/materials/mp-568923,6.942458006007332,-6.493281588119944,12.402402514914767,3.2787534139013323
-9.185288858055557,-330.67039889,6.778132497633988,-3.6414269585185193,0.0,0.0,2.9851,33,36,456.37612731942016,1862.87572,mp-1219788,PrTaTiO6,https://materialsproject.org/materials/mp-1219788,5.372844356109981,22.76092614087253,3.349226178946316,37.30273278288264
-7.55833441,-37.79167205,5.574120482363062,-1.4260491512499995,4.815239599999999,0.9514147998763048,0.0,221,5,58.98280560812204,197.9943,mp-1183695,CrTcO3,https://materialsproject.org/materials/mp-1183695,-29.49355991818757,54.66958492726393,-18.1379975525112,71.68444195753906
-6.951413189,-69.51413189,6.494254955144434,-2.335751663692,6.999999799999999,0.6978465959008134,0.0,155,10,116.9002636916206,457.18895999999995,mp-1222846,LaMn2CdO6,https://materialsproject.org/materials/mp-1222846,-25.93094316210853,55.534013990737144,5.628688202603555,69.39872781048
-9.482843992857145,-66.37990795,7.419597772958587,-3.0708256178571434,14.999946300000001,1.8647566026125173,0.0005999999999994897,139,7,93.74432326460644,418.8671,mp-19815,Eu2VO4,https://materialsproject.org/materials/mp-19815,-23.529791117954755,39.46921323453517,-14.167287452269814,59.622973982573654
-7.0476445557692315,-183.23875845,6.048259066382252,-2.687160143846154,5e-08,1.69709709697798e-09,0.3744000000000001,8,26,343.3529169695735,1250.6103999999998,mp-558708,Nd2Cu(GeO4)2,https://materialsproject.org/materials/mp-558708,21.924697332447234,32.62070910431101,29.087137866475768,38.171741824835046
-4.6009315242857145,-32.20652067,9.320159843720633,-0.496009663571429,1.5526765,0.0859559494661254,0.0,115,7,210.51471846009198,1181.5626,mp-1226818,Ce2ZnBi4,https://materialsproject.org/materials/mp-1226818,-50.129490071237676,21.873212414376923,-42.452144934381344,32.10198765045079
-3.981109182857143,-27.86776428,3.8439581537554672,-1.1966443714285708,4.999999900000001,0.34726215844711256,1.5098,44,7,167.7992297172986,388.43604500000004,mp-675475,Li2MnBr4,https://materialsproject.org/materials/mp-675475,31.441073472525808,62.98327717398609,-15.518642548546998,35.91932270936925
-8.05509377673077,-418.86487639,7.41572606166072,-3.760514465282821,0.00029335,4.6662162124289945e-06,4.7707000000000015,14,52,732.6535559848767,3271.92432,mp-1201547,Ho4BClO7,https://materialsproject.org/materials/mp-1201547,3.6029023544170977,39.07633961713236,7.2104555515250315,33.584275381284165
-5.647592782749999,-225.90371131,5.532032452182771,-1.5837784139855002,5.00000015,0.0943704466953056,2.3213,148,40,617.4637044905163,2057.06049,mp-1201691,MnTe6O13,https://materialsproject.org/materials/mp-1201691,7.070346245684068,-20.98460910349331,32.101341576132114,-6.706023819469907
-7.318015455789474,-278.08458732,5.3072202653312734,-2.3124389897368434,5.00000005,0.10813884383783316,1.8291,13,38,538.847303868764,1722.2006,mp-22296,V5(PbO6)2,https://materialsproject.org/materials/mp-22296,32.18407021154743,25.65744775832377,41.402533303373545,23.352841350019627
-6.483268435,-77.79922122,8.241627111174196,-1.2187701923809524,3.65e-06,2.0930790972990766e-07,0.0,194,12,203.2285185721521,1008.6686480000001,mp-1102152,DyNiP,https://materialsproject.org/materials/mp-1102152,-36.21167621294087,50.87114564171514,-55.93237958401853,46.868848123008384
-4.8775933689999995,-97.55186738,6.533398224797686,-1.147526513583334,0.0,0.0,1.1591,11,20,288.1851113508894,1133.8656,mp-561489,AgTeO3,https://materialsproject.org/materials/mp-561489,1.4310120832455473,28.554015505577283,21.272115225405003,-15.891401132881901
-8.524944885416668,-204.59867725,4.427136818638358,-2.7511942529166675,3.00000025,0.1115511300472739,2.3075,12,24,313.41858407331915,835.60032,mp-1101460,NbCrO4,https://materialsproject.org/materials/mp-1101460,20.97419866654589,0.5291582909382001,54.64970528312478,-6.295674746968669
-8.953996780333334,-268.61990341,7.835152985749082,-3.238048231208334,0.05508905,0.0014624526327473753,0.0,18,30,438.99634257055686,2071.37768,mp-1219245,Sm2Ta3(SO4)2,https://materialsproject.org/materials/mp-1219245,21.600701401340302,31.902566153152584,29.53197622959404,37.75666851255581
-4.90659558875,-78.50552942,6.101721963635902,-0.9783639770312504,0.0,0.0,2.127,215,16,466.64557195584007,1714.7091799999996,mp-1217833,TaTl6VS8,https://materialsproject.org/materials/mp-1217833,-10.200251614519457,52.786630461404286,-10.065502694324756,25.267995190230213
-5.1815871675,-41.45269734,4.926775488907382,-1.5236653645312508,0.0,0.0,0.0,129,8,175.36414900343632,520.3008,mp-7486,BaNiS2,https://materialsproject.org/materials/mp-7486,-10.12764917790408,16.92871885326848,-16.527469933833352,17.969624142657032
-7.471129938666666,-224.13389816,3.814452004079404,-2.833649628785715,2.00000015,0.0650652702102718,1.8684000000000005,43,30,358.22691918290786,822.889048,mp-559580,SrV2(PO5)2,https://materialsproject.org/materials/mp-559580,-2.9103678633385783,25.881370454338047,6.854802582196586,26.405772772994922
-6.898297657142857,-48.2880836,6.214232051069449,-2.790826228928572,2.0000001,0.2496048329961852,0.0,107,7,93.38012582024841,349.456265,mp-1218161,SrLaCoO4,https://materialsproject.org/materials/mp-1218161,-23.311564826150736,39.6548630004602,-13.708021352148368,59.336164714427596
-6.9720853675,-139.44170735,7.122593149751659,-4.10448752087625,1.175e-05,4.7380542104199064e-07,3.588,6,20,289.01159631400793,1239.664932,mp-1217635,Tb3SOF5,https://materialsproject.org/materials/mp-1217635,0.002320441103759261,16.85426687336042,6.8575315374070325,35.27123697813606
-7.75501184125,-248.16037892,6.415814565761363,-2.66822208195875,6.999999225,0.22362245242093726,1.0922,55,32,364.80435436088464,1409.49236,mp-18601,DyMn2O5,https://materialsproject.org/materials/mp-18601,-2.054726289823434,27.49538330690144,1.1175741590744617,49.729508368031475
-8.229404695625,-131.67047513,6.9976660857433215,-3.2833500284375,4.8e-06,2.8264982408448577e-07,4.479,63,16,197.9110055683808,834.0154,mp-1225362,Dy2CO5,https://materialsproject.org/materials/mp-1225362,-0.8512503008869443,11.773432297493331,21.712067047219065,35.892265042312744
-3.93661735,-39.3661735,5.654227259752775,-0.5079588504827589,0.0,0.0,0.9309000000000004,63,10,358.7243377337525,1221.4762076000004,mp-1206558,Cs2As2Pt,https://materialsproject.org/materials/mp-1206558,1.9373069799144855,6.862869144282398,-2.5824320964252343,-8.490150868003736
-5.542295849411764,-94.21902944,6.739384203982768,-1.822926659264706,0.0009526,3.727713684879093e-05,0.0,1,17,297.8142379167311,1208.6945999999996,mvc-2682,Ba2Tl2Sb3O10,https://materialsproject.org/materials/mvc-2682,2.8822432884744646,19.910147405356433,24.290252002743202,34.643739630928
-8.802804097272727,-96.83084507,6.322272552807272,-3.4089180542500013,0.0,0.0,2.2382000000000004,38,11,171.21970563860347,651.8953300000002,mp-1223498,KLaTa2O7,https://materialsproject.org/materials/mp-1223498,2.746185229555909,18.217701562333268,23.385280583051767,37.034264148523135
-6.61692056,-92.63688784,4.482258474639749,-1.1321213406271429,0.0,0.0,2.0441,229,14,255.16848048349223,688.7709692799998,mp-9705,Ba4Na(BN2)3,https://materialsproject.org/materials/mp-9705,-29.949222079684898,36.22135684041165,0.8020543010503203,42.385634936697315
-2.342094002,-23.42094002,7.483445988156602,0.3029751540000003,4.26e-05,1.4894150630386903e-06,0.0,227,10,333.32760734819175,1502.1863899999996,mp-1207631,Yb4Co,https://materialsproject.org/materials/mp-1207631,30.27042039496553,64.05343280561571,-13.4091619905515,34.544191543390696
-8.235810574479167,-790.63781515,6.557116888642539,-1.1263342018298603,6.3567904,0.05762220452241128,0.0,167,96,1285.6579799610479,5076.791,mp-683987,Ce15B8N25,https://materialsproject.org/materials/mp-683987,-1.1011035927676291,24.140801175983533,7.949902942978357,26.74694734518213
-8.525100556363636,-187.55221224,7.4574957710940675,-3.9192423201136366,0.0,0.0,1.6306999999999996,51,22,319.4060845705544,1434.4556,mp-673848,Ce2Dy2O7,https://materialsproject.org/materials/mp-673848,24.09712574203651,63.517400037892344,-8.997741632897807,36.917075320686294
-10.094294758039217,-514.80903266,6.8819561630769375,-3.3637024160282336,91.000001,1.4674884355814486,2.9604000000000004,146,51,722.6768404050812,2995.0698032000005,mp-651087,Gd13Ge6O31F,https://materialsproject.org/materials/mp-651087,16.201922322807473,59.45256849189515,-1.8886820354805187,37.93998409249613
-8.944598623636365,-98.39058486,6.861703778538254,-3.833676980340911,1e-07,6.7859385187703955e-09,3.5313,65,11,171.7384373631401,709.6600900000001,mp-1102291,La3TaO7,https://materialsproject.org/materials/mp-1102291,30.74668983295311,61.810139500782725,-9.47368246207244,34.806843505206146
-10.47441156125,-83.79529249,6.1710777247087005,-3.2235057906250004,7.01974555,0.546505331848325,0.0,194,8,149.69400033098395,556.3093,mp-754480,GdYO2,https://materialsproject.org/materials/mp-754480,10.001680326147,56.497469821333894,-8.267384905931916,41.583203095340885
-6.4589400549999985,-129.1788011,9.700129153840644,-0.9859629809999988,4.9000000000000005e-06,1.625008011239452e-07,0.0,72,20,351.41314375420535,2052.799,mp-1208891,Sm2Si5Pt3,https://materialsproject.org/materials/mp-1208891,-37.97717386034762,23.544560859706873,-27.496387934470444,30.963995174800477
-5.1765398725,-41.41231898,3.1829815046048804,-1.0752397696174576,2.53229125,0.13767503175084975,0.0,71,8,214.35612452876012,410.8856,mp-1078517,RbFeS2,https://materialsproject.org/materials/mp-1078517,6.5616228012183555,1.0375955113674509,11.525170253564847,8.039649266240524
-5.612638296923077,-72.96429786,6.322069056028187,-1.9535659200961548,0.0013341,6.919729610010327e-05,0.0,123,13,224.68634887958697,855.4346386,mp-1267165,Ba2AlTlSn2O7,https://materialsproject.org/materials/mp-1267165,-9.252062339722876,42.900953914786,-13.968363395914487,53.14145554472279
-8.157987873333333,-97.89585448,7.4118227628147135,-3.5800797591666664,0.99999995,0.07164239944380622,0.16639999999999988,11,12,162.66993121855853,726.0779,mp-756106,TbCeO4,https://materialsproject.org/materials/mp-756106,26.99185478024269,61.71236070080478,-9.451154278185353,35.17166083360048
-7.876376795,-110.26927513,5.348383358516216,-3.632672132857142,0.0,0.0,3.7618,36,14,209.55889179979587,674.962324,mp-1218030,SrPrScO4,https://materialsproject.org/materials/mp-1218030,-24.741159209577173,31.22632273744783,-17.23121675588456,43.68144572341011
-6.778370130769232,-88.11881170000001,4.369682684099563,-2.6159940284615386,2.0,0.12394726285611005,0.0,166,13,188.04876370830158,494.8474,mp-18833,Sr3Cr2O8,https://materialsproject.org/materials/mp-18833,-15.287555985029556,19.29893945282719,-14.014973533167662,46.34517908521869
-8.1113044735,-324.45217894,4.963051773648732,-3.617780875,0.0,0.0,2.0146000000000006,14,40,480.3673792313166,1435.7314800000001,mp-676461,Ca2La2MgTi3O12,https://materialsproject.org/materials/mp-676461,-24.482802043459056,49.225153579757844,-9.738478605776349,63.93106109578301
-5.33931953,-64.07183436,7.7870437654285745,-0.8578249492968754,0.0,0.0,0.4238000000000008,63,12,291.4187200775864,1366.5986,mp-9397,HfTlCuSe3,https://materialsproject.org/materials/mp-9397,10.03395201841253,41.098793551041005,8.921829489969614,19.718179811571904
-7.970500451111111,-71.73450406,5.425512689104068,-3.1222552104166663,1.530435,0.10799229056912166,0.0,123,9,165.1579805021026,539.6239999999998,mp-1186702,Pr2Y2O5,https://materialsproject.org/materials/mp-1186702,28.02284915343018,62.22297505635294,-10.441957548938507,33.90118458100941
-6.89657982,-96.55211748,6.794238478738168,-2.7719939094642863,3.0,0.17894205890270687,0.4496000000000002,38,14,195.38276541619808,799.4254099999998,mp-1227939,BaLa3(NiO4)2,https://materialsproject.org/materials/mp-1227939,-22.776463011853004,38.360229391514906,-14.648429559430518,58.84494681014079
-5.639202341578947,-107.14484449,7.2688155272288,-0.17338600710526314,0.0001036,2.398806520380329e-06,0.0,204,19,503.3174206337232,2203.21317,mp-510232,Nd12Co6Sn,https://materialsproject.org/materials/mp-510232,-4.523294917022745,78.74599027270169,5.684668825996506,48.607057076604825
-3.4309374035,-68.61874807,5.782364757086223,-0.6777512434999998,0.0,0.0,0.29879999999999995,62,20,480.13970305746176,1671.9528,mp-7427,Ba(ZnAs)2,https://materialsproject.org/materials/mp-7427,0.6001255113530061,28.242473785791177,-1.4836415681504835,50.844429446597395
-9.263318577916666,-222.31964587,7.768096556096626,-3.6725186845833333,0.0,0.0,3.557,14,24,329.9259639445837,1543.41252,mp-17722,PrTaO4,https://materialsproject.org/materials/mp-17722,21.05592611055974,56.72773719249145,-2.9470699443642348,35.452433983128316
-8.27267997375,-132.36287958,5.289324378390488,-3.4550834823437486,0.0,0.0,2.0540000000000003,119,16,203.06212716189822,646.8149400000001,mp-1223063,La2Ti3ZnO10,https://materialsproject.org/materials/mp-1223063,-1.134613088535822,18.87103548642152,5.645968595091149,33.457794768286576
-6.539151049285715,-91.54811469,5.466323618170144,-2.4932538630357155,0.0,0.0,2.1278,122,14,291.085467287826,958.2234,mp-675293,Yb(YS2)2,https://materialsproject.org/materials/mp-675293,-1.6003649071590067,-4.8523613695943,5.565512964635307,7.392270767871178
-6.863229960000001,-41.17937976,7.220481511526464,-3.514004172336668,5e-08,5.792460559998048e-09,5.1945000000000014,129,6,100.59684180709914,437.4228,mp-1178350,ErClO,https://materialsproject.org/materials/mp-1178350,-6.280100883945049,11.667735026859566,-11.447254997862654,42.33159197035248
-9.771268143448275,-283.36677616,9.358221822983019,-4.618361155215515,3.9899999999999994e-05,1.074836330224432e-06,2.6651000000000007,25,29,432.62138741443323,2438.1040199999998,mp-1173034,La2Th8O19,https://materialsproject.org/materials/mp-1173034,-12.311710762332671,-23.430038879664536,-10.074448647960304,31.61787407571633
-5.19509494375,-41.56075955,6.526107720368166,-1.6361727149479168,0.0,0.0,0.8198000000000003,109,8,173.4974661970025,681.86482,mp-1079656,TmAgS2,https://materialsproject.org/materials/mp-1079656,-6.679564147534027,17.924156713349927,-4.0753746724010655,22.75229440302756
-3.20126516375,-25.61012131,3.1714455074285914,-1.655631493836207,0.0,0.0,4.322,63,8,264.1166887230851,504.4336,mp-28237,RbLiBr2,https://materialsproject.org/materials/mp-28237,6.996472411651753,16.18597577555849,2.216174088795348,23.469847182369428
-6.219453994615384,-80.85290193,6.516384691677168,-2.351206158557693,0.0041309,0.00020593986853888467,0.0,123,13,233.7661789847987,917.35895,mvc-2582,Ba2YTlSn2O7,https://materialsproject.org/materials/mvc-2582,-20.93316637288352,14.979859876047518,-18.602995311628803,47.024567584990095
-6.028321525,-120.5664305,7.4612660756325075,-2.10717259525,7.075e-05,2.57181464737626e-06,0.0,31,20,320.6005080886256,1440.5477,mvc-9356,PrZn(BiO3)2,https://materialsproject.org/materials/mvc-9356,2.236307478750247,22.58516373487593,5.277776590891476,30.37531030438643
-9.579989467884618,-498.15945233,8.426168413858008,-3.539166416057692,0.0,0.0,2.7516,62,52,650.9149118046787,3302.9748400000008,mp-5308,LaTa3O9,https://materialsproject.org/materials/mp-5308,-0.922281602328289,17.87958921012734,30.331303227321115,37.109045057242824
-8.48679320125,-203.68303683,5.612681866657908,-3.2325859476041665,11.9999985,0.5115361613191651,0.0,113,24,273.38978231562925,924.067328,mp-1212955,Eu2Be2SiO7,https://materialsproject.org/materials/mp-1212955,-2.8498305874524963,12.488828715071476,-16.106625423983775,44.4968196588541
-4.831722682222223,-43.48550414,3.41913101048594,-1.4764711016810352,0.0,0.0,0.4896,160,9,202.9478313751597,417.8795,mp-551690,Rb4CO4,https://materialsproject.org/materials/mp-551690,3.5454072660040667,23.194430389764147,1.4584332210189974,23.4081710208567
-5.647237243999999,-112.94474488,7.054009658306001,-1.7917668975000005,0.0,0.0,0.4402000000000004,141,20,334.1619556187552,1419.5279999999998,mp-1208099,Yb(AsO)2,https://materialsproject.org/materials/mp-1208099,-10.295035836079233,21.601934759504342,-12.466700577236084,44.046460827532215
-8.556337906666666,-77.00704116,7.165292251247872,-1.5596810592059254,0.30684709999999993,0.030985443507154212,0.0,71,9,115.409546351868,497.99680000000006,mp-3603,Ce3(BN2)2,https://materialsproject.org/materials/mp-3603,-3.83223261307054,25.978585715770077,-14.59973860096961,44.6904793836984
-7.662631069545455,-168.57788353,8.32835424551141,-2.738681534886365,4e-07,1.375611223491794e-08,2.1127,74,22,338.8766992748867,1699.6199,mp-1222976,LaTaBi2O7,https://materialsproject.org/materials/mp-1222976,31.034426387886235,62.83143211182259,-9.704674750894906,34.97512169284793