energy_per_atom,energy,density,formation_energy_per_atom,total_magnetization_uB,total_magnetization_T,band_gap,sgr,num_sites,cell_volume,weight,mp_id,formula,URL,tsne_xrd_lin1_0,tsne_xrd_lin1_1,tsne_xrd_lin2_0,tsne_xrd_lin2_1
-5.1513415885714275,-144.23756448,8.207693549175026,-0.5367511346428577,5.45e-06,1.2874805185221854e-07,0.0,63,28,493.32515790883303,2438.402,mp-1210189,Nd2(Ga3Ru)3,https://materialsproject.org/materials/mp-1210189,-45.81963692076594,-7.595689782721474,-42.39753427795976,5.532233643497354
-5.9949837725,-95.91974036,4.7540069608110285,-1.8361178206250008,19.9999986,1.5313924459169357,0.0,12,16,152.202186811718,435.7442,mp-756367,Li3Fe4CuO8,https://materialsproject.org/materials/mp-756367,-6.472106953005017,-61.91300449678987,-23.77455077315544,-63.912444500532686
-4.4986693075,-71.97870892,9.69035697298752,-0.3145808456249997,0.0624082,0.001499327230837546,0.0,140,16,485.0903726550569,2830.827076,mp-567961,Dy5BiAu2,https://materialsproject.org/materials/mp-567961,-24.647651641747146,2.832543664911105,9.967614803675923,-10.53032282950508
-4.503791775,-63.05308485,8.546110558344287,-0.555052330357143,9.000000000000001e-07,4.3686471906862523e-08,0.0,8,14,240.08938780098893,1235.6412,mp-1225820,Er3Ga8Ni3,https://materialsproject.org/materials/mp-1225820,-42.43851236907732,8.486932236125098,-33.27787697625965,18.791570839040798
-5.834418737142857,-122.52279348,8.80784227377274,-0.542566386904762,9.5e-06,3.796969347534183e-07,0.0,174,21,291.58416938818954,1546.6227,mp-867324,Tb2Ni12As7,https://materialsproject.org/materials/mp-867324,-51.735270581390935,-1.3251748401273191,-55.40767531936366,17.979811384159532
-3.860616165,-7.72123233,2.6919374713487123,-1.0782078066250005,1.9999997999999999,0.9691238353705954,0.0,221,2,24.050721242856802,38.98916928,mp-1061395,Na2O2,https://materialsproject.org/materials/mp-1061395,-49.82373016871855,-51.51833769443033,-68.9575100959509,-44.1802770099486
-5.9158586938888895,-212.97091298,9.890247837019805,-0.4066789438888894,1.38738455,0.032299768994779564,0.0,194,36,500.5815804057866,2981.4872,mp-1200559,Er2Ni7,https://materialsproject.org/materials/mp-1200559,-63.59763201892326,-16.498739990652346,-52.59536345810438,1.4872329776772872
-4.8046245800000005,-48.0462458,8.295209756223498,-0.9748413720000002,1e-07,5.3900669022483965e-09,0.0,15,10,216.2137313675708,1080.094,mp-1078428,Ca2GaPt2,https://materialsproject.org/materials/mp-1078428,7.100097576661638,-2.366393439412172,-39.44264514739799,-10.119486880706637
-6.096732002142858,-170.70849606,5.245662977058514,-2.5199895473214293,0.000112475,1.7743130373202113e-06,1.7542,62,28,738.7596820419983,2333.7508,mp-1193223,Ba(TbS2)2,https://materialsproject.org/materials/mp-1193223,9.924334572243707,-10.367047708737688,14.07161177619163,-5.9140101254905