energy_per_atom,energy,density,formation_energy_per_atom,total_magnetization_uB,total_magnetization_T,band_gap,sgr,num_sites,cell_volume,weight,mp_id,formula,URL,tsne_xrd_lin1_0,tsne_xrd_lin1_1,tsne_xrd_lin2_0,tsne_xrd_lin2_1
-7.257222708333334,-43.54333625,7.303842642815704,-0.19598176388888908,2.417548,0.2759196932925249,0.0,194,6,102.1103664133981,449.13009000000005,mp-1216728,TiMnSb,https://materialsproject.org/materials/mp-1216728,-58.543517040683135,-38.983717560075966,-54.141633664098904,-32.220953334355805
-7.889817655,-15.77963531,4.5783711104429345,0.007309698333332727,7.5e-07,2.5172965914767503e-07,0.0,194,2,34.72196565559326,95.734,mp-46,Ti,https://materialsproject.org/materials/mp-46,-47.1862800999986,-33.4553772970035,-58.483732832298486,-28.32535004075469
-5.986857575416668,-143.68458181,4.64480277992653,-1.964042508680556,4e-07,2.036881912183236e-08,0.0,5,24,228.86088197559292,640.1618,mp-770793,Li5Ti2Cu5O12,https://materialsproject.org/materials/mp-770793,-40.124276699243396,-8.317541590166588,-32.83344630837564,-58.9523588397657
-7.204375995,-259.35753582,8.751167471719384,-0.7074869872222236,1.225e-06,3.758428257395608e-08,0.0,55,36,379.8457325424191,2001.816,mp-1198465,Er2B6Ru,https://materialsproject.org/materials/mp-1198465,-35.65782276847829,-10.506644728148613,-37.716187275575635,-12.28655408461642
-2.479346975,-19.8347758,9.417415579044556,-0.039635088749999436,2.36e-05,2.0048288137330656e-06,0.0,194,8,137.18673970985165,778.0272,mp-1187952,ZnAg3,https://materialsproject.org/materials/mp-1187952,-49.60078156161358,-34.462973087181794,-58.816113614523296,-27.484108472241374
-7.5896408825,-30.35856353,8.78351238430758,0.04976775749999973,8.125907000000002,1.828475608649322,0.0,65,4,51.791692525638936,273.955,mp-1224754,Fe3Pd,https://materialsproject.org/materials/mp-1224754,-40.128618276566904,-34.84927026575655,-65.71579800620998,-44.689593825120404
-7.438208677142858,-156.20238222,8.150077801192738,-0.6551512202380956,6.709973599999999,0.3112683968344515,0.0,174,21,251.2252054877113,1233.036334,mp-1191755,Yb2Fe12P7,https://materialsproject.org/materials/mp-1191755,-64.32682406545447,-29.664020935876604,-65.08649413477447,-15.825658486038186
-5.601714079333333,-84.02571119,4.598094056419258,-1.5697662900000002,8.9484895,0.750934397440383,0.0,1,15,138.87534863902627,384.55098,mp-759246,Li3(CoO2)4,https://materialsproject.org/materials/mp-759246,-9.37387659909298,-65.48157380892042,-28.416537526004262,-61.54978531552075
-5.521451377000001,-110.42902754,5.363608216617985,-1.7583592543750015,5.99999975,0.3894117167992304,2.709900000000001,12,20,179.5641546088686,579.9994772000001,mp-1222577,LiAlNi3O5,https://materialsproject.org/materials/mp-1222577,-9.6006668725854,-64.27904661026939,-26.885969303657323,-62.518194091116065
-8.324316990333331,-249.72950971,6.537312725923577,-0.9827577909047628,2e-07,4.318981026647629e-09,0.0,127,30,539.6673289674309,2124.5956960000008,mp-505278,Zr9(NiP2)2,https://materialsproject.org/materials/mp-505278,-31.8965764021475,20.862402728556162,-53.07838961279656,19.480088541305307
-6.218718288333334,-74.62461946,12.460306471938136,-1.1363895216666673,2.75e-07,1.3821573247601557e-08,0.0,62,12,231.8743138021609,1739.932,mp-13579,ErGePt,https://materialsproject.org/materials/mp-13579,-52.5331298868974,13.063894902012825,-38.12584962632555,19.824583463796426
-9.578993258333332,-114.9479191,11.376613772329677,-0.7708263423809509,0.0006203,4.639809704542284e-05,0.0,62,12,155.80415660887363,1067.438748,mp-21066,TaMnP,https://materialsproject.org/materials/mp-21066,-63.064905000108176,-24.766327764622158,-59.289574630146035,2.311603683768752
-6.17787355125,-98.84597682,16.756663005449337,-0.6982260812499996,6.25e-07,3.001364778984398e-08,0.0,127,16,242.68261338478482,2448.9341544,mp-607111,AlPt3,https://materialsproject.org/materials/mp-607111,-60.36174292838288,-38.764208096843426,-61.035980521724284,-28.377849327583732
-7.820351576842105,-148.58667996,7.53066941374337,0.0045305289473680285,34.751180100000006,1.5276101938979154,0.0,160,19,265.1150833020374,1202.3168386,mp-1219949,Pr2AlFe16,https://materialsproject.org/materials/mp-1219949,-52.75740213926841,-23.74366071466879,-56.03250165252592,-11.378065301363328
-6.841446993333334,-20.52434098,8.648905773739044,-0.13883517000000012,0.006895699999999999,0.0017352200159422874,0.0,139,3,46.31282126405157,241.22,mp-10201,Ge2Mo,https://materialsproject.org/materials/mp-10201,-76.79237188825317,-22.95568467013719,-66.01263186685614,-10.939352397352982
-11.499300179166667,-137.99160215,15.081014077441626,0.22681504250000015,6.70324985,0.3382515811545778,0.0,194,12,230.95267632422645,2097.512,mp-1101994,EuRe2,https://materialsproject.org/materials/mp-1101994,-67.51322306245915,-6.46761705037064,-63.897947027169636,2.7466723741702306
-9.493916548125,-151.90266477,7.283686687662621,-0.9866569952674986,1.955e-05,1.1340314455197023e-06,0.0,194,16,200.90886121692085,881.2543172000002,mp-1188915,Nb4AlN3,https://materialsproject.org/materials/mp-1188915,-43.235711077820206,-22.17530525948719,-51.703880746443,-17.295320670540832
-7.484471128636364,-329.31672966,8.234709111970242,-0.08935938572090989,37.5320519,0.8458169561313801,0.0,194,44,517.1343051459597,2564.49892,mp-1212422,Ho2Fe17H3,https://materialsproject.org/materials/mp-1212422,-53.68487115276233,-22.60610437839366,-55.933323440312435,-9.865605262329144
-6.334047430769231,-82.3426166,5.589178445955781,-0.3316408342307693,10.8174037,0.6652261245279223,0.0,71,13,189.50957988937992,637.8668815999998,mp-1219887,Pr(AlFe)6,https://materialsproject.org/materials/mp-1219887,-47.17359457515247,-23.55023256142665,-46.484224404943035,-24.83259382229937
-8.293391639166666,-199.04139934,6.31588263274295,-0.4498753972916667,6.7925e-05,2.1837337397554e-06,0.034399999999999764,213,24,362.49948208648584,1378.7716687999996,mp-1190604,Nb3Al2C,https://materialsproject.org/materials/mp-1190604,-73.75774911909895,1.595283790277818,-67.86661168482091,9.760803825736302
-5.6544637911111115,-101.78034824,8.1137985781716,-0.2738543441666665,2.8669596,0.12867762112509706,0.0,160,18,259.65457386121403,1268.73555,mp-1219896,Pr3MgNi14,https://materialsproject.org/materials/mp-1219896,-63.141045455888396,-16.719220019102767,-70.69818390016762,-7.394455606970903
-6.078066295625,-97.24906073,4.896987782361839,-1.8357899093750003,11.9999995,0.9470173276079558,0.0,12,16,147.67287500105618,435.49248,mp-756385,Li3V(CoO2)4,https://materialsproject.org/materials/mp-756385,-6.943516160620037,-62.55978179988934,-24.91503869986178,-63.07843429694511
-10.720814518333334,-64.32488711,11.274804859141529,-0.1611765416666676,5e-08,5.341233671241749e-09,0.0,227,6,109.09525298722151,740.74,mp-2363,HfMo2,https://materialsproject.org/materials/mp-2363,-71.6477941051153,-9.993965829264038,-74.64192318932247,-8.921000614247337
-5.8231035675,-23.29241427,9.65431922204416,-0.9203002474999992,5.5e-07,7.022167820399275e-08,0.0,63,4,91.27858787834238,530.6907,mp-999124,TbPd,https://materialsproject.org/materials/mp-999124,-51.0439584981762,5.689568192580823,-40.58076975539064,20.99333852631027
-6.075675138333334,-72.90810166,6.445562738723155,-1.799472008854167,0.0008323,3.657553147507761e-05,0.08270000000000087,62,12,265.19582133237753,1029.3864,mp-557569,SmAsS,https://materialsproject.org/materials/mp-557569,-37.50245360120443,-1.4681400757961722,-26.349863006074877,11.745141082672095
-4.9032110375,-78.45137659999999,12.290555006411646,-0.27882034500000064,2.5e-07,9.345810100190229e-09,0.0,5,16,311.7457087086137,2307.4,mp-1188663,Pd5Pb3,https://materialsproject.org/materials/mp-1188663,-56.10178728974717,-8.798944564562136,-50.452440482085066,-17.418325353588358
-4.4111322075,-35.28905766,7.228113390495116,0.0157855819642867,0.0,0.0,0.0,164,8,101.82324560876356,443.223524,mp-7540,Cu3P,https://materialsproject.org/materials/mp-7540,-52.44726796023823,-52.227406945017044,-54.09138079262911,-25.543178604677554
-6.739619013333333,-80.87542816,8.328992060905982,-0.018892311041666925,13.8220297,0.9239360891335184,0.0,47,12,174.344125428751,874.4816,mp-1219752,PrNdCo10,https://materialsproject.org/materials/mp-1219752,-51.80302935247065,-16.142986417350485,-54.47513031456643,-15.014626693482564
-8.3391233625,-333.5649345,7.1817270080420075,-0.040255028937501436,38.02098095,0.8411150015745753,0.0,38,40,526.7995147846284,2278.3748,mp-1216410,Y2Fe17C,https://materialsproject.org/materials/mp-1216410,-57.09487770980758,-25.567534890960516,-59.864060262312286,-11.979166966373873
-7.790683208571429,-163.60434738,8.082158707800101,-0.7267361888095238,1.1313263999999998,0.052392567079692816,0.0,174,21,251.6492678141183,1224.824754,mp-1190707,Tm2Fe12P7,https://materialsproject.org/materials/mp-1190707,-64.31038380614996,-29.70194334846663,-65.13875894657535,-15.916340533773866
-6.184007421111112,-55.65606679,7.700252930429183,-0.485648824444444,2e-07,1.6056855745617457e-08,0.0,189,9,145.15998595479115,673.1360000000001,mp-15985,Zr3(Cu2Ge)2,https://materialsproject.org/materials/mp-15985,-50.61136906150283,-12.383864660508545,-59.12965571552965,-8.213159204434062
-5.846299476666666,-70.15559372,7.932919054444867,-0.3791665962500008,0.4983794,0.03330881602742166,0.0,65,12,174.3726286796819,833.0330786000001,mp-568040,La2AlNi9,https://materialsproject.org/materials/mp-568040,-51.438261413266886,-16.652092744762307,-53.80088204303107,-14.793835989692168
-8.611098733333334,-439.16603539999994,6.893609682839857,-0.4841575400140049,15.5411656,0.2864979946560988,0.0,174,51,632.1780742684896,2624.442298,mp-21819,U2Cr30P19,https://materialsproject.org/materials/mp-21819,-63.27623654872768,-28.774166527316623,-62.45385096078204,-15.965520446985426
-5.557100005,-44.45680004,4.089562012818257,-0.6553500312499994,0.0,0.0,0.0,63,8,127.99489267258387,315.2247784,mp-12781,ScAl2Ni,https://materialsproject.org/materials/mp-12781,-44.51993756377306,-11.772175648775265,-53.491422428499106,-8.26931152342672
-7.713434628965517,-223.68960424,8.606807749848354,-0.0510631320689656,51.5037466,1.3769222248782755,0.0,225,29,435.92004549055997,2259.435,mp-1194186,Dy6Fe23,https://materialsproject.org/materials/mp-1194186,-56.73806242930955,-17.331817961807705,-50.68480128580335,-14.817601287441509
-8.282537384444447,-74.54283646,8.207674867885064,-0.3174925061111114,1.3762223,0.11984996210501205,0.0,189,9,133.82218520509952,661.4532750000002,mp-9951,MnNbGe,https://materialsproject.org/materials/mp-9951,-50.57365432977587,-9.625644557367352,-69.56885021448409,-14.923182801297527
-5.71559278,-45.72474224,8.517244135257451,-0.19528482187500007,0.27367195,0.025475000377839674,0.0,194,8,125.19688260759052,642.1604,mp-863718,PmNi3,https://materialsproject.org/materials/mp-863718,-46.58087904450464,-36.16671769412108,-54.95258833256243,-28.824997027881984
-7.886215426875,-126.17944683,6.259941790692795,-0.8689021700000001,0.00806615,0.00037240470286565447,0.0,63,16,252.42279123175902,951.58978,mp-1188741,Zr3Co2Si3,https://materialsproject.org/materials/mp-1188741,-51.87479423439697,-8.820476555277807,-57.414817504640496,1.1075708404865223
-4.9434829944444445,-44.49134695,7.862670465268607,-0.39119500666666657,1.9e-06,1.257291429572272e-07,0.0,38,9,176.11448346065896,833.904,mp-1080743,Er2CuGe6,https://materialsproject.org/materials/mp-1080743,-46.01937240346364,13.435753363698154,-42.45103652709036,29.215202304727136
-8.069882908684214,-306.65555053,8.196244448242732,-0.01577698289473891,39.3576609,0.8882775545091395,0.0,194,38,516.366452238573,2548.73,mp-1196404,Dy2Fe17,https://materialsproject.org/materials/mp-1196404,-54.09412130676567,-22.667996085274858,-54.91562441935861,-9.490319911452003
-5.793603868333333,-34.76162321,9.272419413188157,-0.10916564416666692,3.8335702000000005,0.5321290024449792,0.0,191,6,83.95835448862623,468.821905,mp-1018723,HoCo3Cu2,https://materialsproject.org/materials/mp-1018723,-52.90976443673499,-17.67934104389471,-53.94147571886293,-16.656537410661727
-4.6952502350000005,-28.17150141,9.220042970582153,-0.2363356775000002,3.98e-05,5.390030116634796e-06,0.0,187,6,86.05365237503794,477.80772,mp-1223765,HoCu4Ni,https://materialsproject.org/materials/mp-1223765,-51.302447430213874,-16.965366408359788,-53.58774711391989,-16.942821880801525
-7.273525681724138,-210.93224477,8.547443448108076,-0.4664820736206899,0.00046369999999999994,1.391688632163285e-05,0.0,225,29,388.3045179894728,1998.75512,mp-672654,Zr6Co16Ge7,https://materialsproject.org/materials/mp-672654,-60.04595133873495,-32.94691516581029,-69.05059769224758,-13.922841616617696
-8.85207297,-35.40829188,5.407232945270481,-2.790301697708335,8.5e-07,2.525340303233321e-07,0.0,194,4,39.22621851792665,127.7328,mp-754333,TiO,https://materialsproject.org/materials/mp-754333,-47.03411839080781,-32.23541663022536,-54.65417049514148,-32.490587392063595
-9.065728461785714,-253.84039693,6.3338009401909625,-0.19349196446428607,3.75e-07,9.503581315250584e-09,0.0,227,28,459.8555160144545,1754.0288,mp-505573,Zr3V3C,https://materialsproject.org/materials/mp-505573,-69.28889851435659,-3.3501349150220414,-65.14000073861374,4.435691986619042
-8.340073155499999,-166.80146311,7.202252264478245,-0.041204821937500934,37.720616299999996,1.673710238798174,0.0,12,20,262.6491105991737,1139.1874,mp-1216258,Y2Fe17C,https://materialsproject.org/materials/mp-1216258,-53.684804565416314,-25.349383819276863,-53.00931499119242,-11.51504949720951
-4.067991499259258,-109.83577048,8.10600590627906,-0.008652484814814128,0.0,0.0,0.0,5,27,487.08085417751664,2377.71,mp-568524,Cu5Sn4,https://materialsproject.org/materials/mp-568524,-52.81921698280314,-21.19210582859164,-47.56405040310817,-23.07207834895545
-5.602191422857143,-39.21533996,2.9674042282549067,0.493356214821429,0.0,0.0,0.0,1,7,80.55805113617197,143.9582544,mp-743752,Al4C3,https://materialsproject.org/materials/mp-743752,-50.32026066515184,-20.695348321949112,-45.47553865365527,-13.356942201529524
-4.6629488619696975,-307.75462489,11.901626678337195,-0.20791715060606075,0.0017842,1.683821197875439e-05,0.0,152,66,1234.8806627115034,8850.7938,mp-1215074,Ag3Pd13Pb6,https://materialsproject.org/materials/mp-1215074,-54.21705348562225,-29.797312231216477,-53.969670156086245,-32.1622219639627
-5.33130626,-53.3130626,6.324095032985245,-0.5223085751719999,7e-07,1.0157111470395551e-07,0.0,63,10,80.31658768902035,305.88244,mp-29658,ZrNiH3,https://materialsproject.org/materials/mp-29658,-34.39784514978786,13.767846131710767,-43.46163647848633,22.92852783986985
-6.414006953333334,-38.48404172,8.282389867334317,-0.1118257012500005,4.7989082000000005,0.6440898165825842,0.0,191,6,86.83072695839928,433.091855,mp-1211224,LaCo3Ni2,https://materialsproject.org/materials/mp-1211224,-51.108092981456174,-16.705937309728398,-54.310356662977455,-16.917738880040766
-7.012027000000002,-35.060134999999995,6.365245936354637,-0.8210931500000015,0.0,0.0,0.0,139,5,69.07518112855135,264.7818,mp-7707,Zr(SiNi)2,https://materialsproject.org/materials/mp-7707,-38.11065081873089,-16.706312459955086,-58.17951523122923,19.376488424434253
-8.179662356666666,-49.07797414,7.5087348955578515,-0.3135995788888894,3.6996114999999996,0.7957590739145711,0.0,140,6,54.18161535024532,245.002,mp-1915,Fe2B,https://materialsproject.org/materials/mp-1915,-65.23640298065737,-36.65268955540319,-75.81719797402901,-24.240735224842172
-3.492223165,-20.95333899,5.412600706027591,-0.5040032466666666,0.00145885,8.505840107930785e-05,0.0,164,6,199.8806958244677,651.52,mp-1228005,BaGaSn,https://materialsproject.org/materials/mp-1228005,-0.3868560904161204,-16.186850292721903,-1.0491676707249276,-30.394224624578108
-8.6393116075,-34.55724643,8.15790379475646,-0.38685290625000057,1.9970629,0.4783473362264253,0.0,216,4,48.654813414617244,239.03159,mp-999576,Mn2SiRu,https://materialsproject.org/materials/mp-999576,-48.80935812819196,-50.90743081733494,-61.99233789579478,-40.65909143423646
-5.361084324545455,-471.77542056,3.4121291858741216,-1.6229725969196969,9.7625e-05,4.854112913395825e-07,0.9209,51,88,2343.843445176909,4816.205120000001,mp-651907,Nb6InCl15,https://materialsproject.org/materials/mp-651907,34.87947197844477,-50.09765542940672,2.1701125743224767,-54.92435576055216
-6.252127675192307,-325.11063911,3.3137328485620747,-1.3733591256453848,0.999998575,0.01619289887653966,0.0,14,52,719.7011637244167,1436.2188,mp-1203212,Yb(NO3)3,https://materialsproject.org/materials/mp-1203212,40.134282793286026,-32.0682119449934,12.499615621815135,-55.98810882651891
-8.148585052,-122.22877578,6.303396593100473,-0.557351134,14.08813,0.7615280830117743,0.0,164,15,215.59806290387698,818.409,mp-1224923,Gd2Fe5Si8,https://materialsproject.org/materials/mp-1224923,-32.19320023975225,-1.6848477326224829,-56.36410559054836,3.3574627386035965
-7.470973199444443,-268.95503518,9.56113428816642,-0.6076458502777776,0.0017579,5.1834379498269065e-05,0.0,55,36,395.2334466426246,2275.6948,mp-1198929,Tb2ReB6,https://materialsproject.org/materials/mp-1198929,-35.642674667314594,-10.382128219381396,-37.71619002161849,-12.245935141661244
-5.236297426666667,-62.83556912,7.218356026249125,-0.2839600608333335,0.0003015,1.3685622267400987e-05,0.0,62,12,256.74393610119915,1116.0647800000004,mp-623295,SmGaCo,https://materialsproject.org/materials/mp-623295,-35.45052462611793,-9.152177688702723,5.6448149112732535,-0.9869968776569252
-3.10732432875,-24.85859463,13.891146500583597,-0.12748373999999973,1e-07,9.322398062464375e-09,0.0,10,8,125.01144763903099,1045.776276,mp-1215564,ZnCuAu2,https://materialsproject.org/materials/mp-1215564,-57.99712143006165,-28.00708590635932,-50.550880222608086,-25.444991059185696
-6.962309742916666,-167.09543383,8.995109159265885,-0.2866229450000001,0.00158765,5.447777630586923e-05,0.0,194,24,339.6353006824362,1839.79812,mp-1191126,Ce3Co8Si,https://materialsproject.org/materials/mp-1191126,-62.58638107157231,-15.429332813786955,-53.442549589717615,0.9462157462394974
-5.22899081,-31.37394486,4.76782289146154,-2.041810956354167,0.0,0.0,2.7208,59,6,225.61586643916974,647.79958,mp-1018731,HoSI,https://materialsproject.org/materials/mp-1018731,-4.759308049195513,-19.493871327494464,3.7877577219001073,-22.469650755778613
-8.177467882857142,-171.72682554,7.5822710437289045,-0.7138532116666657,16.2839772,0.7138228450773622,0.0,174,21,265.8566146382132,1213.9412940000002,mp-1190589,Tm2Mn12P7,https://materialsproject.org/materials/mp-1190589,-62.94228274791807,-29.560226960866828,-65.05326941837525,-17.494559822849965
-6.538520345833334,-78.46224415,8.020093494779081,-0.11984888208333425,9.8476104,0.677464338705406,0.0,47,12,169.40329239446163,818.1862699999998,mp-1219786,PrY(Co3Ni2)2,https://materialsproject.org/materials/mp-1219786,-52.62633322763653,-16.865740426855982,-54.68804055114494,-15.092140864220747
-8.088773782777778,-291.19585618,9.74792004550072,-0.5047336579629634,2.075e-05,5.756980576768768e-07,0.0,142,36,420.04978270456735,2465.83284,mp-1197448,Tm(BRu)4,https://materialsproject.org/materials/mp-1197448,-58.180964356118295,-12.019335962092972,-57.89382504736218,-1.382343667673244
-6.740445123214286,-943.66231725,3.677822680888169,-0.0432291284999995,8e-05,3.150107904800973e-07,0.0,200,140,2959.66109727178,6555.165792,mp-30702,Sc29Fe6,https://materialsproject.org/materials/mp-30702,-53.73032898695232,3.1485959358413513,-40.7488242253804,15.003007317914305
-7.647286578684211,-290.59688999,7.9117811724327325,-0.08915198868421133,29.22091385,0.6668144424658559,0.0,194,38,510.70043033557124,2433.2761544,mp-1196052,Dy2Al2Fe15,https://materialsproject.org/materials/mp-1196052,-54.57381050199149,-22.67807581713567,-54.70775928666377,-9.681322115511627
-8.5383166875,-68.3065335,4.6348796673675885,-1.417279981536459,0.0,0.0,0.0,194,8,100.17928476341416,279.6194,mp-3732,Ti2CS,https://materialsproject.org/materials/mp-3732,-37.70596153890998,-56.18089791185519,-50.15563794939063,-43.93938365599537