energy_per_atom,energy,density,formation_energy_per_atom,total_magnetization_uB,total_magnetization_T,band_gap,sgr,num_sites,cell_volume,weight,mp_id,formula,URL,tsne_xrd_lin1_0,tsne_xrd_lin1_1,tsne_xrd_lin2_0,tsne_xrd_lin2_1
-4.972784873,-49.72784873,7.259012265109121,-0.257831831,6.999294,0.36187314936545295,0.0,12,10,225.4111027060791,985.38,mp-1224764,GdCu5Te4,https://materialsproject.org/materials/mp-1224764,-51.17779501340638,4.579219214847162,7.88305183751151,-0.5373624061916216
-5.029635763636363,-110.6519868,2.972579943669029,-1.089694749725455,0.0,0.0,2.4593,15,22,209.64757979196003,375.29632,mp-625812,Sr(H2O3)2,https://materialsproject.org/materials/mp-625812,13.924500969480667,-4.0271410966986005,3.623978256975846,-0.0945290641888424
-8.888509785,-71.10807828,5.394854986199579,-0.6900901327232134,0.0,0.0,0.0,194,8,89.18055328348251,289.73492400000003,mp-8044,V2PC,https://materialsproject.org/materials/mp-8044,-36.95540859130181,-41.32282653165176,-60.18866984243221,-51.66925039299368
-8.6680341975,-34.67213679,7.683792492308577,-0.05335971000000049,5.7829553,1.4274111027540974,0.0,65,4,47.21480413945443,218.4765,mp-1216352,VFe3,https://materialsproject.org/materials/mp-1216352,-50.52325798382517,-52.067057800514476,-70.70219581353317,-44.12504800426404
-6.097789825,-36.58673895,7.836469145021715,-0.5472167154166669,4.54e-05,6.133414873128479e-06,0.0,65,6,86.26426739731274,407.1011,mp-1070857,NdSiNi4,https://materialsproject.org/materials/mp-1070857,-54.11841199425911,-15.707050399155367,-54.33350485998343,-5.011693269956968
-6.76602527,-40.59615162,14.431597862987434,-1.0859421591666667,1.5e-07,1.4357804463677329e-08,0.0,227,6,121.75327504329498,1058.14694,mp-912,LaPt2,https://materialsproject.org/materials/mp-912,-74.12940759022194,-4.930001639147203,-69.90035759692411,10.915280013788113
-5.402382594615385,-70.23097373,4.809648973830893,-1.0925267703846164,13.9999995,1.1012192580845728,0.0,166,13,148.16023220715687,429.13698,mvc-15438,Zn(CoO2)4,https://materialsproject.org/materials/mvc-15438,-6.417190712297433,-62.78335315628871,-25.967608691364426,-63.55160652339215
-5.163526673333333,-185.88696024,2.5167095690095325,-0.8861159948412699,0.00056125,8.252820485644432e-06,0.8744000000000005,14,36,792.5586004174884,1201.200192,mp-1194866,Ca3(SiP2)2,https://materialsproject.org/materials/mp-1194866,-21.72012267429349,32.26120492492906,-43.457902844394624,29.36462149507073
-7.450535542000001,-111.75803313,5.058209131080994,-1.4835677000333345,1.66e-05,6.908048358211086e-07,0.0,147,15,280.0464982190553,853.0565799999998,mp-1223960,K(Nb3S4)2,https://materialsproject.org/materials/mp-1223960,-39.31559867014673,-15.023118551172635,-41.298417169837656,-11.198149952144034
-5.360545495,-107.21090990000002,4.030084983440932,-1.6277472363749999,6.59797395,0.4266791161254219,0.0,12,20,180.21321614990603,437.37278,mp-1174281,Li3Co2O5,https://materialsproject.org/materials/mp-1174281,3.858204272339768,-72.20724434703494,-23.406723961876892,-72.95102715823684
-7.063273103367348,-692.20076413,5.838672408970117,-0.6786885933406283,0.96727605,0.004408589266370389,0.0,176,98,2556.9852527737407,8990.694519,mp-581739,Cs5Mo21Se23,https://materialsproject.org/materials/mp-581739,32.75424964319502,-52.64797017578162,-1.2314098462364758,-55.19623813430126
-8.173244541666667,-49.03946725,7.1071531135756905,-0.04548812500000091,9.839768199999998,1.3332348670926517,0.0,191,6,86.01132387111807,368.13085,mp-11385,YFe5,https://materialsproject.org/materials/mp-11385,-52.504272521861594,-16.33933408198104,-55.276024732345526,-15.821910663910904
-7.2240576416666675,-86.6886917,4.929618738006731,-0.9357567958854176,0.00186955,6.444543171466469e-05,1.4354,156,12,338.08225371203616,1003.66,mp-1027127,MoW(SeS)2,https://materialsproject.org/materials/mp-1027127,-7.359857046584111,-82.01884690372141,-21.89845390813281,-50.77985293581857
-6.427519534500001,-128.55039069,7.236620006630485,-0.40699433383333455,0.0,0.0,0.0,136,20,300.99973724297155,1311.7551999999996,mp-20339,Ti2InNi2,https://materialsproject.org/materials/mp-20339,-58.692001136279316,-24.08904496322365,-64.55500305504505,-15.530236132671499
-7.7549576500000015,-23.26487295,8.889337234614164,0.4769983733333329,1.2077133,0.2905105071416134,0.0,216,3,48.4483992106381,259.358045,mp-631342,MnTcPd,https://materialsproject.org/materials/mp-631342,-36.979510902106036,-28.636437576389675,-62.18978276509422,-41.39281435195478
-10.227971546666668,-30.68391464,9.340611262226588,-0.33558544412666674,3.16e-05,1.0061492897014523e-05,0.0,166,3,36.60176979523188,205.8867,mp-1221525,Mo2N,https://materialsproject.org/materials/mp-1221525,-46.148413780917075,-44.655752866754064,-58.987160830795354,-29.215195643396605
-7.080958632222222,-254.91451076,8.299003791205934,-0.8824934076587306,7.4423056,0.189617091338162,0.0,189,36,457.41188680562783,2286.042599,mp-1217664,Tb5Co19P12,https://materialsproject.org/materials/mp-1217664,-63.99310281257025,-29.187570339892172,-65.63616221919546,-16.853134281208643
-6.318274764375,-101.09239623,4.638460136617452,-1.9482146350600005,21.9999987,1.6767117020715243,0.1341000000000001,12,16,152.91204178349088,427.13624500000003,mp-756386,Li3Mn(FeO2)4,https://materialsproject.org/materials/mp-756386,-6.387987397374685,-61.66372935245634,-23.85092586299047,-63.80079749488307
-5.942857895384615,-77.25715264,6.110048368257256,-0.5943820676923082,3e-06,1.5497615169699476e-07,0.0,87,13,225.59725438295968,830.0980000000002,mp-1207383,Zr5(ZnSi)4,https://materialsproject.org/materials/mp-1207383,-69.37973424501413,-3.142511066744384,-49.41383585800027,11.699715193294306
-6.59677378,-26.38709512,6.959687301494207,-0.6287188250000009,7.6e-06,1.734947495097116e-06,0.0,123,4,51.05105054864832,213.96627220000002,mp-1228908,Al2CoRu,https://materialsproject.org/materials/mp-1228908,-38.715857691425384,-31.46528537027107,-62.030201582394206,-42.28816324571163
-5.787202015625,-92.59523225,5.21558522269422,-1.7806142300000003,4.0,0.3072770525514148,2.0064,12,16,151.7075834435725,476.49818,mp-754319,Li3Nb(NiO2)4,https://materialsproject.org/materials/mp-754319,-6.349195425114832,-62.00616381989341,-23.439645102425185,-64.48437166656274
-7.086892624375,-113.39028199,3.791673923776975,-2.5671853650000003,4.000000675,0.2144778556344776,1.5713,11,16,217.34769223065132,496.2916,mvc-2945,CaCrO2,https://materialsproject.org/materials/mvc-2945,-24.916850490551724,30.511483429601412,-25.872119637411622,1.6718000907849282
-6.419020160789473,-243.92276611,7.670769804252843,-0.4012923264473688,0.0,0.0,0.0,36,38,393.16071391457876,1816.1845399999997,mp-14325,La(Ni2B)6,https://materialsproject.org/materials/mp-14325,-69.47745906086317,-26.10402934952864,-43.936473858207904,0.1529282258771326
-7.223847981666666,-86.68617578,4.9307302792043295,-0.9355471358854168,0.000762,2.6272895517443452e-05,1.3643999999999998,156,12,338.0060393721924,1003.66,mp-1030524,MoW(SeS)2,https://materialsproject.org/materials/mp-1030524,-7.371084308351501,-82.02278565991715,-21.918250077079,-50.798381435090725
-7.40054748625,-118.40875978,6.7462340104042555,-0.5146390954166664,5e-08,2.0207364028223517e-09,0.0,140,16,288.36182582454893,1171.521,mp-16687,Ti5Sb2Rh,https://materialsproject.org/materials/mp-16687,-49.278402345277996,-7.2070025632173556,-40.43812072005922,-10.116415947842109
-4.728223531666667,-28.36934119,4.14567256589101,-2.32020651134,0.30120775,0.019803629656829497,0.0,136,6,177.2551138011412,442.532,mp-867134,SmCl2,https://materialsproject.org/materials/mp-867134,-11.517599019732176,-5.112565551288781,-2.7365978888642792,-50.81376123011704
-7.446723595000001,-44.68034157,7.9193448616091535,-0.05590330579333388,0.00033375,7.033195486056644e-05,0.0,58,6,55.3026590196852,263.74618,mp-22631,Co2N,https://materialsproject.org/materials/mp-22631,-57.45856560737127,-46.519998517982216,-64.4409450130221,-33.155249104829025
-7.983733895,-15.96746779,8.440175683266599,-0.6380657525000011,0.0,0.0,0.0,221,2,25.410341920479368,129.1555,mp-381,SiRu,https://materialsproject.org/materials/mp-381,-36.360403039138944,-30.152496657593236,-61.96256244849754,-42.37527785997345
-7.852746212307693,-102.08570076,7.2364534393861994,0.6433149723076923,9.1743454,0.4803641683170183,0.0,166,13,222.57783279720772,969.970645,mp-622633,Nb6Co7,https://materialsproject.org/materials/mp-622633,-57.72639529108046,-22.030995661111625,-52.464357335933926,-1.6117820735514656
-6.543551772727272,-143.958139,6.8153196404529295,-0.21368129181818252,0.00018519999999999998,6.7697484020895625e-06,0.0,194,22,318.8202378705625,1308.528,mp-571557,V6Ga5,https://materialsproject.org/materials/mp-571557,-54.32229623437187,-23.44844828464724,-62.36522023944066,-19.14176535286525
-4.91062433,-68.74874062,4.523874221148987,-1.3912871083928582,5.05e-06,1.9175883912727288e-07,0.0,66,14,306.9116780706256,836.1320000000002,mp-1104219,Sm(GaS2)2,https://materialsproject.org/materials/mp-1104219,-5.0944540834377525,-2.684297139145114,-1.8763582208603784,-11.379517830435336
-7.735121296315789,-146.96730463,7.439713331978424,-0.056512420000000486,30.098544800000003,1.360734386106859,0.0,166,19,257.7802062183233,1154.9326999999996,mp-1188725,Y2Ga2Fe15,https://materialsproject.org/materials/mp-1188725,-55.10824226539218,-25.12715993995452,-59.77883095922761,-12.187453996637522
-7.2088823125,-28.83552925,8.33114624119151,-0.2283972562500001,2.9973186000000003,0.7258428268044469,0.0,225,4,48.12466806647779,241.44789,mp-865465,VCo2Ge,https://materialsproject.org/materials/mp-865465,-49.88896822511557,-51.59178504757421,-69.42644344652534,-44.29664173455583
-5.40040492875,-129.60971829,2.467418961998628,-1.0959642444791662,3.875e-07,2.8143896748198187e-09,0.7516000000000003,48,24,1604.5930454374618,2384.288,mp-1080364,CeSe2,https://materialsproject.org/materials/mp-1080364,43.51922795018113,-26.926641184920435,13.011269903037784,-58.60118147317649
-5.857676632857142,-1312.11956576,3.752368313235235,-4.066975602992857,0.0,0.0,7.1404000000000005,88,224,2968.0521815991838,6706.993747199999,mp-1200608,SrAlF5,https://materialsproject.org/materials/mp-1200608,11.07567235601364,-11.126577746244823,14.377026267362275,-9.330859587502903
-7.0603364525,-84.72403743,4.490507331808284,-0.9468091950520842,0.0010515000000000001,3.618689781566288e-05,1.395,156,12,338.6377348721634,915.76,mp-1027473,Mo3W(SeS)4,https://materialsproject.org/materials/mp-1027473,-7.4491484422946845,-81.92597778108535,-22.010903580816315,-50.768873093637744
-5.428982928333332,-32.57389757,7.8957975973695875,-0.3689333733333336,6.6e-06,9.326669084853962e-07,0.0,216,6,82.46977221889753,392.140512,mp-1077397,ScCdNi4,https://materialsproject.org/materials/mp-1077397,-76.20553935984823,-22.05882104672471,-69.89873729167786,-7.6392132864069415
-6.939951380499999,-138.79902761,4.525885541310808,-1.4264187634375003,4.4e-06,1.1847745670251749e-07,0.0,193,20,432.80710462932365,1179.6382800000001,mp-9407,Nb3SnS6,https://materialsproject.org/materials/mp-9407,0.9510289328828798,-51.55421064285693,-26.899676675003004,-45.27141919057237
-5.043462598666666,-151.30387796,2.484867523024501,-2.7021888083906664,0.0001356,1.489106295261125e-06,3.7245,51,30,1061.234639990545,1588.0551,mp-769003,BaY3Cl11,https://materialsproject.org/materials/mp-769003,39.16853473947375,-26.806735078063177,9.757077477419948,-47.47141551980661
-9.126825648333334,-54.76095389,6.031842242071265,-2.1227437743750017,6.9995064,0.6692329994810494,0.0,129,6,121.88983661116669,442.76,mp-1018706,GdS2,https://materialsproject.org/materials/mp-1018706,-4.627262213463128,-23.20358444461717,1.063984166296133,-19.993773077506575
-5.18341031,-77.75115465,8.650975567326544,-0.5863123580000007,0.08964116666666666,0.0038668262987875523,0.0,221,15,270.1657333169359,1407.49305,mp-1104461,TbGa3Ru,https://materialsproject.org/materials/mp-1104461,-39.99271253808301,-59.334653436636955,-56.581085992596684,-33.387641112226035
-8.80622508625,-211.34940207,12.806756433886992,-0.4440258962499992,1.02875e-05,2.4942002519148085e-07,0.0,227,24,480.6798943094759,3707.2,mp-1190654,Hf2Pd,https://materialsproject.org/materials/mp-1190654,-70.34337737558079,-3.009813455900918,-65.18846055998937,5.831297899028687
-3.8556349733333337,-11.56690492,7.071010759482533,0.04039301046874992,0.0,0.0,0.0,216,3,48.38875259965233,206.05200000000002,mp-22297,Cu2Se,https://materialsproject.org/materials/mp-22297,-50.64988581160429,-50.71507990585915,-61.35801439492225,-40.50421344244752
-3.101528263333333,-9.30458479,6.44253187806819,0.04088686666666656,3.4433333333333335e-05,4.067167428415213e-06,0.0,12,3,98.66530062131449,382.8,mp-570459,Te,https://materialsproject.org/materials/mp-570459,-21.917425397949824,-36.08771019283714,-7.113772099802081,-27.375851494862733
-9.535383895,-38.14153558,6.103156691944915,-0.8801705011900012,1.1074371,0.3622372486733173,0.0,166,4,35.62898001849345,130.951,mp-1216389,VCrN2,https://materialsproject.org/materials/mp-1216389,-46.26548699894642,-44.791156180962155,-65.63111506106996,-22.644097420948963
-6.404516761842107,-243.37163695,7.719591381730187,-0.3952887148684216,2.8e-06,8.303782872499251e-08,0.0,36,38,392.97006995735467,1826.8576,mp-1202698,Nd(Ni2B)6,https://materialsproject.org/materials/mp-1202698,-69.47649209599291,-26.086031088366838,-43.91720672894647,0.12340742234932753
-4.9578414225,-79.32546276,2.9028549698140718,-1.3303219811145834,5.7999999999999995e-06,1.4508103685235774e-07,2.1653,70,16,465.9022098775946,814.46236,mp-15214,K2NbAgS4,https://materialsproject.org/materials/mp-15214,27.416167910969616,-37.67443311293415,-1.3632370363451192,-50.38832480853732
-4.8393550324999985,-58.07226039,4.4850641160420635,-0.603657181875,1.325e-06,8.489297718179858e-08,0.0,60,12,181.8953267544532,491.2936,mp-850068,NiS2,https://materialsproject.org/materials/mp-850068,4.636033579709856,18.7300741101666,-5.9865765847941175,-12.33057382979934
-8.447912721111111,-76.03121449,10.357442020453217,-0.5358382961111106,2.495871466666667,0.19758948068597165,0.0,189,9,147.20949534122644,918.2041350000003,mp-1080769,HfMnGe,https://materialsproject.org/materials/mp-1080769,-50.00249081502521,-11.96809976372439,-57.40221750531196,3.15551667444796
-6.12770136,-12.25540272,7.685169919434522,-0.0327424049999987,2.0351945,0.8805559751854198,0.0,187,2,26.93558296820693,124.661045,mp-1221639,MnGa,https://materialsproject.org/materials/mp-1221639,-56.946128476789426,-47.54279091828992,-67.17105327118179,-35.65170022480909
-6.699078432777778,-120.58341179,9.451867923210113,-0.14075734833333325,8.67832185,0.3940951075905827,0.0,166,18,256.63278485073187,1460.76613,mp-1205432,Tb2Co7,https://materialsproject.org/materials/mp-1205432,-63.53217661883185,-16.549903036474873,-53.25404078231264,2.1748371872826686
-5.92749707875,-47.41997663,8.66011320569575,-0.9457095462499998,2.1000000000000002e-06,1.8909821128822886e-07,0.0,139,8,129.4223560109307,674.9689272,mp-1078938,YAl2Pd5,https://materialsproject.org/materials/mp-1078938,-48.68209856187209,-28.63063976146565,-69.93226750433813,-23.1424260890188
-3.804819153450704,-540.28431979,9.134784654034881,-0.140918014850352,4.5159403,0.020781586971766932,0.0,194,142,2532.48516760113,13931.444,mp-581595,Pu13Zn58,https://materialsproject.org/materials/mp-581595,-54.575027136605776,-3.2318540328327425,-34.26344234282839,5.749594651403017
-5.96992067,-23.87968268,11.781252892371386,-0.3845461783333333,0.8915075000000001,0.15053720821087174,0.0,51,4,69.01739625507696,489.667138,mp-998985,TiAu,https://materialsproject.org/materials/mp-998985,-49.63357315221619,-33.70238274706673,-58.28115497077131,-23.25735293367807
-7.45161570328125,-953.80681002,4.783027512507736,-1.09568707746885,0.0031341999999999997,1.283927709408659e-05,0.0,167,128,2844.877444617153,8194.4036,mp-1201941,Rb6Mo27S31,https://materialsproject.org/materials/mp-1201941,34.33632305414857,-52.478110903068846,-0.2977533659316261,-56.701355635999576
-9.45642141,-160.75916397,10.413152509543774,-0.9619927502573544,0.000927,3.5054669032416774e-05,0.0,189,17,308.18485361172515,1932.6109199999999,mp-615821,Ta9(FeS3)2,https://materialsproject.org/materials/mp-615821,-43.838546123005685,3.7276278732383545,-53.13140686568392,7.842757394827572
-5.419926949,-54.19926949,4.9027731350106585,-1.6891850055000002,0.0,0.0,1.5254000000000003,141,10,134.9144897561053,398.3376,mp-754501,Ca(CuO)2,https://materialsproject.org/materials/mp-754501,-41.52104287291855,-19.01621554488566,-45.15263823206086,-17.865993536566968
-3.2021272410000003,-96.06381723,8.168950161531326,-0.14036066399999972,0.00069035,1.7291389094356728e-05,0.0,40,30,465.2826659462714,2288.938,mp-1215721,Zn11SbRu3,https://materialsproject.org/materials/mp-1215721,-58.32863743685552,-32.070292454770644,-62.43095454668241,-20.82153110381168
-6.317420882857142,-132.66583854,7.966015227279626,-0.7736815497619061,2.78e-05,1.2472353956266086e-06,0.0,174,21,259.76090945878826,1246.137134,mp-864836,Dy2Ni12P7,https://materialsproject.org/materials/mp-864836,-63.40169984179275,-30.139440698500515,-65.85505440020121,-17.385152729992082
-8.847459019545457,-389.28819686,8.48452841595074,-0.10473107846590968,2.3971174,0.0545705485110546,0.0,194,44,511.9274445513541,2615.69457,mp-1208144,Tm2Mn17C3,https://materialsproject.org/materials/mp-1208144,-54.11053613376546,-22.652228176314743,-55.02325854198871,-10.145807067855133
-3.46587514,-27.72700112,14.952545176802024,0.15130151874999995,2.565e-05,2.021357569395156e-06,0.0,194,8,147.88415762857974,1331.642614,mp-984353,AsAu3,https://materialsproject.org/materials/mp-984353,-47.684484895770176,-31.917167758961053,-58.75397214073491,-28.599774228003305
-7.8186550075,-31.27462003,14.960406154027329,-0.3392620849999997,4.0417166,0.8335635377480463,0.0,225,4,56.50730258185425,509.095045,mp-865088,MnGaIr2,https://materialsproject.org/materials/mp-865088,-33.825390845532105,-40.211480895651796,-58.859682476017,-46.89577400844793
-7.528730321333332,-225.86190964,6.237438776283092,-0.8215779643333341,8.25e-06,2.2650429132138272e-07,0.0,139,30,424.47776072020486,1594.45456,mp-1194045,Zr4Co4Si7,https://materialsproject.org/materials/mp-1194045,-64.46438913069969,-18.892865343013337,-63.31112739274529,-16.387710079849327
-8.1806285575,-163.61257115,13.041084534499525,-1.0029877805000011,1e-07,3.0848445445337168e-09,0.0,87,20,377.78450759246397,2966.94,mp-30859,Zr9Pt11,https://materialsproject.org/materials/mp-30859,-76.02605003030851,2.597056967426321,-56.15347746024718,21.891670136977826
-6.323393352499999,-151.76144046,5.009687100529477,-1.7707619062351183,0.0002443375,5.265298629994638e-06,0.3266,62,24,540.8097909478316,1631.5712959999996,mp-1190998,PrPS,https://materialsproject.org/materials/mp-1190998,-0.22122727936320705,-23.512176147979112,11.225922087961457,-11.798346514727768
-8.297210774090908,-365.07727406,8.048953284876568,-0.08337289528409092,35.30553385,0.7609876481935033,0.0,194,44,540.6828603518607,2620.7942,mp-1213192,Dy2Fe17C3,https://materialsproject.org/materials/mp-1213192,-52.14240143311342,-22.783226361778745,-56.015731071693295,-10.637319996942427
-4.422364454444446,-159.20512036,5.1198248214594875,-0.8241485822222224,7.5e-08,7.098694771368212e-10,0.7570000000000001,14,36,1231.2895343343664,3796.3496,mp-17470,Ba3(SnAs2)2,https://materialsproject.org/materials/mp-17470,9.757809116061981,-17.832811991267857,-6.969677082086735,-30.232753124033106
-4.756026397,-95.12052794,12.603451583726091,-0.21395650400000008,0.0095888,0.00032360078963036707,0.0,123,20,345.32825590062697,2621.0332,mp-1216677,Tl4Pd15Pb,https://materialsproject.org/materials/mp-1216677,-47.836621365177834,-42.670299413012145,-79.2647966745567,-4.436290062086509
-6.9393162073333325,-104.08974311,4.145163529859127,-1.370717417133335,2.34e-05,1.1633546902135096e-06,0.0,147,15,234.41270145036114,585.15876928,mp-1221427,Na(V3S4)2,https://materialsproject.org/materials/mp-1221427,11.174279611611187,-55.274039112785246,-2.3440645659001813,-55.972548266171636