energy_per_atom,energy,density,formation_energy_per_atom,total_magnetization_uB,total_magnetization_T,band_gap,sgr,num_sites,cell_volume,weight,mp_id,formula,URL,tsne_xrd_lin1_0,tsne_xrd_lin1_1,tsne_xrd_lin2_0,tsne_xrd_lin2_1
-5.7772348384375,-184.87151483,4.195781115765853,-1.8418858750599991,17.9999998,0.7331190149726643,0.2603000000000004,1,32,286.1379384397543,723.001465,mp-1176023,Li9Mn2Co5O16,https://materialsproject.org/materials/mp-1176023,19.06854719149213,-83.4284592777579,-10.946814870225596,-88.77264065160358
-5.7918655040625,-185.33969613,4.244672633641653,-1.8565165406849988,15.999999800000003,0.6592548572801907,0.4075000000000002,1,32,282.8421087398866,723.001465,mp-1175888,Li9Mn2Co5O16,https://materialsproject.org/materials/mp-1175888,21.19906635565252,-79.22730122288462,-9.969237668867876,-87.5569518474233
-5.829730115714287,-163.23244324,4.200946065818694,-1.8892169208721432,6.9999999000000015,0.33014460021378844,0.4047999999999998,1,28,247.0991565201564,625.12847,mp-1174692,Li4MnCo2O7,https://materialsproject.org/materials/mp-1174692,19.69392195311994,-78.67321878331589,-10.217795344207902,-85.0620047053228
-5.6353209024,-281.76604512,4.603400394952807,-1.5637347899000005,7.9999984,0.2024639385843303,0.0,1,50,460.4894095505343,1276.5837350000004,mp-758732,Li9Co13O28,https://materialsproject.org/materials/mp-758732,25.344242187657073,-72.39615626683022,-5.317076235752613,-72.05502471497884
-6.086740235833332,-73.04088283,4.203395117487275,-1.908531937035,7.8810848,0.8010415768714633,0.0,12,12,114.65905814271305,290.24149,mp-757232,Li3Mn2CuO6,https://materialsproject.org/materials/mp-757232,5.814925891338017,-77.16676160693912,-30.08540797478016,-75.90035502029372
-5.614177545714287,-39.29924282,4.6734051177274285,-1.4305172464285707,3.0000001,0.5211581908345428,0.0,10,7,67.08557228487528,188.80499,mp-552024,Li(CoO2)2,https://materialsproject.org/materials/mp-552024,24.953206037751713,-72.93712451005847,-4.543552999223368,-71.52751649802292
-5.7948608784375,-185.43554811,4.264978911777615,-1.85951191506,16.0000002,0.6624087124635131,0.20429999999999995,2,32,281.49545014029223,723.001465,mp-1175391,Li9Mn2Co5O16,https://materialsproject.org/materials/mp-1175391,19.42103962416121,-82.8258367067303,-10.881988625608738,-88.72088123798035
-4.8476723036170215,-227.84059827,4.641444139872259,-1.3201671653191491,11.000001699999999,0.30766353585852263,0.0,12,47,416.67184234993766,1164.6574,mp-38676,Li11(NiO2)12,https://materialsproject.org/materials/mp-38676,22.059451593438272,-71.32184696163614,-8.160840144167617,-76.11487090680465
-7.2901071264285715,-102.06149977,3.745564191748825,-2.7382993492857146,2.99999995,0.2610969461310187,3.1286,74,14,133.90502743541003,302.0404,mp-753436,LiCrSiO4,https://materialsproject.org/materials/mp-753436,21.55446942962945,-70.90414732518778,-14.524460968361087,-71.58056469624157
-5.4901380378125,-175.68441721,4.271845084429303,-1.6949393724999997,21.7791625,0.893248967363889,0.0,10,32,284.1489660112917,730.991765,mp-1175463,Li9Co7O16,https://materialsproject.org/materials/mp-1175463,17.733133246214848,-76.75625258502131,-13.833228846029787,-80.94906496825836
-5.77547822625,-184.81530324,4.217631116753984,-1.840129262872499,15.9999995,0.6550549330388281,0.3127999999999997,10,32,284.6555626547279,723.001465,mp-1100694,Li9Mn2Co5O16,https://materialsproject.org/materials/mp-1100694,21.20460203525101,-80.15424214836004,-10.236546954873203,-87.82966983390905
-5.855467099583334,-140.53121039,4.144714366653234,-1.9080682627883343,12.0000001,0.6620382698655068,0.4965000000000002,2,24,211.23971951732202,527.2554749999998,mp-1174838,Li7Mn2(CoO4)3,https://materialsproject.org/materials/mp-1174838,22.69082607892248,-79.34746532057392,-9.871589623892467,-86.60404487903307
-5.52631540125,-176.84209284,4.417884355625338,-1.7311167359374997,12.3566088,0.5241185049240211,0.0,12,32,274.75602935495806,730.991765,mp-1175415,Li9Co7O16,https://materialsproject.org/materials/mp-1175415,22.185544934716,-71.23937471996814,-9.626923292783818,-75.68243371931136
-6.361104556875,-101.77767291,4.113043770574317,-2.041454319555001,14.0000005,1.064879499886929,0.4516999999999998,2,16,153.21631476631148,379.50653000000005,mp-1174279,Li4Mn3CoO8,https://materialsproject.org/materials/mp-1174279,5.809581048165128,-77.48459637160411,-29.94537235222523,-76.36937829496013
-5.7912983225,-185.32154632,4.245409868666442,-1.8559493591225,16.0,0.6593693680559536,0.4934000000000003,3,32,282.79299190181945,723.001465,mp-1176273,Li9Mn2Co5O16,https://materialsproject.org/materials/mp-1176273,21.94628463630969,-80.26088776883002,-9.700359466298599,-87.89726169207995
-4.912836922105264,-373.37560608,4.629594453477586,-1.2929319830263166,9.0007078,0.15189084048144946,0.0,6,76,690.593529982436,1925.3795899999998,mp-1176867,Li8CoNi9O20,https://materialsproject.org/materials/mp-1176867,21.237980859153048,-78.66212131644455,-4.145367728393499,-73.53920226430867
-6.0830412480357134,-340.65030989,4.5781298104776535,-1.72883026875,0.50000005,0.010835168710577351,0.0,5,56,537.788854482229,1482.69154,mp-762609,Li2CrCo3O8,https://materialsproject.org/materials/mp-762609,24.390022433743702,-68.92190874393555,-14.732492919369257,-72.09050886892086
-5.820832850714285,-162.98331982,4.195242071304187,-1.880319655872144,6.9999999000000015,0.3296963338092431,0.3724999999999996,1,28,247.43512097926853,625.12847,mp-1174611,Li4MnCo2O7,https://materialsproject.org/materials/mp-1174611,22.024227295788442,-80.18699780549525,-11.06242066091622,-86.6722356239009
-4.864117745,-58.36941294,4.67400100530454,-1.370352866875,1.0000000333333332,0.11199493302932677,0.0,12,12,104.05886093058164,292.8996,mp-866271,LiNiO2,https://materialsproject.org/materials/mp-866271,22.85200643724287,-70.91961879248096,-8.400072717189353,-75.4446636941588
-5.7898523053125,-185.27527377,4.24286858304231,-1.854503341935,16.000001,0.6589747133354986,0.3651,3,32,282.96237206310883,723.001465,mp-1176288,Li9Mn2Co5O16,https://materialsproject.org/materials/mp-1176288,21.62333172489146,-80.19834181610935,-9.586485813957495,-88.12314910862598
-5.643091354285715,-39.50163948,4.849718352903596,-1.459431055,0.9999998999999999,0.1802732727130749,0.0,160,7,64.64665245026069,188.80499,mp-754742,Li(CoO2)2,https://materialsproject.org/materials/mp-754742,25.919681419079122,-71.93058170136547,-5.135768455199344,-74.5001328748645
-5.7996958828125,-185.59026825,4.2610684040162585,-1.8643469194349995,16.0000002,0.6618013578986112,0.4510999999999998,1,32,281.7537867916172,723.001465,mp-1175547,Li9Mn2Co5O16,https://materialsproject.org/materials/mp-1175547,22.55230544037633,-79.43835939320941,-9.969100020293345,-86.62351570379525
-5.7967670490625,-185.49654557,4.228704527049229,-1.8614180856849991,18.0000001,0.7388716578900879,0.43000000000000016,1,32,283.9101552095075,723.001465,mp-1175737,Li9Mn2Co5O16,https://materialsproject.org/materials/mp-1175737,15.335939837338767,-79.15863541513454,-11.496092176191082,-84.51053587469093
-6.153215648888889,-55.37894084,4.404192398566913,-1.3411179892733334,4.9999989000000005,0.5749550797865484,1.2176,12,9,101.34758886722076,268.800835,mp-763057,Mn(CoO3)2,https://materialsproject.org/materials/mp-763057,24.603772377528248,-70.42643865903399,-7.190386221597193,-71.20962630790588
-5.78068209875,-184.98182716,4.211031819781604,-1.8453331353724989,19.999998899999998,0.8175374472237644,0.19030000000000014,1,32,285.10165916342066,723.001465,mp-1175722,Li9Mn2Co5O16,https://materialsproject.org/materials/mp-1175722,19.278728715109576,-82.9416505151934,-14.959383692142028,-83.8471242418872
-5.844786606153847,-75.98222588,4.8255838896005185,-1.5094301561538468,1.9999999,0.1745579133971193,0.0,166,13,133.52662120042024,388.03298,mvc-11656,Mg(CoO2)4,https://materialsproject.org/materials/mvc-11656,8.922706326196153,-67.84773095561789,-4.666535987299962,-68.65146628363111
-5.7755482453125,-184.81754385,4.181856081018287,-1.8401992819349988,18.0000001,0.7306859384180748,0.14620000000000033,1,32,287.09074041528294,723.001465,mp-1175995,Li9Mn2Co5O16,https://materialsproject.org/materials/mp-1175995,14.988752488481984,-81.76077356726812,-13.614451294960194,-87.76119602602192
-6.277833359375,-100.44533375,4.53692937888083,-2.08017032625,3.00000015,0.2529642717126657,1.9215000000000004,74,16,138.21001609864211,377.61779,mp-757085,Li2CrCoO4,https://materialsproject.org/materials/mp-757085,22.992916797878113,-69.27654797271583,-14.730788937456634,-72.06514601994762
-6.741898485,-80.90278182,4.252384370041803,-1.6183557185733335,8.0000002,0.6787751979123997,0.0,166,12,137.35404711019322,351.7425300000001,mp-771970,Mn3CoO8,https://materialsproject.org/materials/mp-771970,22.130490744145092,-68.90198801257306,-8.155722113877411,-71.81916769063695
-5.80009748375,-185.60311948,4.263583782876282,-1.8647485203724996,15.999999800000003,0.6621920135854539,0.4415,1,32,281.5875610165138,723.001465,mp-1175785,Li9Mn2Co5O16,https://materialsproject.org/materials/mp-1175785,19.54054793431252,-79.87425872823455,-10.327987857809946,-87.2849250218852
-5.7976469403125,-185.52470209,4.252181997485444,-1.8622979769349997,16.0000002,0.6604211791848901,0.3919999999999999,2,32,282.34260888166585,723.001465,mp-1175421,Li9Mn2Co5O16,https://materialsproject.org/materials/mp-1175421,19.37588352741152,-82.77157101141181,-11.10580827914984,-87.00739732152098
-5.78943801625,-185.26201652,4.234754279454452,-1.8540890528724996,16.0000002,0.657714419667227,0.31000000000000005,1,32,283.5045623389414,723.001465,mp-1175901,Li9Mn2Co5O16,https://materialsproject.org/materials/mp-1175901,21.878212844404825,-80.28526275182321,-9.70127470271684,-86.80905544338394
-5.812873716842105,-220.88920124,4.576342917162814,-1.7701227164473696,13.0000006,0.4369398832916733,0.4702000000000002,6,38,346.73614112397524,955.5833650000001,mp-764985,Li8Fe3Co7O20,https://materialsproject.org/materials/mp-764985,23.774492760825297,-73.75932400149148,-8.385609301032591,-76.5400625369388
-5.599406162307692,-72.79228011,5.277832741956488,-1.109440364615384,4.0000001,0.3507503162076346,0.0,12,13,132.90439980116707,422.42138,mp-755484,Co4NiO8,https://materialsproject.org/materials/mp-755484,25.30454377193645,-72.81063939773634,-9.439472106999787,-76.00818117084012
-5.7991311903125,-185.57219809,4.2421621843107875,-1.8637822269349995,16.0000004,0.6588649753780541,0.3146,2,32,283.0094905493923,723.001465,mp-1175441,Li9Mn2Co5O16,https://materialsproject.org/materials/mp-1175441,19.3497858324769,-82.92730619149476,-11.108171168564839,-88.66792400418474
-5.7607269603125,-184.34326273,4.148263196367037,-1.825377996934999,20.0000001,0.8053514797776399,0.0484,2,32,289.4156184836897,723.001465,mp-1175614,Li9Mn2Co5O16,https://materialsproject.org/materials/mp-1175614,18.38751988288886,-83.79031166866116,-17.327686900983597,-87.91587443500705
-5.7773739046875,-184.87596495,4.236922180604541,-1.8420249413099992,20.0000005,0.8225639152031495,0.0,2,32,283.3595018821873,723.001465,mp-1175554,Li9Mn2Co5O16,https://materialsproject.org/materials/mp-1175554,22.755556339476467,-79.197710150877,-9.895267894765876,-85.10906988650541
-5.79103477125,-185.31311268,4.2283855483546535,-1.855685807872499,15.999999800000003,0.6567252534654485,0.40539999999999976,1,32,283.9315726724256,723.001465,mp-1175968,Li9Mn2Co5O16,https://materialsproject.org/materials/mp-1175968,21.866830186543517,-80.30306096504367,-10.125214024359524,-86.63378442021681
-5.077768293125,-81.24429269,4.6980342444275855,-1.482644798749999,3.0000004000000002,0.2531288982263351,0.06540000000000035,12,16,138.12014046710522,390.772595,mp-867640,Li4CoNi3O8,https://materialsproject.org/materials/mp-867640,23.95901089242244,-70.66904271710025,-7.210139066209062,-75.44517997799332
-5.7916125675,-185.33160216,4.310444492474878,-1.856263604122499,14.0000001,0.5857863605894362,0.0,2,32,278.526300641532,723.001465,mp-1175694,Li9Mn2Co5O16,https://materialsproject.org/materials/mp-1175694,22.26251775903441,-73.07967339898538,-9.36459749295776,-86.56586424120991
-5.472086878333332,-131.33008508,4.251757518014118,-1.7115551056250002,14.0000003,0.7804976907921705,0.2604000000000002,10,24,209.04214354107586,535.245775,mp-1174431,Li7Co5O12,https://materialsproject.org/materials/mp-1174431,21.661750734922194,-71.28691326548369,-10.561988517995024,-76.1735189240372
-5.8007928234375,-185.62537035,4.223952631662814,-1.8654438600599992,17.9999997,0.7380413539153212,0.5504000000000002,1,32,284.22955068439603,723.001465,mp-1175886,Li9Mn2Co5O16,https://materialsproject.org/materials/mp-1175886,19.30637544252444,-82.8247485650278,-10.027158581167694,-87.50706135054489
-5.7702822284375,-184.64903131,4.193241507109216,-1.8349332650599992,17.9999998,0.7326752750955351,0.0,2,32,286.31123596726906,723.001465,mp-1175652,Li9Mn2Co5O16,https://materialsproject.org/materials/mp-1175652,15.281979024185866,-82.69390363777104,-15.518588934911316,-88.17441220095539
-4.91803145,-39.3442516,4.756191082153411,-1.3636370981250003,2.9909357999999995,0.4988918374398867,0.0,10,8,69.86796922282305,200.11900000000003,mp-755308,Li2CuNiO4,https://materialsproject.org/materials/mp-755308,21.99627136712489,-71.0359280062718,-8.686719958765778,-75.5620829644878
-6.011592521875,-96.18548035,3.9341746341341857,-2.0400939382450005,8.0000009,0.6663095655379663,0.8833000000000002,12,16,139.92374339375058,331.5094850000001,mp-1174049,Li5Mn2CoO8,https://materialsproject.org/materials/mp-1174049,19.856538723551548,-71.42836008035331,-12.029300693535676,-75.6642232940943
-5.841603956071429,-163.56491077,4.262370354884002,-1.9010907612292869,5.99999955,0.2871186869321786,0.5819999999999999,1,28,243.53825290217392,625.12847,mp-1174584,Li4MnCo2O7,https://materialsproject.org/materials/mp-1174584,20.854929382871596,-78.81671859474291,-10.06894161163722,-87.30671397788294
-5.77769964,-184.88638848,4.213258527551112,-1.8423506766224989,15.9999992,0.6543757987578479,0.15380000000000038,2,32,284.9509828934012,723.001465,mp-1175629,Li9Mn2Co5O16,https://materialsproject.org/materials/mp-1175629,19.599465900273376,-79.92528760346319,-10.846471421373927,-86.83642744751197
-5.791048650625,-185.31355682,4.23119824891705,-1.8556996872474996,15.9999997,0.6571620996568721,0.4474999999999998,1,32,283.74282838601886,723.001465,mp-1175969,Li9Mn2Co5O16,https://materialsproject.org/materials/mp-1175969,21.572462418107115,-80.44911610640699,-9.961017495317677,-87.02813533998821
-5.743100418125,-183.77921338,4.128360893215453,-1.8077514547474989,23.894959,0.9575756740660232,0.0,6,32,290.81085439567875,723.001465,mp-1100561,Li9Mn2Co5O16,https://materialsproject.org/materials/mp-1100561,17.303819089393812,-77.52831084258084,-14.030923522715275,-81.73623770525715
-5.837286287142858,-163.44401604,4.209223412736884,-1.8967730923007144,7.00000015,0.33079511344979856,0.7018,12,28,246.61324136642037,625.12847,mp-1174556,Li4MnCo2O7,https://materialsproject.org/materials/mp-1174556,22.021634790481414,-80.25775162743534,-9.714834115894961,-88.2367866038332
-4.834120341,-96.68240682,4.727976415348678,-1.4806487157470003,5.9999957,0.4053471865947159,0.04920000000000036,1,20,172.50480781748485,491.1650032,mp-764733,Li5Ni5O9F,https://materialsproject.org/materials/mp-764733,22.965395470126897,-71.37402941162253,-8.155053147296286,-75.8317698813177
-5.821924630357144,-163.01388965,4.246638887299796,-1.881411435515,5.9999996,0.2860589976561466,0.5424000000000002,1,28,244.44042853629762,625.12847,mp-1174674,Li4MnCo2O7,https://materialsproject.org/materials/mp-1174674,21.60702241207808,-80.11187073850856,-9.67427713534579,-86.96389749686821
-5.7752364940625,-184.80756781,4.199780402573228,-1.8398875306849989,18.0000003,0.7338178213808151,0.1889999999999996,1,32,285.86546045933653,723.001465,mp-1175989,Li9Mn2Co5O16,https://materialsproject.org/materials/mp-1175989,19.03378618026079,-83.47892849168848,-11.368392955874446,-88.9041849535528
-5.7857868846875,-185.14518031,4.231468662459829,-1.8504379213099995,16.0000004,0.6572041272763256,0.3944000000000001,12,32,283.72469569744595,723.001465,mp-1176297,Li9Mn2Co5O16,https://materialsproject.org/materials/mp-1176297,21.16947385792968,-80.11653466146387,-9.610203996390203,-88.09424478130215
-5.7652648828125,-184.48847625,4.186032366116284,-1.829915919434999,18.000001100000002,0.7314156915858536,0.0,1,32,286.8043181719496,723.001465,mp-1176081,Li9Mn2Co5O16,https://materialsproject.org/materials/mp-1176081,16.065889070535178,-82.63935583758649,-15.832875001244412,-87.22991596513664
-5.5226601125,-176.7251236,4.397565787718892,-1.7274614471874994,15.265076,0.6445063026523966,0.0,2,32,276.02551554564684,730.991765,mp-1175451,Li9Co7O16,https://materialsproject.org/materials/mp-1175451,23.19451867086124,-71.38930002699831,-7.515364159143447,-75.62919430871226
-5.82813886875,-139.87533285,4.064752066343333,-1.880740031955001,15.1392098,0.819114298205554,0.0,6,24,215.39525314243156,527.2554749999998,mp-1175157,Li7Mn2(CoO4)3,https://materialsproject.org/materials/mp-1175157,17.22407096453977,-79.15239008364698,-18.21366137132904,-84.50476142289105
-6.253961325833332,-75.04753591,3.719106924302221,-2.6027438427083323,4.0000001,0.4545026063820274,0.9196999999999996,12,12,102.56544099213028,229.7156722,mp-1222601,Li3Al2CoO6,https://materialsproject.org/materials/mp-1222601,21.859895446725787,-71.38569329265057,-10.104976915727825,-76.04311117339383
-5.7864717753125,-185.16709681,4.188360092400852,-1.8511228119349996,20.0000001,0.8131359652422081,0.28390000000000004,1,32,286.6449235795057,723.001465,mp-1176198,Li9Mn2Co5O16,https://materialsproject.org/materials/mp-1176198,19.273391834279735,-82.73450156638165,-13.389952734527776,-86.19550687002877
-5.49216442,-175.74926144,4.211929323188345,-1.6969657546874997,21.999877899999998,0.8896459338296546,0.3199000000000001,2,32,288.1910570099863,730.991765,mp-1175443,Li9Co7O16,https://materialsproject.org/materials/mp-1175443,12.934457681581714,-78.61882378073463,-13.059008076551606,-85.9077535820322
-5.799599485625,-185.58718354,4.294626941414202,-1.8642505222475,13.9999999,0.5836367582399565,0.5076,1,32,279.55214154511646,723.001465,mp-1175955,Li9Mn2Co5O16,https://materialsproject.org/materials/mp-1175955,21.538281064888157,-80.07645733243098,-9.767617384212944,-86.95099973432932
-6.6505908950000014,-159.61418148,3.660987895028513,-2.5758185302083336,8.9999994,0.5107649735545395,3.3583,12,24,205.35193560879242,452.7391,mp-752502,Li7Cr3(SiO6)2,https://materialsproject.org/materials/mp-752502,21.37675042198484,-71.20433892277292,-11.654375845092867,-74.44720201669027
-6.703885586666666,-80.44662704,3.5666544773919995,-2.8536923102083325,2.9999998,0.3370832523716071,3.7770000000000006,12,12,103.71975392097832,222.7785772,mp-867723,Li3Al2CrO6,https://materialsproject.org/materials/mp-867723,20.830552937801702,-71.73463418499273,-11.98640042022349,-74.99333015682745
-6.254998994166668,-75.05998793,3.7367885355332136,-2.603781511041667,3.9999985000000002,0.4566632484934377,0.8795999999999999,164,12,102.08012526283136,229.7156722,mp-1222591,Li3Al2CoO6,https://materialsproject.org/materials/mp-1222591,21.65469198529004,-71.10604229515329,-11.570289638650575,-74.29723743345177
-5.7925032675,-185.36010456,4.181263564300119,-1.8571543041224992,22.0000003,0.8929340630962239,0.6387,8,32,287.13142334777723,723.001465,mp-1100681,Li9Mn2Co5O16,https://materialsproject.org/materials/mp-1100681,19.416662493972662,-82.66106328644969,-11.209517144864941,-88.55349828413748
-5.80299891375,-185.69596524,4.241077070591304,-1.867649950372499,19.9999998,0.8233705244184203,0.5736999999999997,1,32,283.0819008064633,723.001465,mp-1175691,Li9Mn2Co5O16,https://materialsproject.org/materials/mp-1175691,19.089263483343412,-73.80822618983183,-11.413225348314676,-79.35602457350525