energy_per_atom,energy,density,formation_energy_per_atom,total_magnetization_uB,total_magnetization_T,band_gap,sgr,num_sites,cell_volume,weight,mp_id,formula,URL,tsne_cry_lin1_0,tsne_cry_lin1_1,tsne_cry_lin2_0,tsne_cry_lin2_1
-7.957301461142857,-278.50555114,2.957261341315353,-3.0155974840138238,5.0000007,0.1271373958360245,2.465,148,35,458.32566915086085,816.234217,mp-19383,Ti4Mn(PO4)6,https://materialsproject.org/materials/mp-19383,0.20749598298933208,-53.43975942164499,7.832007882101588,0.5442584923398764
-7.591202296500001,-151.82404593,6.5455749697228685,-2.9351808225000005,20.000002399999996,0.935181869409054,1.4068000000000005,6,20,249.23635823717854,982.44921,mp-1223137,La3Sm(FeO3)4,https://materialsproject.org/materials/mp-1223137,-20.61990413609286,-33.476437070756376,7.74935077880266,-1.4115468666239823
-5.239887329347826,-482.0696343,4.866746489490871,-1.4337248888043483,0.999731825,0.007901730326399032,2.3401,14,92,1474.4795079647909,4321.43888,mp-1202389,LaVI5O16,https://materialsproject.org/materials/mp-1202389,6.4270391273072995,-57.86360165644846,8.28947447943906,0.7819889311180779
-6.0811487385000005,-121.62297477,6.042863684441531,-2.6977328977499995,4.49e-05,1.9130141447067908e-06,1.8862,160,20,273.53039167838034,995.4038,mp-1228054,Ba3SrMg2(TeO6)2,https://materialsproject.org/materials/mp-1228054,0.6614705124530619,-28.649054334485456,7.535832653298074,-1.2090658253408286
-5.875548035833333,-352.53288215,5.030598240223496,-1.93888035675,15.0000001,0.2491774302511392,1.4320999999999997,15,60,701.5521934615613,2125.35035,mvc-3034,Mg4Co5(TeO6)3,https://materialsproject.org/materials/mvc-3034,-11.991994044410687,-36.547003699710224,7.217177660611769,-0.7685412629923426
-3.555885651666667,-21.33531391,3.5178303099419534,-0.9291485878074716,0.9999998999999999,0.11114177148676964,0.0,139,6,104.85763769331786,222.13953856,mp-546033,RbNa2NiO2,https://materialsproject.org/materials/mp-546033,-35.00026537353997,-32.20680076633066,3.9712442834152366,-3.967592459099688
-6.941913472375001,-555.35307779,3.8549327134511815,-2.5487343356250016,35.00025555,0.4052954441468675,1.8621,220,80,1006.4145825632132,2336.3862,mp-1227714,Ca6V3Fe7O24,https://materialsproject.org/materials/mp-1227714,-22.960606373072963,-33.87537436222188,8.046275543229259,-1.2976491095285698
-5.4940283320833325,-131.85667997,4.184265031527752,-2.4042291980900004,13.00000045,0.5126114257992556,1.1602,7,24,295.55105419545487,744.7364448000002,mp-755765,Fe4OF7,https://materialsproject.org/materials/mp-755765,-37.28115584623579,-85.46822030757882,5.332749582594881,-0.09078582935149497
-5.37599643,-21.50398572,10.340865872930957,0.7420159543749998,0.8634360999999999,0.11554368390456013,0.0,225,4,87.0886222104365,542.337,mp-974545,ReSn3,https://materialsproject.org/materials/mp-974545,25.665257452112307,32.92086828048901,-8.604250342815693,-0.5045126942092143
-8.466619559166666,-203.19886942,4.28083426540892,-2.9055442091091663,1.0,0.031566588645493665,1.6273,71,24,369.1898704494123,951.76362,mp-1214450,BaNb6HO16,https://materialsproject.org/materials/mp-1214450,0.4418557525468148,-45.9992763040611,7.427409260959734,0.94395004674369
-5.17612718,-20.70450872,6.684034186397327,-1.617204951197917,1.2e-06,1.6511250149241873e-07,2.2090999999999994,166,4,84.6990845675835,340.93241,mp-1216540,TmAgS2,https://materialsproject.org/materials/mp-1216540,52.8287088613699,12.49574998087326,6.8615647769702575,-5.997098798648398
-5.2717891592857145,-295.22019292,1.7973292000156311,-0.7721651578689271,0.0,0.0,1.8753,36,56,527.9055084316766,571.39276,mp-1212573,H17RuN6ClO3,https://materialsproject.org/materials/mp-1212573,-10.22854547117681,-51.63622098481793,8.49821310803074,1.5643345490926808
-6.496175260714287,-90.94645365,3.6624790619262018,-2.967171488358572,3.99999985,0.2651608407633619,1.6505999999999998,15,14,175.80370166245967,387.7520256,mp-760069,V2OF4,https://materialsproject.org/materials/mp-760069,-31.01249320565917,-63.870506501978,7.841288221136881,3.1285848092007087
-5.555703302857141,-38.88992312,7.327829760562018,-0.6272166035714284,1.9091508999999998,0.1181000654584968,0.0,115,7,188.3942075968586,831.3689999999998,mp-1220376,Nd2FeSb4,https://materialsproject.org/materials/mp-1220376,3.0376124960251785,33.51952438045907,-8.604250342815693,-0.5045126942092143
-6.776075407878787,-223.61048846,2.6483810241650945,-2.354503957405304,0.0,0.0,2.271,146,33,451.426453096326,719.9766,mp-772410,Ti(SO4)2,https://materialsproject.org/materials/mp-772410,0.11188410982030753,-52.67065452718114,8.131094420454879,0.226639141255552
-5.3069953975,-275.96376067,3.621811140374176,-1.7669696279443683,1.01519335,0.009374311274412215,0.0,163,52,1262.079816985136,2752.7294638,mp-778180,CsTi(NbCl3)6,https://materialsproject.org/materials/mp-778180,12.140526205089774,-3.5344338155517216,-6.18397680334474,-3.782327893011397
-7.800902470833332,-374.4433186,3.0390578756983135,-1.0232094837500003,1.0375e-05,1.3620613440996805e-07,2.3922,62,48,887.7054072423489,1624.646,mp-620054,ReC5BrO5,https://materialsproject.org/materials/mp-620054,-8.583941589864242,-32.046360815477016,8.032062253765192,2.8369110596509284
-8.952066868428572,-626.64468079,4.387161742235902,-3.0437305403928585,2e-08,2.316706703322425e-10,2.1388000000000003,2,70,1006.088924061593,2658.0976,mp-766361,Nb2O5,https://materialsproject.org/materials/mp-766361,-0.2538462668418141,-47.08607297689897,7.996210101918188,-0.029668007425422506
-4.532488066666667,-13.5974642,11.390835749352995,-0.2076107933333334,5e-07,7.622670534033354e-08,0.0,139,3,76.44345062879965,524.3808,mp-570197,Bi2Pd,https://materialsproject.org/materials/mp-570197,26.810933587813143,39.48754957632015,-8.604250342815693,-0.5045126942092143
-5.9164778775,-331.32276114,4.240697327851767,-1.0278808874404766,3.0000022375,0.033217670522837785,0.0,1,56,1052.518730041946,2687.9304,mp-1238848,TiCrAgS4,https://materialsproject.org/materials/mp-1238848,16.91896373557734,4.759359373252222,-8.604250342815693,-0.5045126942092143
-7.0333124962500015,-168.79949991,2.9867939091565687,-2.3595981657738108,5.00000015,0.1737381367350674,2.3689,14,24,335.3916802950659,603.265448,mp-752872,FePO4,https://materialsproject.org/materials/mp-752872,-29.022586597810395,-70.91968825719063,8.087846368128464,-1.7301191421993103
-6.171197775714285,-43.19838443,7.0156156451058225,0.4318539585714285,7.9311387,0.6633842307847836,0.0,187,7,139.33102392351134,588.6600000000002,mp-1225139,Fe4Sb3,https://materialsproject.org/materials/mp-1225139,3.5068279125349067,37.596649515191004,-8.604250342815693,-0.5045126942092143
-5.272456815125,-421.79654521,2.770103723567956,-3.193450074514,4.00000365,0.04632667985523737,0.0,230,80,1006.251727368394,1678.62458496,mp-6153,Na3Li3V2F12,https://materialsproject.org/materials/mp-6153,-20.799262846998197,-51.122100135867484,9.399745769315864,1.9086043655768532
-4.2206446175,-67.53031388,7.578644035441107,0.17268905833333292,1.411694875,0.04481017577498597,0.0,31,16,367.14838154070395,1675.6527999999996,mp-685618,FeAgTe2,https://materialsproject.org/materials/mp-685618,52.3742891387407,26.68436548012883,-8.604250342815693,-0.5045126942092143
-6.897416613793104,-200.0250818,7.604113260853389,-2.2556929292241383,10.0010611,0.29698575748616457,1.4902000000000006,8,29,392.45321001346946,1797.1626,mp-1217427,Ti3Fe2(BiO3)6,https://materialsproject.org/materials/mp-1217427,8.958778235794494,-37.81198821075972,6.45291974751697,0.6364948980111842
-5.165997975,-82.6559676,3.913310125839679,-1.7481425193750004,2.00000015,0.1194140353034825,1.8377,2,16,195.18753582016635,459.9888,mp-1239335,MgNiO2,https://materialsproject.org/materials/mp-1239335,-25.357264669744076,-31.64877707418821,8.965807342880266,-2.3112552467710112
-5.997095131666666,-143.93028316,4.257463191062112,-2.2058297333133337,4.99999995,0.2055742548820174,0.4344999999999999,6,24,283.4514628961568,726.7424255999998,mp-753274,FeOF,https://materialsproject.org/materials/mp-753274,-42.83345637837565,-76.72655701435633,-4.233662117105986,-1.389024475633782
-6.8696024125,-27.47840965,5.642957591873957,-0.3065007767968746,3.9626182,0.5991859549203321,0.0,194,4,77.07224909479744,261.9122,mp-2189,CrSe,https://materialsproject.org/materials/mp-2189,53.85621141919586,34.692765131310104,-8.604250342815693,-0.5045126942092143
-7.7946934395000005,-311.78773758,6.6547764015408255,-2.9489846665000004,15.99999925,0.383316840216491,0.8243999999999998,25,40,486.45143666292915,1949.50282,mp-1076611,La3SmCr2(FeO6)2,https://materialsproject.org/materials/mp-1076611,-4.701801078048153,-7.306980513050692,6.2530002434758005,-3.4965935476130428
-5.7449116275,-22.97964651,3.1594451515369664,-1.26892601315625,2.9999992000000004,0.4781714281553406,1.1490999999999998,164,4,73.11642422739928,139.11586928,mp-637292,NaCrS2,https://materialsproject.org/materials/mp-637292,17.367662887587294,7.487047393500774,3.4389786506394824,-3.912025456434444
-7.310394746111112,-131.58710543,6.281322652210139,-2.7040338904166674,6.00002035,0.27803050718584443,0.6093999999999999,46,18,251.49983181103366,951.34866,mp-1076438,La2Co2O5,https://materialsproject.org/materials/mp-1076438,-32.68913519657372,-18.867043546139445,-11.341009005169921,-0.5565180372961125
-5.79592997,-46.36743976,7.923111055807151,-0.20390469968750047,4.70924135,0.21124841617957196,0.0,63,8,259.797468378954,1239.6,mp-1025472,NpTe3,https://materialsproject.org/materials/mp-1025472,57.676974932329124,29.033603929457026,-8.604250342815693,-0.5045126942092143
-5.920852592142857,-82.89193629,8.406229262409285,-0.8505179639285723,5.7999999999999995e-06,2.0310053054039964e-07,0.0,148,14,332.80846436489674,1684.79282,mp-1104435,La3Pd4,https://materialsproject.org/materials/mp-1104435,11.90183423555206,53.812412780897276,-8.604250342815693,-0.5045126942092143
-6.37873073025,-510.29845842,4.149972335306477,-1.402107699625,4.0000034825,0.0405397433180782,0.0,1,80,1149.8913377365018,2873.7760000000007,mp-1245168,FeO,https://materialsproject.org/materials/mp-1245168,-25.33444510929593,-30.949697061788502,3.4056448289563845,-3.4775139004675237
-3.702898308571428,-51.84057632,7.148355440982304,-0.5103965008154161,7e-07,2.1999432250687192e-08,0.5569999999999999,11,14,370.82072154552804,1596.3239999999996,mp-569939,AgBi2Se3Cl,https://materialsproject.org/materials/mp-569939,69.39980503043616,16.990245121818887,7.9625217049418975,-6.352449067452568
-2.46275932625,-19.70207461,4.387681317554054,-0.6080114270833334,0.0,0.0,1.7796,1,8,339.4973712143222,897.0618800000001,mp-1223696,InI2Br,https://materialsproject.org/materials/mp-1223696,40.118804980153215,-3.845946728205604,7.763599837059253,-4.64241386296983
-6.063075247142858,-339.53221384,4.426684408721883,-2.1586958808928576,1.9244903375,0.01726825304962103,0.0,29,56,1298.8074116670693,3462.3759999999997,mp-1232202,Ce2MgS4,https://materialsproject.org/materials/mp-1232202,46.65334989229231,1.2913835413789552,-6.075061093280642,-3.63071745929352
-5.345923229655171,-155.03177366,8.675236831072846,-0.5479545932758626,0.0011595000000000002,1.972582435863672e-05,0.0,216,29,685.035406282856,3578.8646,mp-1224547,Ho5(Sn3Rh)6,https://materialsproject.org/materials/mp-1224547,0.8435021716392153,49.85434914997944,-8.604250342815693,-0.5045126942092143
-8.72229595943662,-619.28301312,4.201429328719364,-2.9534699359708254,0.9995360000000001,0.011489511707569408,0.0,1,71,1013.8513788041112,2565.206126,mp-772038,Nb18P3O50,https://materialsproject.org/materials/mp-772038,-0.23068960334880534,-47.044154886778315,7.78238819651046,0.03078398769770851
-3.1119263310000003,-31.11926331,4.0949861397359415,-1.09198513835,0.0,0.0,1.8245,225,10,424.7309989586412,1047.41142,mp-1112044,K2NdCuI6,https://materialsproject.org/materials/mp-1112044,48.42107603587095,-13.560701544769005,8.85694423986917,0.5348159128964223
-6.762128304090909,-148.76682269,6.194526843623921,-2.90086119,0.0,0.0,2.0276,167,22,328.1775470019051,1224.2438000000002,mp-17829,Sr3SmRhO6,https://materialsproject.org/materials/mp-17829,-3.5671119021639623,-21.91570088530464,9.853893499609567,-0.2789521029840074
-6.848007611666668,-205.44022835,2.701805847247888,-0.1681675288333338,0.0,0.0,2.140599999999999,74,30,218.87059345964047,356.1168,mp-568803,Mg(B6C)2,https://materialsproject.org/materials/mp-568803,21.534445797397527,-13.035520900657986,8.484541379576036,-0.5682061444834946
-5.820853843571428,-162.98390762,4.324535627334166,-2.0470030562585038,2.65e-06,7.495770764177611e-08,1.7621999999999998,14,28,412.0092865549566,1072.994248,mp-1193999,ZnAgPO4,https://materialsproject.org/materials/mp-1193999,3.477984449022192,-17.751021457357528,7.397656395074074,-2.1765930230200534
-7.7880598097058815,-264.79403353,3.143260592593544,-2.9000380786134445,0.0,0.0,2.5217,146,34,474.01430635603066,897.269172,mp-775198,Ti3P6WO24,https://materialsproject.org/materials/mp-775198,0.3915934250288041,-53.75320281639678,9.071692536313416,1.282170784605248
-7.1607121000000005,-315.07133239999996,2.8577485707390697,-1.752574350795456,10.000000775,0.2024201607246857,1.6809,14,44,575.7364105446276,990.8288,mp-758060,Fe2C2O7,https://materialsproject.org/materials/mp-758060,-16.998584155249727,-70.72843067007352,7.1629121448290025,-3.026188487020791
-4.5480160157142855,-31.83611211,7.095112129437008,-0.6974002471428571,0.00045599999999999997,2.5572386986938573e-05,0.0,115,7,207.81218190548833,887.935,mp-1220339,Nd2CdSb4,https://materialsproject.org/materials/mp-1220339,3.646225701548636,32.70329688347345,-8.604250342815693,-0.5045126942092143
-4.77954367375,-38.23634939,11.98289032205214,-0.2905434825000004,0.0,0.0,0.0,8,8,174.33405515432221,1258.0408,mp-30461,BiPd2Pb,https://materialsproject.org/materials/mp-30461,27.779618363916413,39.18948029001591,-8.604250342815693,-0.5045126942092143
-6.0330359875,-144.7928637,4.924235991423638,-1.8633096550781252,3.99999995,0.08830283843530408,0.0,173,24,527.9134774550807,1565.4979999999998,mp-1191574,Nd3GaFeS7,https://materialsproject.org/materials/mp-1191574,28.15178906040935,3.586537444684318,-8.139285405198175,2.2241420299972066
-7.045470393333333,-84.54564472,7.417500229260932,-0.7080363033333334,0.0,0.0,0.0,63,12,286.081485107496,1277.904,mp-10638,ZrSb,https://materialsproject.org/materials/mp-10638,0.5667640424193291,39.302347267666995,-8.604250342815693,-0.5045126942092143
-5.942297701363636,-130.73054943,7.951094872028018,-1.829339279659092,0.0,0.0,1.6441,46,22,321.5847034879466,1539.8316,mp-633099,Sb2Pb2O7,https://materialsproject.org/materials/mp-633099,-1.3957439990588454,-30.28278095055854,7.892383223045376,1.0299916815790218
-6.667082042307693,-346.6882662,4.555001771727393,-2.4798057769969217,4.99999945,0.06578551775929499,2.7135,14,52,885.7620862128076,2429.72178,mp-558651,Ba2Mn(AsO4)2,https://materialsproject.org/materials/mp-558651,-13.99791613518908,-37.53181068053069,9.281414371912122,1.2495817061930352
-6.884450754615385,-178.99571962,2.7345002558517413,-2.669500710773809,1.9999999,0.0850889100168096,2.1833,11,26,273.92674762326027,451.090124,mp-768575,Li3VBPO7,https://materialsproject.org/materials/mp-768575,-16.228975537843144,-50.15388062875931,8.980258489480297,2.212688471966908
-7.1939080797727275,-316.53195551,3.0294962638870704,-2.7266260888668827,1.999999275,0.04288807864242165,2.1093,14,44,543.4638676694599,991.49837312,mp-17479,NaVP2O7,https://materialsproject.org/materials/mp-17479,-15.170391652429053,-50.13305172403283,8.807032730162161,1.5323394690065064
-5.006706883333334,-60.0804826,3.991811193061248,0.009563393095237537,0.0,0.0,0.8174000000000001,12,12,258.61147518400963,621.6825719999999,mp-1095275,GeP,https://materialsproject.org/materials/mp-1095275,39.896987793857825,11.497794308992026,6.6949679013172325,-5.90409773140577
-6.490220023499999,-129.80440047,6.949209292442857,-2.5112417155,1.99999925,0.08740066460155389,2.5948,7,20,266.6812765192224,1116.0376,mp-41829,BaNdNiSbO6,https://materialsproject.org/materials/mp-41829,0.8473573536530248,-29.38484494301361,9.251285617565024,0.9392278409333816
-5.261635028125,-84.18616045,4.265617974826141,-1.1004829369921882,0.0,0.0,0.9988,15,16,268.0901265846643,688.674,mp-4649,PdSe2O5,https://materialsproject.org/materials/mp-4649,-9.928342368783747,-26.10593533477095,4.759836350160284,1.008422534573126
-7.308058027777778,-263.09008900000003,6.269075951364282,-2.701697172083333,5.99878615,0.1387156758303203,0.5644,62,36,503.98227835727477,1902.69732,mp-505669,La2Co2O5,https://materialsproject.org/materials/mp-505669,-32.66331878303945,-18.8629852678986,-11.34076332397776,-0.6111731603489722
-5.72577575525,-229.03103021,7.042143707873943,-0.24694810849999985,0.146793975,0.001385895250787533,0.0,2,40,1234.39812056458,5234.932,mp-1209284,Re3Te4Br3,https://materialsproject.org/materials/mp-1209284,51.079659403861434,22.221378275336267,-8.604250342815693,-0.5045126942092143
-6.5502027384375,-209.60648763,7.271466537125138,-1.641406322558594,1.9874227999999998,0.029707486168627624,0.0,62,32,779.6537852509897,3414.088,mp-1006367,Ce2HfSe5,https://materialsproject.org/materials/mp-1006367,47.02025209818735,3.2090858930867405,-4.1927359840665135,-1.1678104479757514
-4.506104905416667,-108.14651773,6.658986921640958,-0.926270263680556,0.0,0.0,1.6312000000000002,14,24,390.3454916788747,1565.3384,mp-18068,Ag2TeO3,https://materialsproject.org/materials/mp-18068,3.156798071558677,-17.3778212178649,6.674041440337228,-3.3464167392052686
-5.385469043055554,-193.87688555,1.9564681702701399,-1.0810283587847225,2.9275e-05,1.1239527531937044e-07,0.991,36,36,3035.472311867602,3576.432,mp-1084851,CeSe2,https://materialsproject.org/materials/mp-1084851,35.019838970708754,8.444413655782434,7.419049306914425,-6.343972456502229
-8.008193804,-80.08193804,6.41754576270279,-3.73740574675,0.0,0.0,3.4924,221,10,110.68553372006303,427.7704172,mp-5304,LaAlO3,https://materialsproject.org/materials/mp-5304,33.887385907420175,-25.04091441030336,9.256270136054912,-0.006786087993572878
-5.572219208333332,-133.733261,5.3389405046546665,-1.9329522063541664,0.9996861375,0.015655314127249825,0.0,61,24,744.1822568335552,2392.6837600000003,mp-680698,CeSI,https://materialsproject.org/materials/mp-680698,46.6846483068819,0.8590226406955839,-5.694720151724995,-3.7169228198166975
-7.97045222875,-63.76361783,2.333812869645216,1.2550213525,1.2225e-05,2.083938647093753e-06,0.0,67,8,68.36618824802316,96.0856,mp-624889,C,https://materialsproject.org/materials/mp-624889,59.93701819564883,37.19270571065361,-3.5191918217178286,-1.7052207614825368
-7.417371439821428,-415.37280063,4.638889621031482,-2.3153891916071427,38.00004985,0.6856389115768566,1.2665999999999995,58,56,645.9012679048562,1804.3928,mp-760003,Ti3Fe9O16,https://materialsproject.org/materials/mp-760003,-24.845526653041397,-37.46571702427949,6.1089928861952805,-2.8591228233237715
-5.762431047777778,-51.86187943,4.9013521551210095,-2.506964204361668,8.0001733,0.5455167833848781,2.0466,139,9,170.9104846442881,504.4702064,mp-551403,Ba2Fe2S2OF2,https://materialsproject.org/materials/mp-551403,19.760196941919897,1.6689406633096182,4.2470278341382794,-4.477476808632268
-6.540855803571428,-91.57198125,4.119620069389723,-2.2034819035714284,9.99999965,0.6699976602557303,1.7144,74,14,173.94186660620883,431.5312,mvc-6928,Ca(FeO2)2,https://materialsproject.org/materials/mvc-6928,-24.809795842856197,-35.603493596903704,7.1164183782434245,-1.5914869293259657
-7.837063632,-39.18531816,9.956184658780806,-0.6075608939999995,0.0,0.0,0.0,139,5,131.87164036766438,790.6700000000002,mp-28919,Hf3Te2,https://materialsproject.org/materials/mp-28919,43.52296963813152,27.547012027258592,-8.604250342815693,-0.5045126942092143
-4.206243021764706,-286.02452548,5.761206190919113,-0.8329281093504912,0.0,0.0,1.0172,1,68,1621.9876117064505,5627.452799999999,mp-1224757,In4Bi3S10,https://materialsproject.org/materials/mp-1224757,39.47387338195015,-2.4410995920686798,6.391540857006775,-5.206271706222184