energy_per_atom,energy,density,formation_energy_per_atom,total_magnetization_uB,total_magnetization_T,band_gap,sgr,num_sites,cell_volume,weight,mp_id,formula,URL,tsne_xrd_lin1_0,tsne_xrd_lin1_1,tsne_xrd_lin2_0,tsne_xrd_lin2_1
-6.3051763720833325,-151.32423293,4.6348199790187214,-2.017378962994792,4.99999995,0.11002659335722928,0.4531000000000001,173,24,529.6021761839506,1478.2011672,mp-864652,Nd3MnAlS7,https://materialsproject.org/materials/mp-864652,7.766222556165711,-4.2809824715085485,12.216259426326811,5.563937917475278
-5.64710521631579,-107.29499911,7.612055932219277,-0.21207612289473696,0.0004067,9.543599024649143e-06,0.03639999999999999,204,19,496.63739337312273,2276.6291699999997,mp-1209134,Sm12Co6Sn,https://materialsproject.org/materials/mp-1209134,-4.521492505337587,78.76314440067121,-10.167121417908707,48.914444915938816
-5.2330796603125,-167.45854913,6.1427293639507985,-1.6491865527604168,4.12625e-05,6.599598189452097e-07,1.5053,4,32,728.644129344588,2695.42816,mp-1199297,HoAgS2,https://materialsproject.org/materials/mp-1199297,-3.5182750946158405,8.766923725943002,1.2182262226145275,18.653119587360173
-2.9121249,-11.6484996,7.7817617600443425,-0.042011649166666665,1.2e-06,1.1549382514835699e-07,0.0,119,4,121.08766602116978,567.4515,mp-10006,TlAgTe2,https://materialsproject.org/materials/mp-10006,-0.30180520123817794,26.845445213462085,-12.435232623149393,-9.922810126536437
-5.0544383666176484,-343.70180893,5.021203246833592,-2.0251404693425004,14.000513199999999,0.09738269289343178,0.8619999999999999,62,68,1675.4813697792279,5066.386451199999,mp-1195190,Ba4Fe3(Se3F2)2,https://materialsproject.org/materials/mp-1195190,-10.520714728241147,9.633245417270489,2.1844538978104096,18.805209464792078
-5.923418817999999,-59.23418818,5.292970268572703,-2.37416794525,0.0,0.0,2.7136,11,10,196.3451464237789,625.8504,mp-5431,BaTeO3,https://materialsproject.org/materials/mp-5431,12.61280204334794,18.388040006739075,9.127794309431307,26.14758742978178
-5.298236391428572,-74.17530948,4.8659904128215095,-3.2193554818610584,8.0,0.425025945396346,0.029399999999999867,160,14,219.3572396940054,642.7974287999999,mp-1219607,RbBa2Fe2F9,https://materialsproject.org/materials/mp-1219607,-14.349527094619305,3.3099753207051097,-2.3215004638884493,-17.591492875256797
-7.088148968333333,-85.05778762,4.073458826571291,-2.714932531666667,0.0,0.0,3.5047,88,12,163.07208519821341,400.0312,mp-19330,CaMoO4,https://materialsproject.org/materials/mp-19330,27.021995832501425,57.2665906612855,2.51022316763706,37.74104478741933
-10.589779296363636,-465.95028904,7.379999035542049,-3.3928270192045447,22.00002905,0.4191212766671457,1.7532000000000003,19,44,611.7316820222237,2718.743200000001,mp-1204194,Gd3MoO7,https://materialsproject.org/materials/mp-1204194,17.098795985284372,59.62785250410611,-3.4835306402267374,37.99854037348965
-2.792574155,-27.92574155,5.152150400525679,-1.0011390202893335,7.699999999999999e-06,3.3255806257001656e-07,0.0,161,10,269.8364852598233,837.221,mp-998748,TlAgCl3,https://materialsproject.org/materials/mp-998748,-1.0205135640094916,-19.6422181781238,9.312015084576704,-16.421671441170492
-4.82158025875,-38.57264207,9.542318174322027,-0.5954317681250005,5e-08,4.992040800690478e-09,0.0,12,8,116.72645755366976,670.7707379999999,mp-997090,PdAuO2,https://materialsproject.org/materials/mp-997090,-38.821342114221565,19.9261575219422,-35.15261990556895,31.661771557857733
-3.784706435625,-60.55530297,4.216410735527756,-1.0141504494999998,1.095e-05,4.0912568119514926e-07,0.0,141,16,311.9139548677192,792.00628,mp-1211410,KIO2,https://materialsproject.org/materials/mp-1211410,-0.5290065127612916,9.752436507297247,-10.906037559877086,27.358255135059537
-7.1598240707142855,-100.23753699,5.569225982950151,-2.9532400627471427,6.0,0.3683351072783052,0.7752000000000003,38,14,189.8390548542661,636.6948150000002,mp-1218443,Sr3LaMnCrO8,https://materialsproject.org/materials/mp-1218443,-23.21473173069564,39.043714879533354,-14.131176702419324,59.56127959804201
-5.875339437857143,-82.25475213,4.608871838320074,-0.7376630667342852,7.52e-05,2.4375171683680248e-06,0.19280000000000008,176,14,359.54030694407373,997.914024,mp-1245831,Ba3ScN3,https://materialsproject.org/materials/mp-1245831,8.82853328438196,-7.35013854235335,13.523718835041745,3.625877887201803
-4.91033688,-137.48943264,5.836524052855524,-0.5756088558928576,7.775e-06,1.546486688884684e-07,0.17010000000000058,62,28,585.9109829907376,2059.3816,mp-601716,FeBiSbS4,https://materialsproject.org/materials/mp-601716,32.86489563517664,28.801556395969246,34.205095610716235,35.09470005090575
-6.433572689999999,-38.60143614,6.330037430589416,-2.9462981770833334,0.0,0.0,3.5587000000000004,129,6,153.8619986046877,586.52774,mp-754217,SmIO,https://materialsproject.org/materials/mp-754217,-16.057600317703915,23.330501628735256,-15.994265941562018,40.835862572035005
-7.104961672380951,-298.40839024,3.9926755184941056,-3.1645133271995243,3.3e-06,5.765640771453662e-08,4.0003,176,42,667.0275737583049,1603.8314064,mp-40674,Sr5V3O12F,https://materialsproject.org/materials/mp-40674,-2.030609387833968,21.86868439105288,7.240533191559949,40.14106546297478
-8.536125255555557,-153.65025459999998,6.144508031239962,-3.3384015080092597,0.19812520000000003,0.009419063443180348,0.0,46,18,245.13731410824025,907.08388,mp-1099905,La2Ti2O5,https://materialsproject.org/materials/mp-1099905,-27.87964829151041,48.18956488975835,-12.490660800968998,65.46296055571577
-8.158497706,-40.79248853,6.560108088048531,-3.1125895127499996,2.9999994,0.5781556423502557,1.9217999999999995,221,5,60.47192964011511,238.89977000000002,mp-18841,LaCrO3,https://materialsproject.org/materials/mp-18841,-29.055355525230304,50.79409418242671,-16.745349478110064,66.4802237557347
-9.946116847142855,-139.24563586,6.463277192244581,-2.4725279180357136,20.73486205,0.7907456454420501,0.3659999999999997,122,14,305.5918508987843,1189.448,mp-675143,Eu(GdS2)2,https://materialsproject.org/materials/mp-675143,-1.1081648604667222,-5.627846413049434,5.950802133278398,7.547860649378163
-5.498113475277778,-197.93208511,6.2051053746352896,-1.7210075733188883,0.0,0.0,3.2301999999999995,19,36,458.71903939378717,1714.14216,mp-510279,ZnAsHPbO5,https://materialsproject.org/materials/mp-510279,16.910306673517823,24.484149173691268,28.694091496349344,12.137179716502562
-6.4239320171428576,-44.96752412,6.474998326220169,-2.5712082775000007,1.0000002000000001,0.1281701580731181,0.0,107,7,90.92652516449478,354.55299999999994,mp-1217981,SrNdNiO4,https://materialsproject.org/materials/mp-1217981,-23.882768461216248,41.198194108823685,-13.132291063827758,59.90691533069528
-8.82281262125,-70.58250097,6.334305171830742,0.08643471687500083,22.230458300000002,0.8233746812959941,0.0,194,8,314.65043416698467,1200.268,mp-1186319,NdEu3,https://materialsproject.org/materials/mp-1186319,-22.729938063110172,65.48627182012181,-37.41039325728791,57.68434908931975
-8.026660823214286,-224.74650305,7.462530227489591,-2.7312947964583336,6.00099875,0.1838645256569656,0.0,4,28,380.3671637182954,1709.3855600000002,mp-1225394,EuTiNbBi2O9,https://materialsproject.org/materials/mp-1225394,16.76754320535511,56.512679655817976,0.10200809305007301,38.502573892248094
-4.641957191111112,-83.55522944,8.00568849546911,0.020978625495416736,0.00011525,2.941193680810376e-06,0.3680000000000003,58,18,456.66185596707686,2201.63,mp-1246357,Bi4Se3N2,https://materialsproject.org/materials/mp-1246357,34.569404838379114,30.873987328438755,10.15401836644688,19.579821952689315
-7.959781292142857,-668.62162854,5.785601947762673,-3.5621563363124986,4.8700000000000005e-05,4.961344891567538e-07,3.0656,7,84,1143.9498096338525,3985.7167385600014,mp-686543,NaSm9Si6(SO12)2,https://materialsproject.org/materials/mp-686543,-1.9443512101075504,46.681971302529604,5.300906728991511,53.064298820001724
-4.9840581975,-39.87246558,8.043605294251392,-1.4320373390625,2.0000003,0.2553946633737938,0.0,194,8,91.26319529717505,442.0764,mp-1206160,YbO3,https://materialsproject.org/materials/mp-1206160,-1.5166061886526232,10.397155816163467,-11.123981633160412,43.51248188784316
-5.62128147,-78.69794058,6.542885380508333,-0.21486793357142836,15.0127615,0.4641772802907017,0.0,8,14,376.92429673942223,1485.1637999999996,mp-1216689,TlCr5Te8,https://materialsproject.org/materials/mp-1216689,0.44918965463252203,23.98672301301424,-2.5910029111638995,25.384317719252714
-6.04061226625,-193.29959252,6.984904419249125,-2.081385199375,5.7000000000000005e-06,1.401072209877665e-07,0.0,53,32,474.12380843233217,1994.3581,mp-1198573,Sr2YCu3(PbO4)2,https://materialsproject.org/materials/mp-1198573,-23.79558925403858,49.206611276835524,-8.524394453094887,65.32291519577825
-7.7535047003125,-248.11215041,6.593709997955141,-2.67146902914625,6.999999925,0.2267604697388829,1.0902999999999996,55,32,359.75605725196044,1428.5283599999998,mp-19345,ErMn2O5,https://materialsproject.org/materials/mp-19345,-2.0204050054333758,27.36616434639101,1.090599385173598,49.686091711822776
-4.958339225357143,-138.83349831,5.432795191771714,-1.255965611309524,1.45e-06,2.0529857339393668e-08,0.0,214,28,823.1130709216429,2692.9838,mp-1209395,Pr3BBr3,https://materialsproject.org/materials/mp-1209395,-33.57944318246596,-32.24082370432013,-50.04183640811672,27.79860185841504
-5.1992991075,-20.79719643,3.2573392617247934,0.3747391938721263,1e-07,1.0517606070001005e-08,2.8096,123,4,110.805298230366,217.3574,mp-1207136,RbAgC2,https://materialsproject.org/materials/mp-1207136,-15.385812587848775,-38.702814102784146,-16.82193415588964,-29.285793496638924
-5.052614334642857,-141.47320137,8.955865814809028,-1.6863067967857144,2.5e-08,6.439040720569418e-10,0.2921999999999998,62,28,452.47674608311445,2440.3648,mp-754897,BaTl2O4,https://materialsproject.org/materials/mp-754897,-11.22771727548633,26.08734981198009,-13.395538980514305,50.50756157609621
-7.527524949333332,-225.82574848,7.143974724558723,-2.5923523464419995,10.999871699999998,0.3473793607189207,0.0,165,30,369.02945821635285,1587.63935,mp-690564,La2Mn3PbO9,https://materialsproject.org/materials/mp-690564,-21.26281797156628,53.27655135167569,5.723542147919159,59.35169102145699
-3.1075980514285715,-21.75318636,2.792062016495296,-1.4353307715357146,0.0,0.0,1.2568,139,7,253.4772837769859,426.20154,mp-768368,K4I2O,https://materialsproject.org/materials/mp-768368,-1.1694764775199382,17.551767611720376,1.6991720318477035,17.28369238351232
-7.202660718333332,-86.43192862,5.146763724819082,-2.8131300574999987,0.0,0.0,3.7129,141,12,180.56527702038917,559.6537,mp-768863,PrAsO4,https://materialsproject.org/materials/mp-768863,-14.735847594004555,1.041835767599328,27.27367878115913,-0.23659725454048566
-8.171152300500001,-163.42304601,5.678234613850278,-3.465296443033334,0.0,0.0,2.3881,31,20,223.41145309813487,763.9583385599999,mp-1221068,NaErTi2O6,https://materialsproject.org/materials/mp-1221068,-7.738189208450698,46.52002771112235,8.761917926577507,54.56838283897997
-6.5022345633333325,-58.52011107,8.042328524814158,-2.564414757116296,3.1e-06,3.081480812002407e-07,1.1394000000000002,139,9,117.24103766675287,567.8222063999999,mp-1217030,TiBi2(O2F)2,https://materialsproject.org/materials/mp-1217030,23.902339807805014,60.968044280630274,-8.441271322250048,33.26492939599699
-6.167547467916666,-148.02113923,4.862335653984284,-1.950221540911458,3.99999985,0.08999677623611581,0.0,173,24,517.9769686397044,1516.7230772000007,mp-1191233,Sm3AlFeS7,https://materialsproject.org/materials/mp-1191233,7.268501994263147,-4.317705774295023,10.625387818009274,3.672315269291405
-9.601790041363635,-211.23938091,7.768270116216602,-2.974457557613638,19.65016355,0.7103344587375543,0.0,63,22,322.38937022721734,1508.1896,mp-581427,Eu3ReO7,https://materialsproject.org/materials/mp-581427,24.287363745887884,63.67125583199632,-9.193261346482503,36.794904127296405
-4.778512115357144,-133.79833923,4.3470852491555725,-0.5144262137244903,1.75e-06,2.5846383015217842e-08,1.1543,62,28,789.0703058904419,2065.688192,mp-31275,Ba(TeP2)2,https://materialsproject.org/materials/mp-31275,13.727492096595604,24.691737180537192,31.118185698625556,4.32771456939187
-6.546924428529412,-222.59543057,5.629150828188352,-2.3119246683088237,0.0,0.0,3.2398,15,34,509.8624467232296,1728.4101999999998,mp-684017,Y2Te4O11,https://materialsproject.org/materials/mp-684017,5.9012664123989165,16.004628642653525,33.63813629866256,41.02319912084441
-3.8063461460714287,-213.15538418,4.321491334375937,0.976929947908572,6.000222099999999,0.05502739970791535,0.040699999999999965,205,56,1270.7665158505679,3307.12278,mp-1198961,TlCo(BrN)6,https://materialsproject.org/materials/mp-1198961,-0.1501188856700282,20.956478017805658,-1.4967784816509728,19.384776341015858
-5.287621466,-105.75242932,5.030527952248481,-1.2564692875833336,0.0,0.0,0.5656999999999999,15,20,304.7254583227015,923.1519999999999,mp-775767,AgAsO3,https://materialsproject.org/materials/mp-775767,-0.5852003916573765,18.083946859842342,22.191733082430773,35.343777088844405
-7.469200249772728,-328.64481099,3.9372038401662928,-2.447711671362662,25.00000085,0.5929212305003853,2.9258,173,44,491.38336465716765,1165.089422,mp-759036,LiMn5P3O13,https://materialsproject.org/materials/mp-759036,-5.281409022433984,42.80562445835386,-2.8754705838928345,62.12673518504795
-5.766926724,-115.33853448,9.305763962765713,-1.4042297542500002,0.0,0.0,0.3144,62,20,225.4877174589621,1263.6471800000002,mp-1188346,CoBiO3,https://materialsproject.org/materials/mp-1188346,-8.5774179863951,44.76214838732639,-5.599493902562288,65.26187675218624
-8.892382574615382,-462.40389388,8.564206551699742,-3.0188466916987178,0.000198625,3.7230700841185083e-06,2.0169,62,52,621.7418859032114,3206.62496,mp-1101701,Ta3InO9,https://materialsproject.org/materials/mp-1101701,20.536467007041985,30.386868985941923,30.233015741934047,37.1476335536231
-8.032498454444442,-144.58497218,6.289371219768072,-2.8955354831944438,7.0000041,0.3345413495388201,0.0,46,18,243.851772888592,923.6002800000001,mp-1097715,La2Cr2O5,https://materialsproject.org/materials/mp-1097715,-27.878069076735674,48.67894570792297,-12.487499606923691,66.20627133813957
-7.055019516333332,-423.30117098,8.682770931961832,-2.82499442225,0.0,0.0,2.0229,60,60,871.5948513168988,4557.470952000001,mp-16160,Sm4Au2O9,https://materialsproject.org/materials/mp-16160,22.060608602020146,33.713809560331896,22.87248299440748,37.687244490667894
-7.882358087142856,-110.35301322,5.590868200315232,-3.6482723317857126,0.0,0.0,3.7085,36,14,206.08485849400856,693.867024,mp-1217782,SrSmScO4,https://materialsproject.org/materials/mp-1217782,-24.765253713443066,31.276108834905386,-17.248982302513355,43.53238969971164
-7.473946409,-149.47892818,9.344329258226747,-0.8861129044999998,13.59697895,0.4330292193080472,0.0,72,20,365.9339054478579,2059.215,mp-1105156,Eu2Si5Pt3,https://materialsproject.org/materials/mp-1105156,-33.785837471443145,17.78813110414153,-22.594827126521608,17.11829525686123
-4.162575355,-16.65030142,8.679979187836963,0.06460711499999937,1.4e-06,9.963640169510039e-08,0.0,139,4,163.75230742988475,855.967,mp-1183087,Ac3Lu,https://materialsproject.org/materials/mp-1183087,28.202658000060197,64.54264029708227,-12.998386607714114,33.378797460719206
-8.243637722727273,-90.68001495,6.15776991313169,-3.7447942401136376,0.0,0.0,4.8454,12,11,139.7139901607157,518.1008,mp-7193,Lu2Si2O7,https://materialsproject.org/materials/mp-7193,28.722358175151076,10.14746988897599,46.790134074271066,22.749424345863552
-7.309507161153847,-190.04718619,3.599249630694457,-3.015935938150183,0.0,0.0,0.5327999999999999,2,26,322.7051315879818,699.469448,mvc-2641,SrMgTi(PO4)2,https://materialsproject.org/materials/mvc-2641,15.927913146391985,32.59253479726556,28.172280130886694,39.15357023662485
-1.480012835833333,-17.76015403,2.26797964589568,0.15089492416666686,0.006731025,0.00019661468205194935,0.0,63,12,398.9722462079014,544.9200000000002,mp-1094305,SrMg2,https://materialsproject.org/materials/mp-1094305,-4.194338308530258,21.487826480684575,2.4758125487653726,17.321660817838595
-7.895868543333332,-142.12563378,6.440655551366015,-2.855959115416667,6.0000443,0.2809930344285319,0.0,46,18,248.84924657522916,965.2,mp-1076055,Sm2V2O5,https://materialsproject.org/materials/mp-1076055,-22.020232457211776,43.926271258478934,-8.996867000487,62.246209145236826
-6.223119300277778,-224.03229481,7.3672488811133565,-2.05477873699074,5e-08,1.2532517137784096e-09,1.731800000000001,62,36,464.95307544499695,2062.8392,mp-768636,LiBi2BO5,https://materialsproject.org/materials/mp-768636,16.890259419153963,-6.5580845263997,12.368639250216733,2.4412183738227475
-7.397681041111111,-133.15825874,6.946743887930238,-2.444565687500001,2.00000035,0.09678116557573267,1.1785,1,18,240.83336344821242,1007.5088,mvc-2131,Ca(WO3)2,https://materialsproject.org/materials/mvc-2131,-9.768407083856149,53.56586162833824,51.193658766658174,16.100932348499725
-3.559219895714285,-24.91453927,4.584362579861283,-0.5179652914285711,2.2e-06,1.0063517192451487e-07,0.0,71,7,254.7711899261499,703.3640772000001,mp-7377,Ba3(AlSn)2,https://materialsproject.org/materials/mp-7377,0.3405359420041938,12.450321150596974,4.1675486481740505,19.255905105554444
-6.467048415,-77.60458098,7.688922505218871,-2.0488571592708333,2.9994213,0.16882728265156796,0.0,123,12,207.04858575812983,958.7131,mvc-2969,Ba2TlW2O7,https://materialsproject.org/materials/mvc-2969,-13.161695126442922,33.6029634048541,-12.04363664797447,51.550021585283844
-3.3672970220000003,-16.83648511,7.136174920443268,-0.6932620220000004,0.0,0.0,0.4299999999999997,164,5,105.5731625827427,453.7012,mp-10314,Yb(ZnAs)2,https://materialsproject.org/materials/mp-10314,-30.081510123331622,-17.600024349019215,-18.872700855071134,-19.370012306193388
-7.3301413941666675,-263.88509019,9.343885356782312,0.2034162664422215,2.175e-06,3.3958534059109715e-08,0.0,52,36,746.4277119912242,4200.1632,mp-1247324,Re2Pb3N4,https://materialsproject.org/materials/mp-1247324,33.17462279373889,30.692352864350468,29.194742234152695,34.57122929841915
-7.6615624150000015,-76.61562415,5.2226761335802125,-0.31464403866666685,2.5e-07,2.482676052315296e-08,0.0,131,10,117.35386058212605,369.09774,mp-7783,La(BC)2,https://materialsproject.org/materials/mp-7783,-20.51615961669868,22.932349790978407,13.91900249155883,3.1338013656327504
-9.2277067775,-110.73248133,8.580557988817786,-3.6878240816666663,0.0,0.0,3.5377,36,12,160.19083700704348,827.75938,mp-768176,TmTaO4,https://materialsproject.org/materials/mp-768176,3.1965948689409704,20.974748741589607,2.8135089506313258,38.3045123982261
-6.884880170833332,-82.61856205,5.876978879190519,-2.668713667475833,5.0,0.3818991136755708,0.0,107,12,152.58041136042016,540.0125099999999,mp-1218748,Sr2LaMnCoO7,https://materialsproject.org/materials/mp-1218748,-25.35385939197021,47.164312917189065,-11.644622192217824,63.17604968236744
-5.415569371666668,-97.48024869,6.4254288753972695,-1.8447653998611107,5e-08,2.0626541925267216e-09,1.8327,55,18,282.5016625371321,1093.1356,mvc-3752,Mg2Bi2O5,https://materialsproject.org/materials/mvc-3752,11.581128144766573,3.384614029412465,12.356875459008105,6.32202187368402
-8.613802159090909,-189.5036475,6.229233464479103,-3.59320816284091,0.0,0.0,0.4091000000000005,166,22,318.12738424943433,1193.40148,mp-1223232,La4CeZr3O14,https://materialsproject.org/materials/mp-1223232,24.924441894625648,64.60481017819947,-10.723799849951396,36.75134589533335
-2.520874650555556,-90.75148742,3.9625664586904046,-0.359605952222222,1.56e-05,1.3667124395786732e-07,0.0,225,36,1330.2243045945872,3174.332000000001,mp-642418,Sr11In3Ga4,https://materialsproject.org/materials/mp-642418,1.4895037430800038,9.425111081069279,3.3136151264286764,20.047929085684707
-6.96942722,-41.81656332,7.1980725898599225,-0.4812625341666674,1.9093768,0.19665671434739213,0.0,119,6,113.15149333327524,490.48691,mp-1226480,CeUSi4,https://materialsproject.org/materials/mp-1226480,-35.80506299528775,26.27243860162697,-29.456021164277224,27.088082577312175