energy_per_atom,energy,density,formation_energy_per_atom,total_magnetization_uB,total_magnetization_T,band_gap,sgr,num_sites,cell_volume,weight,mp_id,formula,URL,tsne_xrd_lin1_0,tsne_xrd_lin1_1,tsne_xrd_lin2_0,tsne_xrd_lin2_1
-5.3138069925,-42.51045594,4.984808392813825,-1.4894179570312502,0.6565515000000001,0.04412563824812357,0.0,99,8,173.4024483565765,520.5405949999998,mp-1228387,Ba2CoNiS4,https://materialsproject.org/materials/mp-1228387,-10.140955553972496,16.901647050997664,-16.59649905021594,17.968544675951886
-5.17612718,-20.70450872,6.684034186397327,-1.617204951197917,1.2e-06,1.6511250149241873e-07,2.2090999999999994,166,4,84.6990845675835,340.93241,mp-1216540,TmAgS2,https://materialsproject.org/materials/mp-1216540,-11.795524143598376,24.636924811913964,-18.901261007173325,39.37697046733207
-5.830522064090909,-128.27148541,5.428058682519072,-2.248825226022728,2.365e-05,8.518433611044398e-07,1.8538,40,22,323.55553198617304,1057.6556,mp-865532,BaMgTe2O7,https://materialsproject.org/materials/mp-865532,-1.0204645355153945,23.46190841275095,40.558354695185145,16.175516255183858
-8.452808336458334,-405.73480015,5.952290913783132,-3.626570377447917,4.415e-05,7.896218285634509e-07,2.8193,158,48,651.6118743127744,2335.73758,mp-1228754,Ba2La3Ti3NbO15,https://materialsproject.org/materials/mp-1228754,-15.592293178840293,19.87447911154412,-13.670943125014574,46.965386693820726
-4.1106829,-16.4427316,4.728467060459269,-0.5653985418749992,1e-07,1.8914649713618758e-08,0.0,12,4,61.61396033767749,175.44879999999995,mp-996993,CuBrO2,https://materialsproject.org/materials/mp-996993,-9.610983893482354,17.250242845215627,1.273415516730957,21.889764292181592
-3.254942630714286,-45.56919683,3.1794644256268043,-1.712050198807045,0.12394780000000001,0.003225225300467175,1.5162000000000002,122,14,447.87435141571,857.5532,mp-38099,Rb4Cl2O,https://materialsproject.org/materials/mp-38099,3.7662300315650112,39.43246736660475,7.647673010679514,26.98389528685888
-6.866295845,-54.93036676,8.244853591141332,-0.8565971750000001,1.62e-05,1.3511044499245934e-06,0.0,63,8,139.73445896503702,693.80492,mp-1025413,ThSi2Ni,https://materialsproject.org/materials/mp-1025413,-37.13796173185303,9.126610948408556,-22.471857562871875,22.619820356337037
-6.47697326125,-51.81578609,7.321664636548016,-2.9954027059267245,7.115e-05,5.5422601012937174e-06,2.8291,194,8,149.61165542809275,659.6691437999999,mp-754154,CsHoO2,https://materialsproject.org/materials/mp-754154,0.2943957037718849,63.50080817010418,-11.094708314845047,50.88839984926773
-3.732078483,-37.32078483,4.004622879741744,-1.494695479068966,0.0,0.0,2.1232,225,10,332.8902107681057,802.8114499999998,mp-1112413,Rb2YCuBr6,https://materialsproject.org/materials/mp-1112413,-21.803741293127985,-20.112856436641568,-18.58717099226252,-11.015338495345233
-8.450349645000001,-101.40419574,7.885687583231758,-2.8778410900000004,2.99999985,0.22998548026508756,1.4551999999999996,74,12,152.0191297697185,721.91941,mp-19089,UCoO4,https://materialsproject.org/materials/mp-19089,-0.491014966889111,9.93173665451981,8.277668322437147,36.46000058516147
-3.757729774,-18.78864887,7.532884213142728,-0.24882326743749986,3e-07,3.2407914884474345e-08,0.0,139,5,107.88165311563569,489.3953,mp-5000,Tl(CuSe)2,https://materialsproject.org/materials/mp-5000,-12.473245277585876,25.14784710650583,-14.295903807708099,54.4204205707739
-3.47645562984375,-222.49316031,6.5012798057669805,-0.5607717768750002,3.125e-09,1.8844778725353046e-11,0.8102,92,64,1932.5752212336868,7566.3456,mp-561066,TlS,https://materialsproject.org/materials/mp-561066,7.520577575336063,0.8561924392016264,6.332331317165798,13.115224518808358
-6.254437234999998,-87.56212129,4.9330093884625335,-0.8003344488771417,1.0,0.031749321056983845,0.0038000000000000256,176,14,367.06500752072515,1090.4502,mp-1246640,Ba3ZrN3,https://materialsproject.org/materials/mp-1246640,6.893233958355664,18.04114545275705,12.179348291986669,7.922697260923518
-8.04459786607143,-225.24874025,4.130677257512283,-3.3862301812380955,0.0,0.0,2.3749,57,28,359.80790223942665,895.04087712,mp-18005,NaYTiO4,https://materialsproject.org/materials/mp-18005,-7.276084701512344,29.03048820066094,2.156084563135935,50.325420285338716
-6.185254941875,-98.96407907,6.956501320152711,-2.399713161796876,2.9999968,0.1587168377592896,0.0,42,16,220.28007562559623,922.82,mp-1218716,Sr2Pr2TlNi2O9,https://materialsproject.org/materials/mp-1218716,-19.87683249144373,40.56310189528988,-7.514071576895272,66.24617101058192
-4.66766593,-18.67066372,6.286230800255088,-2.057522381875,0.0,0.0,2.1932,166,4,84.58474247079434,320.20880000000005,mp-978857,SrHgO2,https://materialsproject.org/materials/mp-978857,30.68493094207004,63.13341538402894,-13.02680075645962,32.096571810144866
-7.550488596666668,-45.30293158,7.2803972130608665,-3.206857874166667,0.9998064,0.12970579751126796,0.0,11,6,89.83259630015762,393.85824,mp-1206243,HoO2,https://materialsproject.org/materials/mp-1206243,0.9564964495466656,14.103771844036734,6.885695736916428,33.3710349676288
-6.5258794225,-156.62110614,4.73917004706996,-2.3681805984375,8.000280199999999,0.2693219895814077,0.0,74,24,346.1870447130516,988.01608,mvc-409,Sr2YCo2O7,https://materialsproject.org/materials/mvc-409,-22.40895992123087,42.29837376603322,-7.848237947241325,66.71312482210654
-5.690650504615384,-73.97845656,7.531944196176861,-2.110511077788462,0.6370262,0.03840399755744923,0.0,123,13,193.31176619079704,876.8318,mp-1214696,Ba2DyCu2HgO7,https://materialsproject.org/materials/mp-1214696,-18.91103126302152,36.561760399265204,-13.843466801862949,54.342926961769464
-7.489631528571427,-52.427420700000006,4.873252940929064,-3.465217980238095,0.0,0.0,1.9142,139,7,97.82960224771222,287.1046,mp-5532,Sr2TiO4,https://materialsproject.org/materials/mp-5532,-22.794107438805998,37.85735528603385,-15.210718940371681,58.337835922155286
-6.345210655,-38.07126393,5.928808885998043,-2.841687320416668,0.0,0.0,2.1867,166,6,160.84746075585414,574.29174,mp-1101455,NdIO,https://materialsproject.org/materials/mp-1101455,-12.980712141982375,20.97605134878652,-17.459007308990387,42.473867457881106
-6.8071284720000005,-136.14256944,7.3971939640396105,-0.5591334333333329,1.25e-07,7.4347903363286014e-09,0.0,127,20,195.93801985939092,872.8439999999999,mp-571495,LuB4,https://materialsproject.org/materials/mp-571495,-2.1763419371745147,16.98281370305258,9.40969470847633,24.31808037879621
-3.7538294760000004,-18.76914738,5.876131990119952,-0.4908152639999998,3e-06,2.3444316749107818e-07,0.0,65,5,149.12865532329738,527.72,mp-1068167,Sr2Ge2Pb,https://materialsproject.org/materials/mp-1068167,-9.003951367922177,32.434333020417775,-16.653640896201367,42.528379792257155
-7.328083975833334,-87.93700771,7.778045202766642,-0.6684234491666672,7.028955775,0.3248386096659743,0.0,194,12,252.17416725659604,1181.1960000000001,mp-13159,GdZnGe,https://materialsproject.org/materials/mp-13159,-54.70350677083694,21.287124315612914,-50.17884526407335,26.78745089726607
-6.208871277777778,-55.879841500000005,5.505103252010472,-1.9604925970833336,2.5874017000000005,0.2475713876707431,0.0,99,9,121.79819036493004,403.7915386,mvc-7688,BaAlCuMoO5,https://materialsproject.org/materials/mvc-7688,-11.816697448311508,52.65128279037147,25.448016919436746,53.10199344032158
-7.3399229560000006,-36.69961478,7.759695905212777,-0.6545298259999995,0.0007463999999999999,9.804213347759602e-05,0.0,107,5,88.72301772407171,414.6025,mp-1068364,CeSi3Os,https://materialsproject.org/materials/mp-1068364,-47.237414843428446,30.134028161606988,-26.116183372516183,33.72680794967873
-3.82787173,-22.96723038,1.664422393889521,-1.021502769273333,0.0,0.0,1.7866000000000002,166,6,77.04352520971891,77.22370000000002,mp-29149,Li4NCl,https://materialsproject.org/materials/mp-29149,-11.17054853797609,22.58721816279854,-13.81200799940238,-8.767121619641856
-7.59553107375,-364.58549154,3.4542503256143684,-2.590221605986528,12.000000199999999,0.2988892180168285,2.8149000000000006,161,48,467.89502990253504,973.3144,mp-556300,Fe3B7ClO13,https://materialsproject.org/materials/mp-556300,-14.157273682970413,18.160228546076034,-13.287345190680432,25.45093894895296
-2.7915911722222213,-25.12432055,4.544991937812826,-0.9556912102681993,1.39e-05,4.6885995743272095e-07,0.6932999999999999,139,9,345.50082123791674,945.6558438,mp-543024,Cs2Pd(IBr2)2,https://materialsproject.org/materials/mp-543024,1.2357194877575155,-0.5056721394812249,-7.929259074383808,-18.484021236914142
-6.372046109499999,-127.44092219,4.4606802382605215,-0.6855860384519993,2.9978765,0.09087435209930844,0.0,64,20,384.45882808555865,1032.7657800000002,mp-1246807,Sr2MnN2,https://materialsproject.org/materials/mp-1246807,12.477176241757192,38.194919633318854,-1.28799497223325,49.96600539753784
-4.529949809166666,-163.07819313,3.8745047462485207,-0.652964924486111,7.058999125,0.09665159460307078,0.0,62,36,851.1606390980171,1985.99723136,mp-505443,Na3(FeSe2)2,https://materialsproject.org/materials/mp-505443,12.806144474601252,10.95128858396178,-2.8747845185925724,-8.450949932238558
-6.019270133269231,-313.00204693,10.082265588856263,-0.9181288105769236,0.00425405,4.591735807429666e-05,0.0,62,52,1079.7000595175675,6555.5958,mp-645543,Pr3(Ge3Pt2)2,https://materialsproject.org/materials/mp-645543,-43.25062675685547,25.853464309815774,-25.733603249244233,31.33162975584357
-5.1051996624390235,-209.31318616,6.868897546572095,-1.9340882181402432,0.00034169999999999996,5.436591460927042e-06,0.0,2,41,732.47989322056,3029.9374,mp-1229200,Ba10Cu5Hg5O21,https://materialsproject.org/materials/mp-1229200,-11.864331605604509,25.373199909163734,5.009174607289421,48.059574367033214
-7.1232601411764715,-121.09542240000002,6.640161511054077,-1.923776409624708,1.0,0.05019843919865035,0.5464,121,17,232.1599029491942,928.3607400000001,mp-1224441,H(WO3)4,https://materialsproject.org/materials/mp-1224441,-9.331262075022355,54.968834871044734,51.48553405960046,15.919240028206728
-6.291755060625,-100.66808097,7.741619416609932,-1.5452425200000013,3.972915275,0.15280262883717666,0.0,141,16,303.00926301522463,1412.6632000000004,mp-1214266,BaWO2,https://materialsproject.org/materials/mp-1214266,-12.382125094523651,25.13856522787129,-22.327525285497796,41.64106073536013
-6.5944295722222215,-118.69973229999998,4.985621825905295,-0.9812697910577776,0.0002028,5.4938205670614035e-06,0.6996000000000002,15,18,430.2004965443004,1291.639,mp-1246601,Ba3Y2N4,https://materialsproject.org/materials/mp-1246601,14.943558541668219,20.772584365014573,39.91928233693921,12.474584509204384
-7.713249478,-77.13249478,7.28367987406537,-2.8101250452500004,3.0,0.3010553695707383,2.6772,146,10,116.13210675341931,509.39428,mvc-5863,Mg2TaWO6,https://materialsproject.org/materials/mvc-5863,14.014821710755287,12.460896137709213,10.59759575974068,31.63533102168534
-7.170039567999999,-71.70039568,7.090595853567223,-2.5143539475126664,4.0000005,0.3651639414229022,0.0,216,10,127.65845591332392,545.108845,mp-1227378,BaTiMnBiO6,https://materialsproject.org/materials/mp-1227378,-30.20297550782145,36.68433882953964,-18.854597891737374,63.70221835123321
-5.487831795499999,-109.75663591,7.996499143623247,-1.5917119352500002,9.185e-05,3.531236190102722e-06,0.0,148,20,303.1306295398126,1459.7572,mp-754011,Li(BiO2)3,https://materialsproject.org/materials/mp-754011,3.6352976430324566,20.803859713022312,-5.741801402184964,29.70762437376827
-1.63059792,-3.26119584,5.328120398207415,-0.06401150999999983,3.9e-06,7.389938880874186e-07,0.0,221,2,61.503692176147254,197.345,mp-972352,YbMg,https://materialsproject.org/materials/mp-972352,-11.055652547758504,51.16489769842463,3.2843939380633245,22.625922080552048
-8.800063340909091,-193.6013935,5.972315748260468,-3.6606875842045463,0.0,0.0,2.2255000000000003,51,22,318.21872005739993,1144.5094800000004,mp-674999,La2Zr2O7,https://materialsproject.org/materials/mp-674999,24.118881580631285,63.260294135418995,-8.61496613434752,36.8819851279066
-8.249434551363636,-181.48756013,7.295236441116731,-3.196582563977273,2.9569229,0.10528917719967194,0.09469999999999956,63,22,327.29072370576387,1437.8844199999999,mp-31353,La3OsO7,https://materialsproject.org/materials/mp-31353,20.640094824184764,55.593136566541745,-1.1032011505328545,36.653576378595204
-6.328771348235295,-215.17822584,5.929497933328184,-2.2940408324264707,0.0,0.0,3.2903,15,34,546.0232890257752,1949.7548,mp-5121,Nd2Te4O11,https://materialsproject.org/materials/mp-5121,6.483473548143361,17.555087816920462,35.49403656983449,-3.2811970119848093
-7.890064787000001,-78.90064787,6.413654284582509,-3.4570489682500005,2.2e-06,2.0666680919793625e-07,1.0848,123,10,124.05931363209605,479.1658186000001,mp-1147547,Sr2TaAlO6,https://materialsproject.org/materials/mp-1147547,-27.896729428088502,48.21093185922472,-16.25470739846278,64.37007020206202
-6.96558282857143,-195.03631919999998,4.790116325419697,-2.0109111316964285,7.9999996,0.23681763762208824,1.0398999999999998,85,28,393.6890615707912,1135.6652,mvc-10638,CaMo4O9,https://materialsproject.org/materials/mvc-10638,1.119258724221406,21.83371137400621,-11.939876706815355,29.136271274884876
-6.64877076,-186.16558128,4.456014267054481,-3.0406877253553835,0.0,0.0,4.995900000000002,62,28,473.66375955592315,1271.064648,mp-17832,RbBaPO4,https://materialsproject.org/materials/mp-17832,5.949716893855563,4.203223183917853,14.39227385681077,8.957389838679447
-5.9680650335,-119.36130067,8.659458539001175,-2.209205448750001,0.0,0.0,0.7376999999999994,62,20,214.28278908617975,1117.4521544000002,mp-768539,AlTlO3,https://materialsproject.org/materials/mp-768539,-8.193335319897232,48.39682360800785,-7.91727427515757,56.66973504366582
-6.76129361375,-162.27104673,8.676420300079206,-1.9868129575,1.15e-06,3.851716334660496e-08,2.8187,15,24,347.95331026434377,1818.0778,mp-1208096,TlBi(WO4)2,https://materialsproject.org/materials/mp-1208096,26.781842762848388,52.66652124882135,39.3649142249865,-0.10330109497300656
-7.842769893333332,-47.05661936,9.722011437264591,-0.40260315583333295,4.3457798,0.4790227241478901,0.0,25,6,105.72775929695857,619.0077200000001,mp-1216879,U2Si3Ni,https://materialsproject.org/materials/mp-1216879,-36.24909912384833,49.55993232065361,-2.942167674798919,18.829434914494428
-7.5020925205,-150.04185041,5.196721501043228,-2.49408907475,1.682272475,0.08243341643874108,0.0,62,20,237.8320981432772,744.3048,mp-1188853,CaTcO3,https://materialsproject.org/materials/mp-1188853,-24.08820477664984,51.084454974969304,-6.756050202506009,67.27712464536688
-8.778449771304349,-403.80868948,8.243422512582839,-3.0020702262862313,0.0,0.0,2.6212,127,46,618.5896123469943,3070.8676,mp-1210770,LuTa5Ag2O15,https://materialsproject.org/materials/mp-1210770,9.34603426541462,32.59551023003734,31.18007779488897,36.43555418405783
-8.05313255423077,-418.76289282,7.204506996151121,-3.7501279766289755,1.5e-06,2.345918354163064e-08,4.752,14,52,745.170739971304,3233.0392,mp-1201047,Dy4BClO7,https://materialsproject.org/materials/mp-1201047,3.8961642340779985,38.77741912409545,6.9335591850752865,34.39733654969017
-10.780943525,-64.68566115,7.50505163696298,-4.204152233313334,7.0000000999999985,0.9589339318511808,3.3035,166,6,85.0720282844102,384.4956064,mp-753721,GdOF,https://materialsproject.org/materials/mp-753721,29.97620157527153,63.22979275341872,-10.033666895126656,32.016700644575586
-5.720388018333334,-102.96698433,6.481901154488818,-0.6218742873611115,1.1140792,0.023846200323178586,0.0,193,18,544.4704390049692,2125.3361,mp-1189433,La5Sn3C,https://materialsproject.org/materials/mp-1189433,3.682706494801909,40.574203686400864,3.796898043566463,50.22027071616973
-8.025222853125,-256.8071313,5.029858353145091,-2.6875274687137503,6.000000625,0.19196536694618396,0.0908000000000002,55,32,364.25526662187684,1103.34798,mp-1207744,YMnCrO5,https://materialsproject.org/materials/mp-1207744,-2.0018132231640817,27.437688550210513,1.458851258458742,49.888755768117285
-5.471759320714287,-153.20926098,8.252419059087199,-1.4703198128571435,1.5e-07,3.1679009163437138e-09,1.1617000000000002,55,28,551.8195682400205,2742.3904,mp-21452,Pb3O4,https://materialsproject.org/materials/mp-21452,7.094250440030586,14.246140183195806,9.113832562523184,30.33583301376699
-7.754026427857142,-217.11273998,4.902449188667903,-3.3714238545952377,3.1725e-05,9.243991036517711e-07,2.3542000000000005,57,28,399.9627470957985,1180.8195999999996,mp-1211538,KNdTiO4,https://materialsproject.org/materials/mp-1211538,-12.236157742940906,33.899581492754145,-0.495528229769783,49.18398976284646
-5.5575897742465745,-405.70405352,5.7265730187280965,-2.073303240325343,0.0541399,0.0006303626322795417,0.0,12,73,1000.9316369186403,3451.8358000000007,mp-1229082,Ba6Ca12Cu15Hg3O37,https://materialsproject.org/materials/mp-1229082,23.05645456001989,37.95927730244185,24.64617103352584,42.113060247750454
-2.5375185211764704,-86.27562972,6.4588314770420645,-0.5908267947058823,0.00391195,3.28074696719848e-05,1.2149,159,34,1389.6261779050135,5405.089,mp-674339,Tl6PbI10,https://materialsproject.org/materials/mp-674339,1.5057696913790148,28.316453123680333,0.5343200142579406,17.534869207218627
-3.054694257,-30.54694257,4.467876316138503,-1.2405297029080458,0.0,0.0,1.2019,225,10,327.0938593198817,880.0846424,mp-1113577,Cs2AlAgBr6,https://materialsproject.org/materials/mp-1113577,-21.15904028586993,-19.735784912790603,-18.144631182903506,-10.153999572377382
-6.0794637520000006,-60.79463752,6.742766019731787,-1.0639864877708334,2.5e-07,1.5363961548116468e-08,0.0,63,10,189.63313491871517,770.02216,mp-5821,TaAgS3,https://materialsproject.org/materials/mp-5821,4.462744642182615,-8.284834280622771,10.224051692379906,3.3274583828659137
-8.897817349499999,-711.82538796,5.418864224676181,-3.1718578503750012,0.0,0.0,1.9451,59,80,1016.67268155212,3317.7246,mp-28707,PrNb5O14,https://materialsproject.org/materials/mp-28707,6.671757791383888,21.686626631541085,26.019011913353282,37.204857816497366
-7.914624805833332,-189.95099534,6.082607242109259,-3.6042786471875012,0.0,0.0,5.1444,113,24,259.8701814205527,951.9127279999999,mp-1208515,Tb2Be2SiO7,https://materialsproject.org/materials/mp-1208515,-2.1298764438313293,12.88925491748776,7.891059575655963,30.748392265836216
-8.267627119166667,-99.21152543,6.560849611556723,-3.3220914042708336,12.000598599999998,0.9911539143874706,0.0,139,12,141.10397120342253,557.5068772000001,mp-983228,SrEu2Al2O7,https://materialsproject.org/materials/mp-983228,-7.681688708874836,18.362130150331847,-23.26031235171409,37.21985706150328
-4.8105416042857145,-67.34758246,3.5976507901567354,-1.7769447030357146,0.0,0.0,2.4704,40,14,389.75221830680016,844.42,mp-30294,Sr2SnS4,https://materialsproject.org/materials/mp-30294,10.489935225020792,8.944615214784957,2.3883477639825763,15.74719416603328
-7.24096376173913,-166.54216652,5.709964848144442,-2.9272216010869574,0.9987821,0.03698394190384848,0.0,150,23,314.7277085102162,1082.22939,mp-1211276,La3NbGa5O14,https://materialsproject.org/materials/mp-1211276,3.5457329758395795,15.245430407568971,3.2175225330976787,45.724889295303505
-6.632096463333332,-39.79257878,6.109428710619161,-3.1875603829166668,0.0,0.0,4.4281,59,6,143.9654054399222,529.67522,mp-754526,TmBrO,https://materialsproject.org/materials/mp-754526,-7.377431786630398,15.414628626010506,-20.349845023626514,21.942175587949123
-7.251479865263157,-137.77811744,9.209813466209377,-2.869959549473684,1.9999951,0.09042562050579783,0.0,12,19,257.7596073969717,1429.6068,mp-1207623,Yb5(ReO6)2,https://materialsproject.org/materials/mp-1207623,9.720117959073342,22.6805609460087,1.2747417142873851,36.13669228457008
-9.8112065195,-196.22413039,7.235659213965193,-3.7090550587500006,6.999999975,0.3826719725655358,3.2382,62,20,213.18115504943398,928.9189544,mp-5223,GdAlO3,https://materialsproject.org/materials/mp-5223,-8.094805226659847,48.45983832332399,-7.866402462157108,56.65978804140544