energy_per_atom,energy,density,formation_energy_per_atom,total_magnetization_uB,total_magnetization_T,band_gap,sgr,num_sites,cell_volume,weight,mp_id,formula,URL,tsne_xrd_lin1_0,tsne_xrd_lin1_1,tsne_xrd_lin2_0,tsne_xrd_lin2_1
-7.4974696764285715,-104.96457547,3.692336019958032,-2.6606118047619054,5.0000004,0.37822646481877065,0.7391999999999999,12,14,154.0620076713694,342.5687,mp-769560,Li2TiV3O8,https://materialsproject.org/materials/mp-769560,5.868413372920352,-63.91052126882902,-8.678945950023147,-65.33493086106526
-6.264827180909092,-206.73929697,4.148819103997317,-1.897908940227272,4.0,0.14243708552681775,0.0,12,33,327.27613681383536,817.692,mp-850867,Li2Cr2NiO6,https://materialsproject.org/materials/mp-850867,6.1341314510305445,-68.43910487793539,-7.8617514196693215,-67.75704257918625
-5.780615685,-184.97970192,4.167513672177217,-1.8452667216224992,24.8952315,1.0071226473426218,0.0,12,32,288.07875703560296,723.001465,mp-1176316,Li9Mn2Co5O16,https://materialsproject.org/materials/mp-1176316,-2.233950775292868,-75.71020395634123,-19.704803708586454,-75.36207984406595
-5.151368708000001,-77.27053062,4.958702913081407,-1.48633328,4.0,0.29804873048787417,0.0,166,15,156.40482351303058,467.0562000000001,mp-772822,Li3Cu3TeO8,https://materialsproject.org/materials/mp-772822,2.658513306488004,-61.16664374012365,-10.902429218792632,-61.71478619430221
-5.403678670625,-86.45885873,4.064612446232164,-1.7124806831250003,9.9999991,0.8402488699112449,0.2896000000000001,12,16,138.6977613540245,339.49978500000003,mp-1174116,Li5Co3O8,https://materialsproject.org/materials/mp-1174116,20.17109432764589,-73.61663755503061,-9.952469923383198,-77.98450704264737
-5.77365104875,-184.75683356,4.18337312369015,-1.838302085372499,23.349804100000004,0.9481979301425034,0.0,6,32,286.9866309105772,723.001465,mp-1100609,Li9Mn2Co5O16,https://materialsproject.org/materials/mp-1100609,1.5193627801381084,-72.51713713104445,-20.800951607448408,-75.1402892587906
-5.7630867071875,-184.41877463,4.1748302858263315,-1.8277377438099995,21.999999300000002,0.8915601571355191,0.0,2,32,287.5738835865185,723.001465,mp-1175704,Li9Mn2Co5O16,https://materialsproject.org/materials/mp-1175704,14.375617664315186,-79.70581958929681,-13.423464349713015,-86.51745397135183
-5.8700116575,-140.88027978,4.090104841664466,-1.9226128207049995,17.999999300000002,0.9799731292202258,0.9826,1,24,214.06011194934257,527.2554749999998,mp-1174951,Li7Mn2(CoO4)3,https://materialsproject.org/materials/mp-1174951,16.51631983522286,-73.14842439679569,-10.430041918254062,-79.52369366296821
-5.8466367579166665,-140.31928219,4.055509694585588,-1.899237921121666,17.2298218,0.9301081900774384,0.0,10,24,215.88613176295453,527.2554749999998,mp-1174914,Li7Mn2(CoO4)3,https://materialsproject.org/materials/mp-1174914,5.754718275287371,-71.05870966880389,-21.964466695947248,-73.35089420092113
-5.7748617346875,-184.79557551,4.146735205101142,-1.839512771309999,22.0000003,0.8855603236518055,0.3087999999999997,1,32,289.5222625097448,723.001465,mp-1176070,Li9Mn2Co5O16,https://materialsproject.org/materials/mp-1176070,10.854070892181976,-80.3700645628951,-14.813978274554167,-85.92382017514075
-5.7363004909375,-183.56161571,4.109444032876826,-1.8009515275599997,22.003487,0.8777356559025784,0.0,10,32,292.1495338553694,723.001465,mp-1100689,Li9Mn2Co5O16,https://materialsproject.org/materials/mp-1100689,10.772028829647413,-82.1476150478113,-18.047327717904288,-86.4115905961536
-5.859351892,-117.18703784,3.897186118506185,-1.902313156471,7.000000200000001,0.4458956303144817,0.03679999999999994,2,20,182.95414934027286,429.38248,mp-1173971,Li3MnCoO5,https://materialsproject.org/materials/mp-1173971,13.938802563150713,-83.99629125161742,-17.00673617779421,-88.42028551828442
-6.8204619341666675,-81.84554321,4.437741335737455,-1.7893065110733335,9.9999995,0.7512649460283534,0.0,166,12,155.12588803014137,414.569335,mp-754156,Mn3SbO8,https://materialsproject.org/materials/mp-754156,5.059630040962497,-63.7942494874974,-8.136947306475962,-66.18283728012429
-7.6120904375,-91.34508525,3.7249784250762366,-2.3287451966666666,0.999999975,0.07880005028446962,1.0637000000000003,15,12,147.89412492932033,331.7612,mvc-11624,VO2,https://materialsproject.org/materials/mvc-11624,16.803242121771365,-67.99149946695725,-15.231645707973694,-68.1699272898111
-6.922669907857142,-96.91737871,4.138731412656521,-2.275892965714285,3.9999992999999994,0.3285491766055226,0.0,166,14,141.885155257485,353.6348950000001,mp-752608,Li2V3CoO8,https://materialsproject.org/materials/mp-752608,19.520398781924214,-69.17315145761725,-9.281276845772693,-71.99082700781517
-6.061665625,-36.36999375,3.824068022142601,-1.3351118741666674,4.000007800000001,0.6110456742272337,0.0,166,6,76.28946895156066,175.6876,mp-25236,FeO2,https://materialsproject.org/materials/mp-25236,3.0627745466933267,-64.35284195989867,-8.309179499723788,-65.69135842848024
-6.088591790625,-97.41746865,4.270788580272528,-1.9090918513699997,7.8410762,0.6128367678396716,0.0,12,16,149.11052129509773,383.50167999999996,mp-1173896,Li2MnCoO4,https://materialsproject.org/materials/mp-1173896,5.605369037768629,-78.80230206049345,-26.13505241040428,-75.61832142539808
-6.6450419670454535,-292.38184655,3.7085902841241096,-2.173434474090909,10.999999699999998,0.2941425739794199,0.0,1,44,435.82507376476036,973.3566,mp-758582,Li5Cr5O12,https://materialsproject.org/materials/mp-758582,5.821078665610273,-70.61094232972717,-16.974369789311258,-75.28732525195622
-5.843562390416667,-140.24549737,4.064265657130065,-1.896163553621668,16.0000008,0.8655842206099046,0.0,8,24,215.42103153500256,527.2554749999998,mp-1175099,Li7Mn2(CoO4)3,https://materialsproject.org/materials/mp-1175099,6.722022027407927,-71.85919442468057,-22.10286703610277,-73.71040162155799
-6.454890524166667,-77.45868629,4.219597789334324,-2.1577395943750006,9.999999699999998,1.0586133474182258,0.7768999999999999,12,12,110.08801704002684,279.744795,mp-753687,Li3Cr2CoO6,https://materialsproject.org/materials/mp-753687,14.447781424249962,-68.84386749993605,-11.154143785519944,-69.98756303330721
-5.7917689584375,-185.33660667,4.14478409785072,-1.85641999506,26.0000005,1.0460788684009472,0.6798000000000002,10,32,289.65855163173666,723.001465,mp-1100700,Li9Mn2Co5O16,https://materialsproject.org/materials/mp-1100700,12.376705876425829,-72.21394625446429,-14.367084962273632,-80.4607112751352
-6.4232357125,-205.5435428,3.9373903454767367,-2.1375110039600003,25.9999916,1.021971550158923,0.0,2,32,296.4912145991624,703.025715,mp-1100533,Li9Mn7O16,https://materialsproject.org/materials/mp-1100533,11.841700558092365,-82.72016440202562,-18.494354815100518,-86.16037140854381
-5.9301843085,-118.60368617,4.0188696259404,-1.9731455729710008,7.00000035,0.459818029962917,1.1263999999999998,1,20,177.41465573548646,429.38248,mp-1174079,Li3MnCoO5,https://materialsproject.org/materials/mp-1174079,19.69355742258452,-72.6495112597759,-9.13154756080226,-78.04507924395206
-5.7894842675,-69.47381121,5.003739995850661,-1.3189300366666654,2.0,0.16465626103961073,0.0,166,12,141.5562906503278,426.554785,mp-752854,Co3SbO8,https://materialsproject.org/materials/mp-752854,19.41982893997205,-69.485036239566,-8.451744229030613,-73.44880593387764
-6.1485028787500005,-147.56406909,3.8765962507732863,-2.014236977868333,18.0000016,0.9431097939894102,0.0,2,24,222.42710858215682,519.265175,mp-1175242,Li7Mn4CoO12,https://materialsproject.org/materials/mp-1175242,12.726011075318516,-82.4198333106158,-17.387724500280562,-86.32635232416278
-6.032665014117647,-205.11061048,4.109020694906217,-1.6521454083823528,10.1030651,0.3204182978247699,0.0,10,34,367.46270695557405,909.2901949999999,mp-765027,Li4Fe9CoO20,https://materialsproject.org/materials/mp-765027,5.933942677242558,-69.58173220261097,-7.794441448347603,-67.51903991353596
-2.424080763333333,-14.54448458,6.076764837843831,-0.09216453927777776,1.365e-05,1.2192798415904215e-06,0.0,227,6,130.46880520712898,477.45233856,mp-30352,NaAg2,https://materialsproject.org/materials/mp-30352,26.11448690638608,-69.52957619193272,-27.78627045029868,-28.170741111520424
-5.7565254484375,-184.20881435,4.108910053074402,-1.82117648506,23.9999773,0.9572527552242712,0.0,6,32,292.1875006028404,723.001465,mp-1100560,Li9Mn2Co5O16,https://materialsproject.org/materials/mp-1100560,11.061721826728423,-81.08822402357524,-15.570952543852782,-82.48368707926562
-6.2067284745833335,-148.96148339,3.96646702711004,-2.072462573701667,15.9999994,0.8577544001126859,0.3626999999999998,5,24,217.3874355456757,519.265175,mp-1175266,Li7Mn4CoO12,https://materialsproject.org/materials/mp-1175266,14.40025634216985,-81.18480792223237,-17.882925890607574,-83.8754189153809
-6.732446607999999,-100.98669912,4.077985368386717,-2.1902344793333333,7.0,0.5555002995209604,0.0,166,15,146.85582254099162,360.6515,mp-863330,Li3Cr3FeO8,https://materialsproject.org/materials/mp-863330,4.313915277517599,-67.19518650124364,-8.971578990956214,-66.68058886251792
-5.766046971875,-184.5135031,4.159843200510873,-1.8306980084974995,21.9999998,0.8883595949726852,0.0,1,32,288.6099549286498,723.001465,mp-1176016,Li9Mn2Co5O16,https://materialsproject.org/materials/mp-1176016,13.526492308196644,-75.57204869901894,-12.016147220376991,-81.39230709021697
-6.75435283,-60.78917547,4.0938301111836894,-1.6385616927133335,10.0000004,1.097805554646463,0.0,12,9,106.15782721627195,261.71749,mp-754962,Mn2FeO6,https://materialsproject.org/materials/mp-754962,22.371254372001818,-67.39200215704608,-7.450746174782685,-70.96280121911671
-6.26552532375,-100.24840518,3.8133686578145363,-2.153876442055001,10.0000009,0.8171595403681027,0.7389000000000001,2,16,142.61677488554756,327.514335,mp-1174737,Li5Mn3O8,https://materialsproject.org/materials/mp-1174737,19.477521780879517,-74.9273577845798,-12.16172052958386,-77.21676336471839
-7.646070742222222,-137.62927336,3.9306051782492437,-2.289135551231853,6.000000599999999,0.3261527123255871,1.3970999999999998,64,18,214.39158095362973,507.47898,mp-1101349,TiMn2O6,https://materialsproject.org/materials/mp-1101349,21.95640863361982,-66.23434947962396,-2.664368627176218,-71.63180484066791
-5.859500323750002,-140.62800777,4.145319252036016,-1.9121014869550013,16.0000003,0.8828465273989258,0.5074000000000001,1,24,211.2088953971926,527.2554749999998,mp-1174918,Li7Mn2(CoO4)3,https://materialsproject.org/materials/mp-1174918,21.867734855327463,-75.10279710114841,-10.10769985091714,-79.42588359616522
-6.099233427000001,-121.98466854,3.856688048147872,-2.030074453019,14.000000400000001,0.8908125905439804,0.13339999999999996,8,20,183.1551475690625,425.38732999999996,mp-1174309,Li6Mn3CoO10,https://materialsproject.org/materials/mp-1174309,13.322706209442535,-81.43705037605014,-16.935972193645256,-83.43443983880753
-6.11686213625,-48.93489709,4.3570222873285225,-1.9373621969949992,5.9999997,0.9568240261343226,0.3973,12,8,73.07967110905561,191.75083999999998,mp-1173893,Li2MnCoO4,https://materialsproject.org/materials/mp-1173893,15.498416811367425,-68.77156692402042,-10.541517871662096,-70.14661074156889
-6.04754021,-48.38032168,4.259626263936761,-2.080906724375001,0.9999998999999999,0.15942812318451782,1.7109,10,8,73.09917080103311,187.5145,mp-754183,Li2VNiO4,https://materialsproject.org/materials/mp-754183,14.42682366676095,-68.56004065770544,-13.650607533542367,-77.52075675218738
-6.352352701249999,-152.45646483,3.903405632948607,-2.1246532683249995,18.0023522,0.9571200119246652,0.4708000000000001,2,24,219.19986624806447,515.270025,mp-1175310,Li7Mn5O12,https://materialsproject.org/materials/mp-1175310,2.1896777357663466,-78.05680790718978,-28.620886079370994,-78.93282984416743
-6.431592286875,-205.81095318,3.923677854263008,-2.1458675783350003,25.999883899999997,1.0184081782646273,0.0,2,32,297.5273937469285,703.025715,mp-1100518,Li9Mn7O16,https://materialsproject.org/materials/mp-1100518,10.862120452998388,-82.54214937174451,-18.574142820619628,-86.25263552916249
-6.7359900971428575,-94.30386136,4.0551558649755215,-2.036754738062857,14.999998800000002,1.1775397402567909,0.0,166,14,148.45440168787502,362.536335,mp-756879,Li2Mn3FeO8,https://materialsproject.org/materials/mp-756879,0.6143271914681097,-67.54215164438111,-14.83076188284937,-65.79343720359773
-6.302839864,-126.05679728,3.8491182301078704,-2.121560651567,7.000217,0.4487604958461454,0.4726000000000004,2,20,181.7918089829881,421.39218000000005,mp-1173991,Li3Mn2O5,https://materialsproject.org/materials/mp-1173991,13.980730438510538,-80.93916645812304,-16.36277065197546,-85.29052419437845
-5.7970331334375,-185.50506027,4.158331117839887,-1.8616841700599995,26.000000600000003,1.0494979290170043,0.8068,2,32,288.71490138412787,723.001465,mp-1175575,Li9Mn2Co5O16,https://materialsproject.org/materials/mp-1175575,6.7686185164497985,-71.77342130831303,-20.985399240151352,-75.34217917295663
-5.7572359690625,-184.23155101,4.120699717954983,-1.8218870056849996,24.0000002,0.9600003093948596,0.0,1,32,291.35152784331314,723.001465,mp-1176219,Li9Mn2Co5O16,https://materialsproject.org/materials/mp-1176219,13.583351033403954,-82.55355177030954,-13.720921374891768,-87.83406355304402
-6.422715274375,-205.52688878,3.9155641462903232,-2.136990565835,25.999934600000003,1.0163042107819835,0.9115000000000002,12,32,298.14392058611304,703.025715,mp-1100485,Li9Mn7O16,https://materialsproject.org/materials/mp-1100485,2.384597357364992,-78.48235876465175,-29.22284824019295,-78.16920157141426
-5.779662272142858,-161.83054362,4.0604421792425605,-1.8391490773007144,11.0,0.5014470427495109,0.14470000000000027,1,28,255.64955333118604,625.12847,mp-1174784,Li4MnCo2O7,https://materialsproject.org/materials/mp-1174784,12.684149387938204,-83.56349570881314,-16.011021192202193,-86.57052731658906
-4.851539309791667,-232.87388687,4.477218428159722,-1.2674984443229167,7.000000200000001,0.1822212014342844,0.4270000000000001,1,48,447.68915524986807,1207.0792,mp-759044,Li9Mg(Ni6O13)2,https://materialsproject.org/materials/mp-759044,24.788137080750516,-73.0748317007668,-4.338311476617868,-71.48555492843637
-5.796142853571429,-162.2919999,4.101594028181408,-1.855629658729286,9.99999995,0.4604810141169548,0.23960000000000026,1,28,253.084586704142,625.12847,mp-1174732,Li4MnCo2O7,https://materialsproject.org/materials/mp-1174732,12.771319091327195,-78.26204134512673,-14.508586418098714,-84.97276641795837
-6.3078959425,-100.92633508,4.1624585292659715,-1.9882457051800009,14.005215300000001,1.0780745485324612,0.0,166,16,151.3974024171386,379.50653000000005,mp-1174314,Li4Mn3CoO8,https://materialsproject.org/materials/mp-1174314,1.6083225355849604,-65.18392188384995,-12.914513744249668,-64.19434723958351
-5.7573801484375,-184.23616475,4.1344219888096765,-1.8220311850599995,24.0000005,0.9631972018599391,0.11770000000000015,1,32,290.38452336485983,723.001465,mp-1176109,Li9Mn2Co5O16,https://materialsproject.org/materials/mp-1176109,12.68772269396482,-83.6730273790808,-15.4184645058285,-86.79006262034302
-5.808412944642857,-162.63556245,4.1227968944894915,-1.8678997498007144,11.00000055,0.5091476057793505,0.1977000000000002,2,28,251.78301430223758,625.12847,mp-1174432,Li4MnCo2O7,https://materialsproject.org/materials/mp-1174432,16.29581708659811,-75.25920578714319,-11.115857898275037,-81.37384813941155
-5.7723072684375,-184.71383259,4.163359097150276,-1.83695830506,24.9352584,1.0077363030354909,0.0,6,32,288.36622798918734,723.001465,mp-1100611,Li9Mn2Co5O16,https://materialsproject.org/materials/mp-1100611,6.536327166091814,-71.86884859639656,-21.91744357667392,-74.08708587987275
-5.75864813125,-184.27674019999998,4.0970587769874,-1.8232991678724997,25.846187,1.0279164976194075,0.0,1,32,293.03269100095355,723.001465,mp-1176228,Li9Mn2Co5O16,https://materialsproject.org/materials/mp-1176228,4.8601841325652835,-73.5420477167259,-22.1870030590531,-76.48054265385305
-6.109193006,-122.18386012,3.9356001959797786,-2.0400340320190002,12.0000004,0.7791768137811135,0.4735999999999998,8,20,179.482730310849,425.38732999999996,mp-1174818,Li6Mn3CoO10,https://materialsproject.org/materials/mp-1174818,18.72745879393448,-77.46088867499142,-12.436109874564512,-76.81152858956385
-5.790007868125,-185.28025178,4.146939271575204,-1.8546589047474988,25.999998899999998,1.046622736231523,0.6282999999999999,10,32,289.50801542691977,723.001465,mp-1100718,Li9Mn2Co5O16,https://materialsproject.org/materials/mp-1100718,12.439528814931824,-72.29267627752276,-14.201394576150776,-80.68928965278086
-5.854896842083334,-140.51752421,4.07508440438659,-1.907498005288333,18.000000699999998,0.9763743671131936,0.25580000000000025,2,24,214.84912051117,527.2554749999998,mp-1174854,Li7Mn2(CoO4)3,https://materialsproject.org/materials/mp-1174854,17.637898157391273,-75.63250617203097,-10.753083987958481,-81.17211049648928
-5.785500060357142,-161.99400169,4.081983343010823,-1.844986865515,8.9999999,0.4124514090123617,0.16880000000000006,2,28,254.300456964828,625.12847,mp-1174517,Li4MnCo2O7,https://materialsproject.org/materials/mp-1174517,14.450210828031388,-83.73746925996491,-16.830305827142233,-87.67536727244281
-5.7942771990625,-185.41687037,4.162670864009376,-1.8589282356849992,25.9999998,1.0505931809501223,0.6285000000000003,2,32,288.4139048777288,723.001465,mp-1175561,Li9Mn2Co5O16,https://materialsproject.org/materials/mp-1175561,12.736369909186829,-72.26923724135732,-12.359479118202259,-81.50858157588941
-5.832806874166668,-139.98736498,4.039198082326497,-1.8854080373716675,15.999999599999999,0.8602454063567545,0.0,1,24,216.7579510700692,527.2554749999998,mp-1175032,Li7Mn2(CoO4)3,https://materialsproject.org/materials/mp-1175032,10.869650949926331,-80.58339656411495,-14.503567169495573,-85.23495202494122
-6.22376084,-149.37026016,4.015612863902111,-2.0894949391183317,13.999999599999999,0.7598344847130468,0.6900999999999997,2,24,214.72689834000676,519.265175,mp-1175148,Li7Mn4CoO12,https://materialsproject.org/materials/mp-1175148,18.994804365671307,-79.09302217403315,-11.364508719968743,-85.99072077455641
-6.047186521666667,-145.13247652,4.2858109712955725,-2.0805530360416684,3.000000233333333,0.16040818574481655,1.5025999999999995,2,24,217.9576863526157,562.5435,mp-1177769,Li2VNiO4,https://materialsproject.org/materials/mp-1177769,14.957653393999259,-69.02803395586734,-10.682879278680373,-70.40130282890901
-5.2689387025,-63.22726443,4.447991413424872,-1.5991259585416668,6.9999997,0.7533826806157344,0.0,12,12,108.28288466231388,290.0512,mp-773709,Li3Fe(NiO3)2,https://materialsproject.org/materials/mp-773709,1.8880080475756915,-72.64148870959802,-22.275115061122083,-75.87975966854833
-5.836293913333333,-140.07105392,4.062651273959891,-1.8888950765383337,16.0000009,0.865240403857393,0.2847999999999997,1,24,215.50663378445992,527.2554749999998,mp-1175016,Li7Mn2(CoO4)3,https://materialsproject.org/materials/mp-1175016,15.50381971625076,-81.02558457495279,-16.09502534041097,-85.27667841053182
-5.816145730416667,-139.58749753,4.0027983303499735,-1.868746893621668,16.0000006,0.8524932477400412,0.07620000000000005,1,24,218.72905603383086,527.2554749999998,mp-1175065,Li7Mn2(CoO4)3,https://materialsproject.org/materials/mp-1175065,14.361804989929006,-83.84532110331658,-16.769580560098227,-87.8119467905716
-5.75840286625,-184.26889172,4.123983896972584,-1.8230539028724992,24.0000003,0.9607654292979692,0.09800000000000032,1,32,291.11950691442644,723.001465,mp-1176132,Li9Mn2Co5O16,https://materialsproject.org/materials/mp-1176132,12.688092669855314,-83.5714351782922,-15.175099183798466,-87.11844451424322
-5.82141189357143,-162.99953302,4.132917894390437,-1.8808986987292855,10.0,0.4639977091127402,0.7507999999999999,1,28,251.16642913700332,625.12847,mp-1174626,Li4MnCo2O7,https://materialsproject.org/materials/mp-1174626,12.80606377475327,-72.67523399839085,-13.001368139766983,-81.04842318546305