energy_per_atom,energy,density,formation_energy_per_atom,total_magnetization_uB,total_magnetization_T,band_gap,sgr,num_sites,cell_volume,weight,mp_id,formula,URL,tsne_xrd_lin1_0,tsne_xrd_lin1_1,tsne_xrd_lin2_0,tsne_xrd_lin2_1
-7.099410944342106,-539.55523177,6.493523276458513,-2.5456323298026304,0.00044255,4.381351529433937e-06,3.3988,14,76,1177.1496376056898,4603.23328,mp-1194895,Th2Te3MoO13,https://materialsproject.org/materials/mp-1194895,7.378311183046358,20.617892901508924,34.879377743657244,1.6659907509069554
-5.002414639615385,-130.06278063,6.953827242834003,-1.4635095044230768,0.0,0.0,2.5072,12,26,540.9204909465914,2265.2088,mp-1193128,Te2Pb3(BrO3)2,https://materialsproject.org/materials/mp-1193128,2.436048308145723,24.215753552593398,-1.0512936949547502,25.58945080981585
-7.660409081428571,-107.24572714,6.598573103584269,-3.2923739971428567,3.0000022,0.1861343469365837,0.6547000000000001,65,14,187.83325341095303,746.4030799999999,mp-756904,LiLa4FeO8,https://materialsproject.org/materials/mp-756904,-7.657376066390201,20.25384045486991,-9.46118500529309,44.93197010883851
-3.2798992483333334,-19.67939549,6.5630137110014335,-0.2393106874652779,9.000000000000001e-07,8.364508112186714e-08,0.10670000000000003,7,6,125.39480092107527,495.6028,mp-38511,Ag2S,https://materialsproject.org/materials/mp-38511,9.712515563346884,42.30008868673791,-18.21675852102786,18.261590194286008
-6.914337895,-69.14337895,5.976380270562076,-2.080929469442,5.0000002,0.4730926581053249,0.2273000000000005,161,10,123.16895051167472,443.29249000000004,mp-691106,MnSnO3,https://materialsproject.org/materials/mp-691106,-13.149597833844242,51.14482116641138,5.250919667672977,58.783234180902824
-6.407572648333333,-115.33630767,6.429423686819325,-1.84911362086111,1.99999935,0.09140613550168104,1.5016000000000005,46,18,254.9951580607915,987.31307712,mp-1097724,Na2W2O5,https://materialsproject.org/materials/mp-1097724,20.803975059677967,14.554934744494467,44.020404982761896,31.847507745985094
-7.184498292083332,-172.42795901,6.002595338409778,-2.8061896891666662,0.0,0.0,3.8530000000000006,14,24,320.1011415753545,1157.1168,mp-754876,SmAsO4,https://materialsproject.org/materials/mp-754876,9.254901130322544,16.923580673370893,22.652256037729302,36.84527189893381
-7.9471022205,-158.94204441,6.961196487332001,-3.71836264825,0.0,0.0,4.771299999999999,62,20,215.0121370023893,901.3589544,mp-7405,SmAlO3,https://materialsproject.org/materials/mp-7405,-8.222946754863159,48.412454192856785,-7.007728452906692,57.00787376545346
-8.228866958125,-131.66187133,6.990952874107507,-3.2828122909375,6.175e-05,3.6326838539198678e-06,4.4556,40,16,198.10105383352615,834.0154,mp-753153,Dy2CO5,https://materialsproject.org/materials/mp-753153,-0.8788951558610472,11.759731387794051,21.657297638585394,35.895489612481946
-7.278830786999999,-72.78830787,6.819972604303674,-2.66985585525,9.65e-06,6.676936516544842e-07,2.3851000000000004,194,10,168.4331201540274,691.7689,mvc-15941,YBiO3,https://materialsproject.org/materials/mvc-15941,-2.992153542929612,9.616204922544147,-8.792466657510836,30.24342774594463
-7.026636732999999,-70.26636733,4.802391510972594,-2.548948569583333,0.0,0.0,3.8603,167,10,88.88602085416521,257.0644,mp-1078259,GaBO3,https://materialsproject.org/materials/mp-1078259,-30.345211871074483,20.34832473683673,15.699260618995075,57.94598522315341
-6.743874220952383,-283.24271728,4.093532336065824,-2.7710689443423813,3.00001455,0.05352801737590719,1.0206,176,42,653.1600757561027,1610.1590064000002,mp-1197942,Sr5Cr3O12F,https://materialsproject.org/materials/mp-1197942,-2.1690235475206743,21.96534793140293,5.805042735582839,55.1089512103146
-7.407084815714287,-103.69918742,6.676229653250362,-3.1553024885714285,0.0,0.0,0.029200000000000337,12,14,187.56383918783143,754.1040800000002,mp-1222453,LiLa4CuO8,https://materialsproject.org/materials/mp-1222453,-7.710772469212149,20.129335815569554,-9.501379901498726,45.022004085431824
-7.423569563846152,-96.50640433,3.464733131203959,-2.398589829230769,5.999999900000001,0.311024686382761,0.0,162,13,224.81941315712658,469.0882,mvc-1037,BaV4O8,https://materialsproject.org/materials/mvc-1037,-4.9882888187919185,15.837179250768036,-5.550911899309932,21.966754028885923
-2.913996468333333,-17.48397881,9.85882096545492,-0.6489436477083336,0.0,0.0,1.3022,152,6,109.44163270954994,649.7682,mp-7826,HgO,https://materialsproject.org/materials/mp-7826,12.924901686626331,63.941131341023045,-11.423730595460654,49.55029067475856
-3.117506955,-24.94005564,5.691047555732207,-0.31345311124999986,0.00165645,7.515575828029875e-05,0.0,63,8,256.85823726918517,880.3119999999999,mp-1227443,BaZnSn2,https://materialsproject.org/materials/mp-1227443,1.2442782290932082,28.338379201579777,-9.201018665258047,23.20271490143228
-6.537486344285715,-91.52480882,8.967764278371439,-2.072228530947143,0.0,0.0,1.0065999999999995,123,14,218.55654613595178,1180.31768,mp-558314,TaBi4ClO8,https://materialsproject.org/materials/mp-558314,-15.275859992405582,24.85430025546649,-14.970912065026985,39.51578542773386
-5.001460718333333,-120.03505724,4.185696662991154,-1.881176058656609,1.4e-06,3.0451266063057405e-08,2.0717,64,24,535.7967924157116,1350.5752,mp-755448,Rb2SnO3,https://materialsproject.org/materials/mp-755448,6.275964918343054,23.519581342008852,31.82262039450718,0.8485717661831006
-6.905996099166668,-165.74390638,6.1615196253719136,-2.0078922595312507,7.0000587,0.1595848775963091,0.06219999999999981,62,24,511.1959148653492,1896.82,mp-542765,EuDyCuS3,https://materialsproject.org/materials/mp-542765,29.14867555273664,32.8042763834693,17.830349837133003,28.648038019429354
-5.473826784,-27.36913392,3.480772800607,-2.2007080382499997,2.0005907,0.2781633388990967,0.0,221,5,83.81770830568735,175.6962,mp-978842,SrCaO3,https://materialsproject.org/materials/mp-978842,-21.148430188537567,6.833824875029711,-33.43381695524337,48.07038487353508
-4.617890975714286,-32.32523683,4.982531424069402,-1.5863947869642858,0.0,0.0,0.6694,139,7,238.33978949791015,715.1505999999998,mp-8300,Ba4As2O,https://materialsproject.org/materials/mp-8300,-4.0717913188447055,21.038344580100684,3.7239826901049615,21.81197493290236
-6.116224027916666,-146.78937667,4.308324563208898,-1.8027430348697928,0.0,0.0,1.4826000000000006,173,24,519.1133497578006,1346.8571000000004,mp-17747,Y3CuSnS7,https://materialsproject.org/materials/mp-17747,9.09897632260533,-19.61658748694107,7.566147157253416,27.270666022148145
-4.110859556666667,-12.33257867,4.6292539721600985,0.09324150142888854,6.890000000000001e-05,1.6488019928173426e-05,0.0,187,3,48.699908559506255,135.7657,mp-1245812,LiInN,https://materialsproject.org/materials/mp-1245812,31.316750010399065,65.99469047439531,-3.2067137415335316,17.112060922832182
-7.504425228125,-120.07080365,7.375515356719467,-0.3361151666071427,2.1000000000000002e-06,9.735901317418524e-08,0.18219999999999992,62,16,251.37411755180486,1116.513144,mp-1188155,ReP3,https://materialsproject.org/materials/mp-1188155,2.992164732241976,8.526655486118159,8.127659581647633,24.628114573324943
-7.242723715833333,-173.82536918,5.253438007213607,-2.8352733959375014,6.9997924,0.22146579194163796,0.07299999999999995,164,24,368.34597934460464,1165.3341,mp-19088,Ba5V5O14,https://materialsproject.org/materials/mp-19088,-16.68007911273701,18.324223788947045,-15.199296797137187,46.65874046830339
-7.313967097000001,-219.41901291,6.954156984495894,-2.70499216525,1.87e-05,4.397766287301457e-07,2.0667000000000004,185,30,495.5493243834755,2075.3067,mvc-3479,YBiO3,https://materialsproject.org/materials/mvc-3479,-2.9520001147876997,9.601931698330668,-8.721633602950156,30.122541260095247
-6.452468207857143,-90.33455491,5.931450179903443,-2.5881420748214286,4.9999998,0.3187647177377831,0.5682999999999998,38,14,182.80041136773133,652.9635900000001,mp-1218466,Sr3Nd(CoO4)2,https://materialsproject.org/materials/mp-1218466,-23.45609612262968,40.54606552417369,-13.671608437450352,59.728659135090474
-6.791995025862071,-393.9357115,6.731324269402894,-2.1568488951724136,5.0,0.07842422167173534,0.0,63,58,743.0143726093173,3011.9560928000005,mp-767014,Na5(WO3)6,https://materialsproject.org/materials/mp-767014,-10.869905329590356,50.81288956587355,10.459882185556513,35.9240948379386
-6.18077925575,-247.23117023,6.300541917132553,-1.971983849,2.414278075,0.05031746191918338,0.0,194,40,559.1727402747614,2121.6552,mp-1147774,Ba2NiRuO6,https://materialsproject.org/materials/mp-1147774,-7.15613719106545,31.304569209026262,1.718816374999152,54.90508759044178
-7.15740890625,-57.25927125,7.973282558662657,-3.10279994028,0.0,0.0,4.857900000000001,31,8,86.62643322218702,415.94748,mp-753947,LuHO2,https://materialsproject.org/materials/mp-753947,-14.637612408064172,-0.3222947108930913,28.22208395776023,-0.3758935182075797
-6.83966296,-34.1983148,5.049777311104959,-2.01005160885,1.9e-05,3.637943567768764e-06,0.0,221,5,60.86604328896742,185.0965,mp-973267,KTcO3,https://materialsproject.org/materials/mp-973267,-30.33786495938289,50.749410655135144,-17.838578230848288,71.75808756875799
-8.074204243333334,-72.66783819,6.959899001671486,-1.4672899483725923,4.2000000000000004e-06,4.0196787143113363e-07,0.0,71,9,121.76861765216093,510.3748,mp-29588,Nd3(BN2)2,https://materialsproject.org/materials/mp-29588,-3.8406625254065943,26.088308395966077,-20.201254248446105,42.827130127334826
-7.0275616621875,-224.88197319,3.231340398348076,-2.617877015986608,1.00000025,0.030662635632816012,1.6193,62,32,380.07390576703636,739.6081251200002,mp-760911,NaVPO5,https://materialsproject.org/materials/mp-760911,20.79810868610991,-6.757404141901031,53.43064353542592,0.30122455394262543
-7.2522593197222225,-261.08133551,3.1902919528625464,-2.5102233386749995,29.0000016,0.8955646893836702,2.6099999999999994,6,36,377.37965895386634,725.036425,mp-778476,Li6Mn5Fe(BO3)6,https://materialsproject.org/materials/mp-778476,12.982823634896452,3.4221231590384824,66.55693468648475,38.04043205441084
-5.643872850714287,-79.01421991,7.391279394075143,-1.862927858571428,1.12e-05,5.161805660701126e-07,0.6196999999999999,162,14,252.8679575180662,1125.5488,mvc-484,BaMg(BiO2)4,https://materialsproject.org/materials/mvc-484,-18.20671404376697,5.720468532449052,-11.650929051164946,28.462079979570042
-8.019856272109376,-1026.54160283,4.551197441848879,-3.175884455466056,0.0,0.0,2.274,62,128,1902.4393803321268,5214.1967352,mp-581330,CsCa2Nb3O10,https://materialsproject.org/materials/mp-581330,3.3553780531698,18.25006790666623,32.0108865461263,36.28104148378449
-8.187612162999999,-163.75224326,6.387397908984825,-3.2155856892500014,1.999998875,0.09345168672177312,1.2383000000000006,62,20,249.41354460182262,959.3894,mp-1209329,PrVO3,https://materialsproject.org/materials/mp-1209329,-20.90293893419059,44.647959562818976,-7.058361664315286,63.031906673958765
-7.96526846625,-127.44429546,3.696602497127664,-1.5701003823618755,0.0,0.0,4.241600000000001,44,16,194.9076932785065,433.893,mp-557414,BaSi6N8O,https://materialsproject.org/materials/mp-557414,-7.719367502513328,32.59436125675353,30.941616285310612,0.9173191283943394
-6.403662741111112,-57.63296467,7.147574691585135,-1.8423173665740744,1.9958591,0.17820360108491812,0.0,99,9,130.52413692369115,561.8242,mvc-10862,Ti(BiO3)2,https://materialsproject.org/materials/mvc-10862,-1.6745962928399267,13.838736985529046,6.817615171605165,30.730695183941073
-6.928208782142858,-96.99492295,6.616800403727474,-2.8208043216071435,3.0000002,0.18582300528049356,0.5289999999999999,38,14,188.14783775409177,749.71841,mp-1218254,SrLa3(NiO4)2,https://materialsproject.org/materials/mp-1218254,-23.009847898459274,39.26103366724334,-14.308373000146082,59.502158304618604
-1.6554845633333333,-9.93290738,2.0684238597810167,-0.03786320333333334,6.3e-06,4.372813336462159e-07,0.0,191,6,167.90245184928767,209.145,mp-981214,SrMg5,https://materialsproject.org/materials/mp-981214,8.269947122790477,17.554993455274158,2.9738006971537554,22.583195094154764
-5.9509633,-23.8038532,5.927469124811164,-0.2761925262499991,0.5188107,0.06309492794401006,0.0,139,4,95.82788505381022,342.067736,mp-978531,Sc3Pb,https://materialsproject.org/materials/mp-978531,-54.06855682402782,31.655711075174324,-11.536247610126662,21.17312520646411
-8.509129745,-272.29215184,5.62659564465697,-3.6709848214062486,0.0,0.0,1.9458999999999995,63,32,430.52929888800713,1458.8120000000001,mp-6622,BaNd2Ti3O10,https://materialsproject.org/materials/mp-6622,-4.819954821651953,17.032628684005076,9.86538218160206,58.94824051217421
-9.331608904166666,-447.9172274,7.504356648765058,-3.7169906645833337,2.3625e-06,4.051921410727716e-08,2.7014,61,48,679.4980759566968,3070.8076,mp-1202027,LaTaO4,https://materialsproject.org/materials/mp-1202027,5.854476953323691,20.053990746543114,1.9006471075050173,37.0912205011075
-6.406530170714285,-89.69142239,6.67842791154958,-2.5607702117857145,0.9999984000000001,0.0649771509571561,0.0,63,14,179.35606523807687,721.342,mp-1217781,SrSmNiO4,https://materialsproject.org/materials/mp-1217781,-23.38912408553939,41.119246186013896,-12.723862730113995,59.98853325995359
-2.5844432755555555,-93.03995792,3.4635829434449734,-0.2637446816666669,7.275e-05,6.243560061874435e-07,0.0,225,36,1357.932339565229,2832.4003088000004,mp-642031,Sr11Al4In3,https://materialsproject.org/materials/mp-642031,1.4777398246009714,9.625048023310905,3.890558273261049,24.54187098818287
-5.5055216725,-22.02208669,9.865042039237641,-0.7448979545312495,0.0,0.0,0.3666999999999998,131,4,76.46997973180635,454.298,mp-288,PtS,https://materialsproject.org/materials/mp-288,24.52654503116358,59.21721451640216,-32.714548829280055,47.00474384916333
-4.672339995714286,-65.41275994,7.224070922818552,-1.080229443571429,6.890000000000001e-05,1.860644885259008e-06,0.0,63,14,431.5520221998661,1877.44,mp-1104531,Sm2Te5,https://materialsproject.org/materials/mp-1104531,-41.28155491753278,27.01005464339403,-23.506006130523,28.180299870714897
-4.292762884,-21.46381442,4.473833704657198,-0.3176271739999997,1e-07,1.1088037349398435e-08,0.0,164,5,105.10484773206473,283.1740772,mp-10405,Yb(AlSi)2,https://materialsproject.org/materials/mp-10405,-30.04183614169792,-17.602282798158935,-19.13982289101296,-19.412022305526982
-3.308912825,-13.2356513,5.013654352022902,0.1805865864062497,1.7e-05,1.893932589873236e-06,0.0,18,4,104.60726120499105,315.84,mp-1247808,Se,https://materialsproject.org/materials/mp-1247808,-13.327982151600091,21.049456885086798,-13.186763916288946,44.910868508141384
-3.4927692816666664,-20.95661569,4.916340995467689,-1.2649727612066666,0.0,0.0,2.8161,129,6,179.1740628477979,530.47882,mp-23862,BaHI,https://materialsproject.org/materials/mp-23862,-3.909708029704402,19.1352937115262,-17.880448387953464,40.09300989082925
-7.962808681590909,-700.72716398,7.298782697171181,-3.1446293378409105,2.9288353875,0.028237114609563106,0.0,33,88,1208.7933836742,5313.166400000001,mp-555525,Sm3RuO7,https://materialsproject.org/materials/mp-555525,16.766435790010632,59.346031584439885,-3.1198843833621788,38.00893623854758
-4.189789743125,-67.03663589,5.079368683111695,-0.7166314557812505,0.0,0.0,0.3963000000000001,31,16,316.47498353721124,968.055,mp-1106310,Cu2SiHgS4,https://materialsproject.org/materials/mp-1106310,-1.972596447818936,8.402854979950613,8.65494338753617,15.833627688194296
-6.857408955,-137.1481791,5.5075091809123515,-3.0506083067389995,0.0,0.0,3.3427999999999995,12,20,374.69869067484007,1242.7629999999995,mp-560170,Nd5Te2Cl3O10,https://materialsproject.org/materials/mp-560170,7.274736183019303,18.75080339014043,9.822292380271813,30.694918001308533
-5.711173609499999,-114.22347219,4.293897420681017,-0.8797124719375006,3.000000775,0.08372521592751009,0.5891000000000002,62,20,417.5827194025968,1079.8044,mp-9130,CrSbS3,https://materialsproject.org/materials/mp-9130,-0.14246939312946386,14.540710307443524,5.907233219265523,30.380275757553306
-4.26320516625,-68.21128266,4.819465299819676,-2.164387772144612,2.0000004000000002,0.08606423673320047,0.718,74,16,270.82252851437715,786.0217357999999,mp-560600,CsNiPdF5,https://materialsproject.org/materials/mp-560600,2.325112003086468,22.20005725463329,2.998371722306397,24.81747724101697
-5.677203925,-22.708815700000002,7.060214951367684,-0.32477991875,9.000000000000001e-07,1.1284292050537382e-07,0.0,63,4,92.94919210110511,395.19774,mp-1064719,LaNi,https://materialsproject.org/materials/mp-1064719,-50.35354247372106,5.8762716880522525,-39.85634480624812,21.330995058995143
-7.216595126666667,-64.94935614,5.710271244985858,-2.446551699375001,9.693516,0.7707128773200161,0.0,139,9,146.57710628978722,504.0502,mp-1078984,Ce2Fe2S2O3,https://materialsproject.org/materials/mp-1078984,-6.977577852019086,15.653691699689071,-0.5630356724744376,22.69183015772944
-7.881445991666666,-283.7320557,6.53010316056942,-3.2011646113888883,0.0,0.0,2.2323,15,36,501.1101144285876,1970.6256,mp-17591,Sm2MoO6,https://materialsproject.org/materials/mp-17591,21.994616481288517,55.71780494734727,-1.3761074687028692,34.99097345651767
-8.821858029074074,-952.76066714,5.757177353804575,-3.786019040910495,0.393930475,0.003299920458777309,0.0,14,108,1391.212706149963,4823.408600000002,mp-558371,La5Ti5O17,https://materialsproject.org/materials/mp-558371,11.944775507169116,33.19476343036798,26.51265486398766,43.07966610758438
-5.094410903529412,-86.60498536,7.30124281789308,-1.3783181811029417,0.0,0.0,0.8599999999999994,99,17,317.2509324390872,1394.9242,mp-557322,Bi4Te2Br2O9,https://materialsproject.org/materials/mp-557322,0.8222011549410493,27.43897836089529,-15.048117601165568,40.61429816902098
-6.24330301,-112.37945418,4.335989831613441,-1.968684662527778,4.00002445,0.19147765175479609,0.5236999999999998,46,18,243.45684002757162,635.71307712,mp-1099875,Na2Mo2O5,https://materialsproject.org/materials/mp-1099875,7.415304117401867,16.349325542946683,22.75437608957088,35.675373346553656
-6.716498442142857,-94.03097819,5.619125650500974,-2.7820528048214292,8.999999699999998,0.548754581284019,0.0,38,14,191.13567892480447,646.7871999999999,mp-1218438,Sr3Nd(FeO4)2,https://materialsproject.org/materials/mp-1218438,-22.917860643365607,38.620022527396934,-14.661348322838414,59.132953721343895
-6.28431187,-100.54898992,3.7198456798984783,-2.7503993173706034,2e-07,9.807983628004194e-09,4.0578,4,16,237.6444581184757,532.35768,mp-995216,RbSrSiHO4,https://materialsproject.org/materials/mp-995216,6.438084726380848,20.96013231208431,-16.1896813684956,45.4446399707117
-5.453809564,-27.26904782,5.691558345146259,-0.7226348428571434,6.9999981,0.811108535671419,0.0,164,5,100.57646748553304,344.729524,mp-1069383,Eu(ZnP)2,https://materialsproject.org/materials/mp-1069383,-30.827769245224534,-16.861087619797768,-37.01098782742344,-16.728412651280383
-6.34570726452381,-266.51970511,5.721991012771653,-2.043550588005953,1.2e-06,2.5030326196717375e-08,3.1985,150,42,558.7173581823192,1925.2638,mp-541156,Ge4PbO9,https://materialsproject.org/materials/mp-541156,-0.2395843577191462,15.608422221766231,9.592792350947095,29.132430073310104
-5.012437041315789,-190.47260757,6.383021195752868,-1.633421631036185,4.454887,0.06640563436239735,0.0,63,38,781.8243459448497,3005.29,mp-1216334,Yb6Fe2S11,https://materialsproject.org/materials/mp-1216334,8.836212364780096,19.47694586269117,27.62824201587173,-3.0679559723732566
-8.460851853846155,-439.96429639999997,5.883665095526318,-2.8937454352564105,11.9999999,0.2354284285941575,0.0,60,52,594.0182200612131,2104.7408,mp-1019739,Eu2Ge(BO4)2,https://materialsproject.org/materials/mp-1019739,8.013821643340759,22.307894668021284,2.2166512296165943,35.6487537820812
-5.799918573333334,-69.59902288,5.862031530620196,-0.6571196288766673,0.0007116000000000001,4.185864676736729e-05,0.0,194,12,198.1199377572489,699.4025999999999,mp-567730,Pr2B3Cl,https://materialsproject.org/materials/mp-567730,-5.275715606597483,14.279305170976011,4.645224488474766,26.724037771893162