energy_per_atom,energy,density,formation_energy_per_atom,total_magnetization_uB,total_magnetization_T,band_gap,sgr,num_sites,cell_volume,weight,mp_id,formula,URL,tsne_xrd_lin1_0,tsne_xrd_lin1_1,tsne_xrd_lin2_0,tsne_xrd_lin2_1
-5.798568903125,-185.5542049,4.263066018527531,-1.8632199397474996,16.0000003,0.6621116184961681,0.5091999999999999,2,32,281.62176081532346,723.001465,mp-1175403,Li9Mn2Co5O16,https://materialsproject.org/materials/mp-1175403,22.605248939147852,-79.39004436741499,-10.635016036054923,-86.508170966714
-5.80622972875,-139.34951349,4.071516424635061,-1.8588308919550005,13.999919400000001,0.7587329858157987,0.0,6,24,215.03739859522224,527.2554749999998,mp-1175106,Li7Mn2(CoO4)3,https://materialsproject.org/materials/mp-1175106,22.83203906766155,-79.14763026738764,-15.014095646799342,-82.16157809248837
-5.228289587857144,-73.19605423,4.643939026592217,-1.2763061257142865,1.99999995,0.17284359893437587,0.0,74,14,134.85098150071286,377.13039,mp-753047,LiCoNiO4,https://materialsproject.org/materials/mp-753047,24.849300928722485,-69.83446017878767,-14.529636977686176,-72.48669265067541
-4.8406894578947375,-91.97309969999999,4.675075017764675,-1.2634618309210537,2e-07,1.3636368714090625e-08,0.4905,2,19,170.9262196836524,481.225,mp-763578,Li4(NiO2)5,https://materialsproject.org/materials/mp-763578,24.340971751160684,-72.1031601485157,-4.563494294854063,-72.65357828462392
-5.770844518125,-184.66702458,4.16419064282216,-1.8354955547474996,21.9999766,0.8892870796941456,0.01059999999999972,1,32,288.3086442449811,723.001465,mp-1176012,Li9Mn2Co5O16,https://materialsproject.org/materials/mp-1176012,14.92574094605375,-80.24427920177945,-14.287761000822652,-85.19395511377861
-4.116960748571429,-28.81872524,2.005131232178596,-1.1613894406885714,6.0,0.6397803377657545,0.6562000000000001,160,7,109.29436950117693,131.97494819999997,mp-1096807,Al(OF)3,https://materialsproject.org/materials/mp-1096807,21.653113004048762,-66.05199840937135,-7.922191603860559,-73.92297378920445
-5.34814946,-80.22224190000001,4.481341094472585,-1.4910555913973336,6.0000003,0.4968107422321607,0.0,12,15,140.74653824393712,379.836445,mp-753219,Li3MnNi3O8,https://materialsproject.org/materials/mp-753219,19.158230625469095,-74.11434955329658,-5.680008999072284,-70.01710297108858
-5.808255390416666,-139.39812937,4.04927679185088,-1.860856553621667,13.986291399999999,0.7538540556888876,0.0,10,24,216.21843734002914,527.2554749999998,mp-1174900,Li7Mn2(CoO4)3,https://materialsproject.org/materials/mp-1174900,22.827833345132927,-79.16885385722901,-14.996300388158494,-82.1771286884995
-5.753390599375,-184.10849918,4.169600955052701,-1.8180416359974991,19.999996300000003,0.8094938778609565,0.0,1,32,287.93454614759867,723.001465,mp-1176234,Li9Mn2Co5O16,https://materialsproject.org/materials/mp-1176234,22.732567514488235,-79.25053419524478,-9.913267568145523,-86.03744508858608
-5.798636795625,-185.55637746,4.258026915667731,-1.8632878322474988,16.0000009,0.6613290026951384,0.3571,2,32,281.9550421797706,723.001465,mp-1175397,Li9Mn2Co5O16,https://materialsproject.org/materials/mp-1175397,19.496649643119472,-79.87817330965925,-11.291466839776346,-86.74685603336985
-5.8004385284375,-185.61403291,4.261774453368716,-1.865089565059999,16.0000003,0.6619110210168,0.4919000000000002,2,32,281.7071085638289,723.001465,mp-1175531,Li9Mn2Co5O16,https://materialsproject.org/materials/mp-1175531,22.721765569353227,-79.30419366545576,-9.800459212142533,-85.93733731518482
-5.496964343333333,-131.92714424,4.28573654268667,-1.7364325706249997,13.999999800000003,0.7867352127381851,0.5147999999999997,10,24,207.3847742459179,535.245775,mp-1174391,Li7Co5O12,https://materialsproject.org/materials/mp-1174391,21.310830178798422,-72.12209143330897,-10.808388551126773,-76.22082293728951
-5.803643550625,-185.71659362,4.242731295310716,-1.8682945872474992,15.9999995,0.658953328922344,0.5921000000000003,1,32,282.9715282550718,723.001465,mp-1175688,Li9Mn2Co5O16,https://materialsproject.org/materials/mp-1175688,22.518349141891584,-79.46636079901306,-10.989267161159344,-86.46049352975847
-5.7879904203125,-185.21569345,4.179960580499499,-1.8526414569349996,20.0000009,0.8115053009459811,0.2131000000000003,12,32,287.22092840077147,723.001465,mp-1176324,Li9Mn2Co5O16,https://materialsproject.org/materials/mp-1176324,18.091059682688357,-76.67328155819636,-14.077751719938586,-81.99333189067147
-5.76725492,-184.55215744,4.151613240166864,-1.8319059566224996,23.9999995,0.9672022111770672,0.08279999999999976,1,32,289.18208155667213,723.001465,mp-1176033,Li9Mn2Co5O16,https://materialsproject.org/materials/mp-1176033,15.000651080797551,-79.69296368787094,-13.203838499551608,-86.01713768128296
-5.624497369135803,-455.5842869,4.990212993183826,-1.7087943840740731,1.0,0.01736889613558747,0.0,82,81,670.9732548104456,2016.393095,mp-685270,Li20Co21O40,https://materialsproject.org/materials/mp-685270,24.23524531752345,-69.31258189593642,-15.138564869029,-72.1714417447738
-5.77382164375,-184.7622926,4.192817024658234,-1.8384726803724991,18.0000008,0.7326011469703533,0.07780000000000031,3,32,286.3402222298395,723.001465,mp-1176278,Li9Mn2Co5O16,https://materialsproject.org/materials/mp-1176278,15.030155829196394,-82.31646527473305,-16.094331623516528,-88.36024980992643
-5.801589464642857,-162.44450501,4.14126202763592,-1.8610762698007144,8.68116115,0.4036171274351559,0.0,8,28,250.66035969789863,625.12847,mp-1174883,Li4MnCo2O7,https://materialsproject.org/materials/mp-1174883,16.070825282131754,-76.5026137770253,-9.183815432985137,-81.1527804929479
-5.78702083,-185.18466656,4.221982644720152,-1.8516718666225,15.9999994,0.6557307798581433,0.4786999999999999,1,32,284.36217285523014,723.001465,mp-1176060,Li9Mn2Co5O16,https://materialsproject.org/materials/mp-1176060,21.178369898574488,-79.27692795171319,-9.677253621573877,-87.17765053989325
-5.789746705625,-185.27189458,4.220669094015709,-1.8543977422474995,21.999999600000002,0.901349323053076,0.4589999999999996,8,32,284.4506716510728,723.001465,mp-1100679,Li9Mn2Co5O16,https://materialsproject.org/materials/mp-1100679,17.462540580222534,-78.17485326389932,-14.14375334301568,-81.57907538042673
-5.792918975,-185.3734072,4.234950368241657,-1.8575700116224996,22.0000003,0.9043992040137856,0.5453000000000001,2,32,283.49143536909236,723.001465,mp-1175406,Li9Mn2Co5O16,https://materialsproject.org/materials/mp-1175406,22.810132235939978,-78.86738337080935,-10.103958594408113,-84.83526736559162
-5.745863805,-183.86764176,4.15618346980461,-1.8105148416224992,23.9990064,0.9682268724587156,0.0,1,32,288.86409065722376,723.001465,mp-1232442,Li9Mn2Co5O16,https://materialsproject.org/materials/mp-1232442,18.479696176581122,-79.690338747337,-13.268508059170642,-86.06923927764247
-5.7878488690625,-185.21116381,4.237125720210291,-1.852499905684999,15.9999995,0.6580827075900358,0.4685000000000002,2,32,283.3458900884604,723.001465,mp-1175749,Li9Mn2Co5O16,https://materialsproject.org/materials/mp-1175749,21.54598899256437,-80.50115414231065,-9.93102339861182,-87.82075993342987
-5.425463775,-54.25463775,4.600521754231159,-1.2416893002499996,5e-07,5.677439541900917e-08,0.1994999999999998,8,10,102.63486459476843,284.34979,mp-766810,LiCo2CuO6,https://materialsproject.org/materials/mp-766810,24.90903559593124,-73.05258112209681,-4.280510694980495,-70.99444788139431
-5.543977205,-66.52772646,4.6038338351984605,-1.647361142788333,5.999999900000001,0.6487042853968559,0.0,12,12,107.79085177027036,298.849445,mp-756973,Li3Mn(CuO3)2,https://materialsproject.org/materials/mp-756973,22.93098518232143,-78.69726756066585,-11.119470469960813,-84.85672796232696
-5.7885140021875,-185.23244807,4.251921153802487,-1.8531650388099996,15.9999999,0.6603806542628892,0.4752000000000001,2,32,282.3599298251388,723.001465,mp-1175530,Li9Mn2Co5O16,https://materialsproject.org/materials/mp-1175530,19.54818320294381,-80.05577442634043,-11.156218022605145,-87.779360348707
-6.081439515,-72.97727418,4.623896931592082,-1.9832643785416657,3.0,0.3395920211095631,0.6311999999999998,12,12,102.95352112056592,286.6818899999999,mp-761831,Li3Cr(CoO3)2,https://materialsproject.org/materials/mp-761831,23.22781250154103,-71.2438966900223,-7.654828773757242,-75.50348915166542
-5.8035046309375,-185.71214819,4.251454734912929,-1.8681556675599988,16.0000002,0.660308225504638,0.5555000000000003,1,32,282.39090698781285,723.001465,mp-1175568,Li9Mn2Co5O16,https://materialsproject.org/materials/mp-1175568,21.181786052197488,-79.23627860556883,-9.750505080170274,-87.78874723333837
-5.25817993375,-42.06543947,4.637061610005941,-1.5616978231250007,2.9999999,0.4993808911356891,0.0,10,8,70.01107525913092,195.506195,mp-753276,Li2CoNiO4,https://materialsproject.org/materials/mp-753276,22.057158958616476,-69.19495313093483,-8.281491853794337,-74.3466654899928
-4.795169793888889,-172.62611258,4.691670833881345,-1.1252057793055568,1.9999999,0.06942523778773016,0.4717000000000002,1,36,335.7299034535285,948.568,mp-758803,Li3(NiO2)5,https://materialsproject.org/materials/mp-758803,24.7354892435139,-72.96715356074631,-4.4327923533782405,-71.6431572620174
-5.777501536875,-184.88004918,4.1834617246270875,-1.8421525734974988,22.000001,0.8934035219237991,0.09450000000000004,1,32,286.98055286180767,723.001465,mp-1176003,Li9Mn2Co5O16,https://materialsproject.org/materials/mp-1176003,14.966050565858732,-80.14056426860432,-12.987640900721324,-86.77032980883646
-5.801957519285715,-162.45481054,4.1765782413897234,-1.8614443244435728,6.999999799999999,0.3282295731636077,0.2590999999999997,2,28,248.5408316222673,625.12847,mp-1174466,Li4MnCo2O7,https://materialsproject.org/materials/mp-1174466,21.864623650386907,-80.28353187019151,-9.749137656510351,-86.70907818831058
-5.7964632840625,-185.48682509,4.2478010360534535,-1.8611143206849992,16.0000002,0.6597407568237144,0.4119999999999999,1,32,282.63380238852267,723.001465,mp-1175769,Li9Mn2Co5O16,https://materialsproject.org/materials/mp-1175769,19.530004364744734,-79.9740831918954,-10.537057305780976,-87.22988518762436
-5.512602995357144,-154.35288387,4.268323456883526,-1.7322615697321435,9.0,0.42583659490945297,0.7163999999999997,2,28,246.30711452908267,633.11877,mp-1174276,Li4Co3O7,https://materialsproject.org/materials/mp-1174276,21.991203561610106,-72.0116186208628,-8.218324709293388,-77.85597410181731
-6.328443627142858,-354.39284312,4.165173973847973,-1.9547023983333336,10.000000300000002,0.199377269795395,0.5080999999999998,1,56,584.5232575479278,1466.1751399999996,mp-1177861,Li2TiCo3O8,https://materialsproject.org/materials/mp-1177861,11.052143258760589,-69.93094928808301,-16.870356970243392,-68.13515638407897
-5.5186444571875,-176.59662263,4.346505064295498,-1.723445791875,15.9999997,0.6676917607101721,0.07469999999999999,12,32,279.2681351442876,730.991765,mp-1175380,Li9Co7O16,https://materialsproject.org/materials/mp-1175380,19.12930100997257,-78.73255168205891,-9.025422756104831,-80.99510919533752
-5.661261735,-90.58018776,4.4766426277582285,-1.8998174272916677,4.0000001,0.33097321436967403,0.0,166,16,140.84602086130798,379.7064,mp-756601,Li4TiNi3O8,https://materialsproject.org/materials/mp-756601,20.303912419614253,-70.01239770406828,-10.731084876328627,-74.01159513010448
-4.842773633548386,-150.12598264,4.686418981833077,-1.2978541674193549,6.9999999000000015,0.2974107181310322,0.0,2,31,274.2956029129045,774.1246,mp-690528,Li7(NiO2)8,https://materialsproject.org/materials/mp-690528,23.423555234052163,-71.45534853942287,-7.4892043164564,-75.52068950448896
-5.7616408853125,-184.37250833,4.136941837602847,-1.826291921934999,20.000000399999998,0.8031535423212036,0.10159999999999993,1,32,290.20764751804336,723.001465,mp-1176114,Li9Mn2Co5O16,https://materialsproject.org/materials/mp-1176114,14.665972647370667,-83.5946215362593,-16.85433623381275,-87.87407936949069
-5.728495867674417,-246.32532231,4.695986517426529,-1.1499019036046514,15.0000011,0.3711490887702291,0.486,2,43,470.9993630513494,1331.981125,mp-766681,Co15O28,https://materialsproject.org/materials/mp-766681,25.090334535535398,-72.91879570957381,-4.959512806627305,-71.37635944619261
-5.52040768125,-176.6530458,4.37470613223197,-1.7252090159374998,17.1062003,0.7184859674734826,0.0,2,32,277.467863442911,730.991765,mp-1175413,Li9Co7O16,https://materialsproject.org/materials/mp-1175413,22.359908999306302,-71.80167075684454,-8.408912560220088,-76.69245926182242
-5.4896173485714295,-76.85464288,4.649578534119753,-1.4217954678571425,0.9922795,0.08580416296052586,0.0,12,14,134.77305956359243,377.370185,mp-778768,Li2Co3NiO8,https://materialsproject.org/materials/mp-778768,24.97155313969061,-72.89253095238969,-4.5723079933125135,-71.667406866581
-5.820078029642858,-162.96218483,4.182275714344638,-1.8795648348007143,7.00000045,0.3286773575644595,0.4336000000000002,5,28,248.20224689876304,625.12847,mp-1174772,Li4MnCo2O7,https://materialsproject.org/materials/mp-1174772,21.241417192622727,-79.40659072366894,-9.572090425116777,-88.0816894165201
-6.932645189374999,-332.76696909,4.146313380720617,-1.7027383302999997,45.0000006,0.938875930816998,1.1143,166,48,558.5753181480221,1394.744875,mp-851082,Mn15NiO32,https://materialsproject.org/materials/mp-851082,21.48296584900491,-68.92200376898789,-10.03255191896697,-71.67661198303452
-6.08539518375,-97.36632294,4.253537688330955,-1.9058952444949997,5.99999975,0.4670491475353519,0.2448999999999999,2,16,149.715262496115,383.50167999999996,mp-1173911,Li2MnCoO4,https://materialsproject.org/materials/mp-1173911,5.635064985991873,-76.87840725760601,-29.924255072203824,-76.25121935182617
-5.7728547275,-184.73135128,4.169879994971512,-1.8375057641225,22.0000005,0.8905030412753144,0.2427999999999999,1,32,287.915278151283,723.001465,mp-1176215,Li9Mn2Co5O16,https://materialsproject.org/materials/mp-1176215,14.93817120318058,-80.18739023889954,-14.836828829178385,-87.17484366979612
-5.790986301428572,-162.14761644,4.115792770201292,-1.8504731065864295,8.0002348,0.3696709231768324,0.2344999999999997,1,28,252.21149057018738,625.12847,mp-1174720,Li4MnCo2O7,https://materialsproject.org/materials/mp-1174720,15.27738996551459,-82.92775194464045,-16.439516917316023,-87.60164510298893
-5.8317773886666675,-174.95332166,4.339316462579982,-1.2033909438333334,8.9944073,0.3053835669861154,0.0,6,30,343.2450747087828,896.9671699999999,mp-778217,Fe2Co3O10,https://materialsproject.org/materials/mp-778217,24.196065368356976,-70.34192201742334,-7.3270441969176785,-71.21747823277471
-5.78958346125,-185.26667076,4.241827534328426,-1.8542344978725,15.9999999,0.6588129791365053,0.19890000000000008,1,32,283.03181798261636,723.001465,mp-1175766,Li9Mn2Co5O16,https://materialsproject.org/materials/mp-1175766,22.628467520373587,-79.38739454296544,-10.0916720492586,-85.65231929822393
-6.00089033,-84.01246462,4.563936383590344,-1.6570582614971423,3.9999872000000005,0.3429275796945355,0.0,12,14,135.93572718686906,373.61483,mp-754108,Li2MnCo3O8,https://materialsproject.org/materials/mp-754108,8.853158287214882,-67.60369721006046,-4.190133474117058,-69.57410802969231
-5.7924096078125,-185.35710745,4.2302533777131375,-1.8570606444349995,16.0,0.6570153607466509,0.4270000000000001,1,32,283.80620530553637,723.001465,mp-1175736,Li9Mn2Co5O16,https://materialsproject.org/materials/mp-1175736,21.194308299675136,-79.2565566119262,-9.717871986685484,-87.83428604716869
-5.53328504,-177.06512128,4.395890705741577,-1.7380863746874995,18.000000399999998,0.7596879774214192,0.8426,2,32,276.13069681545534,730.991765,mp-1175401,Li9Co7O16,https://materialsproject.org/materials/mp-1175401,22.395626131133668,-71.69737644172022,-8.53042707494827,-76.10986703635679
-5.751140955625,-184.03651058,4.157645471191218,-1.8157919922474992,22.0001141,0.8878948696199755,0.0,1,32,288.7625140066871,723.001465,mp-1176187,Li9Mn2Co5O16,https://materialsproject.org/materials/mp-1176187,18.014460427994326,-80.26611223439933,-13.984818380411642,-86.54069992595852
-5.8011418628125,-185.63653961,4.2482865598055355,-1.8657928994349997,15.999999599999999,0.6598161404636601,0.4005999999999999,1,32,282.60150103072374,723.001465,mp-1175609,Li9Mn2Co5O16,https://materialsproject.org/materials/mp-1175609,19.659754611733227,-80.01764244702841,-11.636230798329134,-87.40832153154983
-4.862864707777779,-175.06312948,4.9984887320294655,-1.3217030565972214,3.9999998999999997,0.15081114408235965,0.0,2,36,309.10353613771827,930.4512,mp-766892,Li4Ni5O9,https://materialsproject.org/materials/mp-766892,23.030510888905674,-70.88021573193161,-10.090580066430023,-75.55927312693724
-5.076280220666666,-304.57681324,4.626055519257237,-1.3479911063653325,9.00000045,0.1913742445740132,0.3199000000000001,1,60,548.07055375104,1526.8564900000001,mp-759369,Li6MnNi7O16,https://materialsproject.org/materials/mp-759369,24.53676901038129,-72.45820264936812,-4.216801708154346,-72.80802043003078
-5.7201549442857145,-80.08216922,4.4035588694275765,-1.5471538071428574,4.0000004,0.3358302045574735,0.0,166,14,138.80902646410664,368.1056,mp-775286,Li2Fe3NiO8,https://materialsproject.org/materials/mp-775286,23.35142397018613,-69.31199395945511,-14.895683344294893,-71.36905526399654
-5.7890797134375,-185.25055083,4.294146693630369,-1.8537307500599995,14.000353099999998,0.5835862155816264,0.0,2,32,279.58340603280664,723.001465,mp-1175735,Li9Mn2Co5O16,https://materialsproject.org/materials/mp-1175735,22.02170644981017,-80.08901372235252,-9.460483199390763,-85.3610966594421
-6.275338845833333,-75.30406615,4.151122599024367,-2.0024053745350003,9.9999996,1.0199809467584429,0.4241999999999999,12,12,114.25766670872015,285.628685,mp-1173988,Li3Mn2CoO6,https://materialsproject.org/materials/mp-1173988,5.640145425572942,-77.66360363695311,-29.648839494068646,-75.90881591749395
-5.0225884735,-100.45176947,4.6628025992413535,-1.4477367023750003,5.9999995,0.4020182538062746,0.0,12,20,173.9333528920333,488.405795,mp-1222736,Li5Co(Ni2O5)2,https://materialsproject.org/materials/mp-1222736,22.50834013145846,-70.33543529093296,-7.8579746741860195,-75.43857026364839
-7.124144520833332,-85.48973425,4.068003152635495,-1.8016259610733327,11.000001600000001,0.9108109924330464,0.6671,166,12,140.74789633600503,344.8054350000001,mp-756043,Mn3CrO8,https://materialsproject.org/materials/mp-756043,20.409718531231068,-68.70441150551112,-15.33039613028857,-69.89015909718164
-5.5221825478125,-176.70984153,4.3166413473575584,-1.7269838825,21.9999984,0.9117682568238112,0.6539999999999999,2,32,281.2001892267608,730.991765,mp-1175374,Li9Co7O16,https://materialsproject.org/materials/mp-1175374,20.97617185846019,-72.10628739252105,-8.626148295711074,-77.07619311510219
-4.7237670870000015,-47.23767087,4.604797442707731,-0.9128437632500004,0.9999996999999999,0.11582628820030988,0.8328000000000002,12,10,100.61672058579428,279.0176,mp-1222821,Li(NiO2)3,https://materialsproject.org/materials/mp-1222821,9.231640083473167,-67.8426027906108,-4.075885612734258,-70.28044438975978
-5.7926668828125,-185.36534025,4.229256534206431,-1.8573179194349996,16.0,0.6568605375155845,0.3796000000000004,1,32,283.8730989476302,723.001465,mp-1176040,Li9Mn2Co5O16,https://materialsproject.org/materials/mp-1176040,21.16376902017224,-79.28186192277583,-10.09539339633198,-87.23817040282509
-5.50459383875,-176.14700284,4.268003781722622,-1.7093951734374997,23.9999999,0.983449101912952,0.0,12,32,284.4047066919616,730.991765,mp-1175390,Li9Co7O16,https://materialsproject.org/materials/mp-1175390,19.52880827989661,-72.09726227473249,-10.633847857703179,-77.16730262697375
-6.036309255,-338.03331828,4.635731549356164,-1.6924771864971422,2.0000001,0.0435404120842196,0.6339999999999999,212,56,535.3217756745452,1494.45932,mp-757572,Li2MnCo3O8,https://materialsproject.org/materials/mp-757572,24.436636427812978,-68.84726500858993,-14.79305337953798,-72.08907573589983