energy_per_atom,energy,density,formation_energy_per_atom,total_magnetization_uB,total_magnetization_T,band_gap,sgr,num_sites,cell_volume,weight,mp_id,formula,URL,tsne_xrd_lin1_0,tsne_xrd_lin1_1,tsne_xrd_lin2_0,tsne_xrd_lin2_1
-6.223327103125,-398.2929346,7.3568778418920875,0.19271322663327609,2.480625e-05,2.266841757372947e-07,0.0,61,64,1275.3146236345178,5650.1736304,mp-1247271,CsIrN2,https://materialsproject.org/materials/mp-1247271,-7.182850934043119,38.52014118135322,-15.971846463237071,38.3229003870101
-6.985004635238094,-146.68509734,8.466387868700838,-0.8231035783333338,2.68e-05,9.788011497048577e-07,0.0,143,21,319.09334801943965,1626.922334,mp-1218725,Sr2P7Rh12,https://materialsproject.org/materials/mp-1218725,-51.105304727253134,0.9317723749960304,-56.145766635092706,21.085115171762663
-5.605176295,-22.42070518,6.2769139927226565,-1.3530925885416671,5.0000002,1.125452270354626,1.1363000000000003,166,4,51.775031006202184,195.71200000000002,mp-19225,FeAgO2,https://materialsproject.org/materials/mp-19225,-33.45820263822138,26.69887178489361,-32.857230028981384,37.96167535310407
-5.762500760094339,-610.82508057,2.497110871240104,-1.8997031090326688,9.00000185,0.10794604484259553,2.9627,14,106,971.6576894132652,1461.1743060000001,mp-778187,Li4Co3P4(H3O4)6,https://materialsproject.org/materials/mp-778187,45.76748405683834,-42.079782164189524,38.23917021817178,-56.265394021531755
-7.1182835933333335,-170.83880624,5.0721372518258905,-2.6235495184339084,5e-08,1.4352907268236435e-09,3.6204,13,24,405.982723735372,1240.0793038,mp-1213354,CsEr(MoO4)2,https://materialsproject.org/materials/mp-1213354,5.974417234663851,-18.67050998222153,31.628726174088907,-8.114415588483972
-6.619286783500001,-132.38573567,7.678247992957638,-2.86813457625,7.499999999999999e-06,2.769178992063183e-07,1.5655,115,20,315.6368224831723,1459.4886,mp-1228053,Ba3SrLu2(BiO6)2,https://materialsproject.org/materials/mp-1228053,-23.579725257606512,11.923777908325546,-32.549547824262284,49.7183632109539
-4.729811927222221,-170.27322938,4.957511485312604,-0.992855930833334,2.999999975,0.06384218492663785,2.5263,143,36,547.6346723800748,1634.95414,mp-758160,Co(IO3)2,https://materialsproject.org/materials/mp-758160,5.391921221318,-36.38101841198243,2.9137990799081748,-32.55645126002554
-7.21745817578125,-461.91732325,2.5362290848391966,-2.8571813996249995,2.001285225,0.02334659750631856,0.4817,19,64,998.9938634186203,1525.8161542399996,mp-1180329,Na2ZrSi3O10,https://materialsproject.org/materials/mp-1180329,43.77925291462096,-41.89586408903678,37.91243922317317,-58.654699120417426
-8.622121537083332,-206.93091689,7.739212884530895,-2.96780689375,5.982192475,0.2269856464384817,0.007400000000000517,60,24,307.14214612008095,1431.48604,mp-504549,UFeO4,https://materialsproject.org/materials/mp-504549,6.972507357170151,16.955341995077887,37.85981403628897,-2.996035424168477
-8.515979181875,-408.76700073,3.665519130614153,-3.437446295954861,1.9964456000000002,0.04117527028969046,0.0,11,48,565.0650541841702,1247.34,mp-759694,Mg2Ti7O15,https://materialsproject.org/materials/mp-759694,17.729694257209278,3.2029958272680075,63.74817472039572,33.204897469453456
-6.944617977589287,-777.79721349,5.568178460182503,-2.3101088460621426,1.25e-08,1.053865801869228e-10,3.2238,61,112,1382.2994293828765,4635.175520000001,mp-1200581,Bi2B3HO8,https://materialsproject.org/materials/mp-1200581,11.242793838872526,-26.81857566820209,30.78889141186859,-7.448397683084392
-7.591083741499999,-303.64334966,5.520606272769544,-3.256001388875001,1.0000001,0.01874120323648951,0.0,139,40,621.8419271648187,2067.3675,mp-1228256,Ba8Ca3Nb5O24,https://materialsproject.org/materials/mp-1228256,-23.089176250628878,13.663371025269154,-29.36662097377947,50.02885790954303
-4.777300289333334,-143.31900868,2.3876496966039182,-2.7136565166139994,5.00000015,0.12499924284480175,0.17399999999999993,14,30,466.16542856388526,670.2882119999998,mp-1223763,K2Al2O2F9,https://materialsproject.org/materials/mp-1223763,37.94600986989915,-52.47627222763755,27.81412123083952,-64.21071073059875
-6.2464409721428575,-174.90034722,3.640785530684093,-2.269628937448979,1.99999995,0.07954855677206828,3.5739,62,28,293.00505135751604,642.423048,mp-775848,LiNiPO4,https://materialsproject.org/materials/mp-775848,30.999801122119816,-33.79839938077448,53.63959396026382,-12.732774230864685
-7.852730696041667,-376.93107341,3.7797144256024735,-2.9758247931944446,7.00000035,0.15699531845289266,3.1614,14,48,519.6235040047936,1182.7656,mp-559706,Li3Gd(BO3)2,https://materialsproject.org/materials/mp-559706,33.32000567564809,-26.02985629028606,9.90199055747721,-38.49782978415104
-6.365206842,-254.60827368,3.237635830888267,-2.353498068145237,0.0,0.0,2.9041,14,40,625.5375084801204,1219.6416960000001,mp-557874,KAg(PO3)2,https://materialsproject.org/materials/mp-557874,45.83387684007458,-9.096621727710048,47.97453035254553,-19.41217695958619
-2.457098928125,-39.31358285,2.836123783136073,0.3834366959999995,0.0,0.0,0.00450000000000006,62,16,402.5280280189022,687.4992313600002,mp-1190353,Na3Rh,https://materialsproject.org/materials/mp-1190353,11.030962353916404,8.302741157740071,0.4214665733356465,14.444940218258994
-6.525696619090909,-143.56532562,3.2577250488188048,-1.9566801441565915,10.00000065,0.4764155662680673,2.8046999999999995,15,22,244.6197470280904,479.90674,mp-24250,Mn2H2SO6,https://materialsproject.org/materials/mp-24250,20.78490523081001,-4.549309332232894,49.587646423906854,0.9090309220068602
-5.50972398625,-44.07779189,5.480208855866769,-2.0095423021725,0.0,0.0,1.3197000000000003,9,8,104.69311951412494,345.5144064,mp-752561,SbO2F,https://materialsproject.org/materials/mp-752561,8.991163968125663,-36.14894921261092,47.87850241304272,-9.219068994873963
-5.632457303888889,-101.38423147,3.2224736670956213,-1.2973457726289692,0.0,0.0,2.4373,84,18,501.2581816146979,972.751168,mp-14249,Th(PS3)2,https://materialsproject.org/materials/mp-14249,34.63823422564243,-32.11215305312733,9.410062660404279,-60.22742732523786
-7.625951074148936,-716.83940097,4.9820425313272025,-2.7816533084840427,0.0,0.0,3.2258,4,94,1419.1674884450808,4257.86604,mp-31128,La6Mo8O33,https://materialsproject.org/materials/mp-31128,12.066155260869136,21.24886736328089,33.641830451727465,1.3623105414405603
-6.206136925,-62.06136925,7.43308566859408,-0.257630245,1.83721545,0.07734302430545377,0.0,11,10,276.83204849719885,1239.1857599999996,mp-8848,TaFeTe3,https://materialsproject.org/materials/mp-8848,10.700335276001578,-48.17283845852892,1.14130569119603,-52.963904110889644
-9.102827709361698,-855.66580468,3.8194957811752035,-3.073041268459857,0.0005199,5.436455690735752e-06,0.0,11,94,1114.5033860165215,2563.5296,mp-779454,Ti17(NO4)6,https://materialsproject.org/materials/mp-779454,17.85557189201773,3.1232486574229883,63.696293096267894,33.222743531711075
-6.8258512510000005,-136.51702502,3.366413914720928,-2.3726671255535727,0.0,0.0,0.0,4,20,291.72105759934425,591.406648,mp-26342,SbP2O7,https://materialsproject.org/materials/mp-26342,50.3505785495089,-35.80765883415036,50.10419517679975,-33.01997170535162
-7.0735470088636365,-311.23606839,3.4087127980498164,-2.7423848116396115,2.999999975,0.06573394833985996,2.8932,14,44,531.8742432078582,1091.818076,mvc-1301,CaCoP2O7,https://materialsproject.org/materials/mvc-1301,2.8960838456554754,27.62696147238761,57.63413222499479,34.78802697889524
-6.983991220869566,-642.52719232,3.2721889178516945,-2.6990338365683244,0.999999975,0.012253051191905506,0.8900000000000006,130,92,951.1153017059842,1874.228112,mp-863382,Li4Nb(P2O7)2,https://materialsproject.org/materials/mp-863382,38.71574861486854,-38.049658297572066,44.82225059103656,-34.364484852251344
-2.2172588125,-17.7380705,3.7375849291050938,0.20264738000000013,0.0040955,0.0001273517304077473,0.0,194,8,374.78267569040185,843.5707,mp-1187160,Sr3Tb,https://materialsproject.org/materials/mp-1187160,-11.480036659292585,-19.052562827149433,-20.184955054644085,-6.325105078315983
-4.7609136625,-38.0873093,3.940389405215304,-2.6281962852675,2.0000001,0.1986699288011987,1.6569999999999998,148,8,117.32087916460372,278.3975192,mp-559161,CrCdF6,https://materialsproject.org/materials/mp-559161,7.395259516531786,-36.60319338353745,3.000799323243878,-30.69141068366651
-1.7378748825,-6.95149953,2.8898654699344566,0.006313552499999986,0.0052207,0.00026458896295132665,0.0,139,4,229.95054396617007,400.18699999999995,mp-1183335,BaSr3,https://materialsproject.org/materials/mp-1183335,-15.334613911294491,-42.03681696159747,-13.807704334014778,-29.971400709748515
-3.42149521,-61.58691378,4.071185474655159,-1.2585024626293106,1e-07,2.420181789185327e-09,2.8432,72,18,481.5367516868492,1180.5958076000004,mp-505633,Cs2Zn3S4,https://materialsproject.org/materials/mp-505633,4.738993814176016,17.871061461697323,-0.8157746541951046,24.250137633854173
-9.301462036923075,-241.83801296,8.081110346588341,-2.884400032211538,13.99999995,0.480535606886099,2.4647,2,26,339.5313560433107,1652.3492,mp-770907,Gd2W2O9,https://materialsproject.org/materials/mp-770907,12.149410740205223,20.368719165800695,1.419849304179145,36.14916582773955
-8.032332570795454,-706.84526623,7.034746232986138,-3.3900328688636368,1.0000000125,0.009364637356203829,1.7536,19,88,1244.4758376591044,5272.1264,mp-705801,Sm3MoO7,https://materialsproject.org/materials/mp-705801,17.66383268986559,58.31561527543924,-2.446304694365713,37.22428382362069
-4.9362605925,-19.74504237,4.613378045271917,-0.6778510583485993,4.0000002,0.3745659134061336,0.0,119,4,124.4540940662338,345.76349689999995,mp-1207359,CsMnSe2,https://materialsproject.org/materials/mp-1207359,23.02021459410423,59.17673302272647,-15.708400769987838,39.46278261782243
-8.500940022727272,-93.51034025,7.403241618547255,-3.895081786477273,0.0,0.0,1.8067,115,11,160.8734151658041,717.2278,mp-755380,Ce2Dy2O7,https://materialsproject.org/materials/mp-755380,25.542039666982408,64.87727852018807,-11.36646120203979,35.761673660360934
-7.174893219545454,-157.84765083,4.728748797046088,-2.5362919678409086,4.99999995,0.20637626206128865,2.5821,12,22,282.3499306465313,804.0533,mp-767438,YFeGe2O7,https://materialsproject.org/materials/mp-767438,7.819467198630616,25.78912581228634,32.37637451303634,-2.1754593799072217
-1.8214017933333333,-5.46420538,4.5039654120669494,-0.2334279016666668,4.1e-06,3.3482920991103346e-07,0.0,139,3,142.70459133535772,387.065,mp-8093,Ba2Cd,https://materialsproject.org/materials/mp-8093,7.013323263223389,-25.11221830343437,34.1306910101237,-6.263868959760437
-6.26957009909091,-68.96527109,2.930236260749085,-1.5319707755315362,0.0,0.0,2.6254,146,11,176.24092926761227,310.9999519,mp-757826,CsCa(NO2)3,https://materialsproject.org/materials/mp-757826,-2.7550281517413833,-22.073325736879333,-0.72149884796379,-14.649344248983128
-3.8944361717857134,-109.04421281,3.256817908727569,-1.5906975206575005,0.0,0.0,2.8305,82,28,835.8509155009572,1639.3557544000003,mp-561350,AlBiSCl4,https://materialsproject.org/materials/mp-561350,31.906110912974512,-21.572325346166547,2.8447850262309533,-45.45167968664871
-1.887509905,-7.55003962,1.3363114310639157,0.0,0.0,0.0,2.9875,64,4,94.43185017475766,75.99361280000001,mp-760482,F2,https://materialsproject.org/materials/mp-760482,-18.751170506591308,-34.91239861877692,64.32473591452775,-45.70349953317867
-7.109958765454545,-312.83818568,3.297686868246536,-2.5968850614123373,3.000000125,0.06270393346705852,4.0674,14,44,557.5757985390908,1107.2972960000004,mp-697767,LiMoP2O7,https://materialsproject.org/materials/mp-697767,51.104259440268024,-35.003941812987755,50.415331871382726,-32.61782831484803
-3.1284375519230765,-162.6787527,3.2347658313896837,-1.5661572390838459,0.0,0.0,2.025,14,52,852.5512166000094,1660.7881408,mp-554379,AsXeF11,https://materialsproject.org/materials/mp-554379,40.768129352791306,-37.45762314773425,34.80430896320047,-50.68242952164219
-5.878286863421053,-446.74980162,5.586005842981706,-1.8745173186578956,0.0,0.0,3.4166000000000003,15,76,1186.521442262386,3991.4242,mp-567022,K3Bi5(AsO4)6,https://materialsproject.org/materials/mp-567022,10.780468129787817,22.073916917746207,32.93649309849718,0.1935986434104415
-7.078391124642858,-198.19495149,2.5155817536485268,0.3236267890314295,0.279851125,0.00836927981226953,0.0,62,28,389.68742957338065,590.3448,mp-608366,CuN6,https://materialsproject.org/materials/mp-608366,40.28184663453784,-52.05368732820625,37.456972062412106,-62.08486705377571
-5.540181546458334,-265.92871423,3.361815606267978,-2.284781784573255,0.0,0.0,1.9544,15,48,825.2277363465303,1670.7005471999996,mp-1194585,AgP(OF)2,https://materialsproject.org/materials/mp-1194585,9.569222985182558,30.436956713626195,33.06783524897096,0.5952426511919873
-4.278997132844828,-496.36366741,2.325387719117603,-1.0949905693472906,0.0004482,2.0903682608968707e-06,2.4748,1,116,2498.77111548765,3499.2321920000004,mp-1147593,Li6Zn3(PS4)4,https://materialsproject.org/materials/mp-1147593,-16.763203074311626,-1.028698741836078,-9.63556283532407,-3.4259605770501715
-6.637677646999999,-132.75355294,3.289230700421964,-2.419080970318966,0.0,0.0,3.0556,57,20,372.385984333074,737.6299999999999,mp-19031,RbVO3,https://materialsproject.org/materials/mp-19031,8.578904505650861,-25.10873202405773,71.84042557567444,-25.0022241243114