energy_per_atom,energy,density,formation_energy_per_atom,total_magnetization_uB,total_magnetization_T,band_gap,sgr,num_sites,cell_volume,weight,mp_id,formula,URL,tsne_xrd_lin1_0,tsne_xrd_lin1_1,tsne_xrd_lin2_0,tsne_xrd_lin2_1
-5.300209459,-212.00837836,4.848212215675002,-3.259521177833,2.999999825,0.05870277827882979,3.8829,15,40,595.5798567514529,1738.8916895999998,mp-1214499,BaCrCdF7,https://materialsproject.org/materials/mp-1214499,12.55318100908316,-17.089377989417688,17.152797900140314,-11.081626092855778
-3.92434408625,-31.39475269,4.583606777825174,-0.538419270680937,0.0,0.0,0.8224,160,8,162.9837162654474,449.886,mp-557510,Cu3TeS3Cl,https://materialsproject.org/materials/mp-557510,-14.6663667955324,24.420108841360783,-8.708545501864442,-0.7077605066444256
-7.7041263828125,-246.53204425,7.012932458153387,-0.39307847492922404,2.3875e-06,4.2315008059045556e-08,0.0,57,32,657.5463628805428,2777.0068152,mp-1097067,CsReN2,https://materialsproject.org/materials/mp-1097067,-21.140676560367094,11.64548349235396,-28.502963055247594,47.83866515653053
-3.7376684035714285,-52.32735765,3.014109159543926,-0.8226567634464291,4.975e-05,1.2833006522081932e-06,1.0833,9,14,451.7957046442644,820.0719999999999,mp-1103867,K2Se4O,https://materialsproject.org/materials/mp-1103867,45.793547873505965,-9.116548057913326,25.8332774414157,-26.052222656841153
-7.857841354736843,-149.29898574,6.0772789933605385,-3.426117540000001,3.0788924,0.11144460826143053,0.029100000000000126,148,19,321.96812404929875,1178.3463499999998,mp-22671,Pr7O12,https://materialsproject.org/materials/mp-22671,-11.8551318178124,-28.718624806577353,-0.8336908983059468,-28.441538266851374
-3.344924831,-33.44924831,4.124796277421819,-0.3393415046000001,0.0,0.0,0.19720000000000004,21,10,242.42873349549885,602.1955,mp-1223862,K2Zn3SiAs4,https://materialsproject.org/materials/mp-1223862,-21.346987309959353,-10.981739104745905,-30.164020710281896,-24.01641276239037
-6.3659566555555545,-114.58721979999999,8.054866794523324,-1.8674762025,0.0,0.0,0.5202999999999998,64,18,251.46489366535116,1219.7944,mp-555658,Bi2MoO6,https://materialsproject.org/materials/mp-555658,28.89977130849097,63.118496560869,-11.043425360598688,33.84895396314702
-5.054361665416667,-242.60935994,3.3313743374088927,-1.15708662925,1.003579225,0.012713747216315005,0.6531,14,48,919.9315586152736,1845.5672,mp-1181131,KTeO4,https://materialsproject.org/materials/mp-1181131,35.45817411578405,-16.99293973436845,45.83256111805351,-29.116369682360865
-3.717505853333333,-66.91510536,3.435960926406221,-1.4559591234482758,5.00000035,0.08480698670703103,2.6445,140,18,687.0934837364074,1421.72289,mp-1209364,Rb3MnBr5,https://materialsproject.org/materials/mp-1209364,7.47373477529046,-23.64080649010201,17.113442966631254,-18.802639513273395
-6.776742585113637,-596.35334749,2.7575785520861817,-1.2769880332954548,3.999999475,0.032444525648068136,0.5777,56,88,1436.798721531947,2386.0236,mp-1202637,Nd2C3O17,https://materialsproject.org/materials/mp-1202637,43.23006637144721,-44.04099110307857,25.55981505282905,-69.23587716915691
-8.312809672,-166.25619344,8.642790175517165,-3.935855262250001,0.0,0.0,4.4709,62,20,285.77709548439265,1487.41548,mp-755740,TbHoO3,https://materialsproject.org/materials/mp-755740,-21.93680703382231,30.34579724472643,-22.536669500861997,55.864527373224526
-5.6293734425,-67.55248131,5.517313051108882,-2.913853200793333,3.9999998999999997,0.2582216583846682,1.2806000000000002,140,12,180.52807117902125,599.8232256,mvc-14340,CaWF4,https://materialsproject.org/materials/mvc-14340,-12.100004610247213,-26.93699388050735,15.847281983789554,-16.956963303174604
-5.4354712375,-43.4837699,6.794907912029294,-1.8375502853125003,1.885e-05,1.293750277630294e-06,0.8324999999999996,129,8,169.80025029646904,694.8208,mp-12516,NdZnSbO,https://materialsproject.org/materials/mp-12516,-15.000210381692533,21.30484451806649,-15.430621875268185,41.591945179688395
-6.527338243846153,-169.71079434,2.7285972259020084,-2.289771509096539,0.9999998999999999,0.02553018406617011,0.1748,75,26,456.4817698512383,750.0907,mp-560551,K4V5CuClO15,https://materialsproject.org/materials/mp-560551,62.103689692893575,-31.27635368761366,68.81948850102874,-24.636899586373392
-6.314542013359375,-808.26137771,7.680115354039499,-1.8790823984765632,0.00068735,4.034672024906196e-06,2.5143,14,128,1985.3959310621149,9182.6024,mp-1202541,Bi8(MoO7)3,https://materialsproject.org/materials/mp-1202541,1.5522779906392337,-17.621174944233996,27.78581996368863,-6.160616492430822
-7.367226738571429,-103.14117434,3.1011953644790213,-2.5187873608418374,0.0,0.0,1.9286,9,14,173.39225718265914,323.824524,mp-556459,VPO5,https://materialsproject.org/materials/mp-556459,63.66488449497242,-29.735852400358663,68.68282190450195,-29.80216499326225
-2.9443069145454546,-64.77475212,3.987402637459507,-1.3389738610344828,0.9102361999999999,0.010010969609470812,0.0,167,22,1059.6327875266963,2544.46446,mp-568627,Rb4TmI6,https://materialsproject.org/materials/mp-568627,1.4029074271843915,-11.102923026167282,0.2551592326994261,-1.3096984376676188
-6.341500879705883,-215.61102991,6.5993464376130735,-2.3255529136029423,0.0,0.0,3.2528,15,34,508.9771362588994,2022.7868,mp-510342,Dy2Te4O11,https://materialsproject.org/materials/mp-510342,5.96391405661508,16.054748649830543,36.16126351599911,-3.556488945341418
-4.7649299439999995,-23.82464972,4.447733408336986,-0.4932366129519998,0.004981899999999999,0.00047561002051205517,0.009799999999999807,139,5,122.07351146198887,326.9724,mp-1247488,Ba2MgN2,https://materialsproject.org/materials/mp-1247488,-19.608260182806912,14.229763215490694,-16.537756292541168,38.116075420210095
-3.9234771228571432,-27.46433986,5.508531950693499,-0.1854800327678571,1.1e-06,7.571768333388095e-08,0.0,121,7,169.30617374131162,561.6419999999998,mvc-13133,Cu2SnSe4,https://materialsproject.org/materials/mvc-13133,-9.668464139404612,-7.048704026959661,-12.068063050493953,7.981634176274141
-5.861824547916666,-422.05136745,2.9699509732644382,-2.3491938551388887,3.0000000375,0.045781021943046216,1.9464,88,72,763.6831436004455,1365.8826688,mp-771900,Li3AlCoO4,https://materialsproject.org/materials/mp-771900,-5.651300227212629,-7.6551031950627,5.115995689305937,-37.705670985356456
-6.36592482875,-509.2739863,6.889221031445464,-2.077804116288,0.0,0.0,2.8160000000000003,57,80,1418.3233545930607,5884.319999999999,mp-560833,B3Pb6ClO10,https://materialsproject.org/materials/mp-560833,8.998410908646926,20.8425645120134,35.82759658660504,-1.5555234589338465
-7.054589625925926,-380.9478398,4.254407422650229,-1.8571956769328704,5.9991727,0.07427212826152814,0.17789999999999995,14,54,941.3322179403148,2411.7534600000004,mp-1202011,Li2U3(SeO10)2,https://materialsproject.org/materials/mp-1202011,43.2318090448974,-41.49681441898094,47.66688558165578,-32.63027700251142
-8.0499943975,-289.79979831,7.316251118303139,-3.2169601294444465,0.0,0.0,3.1180000000000003,15,36,515.9572552492117,2273.2816,mp-18479,Nd2WO6,https://materialsproject.org/materials/mp-18479,22.276623052499513,55.46752693997261,28.338949867078217,-6.183636882167676
-2.682679884090909,-59.01895745,6.175370706242461,-0.5731436727272726,0.0,0.0,1.8382000000000005,128,22,888.2207861310862,3303.20004,mp-1208159,Tl4GeI6,https://materialsproject.org/materials/mp-1208159,5.169123844593947,27.651198578916574,22.027887508655468,-17.95466177266601
-5.9139965960000005,-354.83979576,5.257586189291987,-2.3647457232500004,0.0,0.0,3.1676,62,60,1185.9994130191135,3755.1024,mp-556021,BaTeO3,https://materialsproject.org/materials/mp-556021,8.146880497286231,-25.780618682554763,-1.081011430175302,-31.029998074739062
-4.463039496875,-357.04315975,3.9527947838069335,-1.188371435787,0.0005738875,5.103912844531122e-06,3.3549,14,80,1310.3911255711819,3119.2926399999997,mp-720407,KH(IO3)2,https://materialsproject.org/materials/mp-720407,15.372628043069284,-16.696870554172932,27.032129535881797,-14.003516388581092
-7.6143872505769234,-395.94813703,5.9172141026082885,-2.041560061442307,1.000000025,0.013398026634430096,0.08529999999999993,14,52,869.8344451684272,3099.59388,mp-1205014,Pu2IO10,https://materialsproject.org/materials/mp-1205014,38.912864131958315,-36.87735708842786,48.1184799677817,-33.53404987600707
-5.68921761875,-136.54122285,5.3185687076313926,-0.803758679713542,6.97639895,0.133983158048396,0.0,62,24,606.818098832615,1943.588,mp-504563,BaFe2Se3,https://materialsproject.org/materials/mp-504563,-18.421978572269683,15.3062778489193,-4.868355578363763,29.35609872916288
-1.2446244391666668,-14.93549327,0.9651315087594716,0.017754685166666558,3.2475e-05,6.463794665909302e-07,0.0,194,12,585.5163615962962,340.31135424,mp-570786,KNa2,https://materialsproject.org/materials/mp-570786,5.087896065934308,-16.7626377629375,25.38270141830956,-6.578445992376331
-4.301765299375,-206.48473437,3.469253755014292,-1.3758598069066672,0.000828675,1.0860195390865152e-05,3.0513,29,48,889.25031068263,1857.85152,mp-733853,K2HI2ClO6,https://materialsproject.org/materials/mp-733853,35.704228124216534,-9.15932173618934,43.41428354196432,-32.47861632176956
-3.586916715,-14.34766686,5.46322531089815,-0.5358176109050001,0.0,0.0,0.11230000000000027,156,4,99.32061932499224,326.76794,mp-1018094,BaGaSnH,https://materialsproject.org/materials/mp-1018094,-5.262798877108256,-32.379677741172316,-8.349912052165854,-29.988282488052697
-8.444188989999999,-472.87458344,5.670989647232286,-2.0318183602678572,31.42796625,0.3840596885355828,0.0,176,56,953.6631031074376,3256.9024,mp-1213341,Gd7(BrO6)3,https://materialsproject.org/materials/mp-1213341,-5.906418389134188,-2.0203570177794434,-17.540098854626493,44.955654509693254
-5.3784091995,-430.27273596,5.106894346261963,-1.1053240074999997,0.000457425,1.8780385131058263e-06,0.1257999999999999,134,80,2838.5256965642047,8729.725999999999,mp-28840,Y4RuI5,https://materialsproject.org/materials/mp-28840,-0.6875755963773309,-13.073384427316228,0.7980176940632755,1.1347283650677762
-4.524818043333333,-13.57445413,4.836945949152192,-0.4857101033333334,3.0002864,0.3342088480214614,1.0135000000000003,164,3,104.62180235151827,304.75043999999997,mp-1018138,VI2,https://materialsproject.org/materials/mp-1018138,-18.29043345629088,-35.521558776570835,-19.17890696981232,-19.07627186956889
-6.661602457857143,-93.26243441,4.273777829905536,-2.2802858115561224,0.0,0.0,2.5466000000000006,15,14,180.85100886888654,465.46152400000005,mp-9750,SbPO5,https://materialsproject.org/materials/mp-9750,30.560094169135642,-28.242792598920538,47.65120719903933,-30.129221128759003
-3.348869505555556,-60.2796511,1.7275968601533278,-0.16121000189999968,4.99999995,0.17098933479970574,1.5738,140,18,340.78337896543184,354.54529000000014,mp-643245,K3MnH5,https://materialsproject.org/materials/mp-643245,6.839204347989882,27.920436759179502,32.71878235936576,-6.2779278205087445
-7.189682627000001,-287.58730508,2.9832174184381914,-3.2479030872500005,0.0,0.0,4.6064,60,40,447.0324006411049,803.1096,mp-5026,MgSiO3,https://materialsproject.org/materials/mp-5026,-0.35695703626072206,25.56261546222001,30.4385779091266,-1.5232910885263486
-8.092508204000001,-40.46254102,6.873591559192259,-0.511545550000001,12.102975500000001,1.4182114052128554,0.0,164,5,99.455454877359,411.68329,mp-20128,Eu(MnAs)2,https://materialsproject.org/materials/mp-20128,-13.239938976810608,21.98772375060761,-32.700813721553615,-19.27588546493331
-1.61453100875,-12.91624807,2.632441424461075,0.04959275125000007,0.02936995,0.0009447757953505383,0.0,139,8,362.28627082877824,574.33,mp-1094293,Sr3Mg,https://materialsproject.org/materials/mp-1094293,-9.806627883973064,-25.20329200489436,-1.8910747756322928,-28.767049874921252
-10.614128919,-212.28257838,9.196899148250766,-3.4319824139999997,9.999999775,0.36928859111871615,0.0,62,20,315.58149346121485,1747.8488,mp-1213363,EuNpO3,https://materialsproject.org/materials/mp-1213363,-21.50077030444952,13.548208702579347,-28.86028217771036,49.67141783365218
-6.9223760990625,-221.51603517,3.147029746831514,-2.413182747299108,2.0,0.06499586296247703,1.148,14,32,358.60943270459364,679.6314480000002,mp-755345,LiCrPO5,https://materialsproject.org/materials/mp-755345,40.35280761774761,-40.23228120429957,38.460375204427315,-54.62261305398089
-6.067448863026316,-461.12611359,3.0412508061899115,-2.13141895319408,8.000000325,0.08929252391110191,0.6843999999999992,198,76,1044.1246129504557,1912.2976,mp-944271,K2Fe2(SO4)3,https://materialsproject.org/materials/mp-944271,5.097106121936026,28.17944651437529,69.25035806380251,-23.06127236263606
-6.234206285277778,-673.29427881,3.3550279626587445,-4.024219784071112,0.0,0.0,6.9098,144,108,1817.4013908382053,3671.9597304,mp-28726,KYF4,https://materialsproject.org/materials/mp-28726,15.188567445399006,-25.53808274921101,10.142677346416946,-25.610649283908838
-7.849303839444443,-282.57493822,5.943944344725598,-3.1540597152777767,0.0001901,4.184797190937659e-06,2.3054999999999994,15,36,529.4014529691461,1895.0068,mp-1209740,Pr2MoO6,https://materialsproject.org/materials/mp-1209740,1.5948078583753431,-17.42514453700993,28.062788301936628,-6.269221510008662
-5.73607312,-63.09680432,6.277613669045207,-1.9445553805681808,1.1e-06,4.17408168837224e-08,1.8395,12,11,307.12075629777274,1161.06,mp-1095296,Dy4Te3S4,https://materialsproject.org/materials/mp-1095296,1.2450293567684945,-11.293198620447914,20.180518464896213,-14.813813515153225
-3.794131390833333,-45.52957669,6.126456313079281,-0.33000326440972216,0.0,0.0,0.5629,62,12,220.60724057176213,813.9168,mp-5014,CuAgS,https://materialsproject.org/materials/mp-5014,-19.027181053452637,27.428022038890226,-43.456072696225625,29.48918694194269
-7.693674270909091,-84.63041698,3.5892346839424687,-2.480155703210261,9.999998699999999,0.8292027505160283,1.9406000000000003,8,11,140.5454003894552,303.787152,mp-1210613,Mn2VPO7,https://materialsproject.org/materials/mp-1210613,6.403003091535469,25.71175081275908,31.599696415641535,-1.5251160038732992
-6.32182374,-240.22930212,6.7775060451654685,-2.4305590002467112,0.0,0.0,0.0,63,38,835.0776276133818,3408.37736,mp-18680,Tm8S11,https://materialsproject.org/materials/mp-18680,15.432624260960104,-6.09135138518504,14.205329588349061,4.226751533924496
-7.108748315,-71.08748315,2.463790736155614,-2.8367349225833336,1.0000001,0.08743033103839704,0.4137,11,10,133.29545707482248,197.7744,mp-1084760,CaBO3,https://materialsproject.org/materials/mp-1084760,-19.10562765750773,16.12775274702631,-13.328737795300512,25.62005867506937
-2.883476601666666,-51.90257883,3.742022469865661,-1.6058475987033336,0.0,0.0,3.1109,87,18,347.1812987089708,782.3725847999999,mp-27782,XeIF7,https://materialsproject.org/materials/mp-27782,1.7224691685206948,-30.733888858848815,-8.84497595042415,-34.980628109046414
-6.595814749166667,-316.59910796,2.4905808507626324,-2.578788030604167,0.0,0.0,0.0,136,48,843.758202878572,1265.5216,mp-19459,K2MgV2O7,https://materialsproject.org/materials/mp-19459,60.634076541620715,-36.362752164351384,68.93858331402696,-24.21127479890067
-4.2554520375,-34.0436163,3.6094080222006624,-0.7817846361562499,0.7933084,0.054743613437497035,0.0,121,8,168.88303306414699,367.0903,mp-1147571,KCu2GeS4,https://materialsproject.org/materials/mp-1147571,-20.390367008166024,6.9191903413706575,-16.97039860200406,37.40091893988402
-8.995424990625,-143.92679985,3.955642089149692,-3.3924927385937504,0.55976645,0.034749957771002954,0.0,12,16,187.72841419822862,447.19599999999997,mp-556480,Ti3O5,https://materialsproject.org/materials/mp-556480,17.640393638120607,3.114040741638312,63.52854856617702,33.294861580978
-5.447013771029412,-740.79387286,7.510913398698123,-1.67251051025,0.0,0.0,2.3298,230,136,2682.855906238477,12135.0344,mp-555393,KBi6BrO9,https://materialsproject.org/materials/mp-555393,-19.082502985012,6.818017275748002,-16.91612641552847,37.203660596283385
-4.513395877142857,-31.59377114,4.854774547939512,-0.4449436177678575,3.9999994,0.26663988171242525,0.0,111,7,174.8285057674762,511.131,mp-1078053,Ga2FeSe4,https://materialsproject.org/materials/mp-1078053,-13.651636422837518,-26.051515637545677,-6.1531979824600604,-17.310866673778428
-5.590634666666667,-167.71903999999998,2.505226924986694,-1.7997513375035237,3.00000005,0.12502255760909511,0.0,2,30,279.6470938444383,421.89880039999997,mp-695928,CoPH6O6F,https://materialsproject.org/materials/mp-695928,39.787512040325204,-37.065590675347025,29.748571269686963,-54.150398143240224
-3.205168073333333,-9.61550422,4.047969271736823,-1.199436307054598,0.0,0.0,0.5912999999999999,166,3,115.60290603030649,281.81030380000004,mp-7988,Cs2O,https://materialsproject.org/materials/mp-7988,-24.213619408350386,-36.96788351119071,-1.9654067228851508,-21.52578869781287
-4.75085276125,-38.00682209,4.223292396595022,-2.167211484980469,0.0005211,2.4935141164969865e-05,2.2439,166,8,243.54917875950974,619.425,mp-1218389,Sr4Se3S,https://materialsproject.org/materials/mp-1218389,-27.239567095252525,-45.39795606880411,-37.176459920201424,-22.876093769973835
-6.4326707675,-360.22956298,5.908797674219028,-2.6386937538839303,1.25e-08,1.2153664433295894e-10,2.4983000000000004,64,56,1198.6163552278613,4265.10992,mp-1196943,La2Zn(SeO)2,https://materialsproject.org/materials/mp-1196943,-17.664282758486546,23.124848736243862,-21.479882237502736,44.732738913916094
-6.390592008333333,-230.06131230000003,4.697335621498131,-2.0770249687452105,0.0,0.0,2.5756,173,36,617.3806462442374,1746.4474076,mp-562767,Cs2Te(MoO4)3,https://materialsproject.org/materials/mp-562767,5.021356737896675,-16.76054225863725,25.459716586599736,-6.325236599015984
-6.855237818947369,-520.99807424,4.771595233543006,-1.991990027732632,10.000000025,0.0838500321747279,2.8031,198,76,1389.870045298247,3993.82196,mp-1211724,Mn2Tl2(MoO4)3,https://materialsproject.org/materials/mp-1211724,10.003059850241256,-27.890702283839307,27.453276231885003,-2.5470888049212097
-2.835608050138889,-204.16377961,4.283730219418308,-0.8089326005906349,2.99e-05,1.8183519455769282e-07,1.3805999999999998,205,72,1916.3316405668445,4943.604192000002,mp-29746,Cd4P2Cl3,https://materialsproject.org/materials/mp-29746,6.932506146543178,-18.11535001881782,10.625795359029846,-23.037155889513773
-4.8740588623170735,-399.67282671,3.0280136170396537,-0.4962501809226823,0.0106491,7.226138489382203e-05,2.3748,63,82,1717.4498018799497,3131.791100000001,mp-1199335,Sb2H18C3(IN)9,https://materialsproject.org/materials/mp-1199335,16.372881979965786,-12.217856788178807,15.719484839935749,-22.155521791818284
-7.461368853125,-477.52760660000007,5.055759458977395,-0.5456994808667233,1.875e-08,1.6188309258556502e-10,0.3134999999999999,57,64,1349.824190997565,4109.7416304,mp-1080845,CsMoN2,https://materialsproject.org/materials/mp-1080845,-20.79807206858257,11.6322900534499,-13.937501204500865,30.094278395628947
-6.093811357559524,-1023.76030807,2.2209876163393427,-2.3314351785670757,0.0013423125,6.702006437379666e-06,5.1705,61,168,2334.1363465077106,3121.930768,mp-707908,K3P3H4O11,https://materialsproject.org/materials/mp-707908,65.40989364796478,-42.38570463277807,53.593856323491536,-58.15063470987773
-4.870838245384615,-126.64179438,6.432043507026324,-1.295451765360577,0.0,0.0,2.7837,15,26,583.1082497755866,2258.65068,mp-1193210,Pb3Se2(IO3)2,https://materialsproject.org/materials/mp-1193210,2.15667477109455,-11.637703187214214,19.137810612255095,-14.25011665845051
-6.059783002592592,-163.61414107,7.892611085107489,-1.6957300984722226,0.0012291,3.32805823406569e-05,0.8860999999999999,8,27,430.401453476201,2045.716,mp-1100936,V2Bi8O17,https://materialsproject.org/materials/mp-1100936,10.054043517662388,19.35771135050403,27.25901537883205,-5.250749235819712
-3.987362579583333,-382.78680764,2.9946589341421874,0.013039201922184182,1.0000326875,0.003725299467572636,0.016000000000000014,205,96,3128.458749759481,5641.9432,mp-1245349,Rb7VN4,https://materialsproject.org/materials/mp-1245349,11.164234219492354,-18.754080258989468,13.10401652519444,-11.35941155796974