energy_per_atom,energy,density,formation_energy_per_atom,total_magnetization_uB,total_magnetization_T,band_gap,sgr,num_sites,cell_volume,weight,mp_id,formula,URL,tsne_xrd_lin1_0,tsne_xrd_lin1_1,tsne_xrd_lin2_0,tsne_xrd_lin2_1
-6.022017258846152,-313.14489746,6.333601436476653,-0.10383952730769208,0.067689725,0.0007859919339451058,0.0,215,52,1003.6495357239224,3828.104,mp-1205133,Ti8In5,https://materialsproject.org/materials/mp-1205133,-80.67129114554936,-0.7984837870281709,-84.84525875294827,4.357153767337608
-5.862299247083333,-140.69518193,4.062860227202869,-1.9149004102883336,17.9999991,0.9734454152958346,0.9905,5,24,215.4955502601706,527.2554749999998,mp-1174931,Li7Mn2(CoO4)3,https://materialsproject.org/materials/mp-1174931,1.1159701396539683,-72.58466814689345,-18.687580371805428,-75.7253153361983
-5.75613817125,-92.09821074,4.541169012915039,-1.895755679375,14.000001000000001,0.9895766077454408,0.9052999999999995,12,16,164.8754802739547,450.8942,mp-771580,Li4Fe3TeO8,https://materialsproject.org/materials/mp-771580,1.5720699245431868,-59.75888759663176,-10.881249689465056,-60.051176392429205
-5.7945300446875,-185.42496143,4.1382990807665205,-1.8591810813099992,25.999999600000002,1.0444421150689531,0.7415000000000003,5,32,290.1124677502324,723.001465,mp-1175632,Li9Mn2Co5O16,https://materialsproject.org/materials/mp-1175632,-2.0594502423210934,-76.01653445730912,-19.623246810379893,-76.63410152076314
-5.747416565,-91.95866504,4.0055617059457616,-1.9160682794350008,8.0000002,0.670321635463815,0.8939999999999997,1,16,139.08624692798438,335.504635,mp-1174038,Li5Mn(CoO4)2,https://materialsproject.org/materials/mp-1174038,21.449652725217653,-72.8679381297728,-7.944939625952965,-78.05083120754975
-6.126609141666666,-73.51930970000001,3.6838200434473465,-2.1310108112016657,2.9999999,0.3319764761888474,0.7984999999999998,12,12,105.31527279777524,233.63648999999998,mp-1173928,Li2MnO3,https://materialsproject.org/materials/mp-1173928,-10.468332630312975,-69.14302732669515,1.8109115110843412,-81.40221378655399
-6.431273703125,-102.90037925,4.254095638267411,-2.155422704375,6.9999997,0.5568812108916441,0.0,166,16,146.4916544429287,375.2935,mp-756558,Li4Cr3CuO8,https://materialsproject.org/materials/mp-756558,13.806888006162884,-67.92959907739302,-12.920871248877267,-68.5609395390226
-1.4875208166666667,-8.925124900000002,3.156111357517451,0.0063114316666667385,0.0001381,1.341427206381839e-05,0.0,194,6,119.97865686886688,228.03799999999998,mp-1094431,Mg2Zn,https://materialsproject.org/materials/mp-1094431,-70.35833708624442,4.749212622222415,-66.35352592784893,15.870434630248127
-5.547824008125,-88.76518413,4.86206893527021,-1.779473365625,9.000000199999999,0.6673970005878909,0.7389999999999999,166,16,157.1577115142241,460.15878499999997,mp-772478,Li4Co3TeO8,https://materialsproject.org/materials/mp-772478,1.9334047858302859,-61.900434026915185,-10.749387475240905,-62.135476141179794
-5.62136529875,-44.97092239,3.473679081024984,-1.21978334203125,1.086837,0.1064407247991747,0.0,164,8,118.99645383956148,248.9285,mp-1222803,Li2VFeS4,https://materialsproject.org/materials/mp-1222803,3.052901945572025,-59.453160092782575,-9.658296036948848,-55.73529398651465
-5.848823563571429,-327.53411956,2.3996310566821912,-2.1136008867300005,4.25e-07,1.146983942865281e-08,4.9834000000000005,1,56,431.8262307983872,624.0284687999998,mp-626502,Al(HO)3,https://materialsproject.org/materials/mp-626502,23.905918237378632,-41.70017368978359,32.66752827097488,-48.79494769571396
-5.772652999375,-92.36244799,3.633107537415417,-1.8011544157450006,11.532909,0.8870528516902664,0.0,160,16,151.51889568465884,331.5094850000001,mp-1174601,Li5Mn2CoO8,https://materialsproject.org/materials/mp-1174601,1.337204790022399,-64.94439711363461,-22.911337547073387,-70.88434768526395
-5.969404848,-59.69404848,3.522794718145388,-1.1220040830000002,2.0000001,0.1545842063147064,0.0,15,10,150.77950889157842,319.8752,mp-1221467,MoO4,https://materialsproject.org/materials/mp-1221467,26.576938250024547,-24.359687740004894,2.0846182312605666,-64.1137321773252
-2.151548308,-21.51548308,6.671868832818429,-0.29843106699999994,0.0006985,2.2330782593628174e-05,0.0,119,10,364.53555577383577,1464.665,mp-1221973,MgHg4Te5,https://materialsproject.org/materials/mp-1221973,-50.1412278180661,-60.09377618657576,-28.526801649536107,-35.355516597729064
-5.238655544285714,-36.67058881,3.930113173006091,-1.1363625484999988,8.515375800000001,1.146550728354602,0.0,160,7,86.55416518578586,204.85375928,mp-1221405,Na(CoO2)2,https://materialsproject.org/materials/mp-1221405,10.364548354983988,-53.8501962529758,-10.522751352473918,-63.721540116514255
-5.81623039,-93.05968624,4.464512325423422,-1.839447683245,5.000000099999999,0.40902377687295705,0.25570000000000004,74,16,142.4619504364504,383.02209,mp-753347,Li2MnNiO4,https://materialsproject.org/materials/mp-753347,18.2438932592196,-66.7329648259867,-15.481535175221708,-71.21036690507304
-7.1068668157142865,-99.49613542,3.9271845492413067,-2.2941185494228566,4.9999998,0.3896931830641719,0.0,74,14,149.52871660161932,353.6362900000001,mp-753949,LiMnVO4,https://materialsproject.org/materials/mp-753949,-0.7292961353004596,-66.38194057561533,-17.063410535656114,-65.51891781576084
-4.796686118181818,-105.5270946,4.610311929394936,-1.158758310227273,2.00000005,0.11315024432423434,0.31910000000000016,9,22,205.99275120460808,571.9172,mp-758831,Li2(NiO2)3,https://materialsproject.org/materials/mp-758831,9.470300206969668,-65.60858757154486,-2.8779839056138465,-69.15430304678121
-6.123010093333334,-73.47612112,3.689894411532188,-2.127411762868333,3.0000005,0.3325239492683492,0.8438000000000003,2,12,105.14190097176045,233.63648999999998,mp-1173930,Li2MnO3,https://materialsproject.org/materials/mp-1173930,20.162989512161566,-72.9185011984038,-12.729232709549574,-75.47515021044967
-6.7982601675,-27.19304067,5.365677569855084,-0.1864927737499995,1.0000001,0.17314658113631706,0.0,216,4,67.3075140235718,217.489869,mp-999249,Sc2MnGe,https://materialsproject.org/materials/mp-999249,-40.430959013462,-61.97390333021828,-49.3182398676144,-39.979284617746096
-6.412287279479166,-615.57957883,3.5467494787656224,-2.3839270063541664,26.0279043,0.3580201123613401,0.9587,1,96,847.2453701149651,1809.6335,mp-777593,Li32Ti3Cr13O48,https://materialsproject.org/materials/mp-777593,-11.055552875310747,-68.82849720445716,2.897429998491289,-81.55314389475295
-6.198640295520833,-595.06946837,3.695202048639037,-2.198501191588333,45.0004742,0.6273480449331713,1.2042000000000002,1,96,835.9609077582562,1860.2660850000002,mp-777770,Li32Mn13Cr3O48,https://materialsproject.org/materials/mp-777770,-11.251016627186136,-68.85444376859112,3.0461089046644694,-81.58638029144547
-2.94127194984375,-188.24140479,4.547249917875293,-1.25399267397375,0.0,0.0,0.8828,33,64,2020.8267711124265,5533.868308800002,mp-570828,AlHg2SbCl4,https://materialsproject.org/materials/mp-570828,37.51764817020351,-22.8845864742357,13.363918118833652,-40.543159746132304
-7.043843718571429,-147.92071809,3.451005804172835,-2.7639948707142863,1.0000000666666666,0.054233796326081864,1.4125,1,21,214.88566795927446,446.5849158,mp-769572,LiAlVO4,https://materialsproject.org/materials/mp-769572,7.712635507826167,-66.67083946981565,-6.839997682214836,-67.87233271168851
-5.713577682142858,-159.9801751,4.061811638989051,-1.7730644873007142,11.38181105,0.5190273100759005,0.0,8,28,255.56335982848046,625.12847,mp-1174453,Li4MnCo2O7,https://materialsproject.org/materials/mp-1174453,6.697283912596957,-79.61939036598844,-24.93185497401239,-74.58258313188536
-4.637104378333333,-55.64525254,3.0561925279944955,0.1136267783333332,0.030718116666666663,0.0015215409361888936,0.0,11,12,235.2818204294016,433.032,mp-1094346,MgTi,https://materialsproject.org/materials/mp-1094346,-69.72148442795643,3.7478195531122354,-66.55297198514829,13.708881347663635
-6.549177927142857,-91.68849098,5.6259919254361535,-2.3591447578571425,0.0,0.0,3.8815,15,14,154.495640624117,523.4392,mp-19260,Li2WO4,https://materialsproject.org/materials/mp-19260,3.124238542625753,-3.907441881463812,6.1023058088027895,-37.071664664472735
-6.42448798875,-205.58361564,3.894258054531629,-2.13876328021,26.0001673,1.0107831548108115,0.6056000000000004,2,32,299.7751123665119,703.025715,mp-1100510,Li9Mn7O16,https://materialsproject.org/materials/mp-1100510,4.004976520335471,-78.58118692418955,-28.843114452603878,-76.64861031271774
-6.1476791963157895,-116.80590473,4.01094377681998,-1.7860263405263153,1.9502868000000002,0.08718073509573325,0.0,155,19,260.7086148942159,629.7278,mvc-14254,Ca3Fe2(RhO6)2,https://materialsproject.org/materials/mvc-14254,25.44073546858604,-43.776597494667904,-2.0993381883941487,-71.86118144189408
-7.950167826666667,-47.70100696,9.818666805114297,-0.13062456916666795,6.5e-07,6.566771962729332e-08,0.0,227,6,115.3556442215082,682.09094,mp-2019,LaRu2,https://materialsproject.org/materials/mp-2019,-73.48304851710573,-6.36356783847534,-76.38731438141103,-9.372406648533687
-6.7934264677966105,-400.8121616,4.080403964990767,-2.2859107608474583,21.000178100000003,0.4189795788979247,1.0219000000000005,5,59,584.1273611865329,1435.36258,mp-761141,Li11V12(CoO8)4,https://materialsproject.org/materials/mp-761141,16.876994170090942,-66.72520886735715,-15.90057825465777,-68.48538570194229
-11.730573990833333,-140.76688789,16.56717665168077,-0.015665383749999744,7.5e-08,5.741801207875923e-09,0.0,60,12,152.226596898383,1518.7628,mp-2034,W2C,https://materialsproject.org/materials/mp-2034,-70.08783532809217,2.337252086933388,-66.17798848760657,5.35781446485438
-5.583953951666667,-134.01489484,3.518019106291904,-2.347927837281667,5.0000003,0.2556478956490924,2.0675,9,24,227.9319656086704,482.8968128000001,mp-754677,Li2FeO2F,https://materialsproject.org/materials/mp-754677,19.73366411324012,-48.73826230832836,-21.360369336626952,-59.443991784863854
-9.8855457925,-39.54218317,8.23289915218432,0.10848455,0.0015841,0.0002767639486243939,0.0,225,4,66.70378890737015,330.71524,mp-999439,Nb3Cr,https://materialsproject.org/materials/mp-999439,-39.743000517883594,-61.2126599265975,-50.121473393870744,-39.295021337658014
-6.11659325375,-48.93274603,4.452127551385046,-1.7171972734374998,0.0,0.0,0.9072,5,8,200.44786099497813,537.42756,mp-550070,NbBr2O,https://materialsproject.org/materials/mp-550070,25.839941974638425,-21.88045909641056,12.601122573667071,-41.62251579278937
-6.186265698947369,-117.53904828,5.026977515448048,-1.3518576877326318,14.9999992,0.8871369823505086,0.0,5,19,197.05069875677398,596.5348650000001,mp-757022,Mn2Co5O12,https://materialsproject.org/materials/mp-757022,-12.035440569829413,-67.44053457634439,-28.810258811849078,-61.6201600783484
-8.95023609125,-71.60188873,4.839725690628153,-0.3451890718749997,5e-08,7.01938660988591e-09,0.0,194,8,83.0134128539553,241.94682400000002,mp-4992,ScCrC2,https://materialsproject.org/materials/mp-4992,-68.73552070430803,20.536714739884115,-54.26212272049201,41.274727245787794
-5.597484724,-83.96227086,4.607319066897627,-1.5655369346666674,8.4759609,0.7127080240278841,0.0,12,15,138.59728529507714,384.55098,mp-1177904,Li3(CoO2)4,https://materialsproject.org/materials/mp-1177904,-9.315679587257724,-65.40915275460961,-28.33743494421019,-61.59976050950974
-6.151903186666668,-110.73425736,4.3603470095121,-1.339805527051111,4.99999955,0.2846156300389344,0.05259999999999998,64,18,204.7333753613536,537.60167,mp-759777,Mn(CoO3)2,https://materialsproject.org/materials/mp-759777,22.146324998361877,-65.51270435842493,-2.9264840990306507,-71.72989680855004
-6.77936288625,-54.23490309,4.1167313627897535,-2.547521916458334,3.0000002,0.4693348083195496,1.0722,10,8,74.49308261126842,184.679795,mp-1177858,Li2TiCoO4,https://materialsproject.org/materials/mp-1177858,0.7891582066874047,-68.71096143694722,-14.717817439973716,-65.71277830336221
-6.8699722525,-27.47988901,5.398429411378863,-0.1894595750000008,1.6162518,0.28705496775252404,0.0,225,4,65.61775716142634,213.324,mp-998988,Ti3Ga,https://materialsproject.org/materials/mp-998988,-37.79490171844336,-58.722823508367746,-49.49722597365648,-40.87781728775802
-2.940071985,-23.52057588,1.6603079891794017,0.1230435965925003,0.00014769999999999999,1.1481178041616065e-05,0.0,10,8,149.92410714891932,149.90324640000003,mp-1079063,Na5LiN2,https://materialsproject.org/materials/mp-1079063,-3.7114831412394236,-9.172132309501604,1.674670003387703,-11.569908921271615
-6.61673939090909,-145.5682666,3.8338419698448,-2.0045712404454537,22.999998899999998,1.124597569933888,0.0,12,22,238.3461285312569,550.292025,mp-756410,Li4Mn5FeO12,https://materialsproject.org/materials/mp-756410,6.9596651221844885,-56.96889132081292,-5.131915285602638,-62.680208026631774
-1.34380879,-5.37523516,0.5859676823233301,1.2848932488749998,3e-07,3.5177591788790306e-09,0.35450000000000026,71,4,993.8768556868673,350.71726928,mp-1097131,NaCd2Rh,https://materialsproject.org/materials/mp-1097131,43.18233382393165,-19.028674702636494,18.169882051490426,-49.98310050058603
-5.7774331475,-184.87786072,4.131133310069304,-1.8420841841224995,25.9999995,1.0426335823476232,0.03559999999999963,6,32,290.615690295783,723.001465,mp-1100592,Li9Mn2Co5O16,https://materialsproject.org/materials/mp-1100592,-2.1642553376642217,-75.70372830414104,-19.927664773623817,-76.89593230091053
-4.974594268,-99.49188536,4.314136708066169,-0.7990282452499997,0.190207,0.008222935918173684,0.0,14,20,269.57338841655326,700.3607999999998,mp-755040,Cu2O3,https://materialsproject.org/materials/mp-755040,26.77632771361563,-16.427670375750345,20.390108811695065,-34.7205301119328
-6.39449169,-25.57796676,10.591279801083818,-0.8064893949999998,0.0001284,2.1968107953422328e-05,0.0,225,4,68.11610357930478,434.45935,mp-977421,TbGaRh2,https://materialsproject.org/materials/mp-977421,-41.72209856806595,-62.77613098067825,-49.63964213776916,-38.27368638849836
-6.460966268928572,-361.81411106,4.115019079768737,-1.9430984346700009,32.9999967,0.6760218401867214,0.16310000000000002,5,56,568.8930093291536,1409.78654,mp-769460,Li9Mn12Ni3O32,https://materialsproject.org/materials/mp-769460,18.4185137184685,-67.04879826771014,-16.392072605951768,-69.61263146440592
-3.4671345675,-13.86853827,4.932027703678858,-0.14364118041666665,9.3e-06,7.448942776767301e-07,0.0,115,4,145.5009195705504,432.1576,mp-1224061,In2TeAs,https://materialsproject.org/materials/mp-1224061,-50.181707550981606,-60.03551229328849,-28.015247806596488,-35.486747880841406
-6.908154672777778,-124.34678411,4.288187698662413,-1.7839144472111108,15.999990700000001,0.8183092012645253,0.042100000000000026,12,18,227.86610206754398,588.443025,mp-753773,Mn5SbO12,https://materialsproject.org/materials/mp-753773,4.089627204395873,-74.97728855843735,-5.929116731673836,-65.37992144205357
-4.942697205714286,-34.59888044,3.117488442363487,-2.7677005335371425,4.0000005,0.6005819086655905,3.5037,65,7,77.61849673568425,145.7206128,mp-755356,Li2FeF4,https://materialsproject.org/materials/mp-755356,3.253599443606017,-62.06222469268628,-22.14516744864914,-80.1289084241239
-6.6284327094736835,-125.94022148,3.9631841852491547,-2.1820025515652635,20.0000001,1.195176768143536,0.7694000000000001,8,19,195.0182624271092,465.4472282,mp-753850,Li4Mn5O9F,https://materialsproject.org/materials/mp-753850,5.149156864305481,-77.33865376063085,-28.70285358388156,-75.76551477129298
-10.050175435,-40.20070174,16.881621253998908,0.461804743750001,0.0002849,4.7610236858678714e-05,0.0,225,4,69.7380074700683,708.9810000000001,mp-978554,SmRe3,https://materialsproject.org/materials/mp-978554,-46.04515622549478,-64.39813010482186,-50.643053826788616,-37.645608382613176
-6.8436994975,-27.37479799,8.96083046617358,-0.7957173375000002,0.0001429,2.465942623549125e-05,0.0,225,4,67.53465551448603,364.43985,mp-866156,YGaRh2,https://materialsproject.org/materials/mp-866156,-40.80972270362628,-61.95566971392736,-49.89028860050549,-39.386510870227696
-5.287835485,-21.15134194,10.925643454683003,-0.3723924675000001,9e-06,1.5648026945425569e-06,0.0,225,4,67.02863135323206,441.02,mp-973402,SbPd3,https://materialsproject.org/materials/mp-973402,-40.25023552159651,-61.54949143752381,-49.045543993572814,-39.817060235582375
-7.292148605,-102.09008047,3.9014595746199636,-2.4909994485714284,2.99999985,0.2376559348174473,0.0017000000000000348,227,14,147.11264246956497,345.6432,mp-19394,LiV2O4,https://materialsproject.org/materials/mp-19394,14.239477574290712,-68.20384217797945,-12.851558258698956,-69.03736820552339
-6.103178615,-24.41271446,8.934657863119021,-0.6178918025,3.66e-05,6.319284696056802e-06,0.0,225,4,67.49795130164692,363.177912,mp-867909,ScCdRh2,https://materialsproject.org/materials/mp-867909,-40.899045216297004,-61.824256283025655,-48.266533132070606,-39.45238680936158
-6.530638187857143,-91.42893463,3.352000226700888,-2.722833878737144,5.0,0.37865649377199107,1.4294999999999998,1,14,153.8870317060668,310.63970960000006,mp-765189,Li3V3O5F3,https://materialsproject.org/materials/mp-765189,3.786109045900767,-62.49664011772091,-11.269681864187898,-63.549120070332215
-5.814898686,-232.59594744,3.7106538160279214,-1.561145956250001,14.99993025,0.3969510032572596,0.0,1,40,440.3822065769789,984.0816,mp-758559,Li3Fe5O12,https://materialsproject.org/materials/mp-758559,7.801424289479152,-59.91945475769603,-5.2666492319490645,-64.35080594472214
-5.9008494355000005,-118.01698871,3.921045038981525,-1.9438106999709999,6.98196845,0.44746979998581105,0.0,1,20,181.84090313770528,429.38248,mp-1174178,Li3MnCoO5,https://materialsproject.org/materials/mp-1174178,4.316135315914334,-71.43703616954808,-21.58383362766846,-73.34039205238929
-7.1293303508333326,-171.10392842,7.008820659291392,-0.06455162083333359,0.083179925,0.002079109235235561,0.0,227,24,466.2497849069615,1967.9520000000002,mp-583800,Zr2Cu,https://materialsproject.org/materials/mp-583800,-69.69524736852748,-2.923481429625163,-65.17778888236946,4.682796281509704
-6.4165269213333325,-96.24790382,4.002611586877381,-2.1423310926666668,13.9999994,1.0707427457621288,1.3278,166,15,152.3773104876519,367.2947,mp-757069,Li3VFe3O8,https://materialsproject.org/materials/mp-757069,1.9710196784270269,-64.05712357313898,-12.546625502182154,-64.07579658537142
-4.114056093333333,-12.34216828,9.033282552073713,-0.006157813333333095,4.6700000000000003e-05,6.621213277263448e-06,0.0,123,3,82.19714455467206,447.15,mp-1215845,Yb2Ru,https://materialsproject.org/materials/mp-1215845,-32.22764353228012,-18.77599952194736,-29.914728496658654,-20.04938931636884
-6.349991056666667,-95.24986585,3.6527250969489105,-2.0914304261920003,9.0,0.7197148103689331,1.0202000000000002,166,15,145.73353423041456,320.5733350000001,mp-771777,Li4Mn3O8,https://materialsproject.org/materials/mp-771777,6.674170161771798,-58.73817368834839,-5.843396143298974,-63.45176728172464
-3.848452498,-76.96904996,4.322552609718951,1.0454425477439997,1.625220825,0.0419245740806452,0.0,31,20,451.7739101613652,1176.0136,mp-1179847,Pt(NCl)2,https://materialsproject.org/materials/mp-1179847,34.39536100318457,-41.3471771809476,30.527818799708395,-62.76502107140993
-5.8979078105,-117.95815621,3.983012159406608,-1.9408690749710005,5.99999995,0.3906131826151975,0.0,8,20,179.01184897166956,429.38248,mp-1174226,Li3MnCoO5,https://materialsproject.org/materials/mp-1174226,16.848678347864993,-75.69596678789823,-13.484157906516488,-78.91553686921944
-4.697402561111111,-42.27662305,5.262675986576234,-0.7828175224999998,3.1905016,0.3864093611722633,0.0,162,9,96.22518510046984,304.9624,mp-1180647,Li2PtO6,https://materialsproject.org/materials/mp-1180647,19.83218170267099,-49.3846002013363,-1.3350256024474751,-42.81332108882097
-7.633741051333332,-114.50611577,3.837014772922304,-2.910386024666667,1.2304354,0.09620512092465973,0.0,166,15,149.0520848810119,344.4153,mp-755762,Li3Ti3CrO8,https://materialsproject.org/materials/mp-755762,3.6542191615001323,-66.01022695741482,-12.15488695362632,-66.67770015089752