energy_per_atom,energy,density,formation_energy_per_atom,total_magnetization_uB,total_magnetization_T,band_gap,sgr,num_sites,cell_volume,weight,mp_id,formula,URL,tsne_cry_lin1_0,tsne_cry_lin1_1,tsne_cry_lin2_0,tsne_cry_lin2_1
-4.576335632,-45.76335632,2.546462944225443,-1.7244948888559997,4.99999995,0.24244399938175584,2.2848,148,10,240.34549598541284,368.57362856,mp-27176,NaMnCl3,https://materialsproject.org/materials/mp-27176,17.522508863485108,-7.26221718002557,5.274118320919318,-5.589120973592597
-3.712857993333333,-44.55429592,6.130301012537568,-0.11877157708333405,1e-07,2.9612862600547822e-09,0.2689000000000004,164,12,393.5473895166115,1452.88,mp-29641,GeSb4Te7,https://materialsproject.org/materials/mp-29641,67.42384821437092,25.91585370230359,3.8802636593722233,-5.82140939200076
-5.416645685416667,-129.99949645,9.377391962411807,-0.541791953750001,0.0,0.0,0.3080999999999996,61,24,496.91125304436827,2806.156,mp-29397,SiTePt,https://materialsproject.org/materials/mp-29397,50.54263285513108,21.369040380837312,4.856898917605715,-6.0854150441493235
-5.6996545311764715,-387.57650812,5.2802998951112805,-0.5595363612316178,14.977396175,0.11712518278982675,0.0,119,68,1490.2648686657901,4738.8499999999985,mp-1216038,ZnCr5GaSe10,https://materialsproject.org/materials/mp-1216038,21.959336009313816,9.99028338551635,-6.158199308568503,-1.9895819578233755
-4.4700622625,-17.88024905,10.072596949972056,-0.3524226449999999,6e-07,7.842943482706796e-08,0.0,164,4,89.15579818920929,540.8065690000001,mp-1218970,Sn2PdAu,https://materialsproject.org/materials/mp-1218970,37.656511552141815,32.10000999077515,-8.604250342815693,-0.5045126942092143
-6.993989610714286,-195.8317091,6.599494376129678,-0.5727463413392867,0.00015265,2.90340959256998e-06,0.4815000000000005,2,28,612.7254632222059,2435.16,mp-675462,Mo2RuSe4,https://materialsproject.org/materials/mp-675462,62.18684572322979,32.21837072807662,3.8197001052907336,-5.071061139307757
-6.60604589625,-52.84836717,5.940566537507817,-0.17623597550781336,15.815771,1.0586771005726971,0.0,44,8,174.10220695456943,622.8494000000002,mp-1226328,Cr4Te3S,https://materialsproject.org/materials/mp-1226328,53.939251272572854,34.013515269455745,-8.604250342815693,-0.5045126942092143
-6.380881383166669,-382.85288299,6.144751441895765,-0.7459676662291665,5.7000000000000005e-06,4.625390609741118e-08,0.0,12,60,1436.1634466868993,5314.45946,mp-674017,Nb17Ir3Se40,https://materialsproject.org/materials/mp-674017,48.83369569142108,24.55188679128581,-8.604250342815693,-0.5045126942092143
-5.4276003475,-21.71040139,8.812373262730278,0.036063519999999016,0.14631970000000002,0.02445951796362624,0.0,164,4,69.71597984217576,369.978195,mp-1224955,FeCoTe2,https://materialsproject.org/materials/mp-1224955,53.321761145595296,28.57993167362497,-8.604250342815693,-0.5045126942092143
-3.447976045,-193.08665852,5.303813729090408,-0.37818882205357135,1.000725625,0.006239359442680847,0.4699,54,56,1869.1856688896387,5970.2376,mp-1198792,Te7WBr5O,https://materialsproject.org/materials/mp-1198792,66.58128553461471,19.75816933826546,6.245713268428878,-7.203715865954162
-7.598331138000001,-113.97496707,6.910484905456237,-0.7062854772500003,6.8685341,0.2450703175644507,0.0,148,15,326.62601529817545,1359.2839999999999,mp-1104114,Eu(Mo3Se4)2,https://materialsproject.org/materials/mp-1104114,63.56645519343295,33.914750907005946,-8.604250342815693,-0.5045126942092143
-4.304842653636364,-142.05980757,4.836074566323094,-0.8378644183996217,1.7e-06,2.5668951906791973e-08,0.4997000000000007,1,33,771.8238822251747,2247.823,mp-1224536,In6Sn8S19,https://materialsproject.org/materials/mp-1224536,39.29999933771636,-1.92909686994608,4.822327170116438,-5.702814085399366
-5.073430029,-50.73430029,7.507860265010954,-0.374529261,0.8731325000000001,0.03759878803382985,0.0,129,10,270.634859317046,1223.632,mp-1078616,CeSb3Pd,https://materialsproject.org/materials/mp-1078616,49.456119874673604,28.84343333745773,-8.604250342815693,-0.5045126942092143
-6.87336979,-34.36684895,5.957327615708957,-1.1154360844285711,0.0,0.0,0.0,166,5,130.62312180760972,468.621762,mp-16765,Zr2Te2P,https://materialsproject.org/materials/mp-16765,44.13501120548803,26.99554790167868,-8.604250342815693,-0.5045126942092143
-5.920321416249998,-236.81285665,8.205927674832107,-0.42457983824999984,0.0,0.0,0.0,62,40,1067.7694106611475,5276.6230399999995,mp-28934,Ta2Te5Pd3,https://materialsproject.org/materials/mp-28934,53.14316200103321,29.840910681450328,-8.604250342815693,-0.5045126942092143
-4.29788739625,-103.14929751,4.833252876586587,-0.8159841662586812,0.0,0.0,0.5128000000000004,11,24,556.7279990853742,1620.442,mp-616255,In2Sn3S7,https://materialsproject.org/materials/mp-616255,39.35219723358449,-1.9011729654026217,4.680637034698329,-5.815531406815637
-4.865931248333333,-29.19558749,4.4180324382218625,-0.09822193178160887,4.56937375,0.2702139791846575,0.0,129,6,197.07262301238322,524.33169,mp-3165,RbMnSb,https://materialsproject.org/materials/mp-3165,23.8619364331886,22.37481609727561,-8.604250342815693,-0.5045126942092143
-5.016088740370371,-135.43439599,8.116776707539955,-0.1607198811111114,4e-07,7.180011586005629e-09,0.0,2,27,649.2504716997572,3173.5605,mp-684869,Te16Rh11,https://materialsproject.org/materials/mp-684869,52.5677125196701,30.770718578675776,-8.604250342815693,-0.5045126942092143
-5.409076231923077,-281.27196406,8.12679990970704,-0.8284049190384616,6.8075e-05,6.243687251723417e-07,0.0,62,52,1270.644136080032,6218.62564,mp-31295,La3(Sn3Pd2)2,https://materialsproject.org/materials/mp-31295,2.786756327822061,48.422716256257935,-8.604250342815693,-0.5045126942092143
-4.338928255,-34.71142604,5.386639794886502,-0.5957500456640625,6.445e-05,3.496269980197731e-06,0.7895000000000003,26,8,214.83022731242096,696.89,mp-1218960,Sn2SeS,https://materialsproject.org/materials/mp-1218960,70.02075488976581,17.667889806007146,7.342448248240386,-6.234562569958384
-4.07860915875,-32.62887327,6.704630118552843,-0.19291486812499992,5.0,0.2247669318039853,0.2270000000000003,121,8,259.247761203658,1046.744645,mp-638590,MnTl2GeTe4,https://materialsproject.org/materials/mp-638590,57.607604168746995,23.52132384467452,4.947400727211916,-6.232852329117604
-5.838821202025317,-461.26687496,6.668785724117781,-0.4475491798101263,2.5025068999999998,0.01321502568838238,0.0,8,79,2206.910390799816,8863.03312,mp-1173636,Nb24Ge7Te48,https://materialsproject.org/materials/mp-1173636,56.7544146065245,31.67490907148688,-8.604250342815693,-0.5045126942092143
-5.647525111666668,-169.42575335,7.99188345029602,0.002440857666666337,1.81737155,0.03413802190635893,0.0,10,30,620.4157293472832,2985.9522,mp-1226377,Cr(Fe2Sb5)2,https://materialsproject.org/materials/mp-1226377,43.70132349680026,23.71619889170813,-8.604250342815693,-0.5045126942092143
-6.16748757,-12.33497514,5.412536499273019,-0.9375459325,0.0,0.0,0.0,225,2,51.14760528679813,166.715912,mp-549,ScSb,https://materialsproject.org/materials/mp-549,4.799714682293608,32.896958298746064,-8.604250342815693,-0.5045126942092143
-4.7185825700000015,-33.03007799,4.675328378535125,-0.5502133977678574,4.999999900000001,0.3215507528965111,0.2509999999999999,121,7,181.2165643292581,510.22404500000005,mp-1078002,Mn(GaSe2)2,https://materialsproject.org/materials/mp-1078002,39.46610873741295,2.1350377572557515,5.205412164623581,-5.7767939793085965
-4.553165864166666,-109.27598074,7.9676926206696725,-0.4431810224999999,2.5e-08,4.954142926482479e-10,0.0,61,24,588.0969193613004,2821.84,mp-567945,SnTePd,https://materialsproject.org/materials/mp-567945,51.019336387496004,30.558285457894968,-8.604250342815693,-0.5045126942092143
-4.207286826428572,-58.90201557,4.843687637285036,-0.6022335424107145,5.0000010999999995,0.16487317543349264,0.8953,81,14,353.4252101899687,1030.9190449999999,mp-1221562,MnZn(GaSe2)4,https://materialsproject.org/materials/mp-1221562,39.501359637216176,2.0528351797611166,6.321926485793222,-5.870322138257843
-6.004038452666666,-90.06057679,6.780524217020299,-0.6571795413333329,12.385773599999998,0.3478316268131331,0.0,115,15,414.9841379151145,1694.5160150000004,mp-1223277,La4Mn3Sb8,https://materialsproject.org/materials/mp-1223277,2.887731538092573,33.718306649681885,-8.604250342815693,-0.5045126942092143
-1.868040446,-9.34020223,4.54159025475383,-0.024310028000000015,0.0,0.0,0.2827000000000002,12,5,232.25434913286975,635.21788,mp-1217312,TeI4,https://materialsproject.org/materials/mp-1217312,66.6510640908987,-10.759011363543838,4.242321348650705,-5.97682664771922
-4.88685699125,-39.09485593,10.944361057248928,-0.1886764218750008,2e-07,1.3254088644250226e-08,0.0,187,8,175.85614651242517,1159.0412,mp-1227388,Bi3Pd5,https://materialsproject.org/materials/mp-1227388,36.974994122550825,31.644150193307446,-8.604250342815693,-0.5045126942092143
-5.019335505555556,-180.6960782,5.099232937880911,-0.38584832555555537,0.0,0.0,1.6573999999999995,64,36,1366.7273712974616,4196.987279999999,mp-1198690,MoI2,https://materialsproject.org/materials/mp-1198690,42.32777400087265,-9.059147306227443,7.965417161925559,-4.3938345330658315
-3.1681673759090914,-69.69968227,4.497383844052574,-0.2775169095454544,0.0,0.0,0.7654000000000001,2,22,1007.7826738231314,2729.4664,mp-570873,Nb(Te2I3)2,https://materialsproject.org/materials/mp-570873,66.25466102781807,17.658198721770912,7.699128806770368,-6.608925952927903
-3.2848211638775515,-160.95623703,4.124678247672908,0.07403759877551022,0.0085415,4.088863895173228e-05,0.17320000000000002,1,49,2434.49517535485,6047.13834,mp-675194,Te21(Mo3I11)2,https://materialsproject.org/materials/mp-675194,67.26790219397449,17.668998296575047,3.9046661854652407,-5.861708992567609
-7.117609964444443,-256.23395872,5.9054033632621135,-0.6234394794444434,0.006583175,7.494780873445504e-05,0.16929999999999978,55,36,1023.6556499059532,3640.4440799999998,mp-1232409,Nb4SiTe4,https://materialsproject.org/materials/mp-1232409,58.10988105514418,32.909698759173104,-8.604250342815693,-0.5045126942092143
-4.4493601325,-17.79744053,3.7528151545909316,-0.7124521420312506,1.025e-05,8.952617781194813e-07,1.1822999999999997,63,4,133.429312898461,301.5499999999999,mp-1379,SnS,https://materialsproject.org/materials/mp-1379,70.48957114400505,24.413716738928283,7.215607768146027,-1.806954752516144
-5.857199237000001,-117.14398474,7.068741052042648,-0.5796321305,1.143275925,0.025542838007677492,0.0,57,20,521.6261277957178,2220.50788,mp-1211432,LaVSb3,https://materialsproject.org/materials/mp-1211432,3.3569241572245714,34.546088723910806,-8.604250342815693,-0.5045126942092143
-4.0611612325,-32.48928986,7.0270188361407016,-0.5598344387500003,2.65e-06,1.1930222701237734e-07,0.0,63,8,258.8658436701196,1095.4606399999998,mp-1025395,HoTe3,https://materialsproject.org/materials/mp-1025395,57.773144856890724,28.94785875091272,-8.604250342815693,-0.5045126942092143
-6.2925221633333335,-94.38783245,6.362646387708868,-0.11943895933333315,25.728471799999998,0.8296628088143395,0.0,12,15,361.401371341057,1384.7727,mp-1213756,Cr7Te8,https://materialsproject.org/materials/mp-1213756,53.95411624730095,33.91495849816245,-8.604250342815693,-0.5045126942092143
-6.063457472857142,-42.44420231,6.416484992846428,-0.21741838999999988,9.0019394,0.6092872404284847,0.0,8,7,172.18345943446832,665.3336999999998,mp-1216600,V(CrTe2)2,https://materialsproject.org/materials/mp-1216600,53.792228523205566,33.67587414076531,-8.604250342815693,-0.5045126942092143
-5.652633969166666,-135.66321526,7.969474749356549,-0.3948628724999992,5e-08,8.788506962704836e-10,0.0,31,24,663.0287045350946,3182.09352,mp-505164,NbTe4Ir,https://materialsproject.org/materials/mp-505164,54.913919205960276,31.500821545359997,-8.604250342815693,-0.5045126942092143
-5.847262570750001,-233.89050283,4.775418356511929,-0.5750315021414067,36.00000429999999,0.4669299788281013,0.0,8,40,898.5209794787712,2583.98837712,mp-676541,Na4Cr13Se23,https://materialsproject.org/materials/mp-676541,23.976346647343373,17.112754579284516,-8.139285396403968,2.2241420281353825
-5.909962074166668,-141.83908978,8.616493910290387,-0.3618046491666671,7.5e-07,1.283280955966364e-08,0.0,31,24,681.1095059723514,3534.2595200000005,mp-17287,TaTe4Ir,https://materialsproject.org/materials/mp-17287,54.87306012285167,31.425549593901273,-8.604250342815693,-0.5045126942092143
-5.527568406785713,-154.77191539,4.4570089446455885,-1.495081733125,0.00023555,4.283207523066448e-06,0.9509,62,28,640.9016939742262,1720.227296,mp-1232159,Mg(ScSe2)2,https://materialsproject.org/materials/mp-1232159,51.457174346851815,6.936093672935722,6.468263506722773,-5.942048290767057
-4.390200985,-52.68241182,2.966281593627065,-1.8781132544878731,10.0000015,0.33880817767215776,1.3229000000000002,139,12,343.97240942472985,614.4504900000001,mp-23556,Rb3Mn2Cl7,https://materialsproject.org/materials/mp-23556,17.812326698209112,-7.991555437832817,7.1528923822739685,-4.644641911096115
-4.27685694375,-34.21485555,5.1219465693426836,-0.22073413554687527,0.0,0.0,0.8946000000000001,62,8,196.5953490969792,606.4,mp-700,GeSe,https://materialsproject.org/materials/mp-700,50.94037001590125,7.494620347538882,6.544671059377802,-6.0849435785179375
-5.849288165,-233.97152659999998,6.506768375212351,-0.4676227155,4.25e-07,4.343955190366472e-09,0.0,62,40,1140.1999586280306,4467.83656,mp-28754,Nb3GeTe6,https://materialsproject.org/materials/mp-28754,56.78414226123564,31.67182395216238,-8.604250342815693,-0.5045126942092143
-5.793185995769231,-150.62283589,6.889382769532187,-0.6269294249038462,3.5e-07,6.445198575148913e-09,0.6629999999999998,55,26,632.8622187256117,2625.67152,mp-18010,Ta2Pd3Se8,https://materialsproject.org/materials/mp-18010,50.9990796597461,24.63933671097661,3.575966920296821,-5.538354440022482
-5.952997035357143,-166.68391699,6.146944213167987,-0.4928176032142854,0.0,0.0,0.2272999999999996,14,28,782.6493917140754,2897.1930399999997,mp-29072,Nb2SiTe4,https://materialsproject.org/materials/mp-29072,56.76423830499567,31.70187232227764,-8.604250342815693,-0.5045126942092143
-7.230592908666668,-108.45889363,6.5261446085595045,-0.4606006072499999,3.9567083,0.14346930027453253,0.0,1,15,321.4048909842625,1263.165,mp-1225290,Fe(Mo3Se4)2,https://materialsproject.org/materials/mp-1225290,62.99408858319064,33.000874811510094,-8.604250342815693,-0.5045126942092143
-6.294063675833333,-151.05752822,6.407511833277622,-0.7007937015624996,0.00099645,2.031977638972892e-05,0.0,15,24,571.4970785055981,2205.23228,mp-1173033,Nb3IrSe8,https://materialsproject.org/materials/mp-1173033,49.28057542391371,24.660279627271976,-8.604250342815693,-0.5045126942092143
-3.333136492903226,-103.32723128,5.223880040929721,-0.3539594950806456,1.9996838,0.02240266315408186,0.35619999999999985,1,31,1040.2533113833001,3272.5268,mp-1217490,Te15W2(Br6O)2,https://materialsproject.org/materials/mp-1217490,66.56546809693688,19.699855554654874,6.397536549434718,-7.239667349949763
-3.610958394,-36.10958394,6.095747005386008,-0.07457082800000023,6.35e-06,2.1687161849673048e-07,0.1661999999999999,12,10,341.23096336310005,1252.64,mp-1078331,Sb2Te3,https://materialsproject.org/materials/mp-1078331,67.21790462379721,26.064166648164374,-8.604250342815693,-0.5045126942092143
-3.845365165,-7.69073033,5.015198624652744,0.03721550250000005,0.0,0.0,0.9106999999999998,160,2,66.29973451801682,200.24,mp-1172873,GeTe,https://materialsproject.org/materials/mp-1172873,68.47668872868013,26.418527769951638,6.088158754986847,-6.751449507599727
-5.174737675,-31.04842605,9.886677654765414,-0.4435468199999999,1.355e-05,1.0793095124251269e-06,0.0,10,6,146.30889086983606,871.1080000000001,mp-1218928,SnSbPt,https://materialsproject.org/materials/mp-1218928,49.54618200593847,29.94199971530091,-8.604250342815693,-0.5045126942092143
-4.521027816666667,-13.56308345,4.732379314265981,-0.45523857,5.0000008000000005,0.5378674127726782,1.1719,164,3,108.33586828707426,308.746985,mp-28013,MnI2,https://materialsproject.org/materials/mp-28013,17.356434438291384,-7.53678462433191,5.911071875538116,-1.599214817726348
-4.11240583,-16.44962332,4.771146378553492,-0.3629574017968751,2.05e-06,1.7363376446182668e-07,0.5078,63,4,137.59324321393586,395.34,mp-628773,SnSe,https://materialsproject.org/materials/mp-628773,70.4717145342736,24.25885403499501,6.386654079147811,-7.213934455843433
-6.338818524642857,-177.48691869,5.712290380553867,-0.879949492886905,2.2175417,0.04754929207956158,0.0,164,28,543.5070319114292,1869.6760000000002,mp-1192831,Ti2FeSe4,https://materialsproject.org/materials/mp-1192831,22.75161625312591,15.874403439919336,-8.604250342815693,-0.5045126942092143
-3.615604199,-36.15604199,3.246404135018112,-1.5043358230249657,1.99999995,0.09094695422271776,0.7255,194,10,256.28267776112045,501.0404,mp-23486,RbNiCl3,https://materialsproject.org/materials/mp-23486,21.718223629314746,-1.3850054332979589,6.319230835050608,-4.895215966670038
-3.79642468,-34.16782212,6.961718052075588,-0.15708490999999944,0.0001664,6.768119450086615e-06,0.5821000000000005,164,9,286.5251407655217,1201.2408,mp-1206551,Ge2Bi2Te5,https://materialsproject.org/materials/mp-1206551,67.15718228571664,24.745972009965,5.457514168341546,-6.8957525069762715
-5.536618698928572,-310.05064714,4.52959341016866,-1.5041320252678574,0.000217275,2.007619870746413e-06,0.7093999999999996,29,56,1261.2631307123315,3440.454592,mp-1232167,Mg(ScSe2)2,https://materialsproject.org/materials/mp-1232167,51.47917225677078,6.859713481506602,6.313668464056885,-5.922130734567865
-4.460239045,-17.84095618,2.715190247865876,-0.7233310545312506,0.0,0.0,1.4274,2,4,184.4200596645392,301.5499999999999,mp-1064497,SnS,https://materialsproject.org/materials/mp-1064497,70.470762998054,24.488508120591444,7.248369466564426,-1.9217788634987731
-5.3503413860975595,-219.36399683,10.308436766363641,-0.5538980728048779,0.068721,0.0008470910282588227,0.0,204,41,945.4461899818064,5869.222,mp-640776,Ce4Sn25Pt12,https://materialsproject.org/materials/mp-640776,2.8158105931708857,48.830428651546576,-8.604250342815693,-0.5045126942092143
-4.58715554,-9.17431108,5.804406322252821,0.04813843499999937,1.8000000000000001e-06,4.969186457945811e-07,0.0,107,2,42.214790626470396,147.5616,mp-7591,GeAs,https://materialsproject.org/materials/mp-7591,37.66556764826264,32.03414634454423,-8.604250342815693,-0.5045126942092143
-6.393829935,-12.78765987,6.370976183640263,-0.0042704399999999865,3.9999006,0.9958332342659448,0.0,225,2,46.810147595206146,179.59609999999995,mp-1009079,CrTe,https://materialsproject.org/materials/mp-1009079,53.995544605585906,34.12084890853292,-8.604250342815693,-0.5045126942092143
-6.36404589,-44.54832123,6.40062147823021,-0.5674402906249999,3.2244109,0.3058570628366569,0.0,12,7,122.85965585831758,473.56800000000004,mp-1025182,V2FeSe4,https://materialsproject.org/materials/mp-1025182,49.86504870078778,26.79442363257441,-8.604250342815693,-0.5045126942092143
-4.008679736666667,-12.02603921,5.017728516127032,-0.367690935,2e-06,3.1113146654867547e-07,0.0,216,3,74.91408633036126,226.3714,mp-961667,CaNiTe,https://materialsproject.org/materials/mp-961667,50.53366250555276,37.448472600863596,-8.604250342815693,-0.5045126942092143
-7.1263089886666675,-106.89463483,6.998998248426451,-0.30968879458333354,0.2681947,0.01043677367355852,0.0,148,15,299.47553748106964,1262.258045,mp-1105059,Mn(Mo3Se4)2,https://materialsproject.org/materials/mp-1105059,63.218245427459294,33.43584701697118,-8.604250342815693,-0.5045126942092143
-5.814673678999999,-58.14673679,4.137400556365282,-1.16103856115625,0.0009312999999999999,4.331624308723415e-05,0.0,164,10,250.56260075065205,624.302,mp-8132,Li(TiSe2)3,https://materialsproject.org/materials/mp-8132,23.191460577337924,15.974977166934726,-8.604250342815693,-0.5045126942092143
-6.078638164285715,-42.55046715,6.386118980271674,-0.2908719863392863,7.451425200000001,0.6964540025671211,0.0,12,7,124.6879070385045,479.5261,mp-568349,Cr(FeSe2)2,https://materialsproject.org/materials/mp-568349,22.48514975525234,15.966654782486383,-8.604250342815693,-0.5045126942092143