energy_per_atom,energy,density,formation_energy_per_atom,total_magnetization_uB,total_magnetization_T,band_gap,sgr,num_sites,cell_volume,weight,mp_id,formula,URL,tsne_xrd_lin1_0,tsne_xrd_lin1_1,tsne_xrd_lin2_0,tsne_xrd_lin2_1
-4.482970285833334,-161.38693029,4.471840113276406,-1.00939854234127,0.0,0.0,0.9387000000000004,62,36,1203.9042127657412,3242.1201920000003,mp-17566,Ba5P4,https://materialsproject.org/materials/mp-17566,18.09649727558914,32.63769440469028,22.106157889200524,37.64727488721982
-6.886623505,-165.27896412,6.376877549960687,-3.092715151354168,2.0000101000000003,0.08876629944661263,0.0,113,24,262.57991373395083,1008.371328,mp-1207610,Yb2Be2SiO7,https://materialsproject.org/materials/mp-1207610,-1.770703193826247,13.209052823762793,6.6436668238084025,30.865612852654518
-5.6666518166666675,-84.99977725,5.317307349349012,-0.5692945044439994,1.0000006,0.034965389373883056,0.0,148,15,333.30307408798404,1067.2889,mp-1228029,Ba6Ge2N7,https://materialsproject.org/materials/mp-1228029,4.151793680949004,15.568296433043574,1.2649570136096722,22.97784394936916
-3.3322194091666666,-39.98663291,4.779658568924996,0.04134361297103458,0.000322475,1.273702524774726e-05,0.5598000000000001,62,12,295.0566921578391,849.2846076,mp-1247210,CsZnN,https://materialsproject.org/materials/mp-1247210,6.301298614763581,-4.597718249753827,14.760140767678568,3.773480257278985
-6.322706846086956,-1163.37805968,6.836023646447067,-2.312733416333478,8.004845225,0.031913106602847366,0.0,33,184,2923.2185354885414,12034.159119999998,mp-1205023,Sr4Mn2Bi4O13,https://materialsproject.org/materials/mp-1205023,6.956052471248487,19.948703362769123,30.57451588561819,0.29384548975600217
-8.174775704285715,-228.89371972,6.839161940791406,-3.3447631219940486,0.0,0.0,3.8024,173,28,374.5759106850577,1542.7432,mp-561272,Nd3BWO9,https://materialsproject.org/materials/mp-561272,5.235808872608522,19.827512698087197,2.2270523513202938,36.934168208848014
-5.356711085,-53.56711085,10.029845489650633,-1.34027319825,0.0,0.0,0.14500000000000046,31,10,153.10909104592267,924.7964,mp-754071,Pb2O3,https://materialsproject.org/materials/mp-754071,-1.1555276952535942,25.975592976705986,-12.729467896235967,46.7193196171513
-8.37238733875,-669.7909871,6.12842188377766,-1.5824684665233335,0.0,0.0,1.1710000000000012,14,80,1101.9755746632836,4066.9752799999997,mp-29990,La3B2N5,https://materialsproject.org/materials/mp-29990,4.181573246038125,22.96554393170114,32.823458831384144,37.68182414502802
-8.104766539333331,-121.57149809,7.868737094759089,-2.806279315333333,0.9999998999999999,0.057695782045461726,0.0,12,15,201.99160482772083,957.17041,mp-27330,La3(OsO5)2,https://materialsproject.org/materials/mp-27330,5.578144515933351,4.096493704653545,7.177080408468819,24.940816216977005
-7.637280224166666,-91.64736269,4.470803264343591,-3.028014945937501,0.0,0.0,1.4759000000000002,139,12,148.31132902950839,399.31056,mp-561294,SrLi2Nb2O7,https://materialsproject.org/materials/mp-561294,-0.07297425029169867,9.385093796606355,8.904619192488108,29.824780732995947
-6.878258753571429,-96.29562255,3.197053652506277,-2.7228680122389166,0.0,0.0,3.1251,164,14,227.75466954928703,438.498512,mp-1211745,K2RbScV2O8,https://materialsproject.org/materials/mp-1211745,-16.692955580798092,19.437572366349727,-15.173626856518974,45.959637599873545
-7.350208193333333,-220.50624580000002,5.526585979988517,-2.695413004583333,5.45e-06,1.3620543786177626e-07,1.4677999999999995,185,30,466.3151046502721,1551.9843,mvc-3460,YSbO3,https://materialsproject.org/materials/mvc-3460,10.478587683074348,56.12898605556195,-7.552240477038126,41.890287595647905
-7.599831763214285,-212.79528937,6.419238995302769,-3.6874746647957144,2.5e-07,8.547295931174937e-09,2.8525,225,28,340.86993320464364,1317.7200384000002,mp-541097,Zr3Pb(O2F3)2,https://materialsproject.org/materials/mp-541097,4.168594177137015,20.068112275642733,-5.783400210559858,34.87449696667881
-2.990405104375,-191.38592668,8.060085510391994,-0.23572295437500035,4.596875e-06,2.447735377464319e-08,0.12450000000000028,137,64,2188.646677029992,10623.4656,mp-2048,TlTe,https://materialsproject.org/materials/mp-2048,-0.7240376083533954,26.50982762843847,2.0259954342360795,24.93513643797521
-6.607627561,-198.22882683,4.556871060571893,-2.443107133708334,0.0,0.0,0.0940000000000003,45,30,689.3441910796289,1891.70656,mp-1223194,La4As2(S2O)3,https://materialsproject.org/materials/mp-1223194,7.43923045165285,19.51499968150199,28.17629118390652,3.1846448887316097
-7.905357042083334,-189.72856901,6.5869445057883125,-3.6198919534375014,1.065e-05,4.963327924004134e-07,5.0677,113,24,250.0656650702037,991.948168,mp-1207992,Tm2Be2SiO7,https://materialsproject.org/materials/mp-1207992,-1.7213595403563926,13.261754356448588,6.640084922559883,30.04865492458798
-6.84358693483871,-212.15119498,7.340131062237723,-2.426854467500001,0.0001372,2.5308364241167973e-06,0.0,87,31,631.782311791716,2792.686507,mp-1194538,Nd10As8Au3O10,https://materialsproject.org/materials/mp-1194538,-9.282051766223553,22.240170058479837,11.405525535440626,8.179292297111159
-6.8128082905,-136.25616581,7.111674519849832,-0.5743513618333331,3.9e-06,2.2935279844392013e-07,0.0,127,20,198.1700372585432,848.71284,mp-568143,TmB4,https://materialsproject.org/materials/mp-568143,-2.144626981648232,17.000699485004617,9.463257871343528,24.33004418688779
-7.5653950114285715,-105.91553016,6.049907922309959,-3.5919958951785715,1.3e-06,8.074336976777992e-08,2.9178,38,14,187.6350249921476,683.6181485999998,mp-1218241,SrLa3MgAlO8,https://materialsproject.org/materials/mp-1218241,-6.837095097794036,19.42742575840057,-9.431784474851867,45.13050183838567
-7.986562551666667,-143.75812593,8.691725634293537,-1.945056799166668,0.0,0.0,0.0,15,18,225.50205348999611,1180.3408,mp-15910,Re2SbO6,https://materialsproject.org/materials/mp-15910,2.613301935154731,18.31374619069072,3.0540114402715823,37.61004125249782
-6.136666807333333,-92.05000211,7.00913238063196,-2.1605410199999997,2.8999999999999998e-06,1.5221630221357785e-07,0.0,139,15,222.0313287666268,937.19385,mp-1208753,Sr2YCu2(BiO4)2,https://materialsproject.org/materials/mp-1208753,-5.750523289496943,20.944523005007735,-10.852959361949603,45.19511667047015
-5.097426974545455,-56.07169672,8.487167234659202,-1.2615746564772727,0.8504458,0.05950187035840921,0.0,8,11,166.5687209335031,851.3480000000002,mp-34421,CdBi3O7,https://materialsproject.org/materials/mp-34421,8.294214918011745,22.235490903273863,0.9028028550192428,35.58522666331922
-3.3125558666666666,-39.7506704,4.7999692824790845,-0.4885780249999995,0.0,0.0,0.01910000000000034,62,12,480.58244661091555,1389.1760000000002,mp-13922,Ba2Ge,https://materialsproject.org/materials/mp-13922,9.034085618546248,18.526475768286364,37.75324808571403,0.7339109226704477
-7.538596099583334,-180.92630639,7.143689986416542,-3.3120634992708347,0.0,0.0,4.3192,113,24,256.89921716730487,1105.188328,mp-1210839,Lu2Be2GeO7,https://materialsproject.org/materials/mp-1210839,-2.0437359106557746,13.020419170008509,7.71061223533398,30.71933520257814
-5.316769398333333,-95.70184917,6.190269741093129,-0.2745294427244447,0.0,0.0,0.8852000000000002,15,18,475.3219197373294,1771.9372,mp-1246206,Ba3(BiN2)2,https://materialsproject.org/materials/mp-1246206,8.902622499667526,19.673948040296658,27.50506878882712,-3.0486807260065736
-7.194993195,-201.45980946,5.736344780122622,-3.1867542389971426,2.9999995,0.09145776545573137,1.7073999999999998,25,28,382.27687191384064,1320.57837,mp-1218813,Sr2La2MgMnO8,https://materialsproject.org/materials/mp-1218813,-22.95033323833955,38.590684779162224,-14.3817911928214,58.952734215264044
-6.9817795107142855,-97.74491315,7.9015398005548825,-0.06472223714285771,2.5e-07,1.5405246276657948e-08,0.0,72,14,189.12493450718063,899.9355999999998,mp-1103776,Yb2FeC4,https://materialsproject.org/materials/mp-1103776,-2.0918086085279,26.62699336320243,-2.5577642672670677,23.497480592809662
-7.164817487142857,-50.15372241,7.1645869850300095,-2.866634607857144,1.9999978999999999,0.2486129498232565,0.5583,139,7,93.75257840813812,404.5063,mp-18839,Pr2NiO4,https://materialsproject.org/materials/mp-18839,-23.748467167739896,39.47143164470931,-13.900119861760313,59.53667933550308
-5.7302704225,-45.84216338,7.864144313370183,-0.8289023175000008,0.0023741,0.0001604574877044087,0.0,25,8,172.43143696418323,816.6177799999998,mp-1223829,Ho4Si3Ge,https://materialsproject.org/materials/mp-1223829,-11.626785246484154,22.06347434435608,-12.273172755965742,44.94127128816041
-8.552127672666668,-128.28191509,7.6771144982266915,-3.090018278333334,1.0,0.05676795008365301,0.0,12,15,205.29303516132453,949.12441,mp-29326,La3(ReO5)2,https://materialsproject.org/materials/mp-29326,5.9864374778928005,5.818384121071436,8.898192711662663,30.02377892632862
-6.599483546666668,-118.79070384,8.929581024409066,-1.9590827536111108,0.0,0.0,2.5098,12,18,259.52382075605135,1395.5944,mp-554500,Bi2WO6,https://materialsproject.org/materials/mp-554500,11.238611592263894,23.359144106696814,36.125689541443364,0.027958847973128403
-5.4122663847500005,-216.49065539,5.7721542282761575,-1.4605722544375006,3.00000025,0.05885140248858305,0.0002999999999993008,148,40,594.0758546574622,2065.05079,mp-1198962,CoTe6O13,https://materialsproject.org/materials/mp-1198962,4.62508052131147,19.365195426809017,32.307261149511774,-6.630432429785893
-4.44379233,-31.10654631,8.876648640160488,-0.6267938114285714,7.8e-06,4.1210324102117794e-07,0.0,115,7,220.57993283603943,1179.14154,mp-1223052,La2ZnBi4,https://materialsproject.org/materials/mp-1223052,-50.12220936965168,21.747580153040694,-42.18892674158442,32.018690037143095
-7.422129764285714,-103.90981670000001,6.4551144020618425,-3.0040697023899985,3.1200588,0.18826159764790926,0.0,38,14,193.14277475430043,750.815655,mp-1218246,SrLa3MnCuO8,https://materialsproject.org/materials/mp-1218246,-22.490498702505967,38.31734140862941,-14.381605902807785,58.72088054152253
-6.5015725192857134,-91.02201527,4.2467370814199015,-0.9949610188771416,3e-07,1.2527297306227053e-08,0.0,176,14,279.0880863049376,713.7524000000002,mp-12906,Sr3CrN3,https://materialsproject.org/materials/mp-12906,-4.2001861447487725,21.37010176663791,4.5813527744573115,48.8781173451007
-5.25472425,-57.80196675,9.197392473932773,-0.6652951881818187,5.7100000000000006e-05,3.0234268007673423e-06,0.0,65,11,220.0969768291624,1219.0729814,mp-1208226,Th2Al4Si2Au3,https://materialsproject.org/materials/mp-1208226,4.168541090639343,10.081965868334704,5.302448882168272,24.243776629296278
-3.1747615466666663,-19.04856928,5.294436711445991,-0.7526443283333331,2.8999999999999998e-06,1.4022830374698307e-07,0.0,139,6,241.01259829401755,768.4408000000002,mp-29619,Sr2Bi,https://materialsproject.org/materials/mp-29619,-3.344318038613022,15.516132826806235,0.1536390387441765,23.312530423454746
-7.066620161428572,-197.86536452,6.575933538766787,-2.7946099046607142,0.9829663000000001,0.02981403415703248,0.0,107,28,384.2335750038452,1521.6109900000001,mp-1223525,KLa7(CuO4)4,https://materialsproject.org/materials/mp-1223525,-21.723830896075892,38.00049653518982,-14.5007487987566,58.304318779912386
-8.04545245111111,-72.40907206,6.652602684192318,-1.4323428619837035,1.2e-06,1.1197172979817033e-07,0.0,71,9,124.8965051471425,500.37175,mp-29587,Pr3(BN2)2,https://materialsproject.org/materials/mp-29587,-3.8605684920048553,26.025005563141626,-20.30798119918537,42.58572325758527
-7.4845757340625,-239.50642349,5.3520218976619525,-2.721009750901251,3.000000125,0.09596323034757513,1.484,55,32,364.32908362719184,1174.25558,mp-1207709,YMnGaO5,https://materialsproject.org/materials/mp-1207709,-2.1344613367129077,27.469272203755235,1.6437595522015669,49.95720444230325
-7.332094833846154,-190.63446568,5.814741960449071,-3.2145202211369237,0.31055105,0.00870437716448454,0.0,176,26,415.78874438637064,1455.9755599999999,mp-1209927,Nd3Nb(ClO2)3,https://materialsproject.org/materials/mp-1209927,-0.07516685246729346,12.515411502340047,7.56333822255892,30.078194241682287
-7.549339272307693,-196.28282108,6.318294126684332,-3.29345115056,1.02356345,0.02815553441112873,0.0,176,26,423.670691912342,1612.0524599999999,mp-1209663,Pr3Ta(ClO2)3,https://materialsproject.org/materials/mp-1209663,0.0015945865925478216,12.280860101469626,7.513990225201322,30.153256650757683
-6.966277623157897,-264.71854968,8.11334438390992,-3.3006349711513163,0.0,0.0,3.3519,87,38,539.4490620292391,2635.73208,mp-6054,Ba5Tm8Zn4O21,https://materialsproject.org/materials/mp-6054,-6.152362492917407,35.79237050147703,-2.017770251033359,49.46899665180902
-8.267703558181818,-181.88947828,9.073024911104437,-2.7496340601136366,0.0,0.0,2.8154000000000003,36,22,325.1490718331884,1776.58312,mp-755663,Ta2Pb2O7,https://materialsproject.org/materials/mp-755663,1.8851810541386964,23.25285651631013,1.6929239103817195,47.088260156301295
-4.268759816666667,-25.612558899999996,1.994732555419212,-0.586337314047619,0.0,0.0,1.1646999999999998,129,6,78.12979472179643,93.853888,mp-9915,LiBeP,https://materialsproject.org/materials/mp-9915,25.22582591241693,58.81697167261231,-22.182648044282217,-3.8418126512462143
-5.345531123333334,-192.43912044,4.043666940097701,-0.6171422749466665,0.876434,0.011839253802747873,0.0,62,36,862.7248621448528,2100.8672,mp-1246043,Sr4SnN4,https://materialsproject.org/materials/mp-1246043,11.080231740285264,26.401125682895735,32.213959008784016,0.8223702636748053
-5.025795269565217,-115.5932912,6.480160012672888,-1.5842240430434784,1.7276052,0.0508059000354366,0.0,139,23,396.28513397396654,1546.4804,mvc-10620,Ba2Tl2Zn3(SnO3)4,https://materialsproject.org/materials/mvc-10620,-5.832113131873929,21.86713234222121,-12.298850235949919,51.74362244038429
-7.5432794833333325,-45.259676899999995,7.129917850513445,-3.190521389166667,0.9999246999999999,0.12862732490198586,0.0,11,6,90.59651384619914,388.9976,mp-1206731,DyO2,https://materialsproject.org/materials/mp-1206731,0.90668053061193,13.905389992208278,6.705633440376553,32.954728828290285
-5.13069920125,-164.18237444,6.859395358842539,-1.33236256125,0.0,0.0,1.5066000000000002,14,32,591.8738975038405,2444.9272,mp-558338,Tl2CuAsO4,https://materialsproject.org/materials/mp-558338,8.86701478654457,25.03214885942684,30.504429539472017,4.240038844221379
-9.208954908333334,-110.50745890000002,6.776988005819947,-3.631289645104168,14.000000699999998,1.1721534500561779,2.6616,139,12,139.1941600870273,568.0788772000002,mp-545404,SrGd2Al2O7,https://materialsproject.org/materials/mp-545404,-7.6820408378365554,18.44769623303432,-23.18335942944607,37.21375240833272
-5.194967531052631,-98.70438309,7.176260580685724,-1.8687201688157888,5e-07,1.7418195485579163e-08,0.0,139,19,334.53708744422755,1445.7505999999996,mp-561182,Ba4Tl2Cu2HgO10,https://materialsproject.org/materials/mp-561182,-12.892437196792246,25.470552534359626,-17.744039092095093,41.2880807406376
-4.718596555,-37.74877244,6.4606257226923445,-0.2671518392968757,2.60635345,0.14131097683475013,0.0,12,8,214.94870820972855,836.2965999999999,mp-9810,TlFeSe2,https://materialsproject.org/materials/mp-9810,3.611052274822568,22.67180388290145,-0.774612493209053,25.241057761927408
-6.4183435110000016,-128.36687022,5.676360766545592,-1.758331548442,4.99999895,0.21600760091838103,2.664599999999999,62,20,269.7604685126244,922.14498,mp-1176417,MnTeO3,https://materialsproject.org/materials/mp-1176417,-14.24126775872052,38.10240387265514,-11.693515088443085,54.102634239041045
-6.78352599142857,-94.96936388,6.993266804057938,-2.689563668928572,3.0000001,0.18281037963125013,0.3595000000000006,38,14,191.2484157278617,805.4319499999998,mp-1227893,BaPr3(NiO4)2,https://materialsproject.org/materials/mp-1227893,-22.70576083415387,38.42703308036795,-14.490490035097105,58.94358039664721
-6.887189566923077,-89.53346437,8.64023311212254,-2.0035195807692308,6.9126942,0.3738788628752896,0.0,8,13,215.47349679024111,1121.1668,mp-756698,Gd(BiO2)4,https://materialsproject.org/materials/mp-756698,12.159708894236374,22.706161112256087,23.24261587529732,36.94144961671314
-6.874096897272728,-151.23013174,6.446128108751818,-1.5383459124999994,0.00921265,0.0003482106686953973,0.018799999999999702,127,22,308.3329417480918,1196.9328,mp-505802,Sn(Mo2O3)2,https://materialsproject.org/materials/mp-505802,3.439652755794792,22.83777016001196,-12.654796716587644,24.42079704118585
-5.8300338225,-23.32013529,7.51361330386168,-0.8283443474999999,2e-07,2.73202249363195e-08,0.0,63,4,85.31455944981464,386.03164,mp-12899,HoSi,https://materialsproject.org/materials/mp-12899,-11.608581781182535,22.045366511387577,-12.154025165135856,45.00034264825106
-7.69048139125,-246.09540452,5.095055136756748,-3.194192704843749,7.5e-07,2.4968632705187002e-08,3.8110000000000004,55,32,350.06116204368703,1074.0975544000003,mp-540905,YAlGeO5,https://materialsproject.org/materials/mp-540905,-1.2595341378232183,26.954677983278906,1.2520847726699451,49.67315002407793
-8.041857572727274,-353.8417332,5.773268555399578,-3.0223098242897737,2.9722372999999997,0.04470644905707597,0.0,55,44,774.8019971211618,2693.7879199999998,mp-683997,Ce3NbS3O4,https://materialsproject.org/materials/mp-683997,3.952174618645399,16.319373478870734,5.2793406676181265,30.99054699660169
-7.755261200454546,-170.61574641,4.090014093255713,-3.2280150819718187,0.0,0.0,1.8229,71,22,347.1496040191829,855.0517264,mp-579086,KSrNb2O6F,https://materialsproject.org/materials/mp-579086,2.6958190850039694,18.342654637546588,24.397536375104213,36.47650518862204
-10.20688954,-224.55156988,8.389697779182404,-3.4907910728409104,13.94860995,0.5279547819054361,0.0,36,22,307.9013760568362,1555.6391199999998,mp-1213305,Eu2Ta2O7,https://materialsproject.org/materials/mp-1213305,1.7912732377717595,23.139603752610693,1.7267619817860853,47.101153090287134
-8.369570196956522,-385.00022906,5.095839683334542,-3.1121101886712887,0.0,0.0,1.9456,127,46,661.0847584012616,2028.7279399999998,mp-1209583,Rb2LaNb5O15,https://materialsproject.org/materials/mp-1209583,10.00577453636562,33.28551342119025,30.848787784473373,36.63733178279863
-4.111834675,-16.4473387,7.9364893921834385,-0.5163490042968748,4e-07,3.8929412143627694e-08,0.8605999999999998,63,4,119.7456024207376,572.3199999999998,mp-1063670,PbSe,https://materialsproject.org/materials/mp-1063670,-49.302876790087176,3.5542055569630597,-11.631100520953026,23.59811150384559
-7.717143899642857,-216.08002919,7.99143757557765,-3.719089900357144,0.0,0.0,3.2309,62,28,441.49945245765696,2124.74096,mp-17363,BaHo2O4,https://materialsproject.org/materials/mp-17363,-11.24419462855664,26.179224045830427,-2.1314574154497983,56.31642979989947
-8.043980379615384,-209.14348987,6.62410011734433,-3.3519737050738456,3.00000075,0.09441993047511994,1.2910000000000004,141,26,370.2841432131784,1477.11025,mp-769598,La4MnO8,https://materialsproject.org/materials/mp-769598,-7.190314636915207,18.99566999260805,-24.25744557772917,37.980593239730744
-3.929390309333333,-58.94085464,5.936627112631237,-1.1496824737326663,0.0007864,1.678065113181528e-05,0.5637000000000003,139,15,546.1502336917678,1952.5528800000002,mp-865213,Ba8Bi4H2O,https://materialsproject.org/materials/mp-865213,-1.1046405124764689,17.526012632249692,8.134734630604932,27.669146941290713
-5.1130231275,-40.90418502,6.5820371022066215,-1.968294276875,2e-07,1.5326900883836076e-08,0.0,123,8,152.07333642837347,602.7876,mp-6562,Ba2CuHgO4,https://materialsproject.org/materials/mp-6562,-13.403796200770245,20.216719446674198,-15.737073403296373,42.89166793113386
-9.237836036153846,-240.18373694,7.255995258345755,-3.0856132786369215,20.9999998,0.6232395024240193,2.5584,176,26,392.6826796778289,1715.8908,mp-1212679,Gd3W(ClO2)3,https://materialsproject.org/materials/mp-1212679,-0.3797790058460915,12.772383550154405,7.477414011288028,30.53156338883829