energy_per_atom,energy,density,formation_energy_per_atom,total_magnetization_uB,total_magnetization_T,band_gap,sgr,num_sites,cell_volume,weight,mp_id,formula,URL,tsne_xrd_lin1_0,tsne_xrd_lin1_1,tsne_xrd_lin2_0,tsne_xrd_lin2_1
-4.9020164883333335,-58.82419786,5.871313557505678,-0.7259988966666668,4.75e-07,1.800096761362735e-08,0.0,198,12,307.52128917643034,1087.33,mp-1102609,BaSiPd,https://materialsproject.org/materials/mp-1102609,-12.746033025904214,31.35383183594645,-16.242129741571336,41.95228174270734
-7.832961993333334,-46.99777196,6.3982824782169665,-0.11779204666666605,2.8199999999999998e-05,3.6031036159986353e-06,0.0,123,6,91.21153916499186,351.45045,mp-1219966,PrDyC4,https://materialsproject.org/materials/mp-1219966,-8.298463654671973,-25.623815326372604,-3.7994717033205423,-18.925886740828187
-6.539593093571428,-91.55430331,7.711751328828679,-1.964301631071428,0.3946631,0.025363762592492987,0.0,88,14,181.3386051839373,842.1592,mp-15051,Nd(PdO2)2,https://materialsproject.org/materials/mp-15051,0.5686796387737021,65.18085232906503,-7.0656151387265576,51.87992017948387
-8.536902598958333,-409.77132475,7.13489018000168,-2.711255475729168,18.011050425,0.35677124272912264,0.0,136,48,588.3376324536227,2527.92876,mp-573240,SrGd2Co2O7,https://materialsproject.org/materials/mp-573240,-23.915775105733772,46.83842759939859,-10.991721031997935,63.30422499437575
-8.98046892,-71.84375136,9.617072330537765,-1.2984578410714285,0.0,0.0,0.0,194,8,144.66887315042956,837.855048,mp-9953,HfP,https://materialsproject.org/materials/mp-9953,-23.710055423577927,52.285135142566396,-12.178094688900313,59.38286225452254
-7.4994306971428575,-52.49601488,7.3050197771875665,-2.9748812328571423,2.9901451,0.37261650766412735,0.0,139,7,93.52066791995972,411.414795,mp-1206526,Nd2CoO4,https://materialsproject.org/materials/mp-1206526,-23.403321739433213,39.54421070088929,-14.010449888104842,59.139029086993396
-8.928097967045455,-392.83631055,6.078153336000817,-3.8471126889772735,1.125e-06,1.93682601447173e-08,4.0253,92,44,676.9231087958942,2477.7752,mp-771828,Dy2Zr2O7,https://materialsproject.org/materials/mp-771828,4.9958354471913635,7.935971258258991,8.475834476763202,31.95758317586503
-7.313980590222221,-658.25825312,3.9264574677794095,-3.096149217,0.0,0.0,3.6782,161,90,1495.5126721097974,3536.2414,mp-555068,Sr9LuV7O28,https://materialsproject.org/materials/mp-555068,6.073680233902126,21.994300628346213,29.722511122363862,0.37395723898756056
-8.169282094,-81.69282094,8.950670758475031,-0.617103939750001,2.2899999999999998e-05,1.7665150666319407e-06,0.0,63,10,151.0760300507654,814.3330399999999,mp-570102,HoSiRu2C,https://materialsproject.org/materials/mp-570102,-35.12211754686578,21.309597412458015,-28.14801306120541,36.716481497514856
-8.917221470833333,-321.01997295,5.3324132221915646,-3.5510715593518523,0.0,0.0,2.8184,33,36,467.94829507258265,1502.701,mp-1222933,LaTiNbO6,https://materialsproject.org/materials/mp-1222933,5.605909112700493,22.64959354498724,2.831762060638127,37.11508293928295
-6.826400475833334,-163.83361142,6.6891911588547615,-2.1683602853854183,4.0,0.1500902663924043,0.5935000000000001,12,24,310.58815611908267,1251.15007712,mp-1221262,Na4(WO3)5,https://materialsproject.org/materials/mp-1221262,-10.81710267482085,50.70773937936009,10.43930946177728,35.943157557819774
-7.6891383,-246.0524256,5.039813940537094,-2.588552039338749,8.00000005,0.252931124086764,1.0407000000000006,55,32,368.6083280569253,1118.74358,mp-1207651,YMnFeO5,https://materialsproject.org/materials/mp-1207651,-2.16948341822762,27.476479409528228,1.7105024908814814,50.03786109850911
-4.581460906666667,-13.74438272,4.209300851175812,-0.3230515766666671,0.0001456,2.222916751789277e-05,0.0,191,3,76.3335752235828,193.498,mp-7701,BaSi2,https://materialsproject.org/materials/mp-7701,-54.310320346670466,25.492646476816414,-52.52454110387887,29.774331299367205
-6.178444017333334,-92.67666026,2.552914155097751,0.2494406903333328,0.0,0.0,0.0,166,15,139.18848687155878,213.9885,mp-978496,SiB4,https://materialsproject.org/materials/mp-978496,-9.186600973974556,22.653125919201713,-9.351964552599652,44.668951938081456
-2.768960576875,-44.30336923,5.7377469688465705,-0.521330544375,3.15e-05,5.892595058987759e-07,1.5778999999999996,140,16,622.9904425142902,2152.6513,mp-1208036,TlSn2I5,https://materialsproject.org/materials/mp-1208036,3.9802042176298285,25.175778764686452,2.164601777367656,22.907178365724512
-6.002604835625,-96.04167737,4.454802731194318,-2.332885788426725,3.0,0.11251023286338473,2.7202,36,16,310.7467954504355,833.6543975999999,mp-542168,Cs2CoSiO4,https://materialsproject.org/materials/mp-542168,6.371755447543228,27.15514554684051,33.757213130407635,-1.9518943701043967
-7.819848576,-39.09924288,8.546773686633232,-3.7088547545833337,0.0,0.0,4.104500000000002,221,5,58.67116219755986,301.9797386,mp-1183115,AcAlO3,https://materialsproject.org/materials/mp-1183115,-29.37624300855391,55.7660209555616,-10.284529706042989,25.385409361190813
-7.720430217142857,-54.04301152,5.8910613683707895,-3.1602526892857146,3.0000009999999997,0.3619601297557742,0.0,107,7,96.59131793143612,342.6751,mp-1218325,SrCeVO4,https://materialsproject.org/materials/mp-1218325,-23.041686655561506,38.13197238747382,-15.082300717700805,58.834005888813756
-7.652053761666667,-45.91232257,9.574092095844726,-1.191866773020834,2.11943215,0.20775830074063156,0.0,129,6,118.88814776157265,685.4678200000001,mp-20913,UGeS,https://materialsproject.org/materials/mp-20913,-0.7909293663273873,-5.149118040459293,6.710965760524568,7.510978978830491
-3.842926083333333,-23.0575565,7.213364486001872,-1.835450917293333,4.6e-06,5.557866034752804e-07,4.0867,129,6,96.45554178269958,419.00188,mp-1070852,YbHCl,https://materialsproject.org/materials/mp-1070852,-1.7265962093342435,10.614797917231249,-8.528078005218072,29.217719509149113
-5.478383379875,-438.27067039,4.16795843582768,-1.284878080875,0.000432125,2.4875303839788627e-06,0.5493000000000006,134,80,2024.5030059842475,5081.5091840000005,mp-1204900,Sc4FeBr5,https://materialsproject.org/materials/mp-1204900,8.46834778934284,22.339405552564262,-4.4087125283058155,25.12736300251334
-7.515500379583332,-180.37200911,4.293286633280464,-3.575636645312501,0.0,0.0,4.2535,35,24,328.60652268316966,849.6048316000001,mp-1218172,SrNdAl3O7,https://materialsproject.org/materials/mp-1218172,-2.3376452829581997,15.292972819897285,6.704959350728147,31.00474054576663
-5.946320073333332,-285.42336352,6.054104466414895,-2.0787774473754173,16.2983265,0.2544286510434649,0.0,194,48,746.5423093520932,2721.79396,mp-1228254,Ba5Co4PtClO13,https://materialsproject.org/materials/mp-1228254,-7.427244756904915,31.508754428470464,-0.1878453274605208,48.03605605512276
-5.513230336,-27.56615168,5.947603936157881,-0.6462152979999999,4.8e-06,6.272657123170071e-07,0.0,107,5,89.17992775606369,319.4185,mp-1069604,CaSi3Pt,https://materialsproject.org/materials/mp-1069604,-6.600442965654696,9.283908731393199,4.414581408627743,24.41262383466982
-8.39379003425,-335.75160137,7.837167525829357,-4.0069550435000005,0.0,0.0,3.9006,206,40,620.1285137150543,2926.7912,mp-1056,Tb2O3,https://materialsproject.org/materials/mp-1056,18.974179815807574,61.21627592628398,-5.97152648506834,36.58153029679117
-5.989165567333332,-89.83748351,7.267492326288633,-2.1252866263333328,4.5e-06,2.32029516367174e-07,0.0,139,15,226.0199146109066,989.19565,mp-1208752,Sr2PrCu2(BiO4)2,https://materialsproject.org/materials/mp-1208752,-5.713379497880298,20.826810990593234,-11.1455521578394,45.22825618475913
-7.128627660208332,-342.17412769,4.689098079192236,-2.6229108348204018,3.75e-07,5.410107271625741e-09,3.6192,60,48,807.7980842691526,2281.09328,mp-1209629,RbHo(MoO4)2,https://materialsproject.org/materials/mp-1209629,6.018000511158112,18.59528572352249,34.67048452601884,-2.555222901751764
-7.294256148,-72.94256148,4.358231602307799,-2.853356634083333,0.0,0.0,3.6159,148,10,123.42826500103581,323.9484,mp-8000,SrSn(BO3)2,https://materialsproject.org/materials/mp-8000,1.901995382195504,15.459658725575345,3.2037090524032013,23.1435216153946
-7.822786786666666,-46.93672072,9.479864003826236,-1.354234618020833,2.40485505,0.2318732954211798,0.0,129,6,120.86918620969105,690.03102,mp-4374,UAsS,https://materialsproject.org/materials/mp-4374,-5.364911559522961,-23.47168671393453,-1.0237944247282695,-19.892029040074803
-6.985603049500001,-139.71206099,5.823700990158844,-2.54009443075,2.00000045,0.08611142756307025,0.0,194,20,270.6741189765673,949.2852,mp-19271,BaCrO3,https://materialsproject.org/materials/mp-19271,-8.488277461945858,29.344808993820532,0.4586300522073489,23.65901973906786
-7.1025650050000015,-99.43591007,6.508067105820827,-2.8793221258928576,5.6672988,0.3451591646615683,0.0,38,14,191.3524949146565,749.9582049999998,mp-1218258,SrLa3CoNiO8,https://materialsproject.org/materials/mp-1218258,-22.86811792728741,38.57558020897606,-14.835592040004766,59.127720760830066
-5.570207355625,-89.12331769,8.052840586976277,-2.264856129655,0.999460425,0.06853577092425535,0.0,113,16,169.95178391489867,824.1869599999999,mp-625103,YbHO2,https://materialsproject.org/materials/mp-625103,4.46248535023629,19.05759512838114,-8.533811748945194,32.285455683495265
-3.858869975,-30.8709598,6.401617803368971,-0.8469588303645841,4.535e-05,2.657609041488569e-06,0.5220000000000002,194,8,198.8674139743121,766.6625999999999,mp-20042,TlInS2,https://materialsproject.org/materials/mp-20042,1.797396374642121,8.449610398937644,-1.2748141219773343,19.66532211277123
-5.615692429473683,-106.69815616,8.171820966240562,-0.1968699421052632,6.53e-05,1.583460861540308e-06,0.0,204,19,480.59945662810816,2365.11917,mp-1209696,Sm12Co6Pb,https://materialsproject.org/materials/mp-1209696,-4.342106989061938,77.17326017630377,-10.49149319927656,50.1719955925736
-6.9558928433333325,-62.60303559,5.591570543222884,-2.409789793263889,8.0000005,0.6258487691685568,0.0,139,9,148.96973294581983,501.62914000000006,mp-1211279,La2Fe2S2O3,https://materialsproject.org/materials/mp-1211279,-6.949128669404116,15.596763180010875,-0.4830220210790514,22.513664394529947
-7.118744763461539,-185.08736385,6.610120139124218,-3.1169019238292317,0.0,0.0,3.5081,176,26,411.4451558429992,1637.8428,mp-1209888,Nd3W(ClO2)3,https://materialsproject.org/materials/mp-1209888,-0.16992097945829007,12.572373641648074,7.28636533288595,29.936887595677128
-8.3215247775,-133.14439644,5.434970382345166,-3.32727419578125,0.9999857,0.0591414481976098,0.040299999999999336,119,16,197.0512808630283,644.95194,mp-1223172,La2Ti3CuO10,https://materialsproject.org/materials/mp-1223172,-1.066246067461292,18.912260705341424,5.608334023901412,33.688388085793235
-6.172936532857142,-86.42111146,5.504872733446477,-0.35003260316285684,1.8394646000000001,0.06401598651508345,0.0,176,14,334.87322092864355,1110.1421999999998,mp-1029537,Ba3RuN3,https://materialsproject.org/materials/mp-1029537,-3.2171314125602883,16.187924609761286,5.293801502632299,47.36323321381219
-7.339808674444446,-66.05827807,6.480964981164795,-2.391049459305555,0.0,0.0,0.5948000000000002,123,9,96.2546711968804,375.67509,mp-1187759,Y2Co2O5,https://materialsproject.org/materials/mp-1187759,-19.862295272971878,38.26745294872352,-13.295517191079831,56.19259070927969
-6.917248088717949,-269.77267546,5.620335064962321,-2.495927792536667,26.0000633,0.5380439765700107,1.0374,38,39,563.1629290239339,1906.1065600000002,mp-760130,Ba8Mn8O23,https://materialsproject.org/materials/mp-760130,-7.88934387404509,29.89333370146937,6.5402168374508,8.274241231186563
-7.1723738472916665,-344.27394467,6.24794557188073,-0.2221381499652774,7.15e-06,9.969445194053223e-08,0.0,130,48,835.8194613829276,3144.855,mp-571510,Pr5B2C5,https://materialsproject.org/materials/mp-571510,6.257625217393617,56.43185900653014,4.655146306067729,37.259168383464896
-5.959269211363636,-131.10392265,4.421820133301713,-1.7925692190340912,5.999999900000001,0.13143004787954127,0.6429999999999998,167,22,532.027406198916,1416.7264,mp-30904,Ba3(CrS3)2,https://materialsproject.org/materials/mp-30904,5.934491617042558,-3.115506629720726,7.061167591583657,16.47536716390054
-6.676066963636364,-73.43673659999999,6.858533571154137,-2.6059469461363642,9.4e-06,7.551290241686174e-07,0.0,139,11,145.07217357016782,599.1923999999998,mp-1218190,SrNd2(CuO3)2,https://materialsproject.org/materials/mp-1218190,-23.644972840255576,46.65787866418489,-12.929491266944355,59.129571505542366
-6.482215729999999,-84.26880449,6.788480900389968,-1.5366659958516469,0.5813379,0.033352524839728656,0.0,139,13,203.13153423616333,830.4258480000001,mp-1213889,Ce3Cu4(P2O)2,https://materialsproject.org/materials/mp-1213889,-10.326649453890838,11.487918742796287,-20.684019906672233,15.425184986582982
-7.895157336666667,-47.37094402,9.665955129222382,-0.7781465640476194,1.4440583999999999,0.1424180537787723,0.0,129,6,118.1672525528314,687.8485440000002,mp-1077201,UAsP,https://materialsproject.org/materials/mp-1077201,-5.3961885848081135,-23.939503963883862,-1.183772562713298,-20.214253304117435
-6.383867112000001,-127.67734224,8.687014807238677,-2.2218033972500004,0.0,0.0,2.0556,148,20,340.3254720697633,1780.3932,mp-754989,Er(BiO2)3,https://materialsproject.org/materials/mp-754989,4.5947483098847846,20.82143159392778,2.9708767524844237,35.035472889670466
-5.3988219205,-107.97643841,5.39065536696708,-1.8801112431500009,0.0,0.0,1.2355999999999998,14,20,239.21542586933438,776.57187712,mp-10349,Na2SnTeO6,https://materialsproject.org/materials/mp-10349,-9.967795705997274,53.50925541828865,10.070113425316574,36.089206537602145
-7.459405854814816,-201.40395808,6.565066296907438,-3.1567096149074083,2.0,0.06395978391862417,0.5701,1,27,364.41851609089616,1440.75608,mp-779308,SrLiLa7(CoO8)2,https://materialsproject.org/materials/mp-779308,-7.16885876244759,19.86330384406533,-9.414440041073666,44.893657305739524
-5.6021430510000005,-112.04286102,4.251302046569742,-2.0475270619687507,0.0,0.0,4.0046,62,20,236.33084279955781,605.0527999999998,mp-12271,MgSeO3,https://materialsproject.org/materials/mp-12271,-20.38722324718474,43.94845922321572,-4.747831122592435,44.613959907025134
-7.961561728846153,-207.00060495,6.813196770284308,-2.6845952690215378,18.00006925,0.511053397736581,0.0,176,26,410.47368803168894,1684.1748,mp-1213105,Eu3W(ClO2)3,https://materialsproject.org/materials/mp-1213105,-0.1661911807142646,12.560051787043125,7.466877645492081,30.37923253971678
-7.56818552,-52.97729864,5.874756049162817,-3.1723853885714286,1.9999997,0.2400841027260835,0.2810000000000006,107,7,97.08317120643608,343.46675,mp-1217973,SrPrVO4,https://materialsproject.org/materials/mp-1217973,-22.84620861436648,38.088943309512985,-15.2771906011063,58.387590632151245
-3.6243136071428568,-25.37019525,3.825312304230649,-0.5109051999999998,9.3e-06,5.403054178894555e-07,0.043099999999999916,71,7,200.59543879491486,462.1030772,mp-10671,Sr3(AlGe)2,https://materialsproject.org/materials/mp-10671,-5.626820593649146,27.16282900885458,1.6600139848184663,49.90550776068175
-5.416624132142856,-75.83273785,7.640740469141501,-1.6593582925,0.0002968,1.3642251583819967e-05,0.5248999999999997,162,14,253.54512803429643,1166.6528,mvc-507,BaZn(BiO2)4,https://materialsproject.org/materials/mvc-507,-18.302711897947756,5.760167448784671,-11.68475757529524,28.39975943001708
-6.9745979656250015,-334.78070235,7.356179150358336,-0.5343799101562503,0.012643099999999999,0.00013131395508613326,0.0,225,48,1122.0704321128846,4970.766070000001,mp-647363,La21Fe8Bi7C12,https://materialsproject.org/materials/mp-647363,-0.18436750477154545,26.263411657136942,-13.729485070738086,43.86105223726083
-7.2018582150000015,-100.82601501,7.974344250819257,-0.26696556595238163,0.88544505,0.03729468856865157,0.0,140,14,276.68910403279585,1328.73369,mp-569743,Ti4MnBi2,https://materialsproject.org/materials/mp-569743,6.447522833676808,-6.923440897714652,13.96026363496444,3.1970313394707186
-2.8544001125,-45.6704018,5.51095626637405,-0.8676963482758622,0.0,0.0,1.935,140,16,712.2071411042242,2363.6556038000003,mp-1238789,CsPb2I5,https://materialsproject.org/materials/mp-1238789,5.985379156525407,-21.78483518686639,17.50903756033586,-18.283233943795988
-7.512790722916668,-180.30697735,4.234059832992876,-3.5713781651041683,0.0,0.0,4.2742,35,24,330.5877597291697,842.9361316,mp-1218014,SrPrAl3O7,https://materialsproject.org/materials/mp-1218014,-2.2894495895264786,15.378649540142414,6.952439391011676,31.18785307848123
-9.1984783975,-110.38174077,7.991522215132778,-3.9561711104166655,2.0000142,0.14264705999350627,0.0,166,12,163.39835559106663,786.3721099999999,mp-1226924,Ce3UO8,https://materialsproject.org/materials/mp-1226924,27.291337141402703,64.34383922312544,-11.350093291839118,36.166431403703974
-7.401308082857143,-51.80915658,6.998499141175457,-2.9930029257142854,8.400000000000001e-06,1.0178352682928795e-06,0.0,139,7,96.17876992383076,405.35454,mp-19735,La2CuO4,https://materialsproject.org/materials/mp-19735,-21.750482540474447,37.930276098576144,-15.194096237395375,59.106154054041326
-7.1277743010000005,-142.55548602,5.932665894920735,-2.7885304263939994,8.999999,0.3581732373604413,1.8543,166,20,292.8375444015146,1046.230935,mp-561553,Ba4CeMn3O12,https://materialsproject.org/materials/mp-561553,-17.17823667097257,17.377232824793133,-15.729483976269233,46.95447896701889
-7.227107169999999,-144.54214340000001,4.308482015002856,-0.5908090653333332,0.0,0.0,0.0,127,20,203.72835192628608,528.5994000000002,mp-637,YB4,https://materialsproject.org/materials/mp-637,-2.1487969062911167,17.035613454902485,9.5760171661736,24.374460727730757
-7.634932345714287,-53.44452642,5.80449758003846,-3.448879482142858,0.0,0.0,2.9865,139,7,122.97795051172956,429.8756,mp-8335,Ba2ZrO4,https://materialsproject.org/materials/mp-8335,-20.238721214327803,14.55822984331244,-20.0981046869077,45.566218501875646
-5.7325638082142865,-160.51178663,4.522239393408509,-1.4731922746428572,1.9999988000000002,0.058227832024228175,2.7485000000000004,135,28,400.2916603617205,1090.1368,mp-1096784,Ni(AsO2)2,https://materialsproject.org/materials/mp-1096784,-3.695550298980581,-4.010424160612915,-12.67769854099607,48.36941125467507
-7.572707615416667,-181.74498277,3.849785817131671,-3.592865764895835,0.0,0.0,4.3635,35,24,320.84596993998355,743.8477716,mp-1227111,CaLaAl3O7,https://materialsproject.org/materials/mp-1227111,-2.5304193430342425,14.528492148272512,6.290912511241919,30.33563488551641
-7.772444284642857,-435.25687994,7.371195786576303,-2.860223952708333,0.000143175,2.200138817923098e-06,1.7236000000000002,55,56,758.3933841894313,3366.5370000000007,mp-636654,LaTiNbBi2O9,https://materialsproject.org/materials/mp-636654,17.104017418914296,57.24038772727377,-5.420855006592722,35.11182124672946
-5.5712810416666665,-33.42768625,6.715125878789152,-0.9111046133333336,0.39682340000000005,0.02340215643158364,0.0,139,6,197.6145070385897,799.14188,mp-759,La2Sb,https://materialsproject.org/materials/mp-759,-5.633546204937093,23.558071606457997,-33.21711849470554,32.06880561052844
-8.96331079586207,-519.87202616,8.363505808744947,-2.908553367456897,5e-08,8.331684245066205e-10,1.1795000000000004,176,58,699.3822875285338,3522.52352,mp-28752,Ta7Cu3O19,https://materialsproject.org/materials/mp-28752,12.312149673323734,54.49556586094089,1.4350188456792317,39.22743318559464
-6.516578198333334,-39.09946919,7.56774999279513,-3.3657849100841672,0.0,0.0,1.3244999999999996,129,6,95.80994989669847,436.64480639999994,mp-10932,ErSF,https://materialsproject.org/materials/mp-10932,-7.184113901580769,-25.971856266900566,-3.243701094204656,-20.089408547733463
-7.5861233321875,-242.75594663,6.016059159781139,-2.8181706329687497,2.999999075,0.09076775434442373,2.4043,55,32,385.18286356411386,1395.5004,mp-1210145,NdCrGeO5,https://materialsproject.org/materials/mp-1210145,-2.7503607950208875,27.672284459149623,0.3614004133647538,49.3803462585779