energy_per_atom,energy,density,formation_energy_per_atom,total_magnetization_uB,total_magnetization_T,band_gap,sgr,num_sites,cell_volume,weight,mp_id,formula,URL,tsne_xrd_lin1_0,tsne_xrd_lin1_1,tsne_xrd_lin2_0,tsne_xrd_lin2_1
-10.32081206818182,-454.115731,6.581335691221674,-3.0787865051988645,20.9605366,0.3339160185432247,1.7664999999999995,33,44,731.5475677678136,2899.3959200000004,mp-510057,Gd3NbS3O4,https://materialsproject.org/materials/mp-510057,-18.392931590146606,17.750846308715502,-15.964139585788901,50.17773634374843
-3.777390395833333,-45.32868475,5.161132666917575,-1.1072151868678162,3.05e-06,7.18295676342432e-08,1.7913,63,12,494.8505013604147,1538.0482037999998,mp-12494,CsPrCdTe3,https://materialsproject.org/materials/mp-12494,6.921513515154178,-8.728349477492994,10.151190950202523,-3.0291285769988603
-5.282267570909091,-232.41977312,8.07571401251873,-2.308124075600454,0.00016340000000000001,2.6768508688082776e-06,2.6831000000000005,39,44,711.3859819482691,3459.6896576,mp-759894,Bi7(O2F3)3,https://materialsproject.org/materials/mp-759894,6.8851011480024304,-32.766695307711736,21.239196708301908,-19.764384227225584
-3.802886936071429,-106.48083421,4.362864462669693,-1.9113065381157632,0.0,0.0,4.2078,167,28,1105.5661695723525,2904.7407114,mp-1193312,Cs3Er2Br9,https://materialsproject.org/materials/mp-1193312,-30.726556755519923,-14.875086465558514,-20.348205939375372,-8.443194086007837
-7.015246874318181,-308.67086247,5.5922139123780195,-2.545912918068181,5.0000002,0.10314811694165292,2.5863000000000005,11,44,564.9189526801812,1902.4832,mp-622558,DyFeGe2O7,https://materialsproject.org/materials/mp-622558,7.91677108205425,25.6948492434067,32.16076353712489,-1.7421127598494721
-4.798456743333333,-57.58148092,2.433608247046362,-1.0924121719047621,0.0,0.0,0.3895999999999997,189,12,290.8871420985305,426.310572,mp-1345,CaP,https://materialsproject.org/materials/mp-1345,-21.643765339407047,-37.10284676553736,-32.005623866036004,-23.392003618842825
-5.94566067,-71.34792804,5.451081495033739,-4.012550029043333,0.0,0.0,6.8673,141,12,160.78974636282032,527.82740416,mp-675798,NaHoF4,https://materialsproject.org/materials/mp-675798,-10.273136448283008,-6.297271109286639,-10.114744637520527,-2.6568772141458625
-2.0529053387234044,-96.48655092,6.917550478841227,-0.3173563591489361,1.29e-05,1.0440309804104105e-07,0.9576,2,47,1439.9710198917862,5998.698,mp-504876,Hg19(As5Br9)2,https://materialsproject.org/materials/mp-504876,17.53823343023735,-18.075924308319422,21.884249969504467,-12.941298632022393
-7.4397183659375,-238.07098771,7.142863739851403,-2.761578306093749,0.5246041,0.012155956399954176,0.0,62,32,502.944396984957,2163.4320000000002,mp-505390,Ba2ReO5,https://materialsproject.org/materials/mp-505390,10.640508506566807,27.379096804760856,2.4766827866547128,34.70467897091423
-7.052152860694445,-1015.51001194,4.67777883686935,-0.8543378918844451,1.2222222222222222e-07,7.126958300607842e-10,1.9534,159,144,1998.5885062670843,5630.0724,mp-1030015,Mg3WN4,https://materialsproject.org/materials/mp-1030015,34.96580291766016,-11.090017070593113,66.10313193844783,-21.901068253948146
-8.009728715333331,-240.29186146,6.3585027780591705,-3.3799270059166675,0.0,0.0,3.8882,176,30,551.1354269656556,2110.39672,mp-1192906,Ba4Ta2O9,https://materialsproject.org/materials/mp-1192906,-18.18265283303087,5.4701012050678335,-11.120689459029224,28.707364127188374
-5.013725665769232,-130.35686731,2.9282230283021917,-1.549497794710769,2.835e-05,1.273405247875067e-06,5.0716,14,26,259.45608191374595,457.5293056,mp-867938,SnH6(NF2)2,https://materialsproject.org/materials/mp-867938,26.575216261856703,-23.999180000803342,33.436395160475065,-33.5246902875993
-5.7715764725000005,-138.51783534,5.026419354129623,-1.9434028545733335,5.00000065,0.17607214302916854,2.2474000000000003,14,24,330.9457727693321,1001.7664128,mp-558502,FeTeO3F,https://materialsproject.org/materials/mp-558502,20.157039815961113,-12.755680037218372,43.29701253213617,-0.9903359417545984
-3.7322884325,-14.92915373,5.3287310514228015,-0.5278521384049997,0.0,0.0,0.1499999999999999,156,4,87.47108520200577,280.69794,mp-1018095,BaGaGeH,https://materialsproject.org/materials/mp-1018095,-19.151029784651204,12.464515562210062,-14.875278343201618,11.158791992372413
-4.91257995875,-39.30063967,5.6469227066751655,-0.021624112213541657,0.0155221,0.001018347813791919,0.0,121,8,177.6363206717813,604.0800899999998,mp-1239142,Mn2InCuSe4,https://materialsproject.org/materials/mp-1239142,-13.954020955498256,-26.397666011220032,-6.2924985194805325,-17.01419692437022
-7.404728713333332,-177.71348912,7.187029412477924,-2.377676088888888,0.0,0.0,3.1648999999999994,12,24,319.97615338749017,1384.8985,mp-1207659,YAg(WO4)2,https://materialsproject.org/materials/mp-1207659,8.437148216081525,25.4717475568437,32.838558558959214,-1.3265876374279353
-6.9674190259375,-222.95740883,3.7542377020461033,-1.5036228585937508,0.000250775,7.31630767216331e-06,0.0,62,32,399.456696505289,903.1136,mp-1209156,SbC2O5,https://materialsproject.org/materials/mp-1209156,24.315451087312695,-19.81545460093556,23.16029874515968,-20.581083755368482
-8.38057742,-167.6115484,7.623295849115665,-3.94379764175,0.0,0.0,4.3678,62,20,306.55196259331484,1407.33596,mp-756166,LaHoO3,https://materialsproject.org/materials/mp-756166,-23.093601662866444,20.206393355942787,-23.16170713529014,54.6656641426114
-6.610549857307693,-687.49718516,6.225011277325886,-1.9569411872115376,5.4375e-06,3.9391383520736697e-08,2.8031,14,104,1608.7014858829261,6030.6832,mp-556586,Bi2Mo2O9,https://materialsproject.org/materials/mp-556586,1.2942207065405804,-17.475280076487643,28.146757840296345,-5.8345570225000465
-5.852914724444443,-52.67623252,3.6872482634813215,-1.0611144987404215,15.0000005,0.6945435883587356,0.06740000000000013,21,9,251.6918741248777,558.8850388000002,mp-1226192,Cs2Mn3S4,https://materialsproject.org/materials/mp-1226192,4.774646144970071,17.917673622048863,-0.587900128890161,24.397962028700967
-5.539579297727274,-243.7414891,7.729301742643888,-1.6410360155681822,0.04406765,0.0007830080702572474,0.0,62,44,655.890107627836,3052.968,mvc-8934,MgBi3O7,https://materialsproject.org/materials/mvc-8934,6.695719359209325,26.865726250477532,33.669549051200384,-5.113482699496647
-6.28577946,-50.28623568,6.503622495144132,-0.0752654399999999,16.5049246,1.0359462522448684,0.0,164,8,185.67513511226826,727.210235,mp-1221907,Mn3CrTe4,https://materialsproject.org/materials/mp-1221907,-26.744449649411955,-36.37903683471748,-36.453898884219406,-17.384608604895767
-5.860884661666668,-140.66123188,4.823287633584547,-1.932601822994792,1.5e-07,3.0832407867068627e-09,1.7775,173,24,566.9715201682542,1646.85482,mp-510566,La3CuSnS7,https://materialsproject.org/materials/mp-510566,8.991165430844283,-5.139218227253583,13.620944446115473,6.801591010078457
-5.4950174785714285,-346.18610115,3.0856666562964015,-1.873584111397144,1.0000014000000002,0.012111138861062605,0.04959999999999986,1,63,962.2613712834494,1788.1047999999996,mp-1224553,K8Cu9S8(ClO18)2,https://materialsproject.org/materials/mp-1224553,5.625473394615958,31.504548832541147,30.317098530100587,-2.9529842315958
-2.9897381411111112,-53.81528654,3.8568582387399566,-0.31607198352452115,0.0,0.0,2.2809,127,18,439.3043276798453,1020.3521114,mp-643006,Cs3H5Pd,https://materialsproject.org/materials/mp-643006,10.863590810627398,-21.044992320402788,16.33392322242254,-15.224957592781054
-7.407155183863638,-325.91482809,3.1685748790669463,-2.8589284848214285,3.999999825,0.08359536707587224,2.5135,14,44,557.6416335186125,1064.069696,mvc-1338,CaCrP2O7,https://materialsproject.org/materials/mvc-1338,3.3322922607565864,27.645505985343718,31.55652138200221,-1.3953360250812232
-6.5498869499999985,-130.997739,2.99051961566135,-2.331352473678572,0.0,0.0,2.2336,15,20,253.68064149038327,456.86184800000007,mp-25975,LiCu(PO3)2,https://materialsproject.org/materials/mp-25975,51.95747133930982,-4.903301590529245,67.14491662478959,-16.908206897943057
-4.393483478,-21.96741739,3.8433932978586,-1.1302292157500005,0.0014315,6.23050645455718e-05,0.0,123,5,267.7598337084926,619.7423400000001,mp-1210842,Lu2I2O,https://materialsproject.org/materials/mp-1210842,6.993836124235172,-23.23520540022161,17.08962222448373,-18.272040239562536
-4.474294565666667,-268.45767394,3.0719592247572947,-0.4151020452559995,2.5e-08,2.4701144739031864e-10,2.8443,33,60,1179.506546729427,2182.06012,mp-1200236,SnH8C2I3N,https://materialsproject.org/materials/mp-1200236,31.44351351580216,-14.462287970958553,42.248501358528436,-29.725892619696246
-7.249800085416666,-173.99520205,8.207522852672787,-2.3885146176388887,0.0,0.0,3.1692,12,24,312.57402555100344,1544.9552199999998,mp-1208042,TmAg(WO4)2,https://materialsproject.org/materials/mp-1208042,9.069487197620964,26.169756953441272,33.87915066422646,-1.2788154449487064
-6.82636542625,-273.05461705,8.687172278299103,-1.941519402596,5.0,0.101726436070109,2.2459,62,40,572.8139716075284,2996.69778,mp-1194656,MnPb2WO6,https://materialsproject.org/materials/mp-1194656,-20.93753530161011,29.57652272523942,-21.58856017369284,54.970543624860014
-5.708663757631579,-433.85844558,2.6807585680861643,-3.318528494589473,9.999998575,0.1061534137331376,4.5305,198,76,1097.8509971570934,1772.3602975999993,mp-15266,K2Mn2Be3F12,https://materialsproject.org/materials/mp-15266,5.25533348069729,-23.94626250330229,-6.438447688399483,-33.46388352290527
-5.5900660285,-111.80132057,3.719124031549102,-1.52725620975,3.02820225,0.17836763738432468,0.0,52,20,197.8546427111695,443.1368,mp-756941,LiFeO3,https://materialsproject.org/materials/mp-756941,6.994665078358003,-25.201931586654894,21.07090218230611,-20.90489462966349
-5.187193452,-77.80790178,2.2041494486756155,0.7879122385053345,4.9999998,0.2326890759278781,0.0,107,15,250.42138871206132,332.4018,mp-1209176,RhN7ClO6,https://materialsproject.org/materials/mp-1209176,38.83369246378786,-39.5223300514992,34.57996780001213,-62.85378445353618
-3.808251125263158,-72.35677138,5.948637707838378,-0.17818147394736847,0.0029091,5.377906621592129e-05,0.009199999999999877,160,19,630.4096038732719,2258.35,mp-1219067,Sn5Ge2(SbTe5)2,https://materialsproject.org/materials/mp-1219067,-22.431518438938014,-36.61870015319752,-32.87100436499995,-22.627836004226257
-4.706353542,-47.06353542,5.52069892941249,-1.106749428,0.4386473,0.013081398553761545,0.000399999999999956,12,10,390.7857424799938,1299.22295,mp-28736,Pr4RuI5,https://materialsproject.org/materials/mp-28736,-0.10810861449232943,-14.732105510120052,19.73658806011178,-14.104299525519268
-5.11524669625,-163.68789428,6.173935858873572,-0.9557837966145836,0.0,0.0,2.0351,14,32,888.4731182085375,3303.37072,mp-558241,TaTl2AgS4,https://materialsproject.org/materials/mp-558241,9.831195312594083,26.801037148368074,29.310685518694633,-7.394327583515077
-7.048555197000001,-211.45665591,5.550148794643906,-2.276967218785714,4.00000005,0.11893274048751976,2.7654,43,30,391.9548097677418,1310.061048,mvc-9050,ZnP2(WO5)2,https://materialsproject.org/materials/mvc-9050,30.28159896779932,-27.843879810391865,50.30537498769004,-32.182117849045845
-4.118765791,-41.18765791,5.333308110802262,-2.4165050727829653,0.1667843,0.011291943207087379,0.0,225,10,172.13290924329624,552.8553191999998,mp-1113834,Rb2TlCuF6,https://materialsproject.org/materials/mp-1113834,-18.497598892842536,-49.33111869625513,-25.28677914478931,-8.451226382787873
-5.434103368500001,-217.36413474,2.7737804494991227,-3.3946208190390004,1.000000125,0.02211773087806172,1.4668,14,40,526.9105720459463,880.1565083200002,mp-1199631,NaCaAlOF6,https://materialsproject.org/materials/mp-1199631,11.219329326969676,-16.683906820939182,8.623103429406472,-12.125503710810534
-3.4637603633333334,-41.56512436,2.7143269172748705,-1.2232848605369977,0.0,0.0,1.5903,189,12,431.41701533090895,705.1967999999998,mp-9062,RbS,https://materialsproject.org/materials/mp-9062,6.572468994244487,-27.86003494903457,19.8900709882938,-19.60455593925181
-6.9110698323076925,-539.06344692,5.45970479467087,-3.1301523370192315,1.7254871833333334,0.011703645204142951,0.0,14,78,1718.1774607854584,5649.2148,mp-778589,Ba4Ce2O7,https://materialsproject.org/materials/mp-778589,1.2281956732785808,-15.911919549602285,28.07815492753859,-7.467156840420034
-8.933090472,-44.66545236,9.29219239203442,-2.09024016667075,0.0,0.0,1.3857999999999997,164,5,102.04804008859443,571.04952,mp-7768,Th2SeN2,https://materialsproject.org/materials/mp-7768,-30.50575095576525,-16.31566224669227,-32.639248168808834,-19.425690241452592
-4.60785165,-36.862813200000005,3.4112893909400395,-1.2154824285829742,5.0000002,0.2303643466233425,0.4284000000000001,5,8,252.9485445457685,519.6389038,mp-1229172,Cs2GaFeS4,https://materialsproject.org/materials/mp-1229172,14.914897552154226,-10.101881641366877,10.913726117298767,-20.592771819669505
-4.298526776428571,-120.35874974,3.0272073586304797,-0.055785324732143336,0.0,0.0,1.8398,176,28,519.0580532204876,946.2568,mp-1193601,BaBr2O11,https://materialsproject.org/materials/mp-1193601,9.616924511227474,-33.88782235933183,11.2349589958807,-33.670485478869445
-6.182758002142857,-346.23444812,5.514993227348289,-2.3959890375367863,0.0009203,1.0961140136017747e-05,1.5028000000000006,5,56,978.4781215362906,3249.728,mp-683957,Nd4CuTe5(ClO5)3,https://materialsproject.org/materials/mp-683957,8.192534551539685,27.985418466215172,31.151094407583322,-5.212060208725494
-3.5704618910000003,-35.70461891,5.496743462617181,-0.3299159315000004,0.00031099999999999997,1.2393671887721065e-05,0.055500000000000334,160,10,292.44070499049803,968.0419999999999,mp-1222750,Li2GeSb2Te5,https://materialsproject.org/materials/mp-1222750,-26.32346077880797,-39.850069986589105,-35.4776514889324,-23.01591214605332
-4.770703721428571,-100.18477815,1.5611058726751457,-1.5160671501171423,0.0,0.0,4.8687,12,21,216.25185260377117,203.30268,mp-696845,MgH12(ClO3)2,https://materialsproject.org/materials/mp-696845,12.307809044154967,2.706708290571138,60.8862953911531,57.96210385084527
-6.606940029285715,-369.98864164,8.636782365265907,-2.141682215947143,0.0,0.0,1.6244,60,56,907.7285981522516,4721.27072,mp-23602,TaBi4ClO8,https://materialsproject.org/materials/mp-23602,16.879024973711413,56.8577747254001,-5.710054488690842,32.181920869409154
-3.3236951739999996,-33.23695174,5.982770498641753,-0.3706127884827588,0.0038751,0.00010295587487532516,0.5383,63,10,438.6409853234074,1580.3834076,mp-1080693,Cs2Bi2Pd,https://materialsproject.org/materials/mp-1080693,5.3769130014367645,-5.799908841048652,2.8077344295966102,-15.743261419558186
-6.242821942777778,-112.37079497,4.55955108600904,-1.5896301991666684,2.0000001,0.120573940256268,0.0,31,18,193.30985336455564,530.7952,mvc-2104,ZnCr2O6,https://materialsproject.org/materials/mvc-2104,-5.554183793690331,47.53675400830139,7.79716388594092,38.41782313774688
-7.497266634166666,-179.93439922,4.8911860841580275,-2.13758770498698,3.9999997000000005,0.11005798828671744,1.3903,5,24,423.5608547793646,1247.6159300000002,mp-1217862,SrU3(SeO9)2,https://materialsproject.org/materials/mp-1217862,30.20511445751864,-21.71863258475293,46.91861554262179,-30.891112957724232
-7.129551719615384,-370.73668942,4.605708793447416,-2.9139264416666677,0.0,0.0,3.7131,100,52,859.2317876381544,2383.1848,mp-6289,Ba2Ti(GeO4)2,https://materialsproject.org/materials/mp-6289,5.879316629991847,27.510831724113174,69.25996844468554,-22.83361663098446
-3.192741114375,-51.08385783,4.299703881693128,-0.6366837224999999,0.02802995,0.0005324917996146186,0.0,140,16,613.4608140595328,1588.46,mp-17720,Sr5Sn3,https://materialsproject.org/materials/mp-17720,4.841761115249547,27.39330486249299,30.56594177877565,-1.9081613867196259
-6.235650950972222,-448.96686847,2.781823565926559,-2.4738641727455564,4.999993975,0.0731807974317056,0.8266999999999998,88,72,796.2505970427237,1333.9214688,mp-770591,Li3MnAlO4,https://materialsproject.org/materials/mp-770591,-5.611646433317914,-7.638268312121222,5.077303081395673,-37.70757999008686
-6.737662390434783,-309.93246996,4.2130522447770575,-2.1259172396701644,0.0,0.0,3.0764,15,46,789.4665990114268,2003.0026076,mp-1200365,Cs2Mo5O16,https://materialsproject.org/materials/mp-1200365,17.90612984945821,-19.1676824848159,27.930560602830898,-12.868681232096534
-4.714474672045454,-207.43688557,3.5357154339447305,-0.8572046198863642,7.999999775,0.15123695418371327,0.0,62,44,616.4664982941928,1312.616,mvc-9192,CaNi3O7,https://materialsproject.org/materials/mvc-9192,39.006283578943524,-39.135436867083186,36.610510555943755,-56.974555979977815
-8.014363636052632,-304.54581817,5.6568902069348495,-3.2767226636207885,20.000000699999998,0.4064393032264825,1.9965,87,38,573.4713689319509,1953.62138,mp-1199104,Ba5Y8Mn4O21,https://materialsproject.org/materials/mp-1199104,-6.8253285376956585,34.83634319620707,-2.4911444434773697,50.0591368712254
-5.411455004444445,-97.40619008,3.223798224375037,-1.8171444888947224,0.0,0.0,4.2653,15,18,184.902993713618,358.97376,mp-643066,ZnH2SO5,https://materialsproject.org/materials/mp-643066,20.9495819898065,-7.633294239454429,15.7961484911395,-18.994641412879442
-3.06341981,-21.44393867,4.6770435511377455,-0.528399725812808,5e-07,2.0288774109902407e-08,0.2570999999999999,12,7,287.20475444772325,808.9356,mp-31002,Rb2Te5,https://materialsproject.org/materials/mp-31002,11.8551257575389,-20.170554625236512,18.1091811302,-15.331006328374247
-3.5024403616666664,-84.05856868,3.8521344583415016,-0.9829929830890805,0.999999925,0.01947245202542161,1.2837,92,24,598.4897989883482,1388.3824,mp-1192212,Rb3NiO2,https://materialsproject.org/materials/mp-1192212,-28.66926954991441,30.11797297262172,-18.97268106049476,40.17685581749356
-5.3000661625,-42.400529299999995,4.688601259389372,-1.396711566875,3.00000585,0.21623990507992585,0.0,227,8,161.68274991165654,456.51799000000005,mp-1232313,BaCoO2,https://materialsproject.org/materials/mp-1232313,-21.61154493185972,11.516210429511435,-28.625001055550214,47.93595943550315
-7.0629926056,-353.14963028,5.321504088469227,-2.47016630512,0.0,0.0,4.727499999999999,88,50,820.8904476042252,2630.69507424,mp-1200418,Na4Th(WO4)4,https://materialsproject.org/materials/mp-1200418,29.371602721370298,-20.364610011811774,39.08974067641494,-6.975541797143651
-7.539487140999999,-150.78974282,4.1747931302639785,-2.5996920507999994,0.0,0.0,4.3865,15,20,260.9663903536497,656.1006199999998,mp-1211338,KTm(CO3)2,https://materialsproject.org/materials/mp-1211338,31.21699112495606,-18.064434667171977,43.58751094734119,-29.400386845497962
-5.980713345000002,-143.53712028,5.777121868778777,-1.850899930703126,0.0,0.0,0.2875000000000005,173,24,481.46453198914674,1675.0459999999996,mp-1192184,Dy3GaFeS7,https://materialsproject.org/materials/mp-1192184,10.09449535711968,-20.08487527685581,12.29525921463042,-12.04247008910232
-6.4083634252173916,-294.78471756,3.629808494782925,-1.4360497007140176,3.9999998,0.0727879198703562,0.023400000000000032,148,46,640.4394691104626,1399.9506,mp-1179787,RbCd6C12BrO26,https://materialsproject.org/materials/mp-1179787,27.015753370778988,-21.061408819837663,22.41622578405385,-44.999389619399615
-10.2274214375,-40.90968575,8.03267088691271,-0.31633392437499985,6.9767741999999995,1.6374259431405287,0.0,38,4,49.65585086210233,240.204595,mp-1018146,GdCoC2,https://materialsproject.org/materials/mp-1018146,-36.227818739593246,28.709965006208588,-40.12618871578567,35.647485673429564
-4.6282654475,-37.02612358,4.175366539898643,-1.08288316640625,0.0,0.0,0.7172000000000001,121,8,165.28847105941338,415.612,mp-1147586,SrCu2GeS4,https://materialsproject.org/materials/mp-1147586,-17.279960983456945,21.673540275315922,-20.94126596551744,44.81516676001316
-6.983623452857144,-195.54145668,4.902117040656608,-2.9199048414285715,0.0,0.0,3.4916,62,28,438.25794039457014,1293.7917544000002,mp-1192378,AlTlSiO4,https://materialsproject.org/materials/mp-1192378,3.216345788002253,0.0046693028369369964,20.59151429883354,-22.854721198432607