energy_per_atom,energy,density,formation_energy_per_atom,total_magnetization_uB,total_magnetization_T,band_gap,sgr,num_sites,cell_volume,weight,mp_id,formula,URL,tsne_xrd_lin1_0,tsne_xrd_lin1_1,tsne_xrd_lin2_0,tsne_xrd_lin2_1
-5.122935470775863,-594.26051461,1.7521078522790852,-1.352430208696748,4.9999997,0.05177445016980982,3.1616,120,116,1125.4647837971056,1187.527446,mp-1229196,CoNiP4(H8O5)4,https://materialsproject.org/materials/mp-1229196,29.66199782818084,-37.059335126877315,6.942042465623201,-37.307764906407144
-2.8650731475,-11.46029259,4.794619044583245,-0.6746365891666666,0.0,0.0,1.3112,63,4,134.87765344451282,389.444,mp-22870,InBr,https://materialsproject.org/materials/mp-22870,1.9111345195045923,28.18604615278163,-6.464564915072758,29.910953604653827
-9.02112784076923,-469.09864772,6.858914789409312,-3.1638708724999995,0.9051971999999999,0.012462793790468428,0.2551,14,52,846.4576224319576,3496.3229200000005,mp-1202033,U3O10,https://materialsproject.org/materials/mp-1202033,29.92722508211123,-19.994231492513386,45.26842099579403,-28.320197100132717
-0.928948795,-7.43159036,1.6694147853973016,0.05729807068965497,0.22483179999999997,0.003383187408557583,0.0,194,8,774.478042068709,778.6177038,mp-1183963,CsRb3,https://materialsproject.org/materials/mp-1183963,3.7031035035624,-28.58984186583274,-8.658012088983245,-33.44316561741698
-5.113361062,-51.13361062,8.739474431118632,-1.2683559338593746,0.0038299999999999996,0.00016381507772313738,0.0,12,10,272.47228215671953,1434.03105,mp-1216721,Tm5Te4Se,https://materialsproject.org/materials/mp-1216721,-26.669557787485914,-37.5498695037846,-59.91878584211423,14.70766509911841
-3.100785570833333,-37.20942685,5.668718038458485,-0.2187767066666666,0.0,0.0,0.7475999999999998,15,12,337.7434734130819,1152.98254,mp-27577,Cd2As3I,https://materialsproject.org/materials/mp-27577,5.228455524328419,20.200309886095237,17.985936900105454,-14.984509136663913
-6.258919108684211,-475.67785226,4.293541298691904,-2.419412122447369,2e-07,2.292596304973564e-09,3.2745999999999995,11,76,1016.6695939688409,2628.732468,mp-16382,KCd6P7O24,https://materialsproject.org/materials/mp-16382,7.553630478899032,29.174462932686726,31.769410025818573,-4.3111929469569015
-6.2065964299999985,-62.06596429999999,6.530175978457152,-0.902138568,0.00019385,7.858687100584501e-06,0.0,148,10,287.4704676806218,1130.496,mp-1215634,Zr2Te3,https://materialsproject.org/materials/mp-1215634,-13.787303138299126,22.36799048521205,-0.5205569555697466,-1.0081384624954628
-8.419626594642857,-235.74954465,5.938542080281768,-3.4638575491964283,4.5e-07,1.3058013854867163e-08,2.1118,36,28,401.6176737090168,1436.2947199999999,mp-510544,SrSm2Nb2O9,https://materialsproject.org/materials/mp-510544,21.01608676551596,58.72372158970151,33.20533133506755,-4.381057972640332
-5.405220929411764,-275.6662674,4.09399517133066,-1.424932804607843,0.9998925999999999,0.008218415863270571,0.02950000000000008,160,51,1417.8904207173828,3495.754328,mp-1219646,Sc19(RuBr7)4,https://materialsproject.org/materials/mp-1219646,-28.22166320547571,-19.821540472469106,-5.282571406441504,-2.3501930268017794
-8.152862901111114,-73.37576611,7.258729450406582,-2.7224266259722234,8.9999974,0.79025033415709,0.0,71,9,132.72573021350846,580.185195,mp-541429,BaEu2CoO5,https://materialsproject.org/materials/mp-541429,-13.46962074826607,36.72101803290085,-4.670107070881019,44.232304151404314
-8.29216027,-49.75296162,5.31341280093491,-2.1660001683333334,0.0,0.0,3.0102,12,6,104.32835947550844,333.83114,mp-27311,LaCO,https://materialsproject.org/materials/mp-27311,11.101588080880749,20.885284990700328,27.288030212207662,-4.374017073684117
-8.127145468333334,-1267.83469306,6.492095288472611,-3.5901874717948727,0.0007541000000000001,3.238241770975609e-06,1.8876000000000004,47,156,2713.920351394744,10610.42776,mp-1182635,Ba8CaY2U4O24,https://materialsproject.org/materials/mp-1182635,-20.125950801412785,6.404204482862974,-12.382173529585607,29.56106680895691
-6.1979004030769245,-161.14541048,1.815568678306352,-1.3373927189102572,3.9999991,0.11495211795299062,1.8453,13,26,405.52753121646765,443.388,mp-1237269,Ca(BO5)2,https://materialsproject.org/materials/mp-1237269,39.727860632571954,-40.24164653947162,28.950250303821736,-53.341638061977825
-4.0617867755,-81.23573551,5.010324703805664,-0.6535719454999999,0.0,0.0,0.1538999999999997,10,20,499.66617186289545,1507.6368,mp-972120,Sr(GaAs)2,https://materialsproject.org/materials/mp-972120,-0.10682594783947613,-13.297278440074455,-0.162387733803706,-0.9421611234860344
-5.169271133888889,-93.04688041,6.138589958745567,-0.3817837556874074,0.0001395,4.307322945824631e-06,0.9268999999999994,15,18,377.4367643707828,1395.2876,mp-1246205,Ba3(InN2)2,https://materialsproject.org/materials/mp-1246205,9.654748737063203,-17.656369310164163,18.275434850455483,-15.452042415665607
-3.9871195091666665,-47.84543411,4.03435291621063,-0.4890886233211109,0.0,0.0,2.8625000000000003,11,12,170.66477240633077,414.6376,mp-1101933,AgClO4,https://materialsproject.org/materials/mp-1101933,5.951554541868862,-28.04473900935052,18.513239017284427,-16.12497336382418
-5.00452442,-60.05429304,1.6209152471552872,-0.5269449681299996,0.0,0.0,1.964,62,12,268.2370747367041,261.8364,mp-505727,NClO,https://materialsproject.org/materials/mp-505727,6.487241211601255,27.758393582389694,65.5078942083677,-48.95281916788114
-5.6708384978125,-181.46683193,7.52740839858826,-1.66196587828125,0.0,0.0,2.4243,39,32,551.9897917967777,2502.2312,mp-23334,Bi2TeO5,https://materialsproject.org/materials/mp-23334,-10.202327234511603,-28.88120546727057,-1.0600791678391763,-28.755913519164782
-3.571164141666667,-42.85396970000001,4.595263044958768,-0.5342228096875002,0.000168075,4.827183812632509e-06,1.6956999999999995,33,12,405.7763310197547,1122.91788,mp-1095595,SbSI,https://materialsproject.org/materials/mp-1095595,4.547580198625915,22.258682145210518,-0.7057290339764652,-2.5440676662845614
-5.413626042279412,-736.25314175,7.581609429878751,-1.6455907544411772,0.0,0.0,2.2881000000000005,230,136,2740.192235930308,12511.03816,mp-558501,KBi6IO9,https://materialsproject.org/materials/mp-558501,-18.944498154734333,6.798658940773161,-16.931189230821868,37.06601401459027
-5.085476346666667,-30.51285808,5.952641708776977,-0.3513008264583342,3.3453904000000003,0.2533969500427557,0.0,123,6,153.85898056200372,551.5482400000002,mp-1212352,Ho2FeAs2O,https://materialsproject.org/materials/mp-1212352,-4.270254275682022,-27.024377857141342,-9.096666321257812,-28.26876169337736
-6.31441921,-25.25767684,9.440576075083843,0.21432788750000054,3.53284335,0.4434569592316739,0.0,194,4,92.84324977905558,527.83689,mp-568382,MnBi,https://materialsproject.org/materials/mp-568382,-22.580160718795625,-36.88063946229026,-35.722575921322495,-18.20810948810832
-7.376026886730768,-383.55339811,2.6682074871031767,-2.9071023014688344,0.0,0.0,4.864000000000001,31,52,617.1670554802174,991.6838560000001,mp-1020621,RbBe2B3O7,https://materialsproject.org/materials/mp-1020621,8.883007064033233,5.019497384486737,32.86904701209069,-12.80384747625274
-6.623003734090909,-145.70608215,3.1923488570681373,-2.5485592842738964,0.6108412,0.027034729254360918,0.0,12,22,263.3199261427696,506.2266198,mp-696776,BaAl3P2(HO7)2,https://materialsproject.org/materials/mp-696776,27.55464418133921,-22.7025815845118,39.227089601139475,-19.861111474003003
-4.0345242064999995,-80.69048413,4.99619229164321,-0.186173839251488,0.0,0.0,1.2829000000000002,148,20,566.7126663883735,1705.1122480000001,mp-569126,AgBi(PSe3)2,https://materialsproject.org/materials/mp-569126,-19.111955127399444,20.42256134394412,-14.091964629506768,-8.676938239869923
-3.708153689,-37.08153689,4.421791612220021,-1.038214663574713,2.0000001,0.05526978879465805,0.0,194,10,421.7155740746859,1122.9717238,mp-567698,CsTiI3,https://materialsproject.org/materials/mp-567698,-17.640000225953237,-35.91482522396033,-15.163843734065475,-29.91837257845114
-2.528649445555556,-45.51569002,3.6264970685354183,-0.2889071907467431,0.0,0.0,2.7492,140,18,429.65256911582435,938.3301114,mp-643702,Cs3ZnH5,https://materialsproject.org/materials/mp-643702,10.18182235959141,-26.91726264557314,26.5649823775757,-12.985022613394749
-5.472926806,-109.45853612,7.0799725887865925,-1.5683002792500005,0.0,0.0,2.6902000000000004,76,20,359.12645003653574,1531.1927999999998,mp-555021,TePbO3,https://materialsproject.org/materials/mp-555021,-9.230869554200039,-25.389112603788643,-2.405100879465099,-27.94204300560561
-7.110224201666667,-213.30672605,3.7877648276297617,-2.482401655744253,4.00002795,0.08665212008172697,2.3316,122,30,537.9739673695483,1227.1430076,mp-28948,Cs2V4O9,https://materialsproject.org/materials/mp-28948,9.90881316625852,-21.799723838616114,30.558012605730358,-8.534799970854536
-6.658811875,-53.270495,6.182372861790661,-2.3495486729687496,1.6e-06,1.038884444163874e-07,0.0,12,8,179.48582964010777,668.24585,mp-1219140,Sm3YS4,https://materialsproject.org/materials/mp-1219140,-28.21336432704951,-20.12024142954673,-56.35875668048865,14.379017753814493
-2.961580505,-41.46212707,5.732188170642227,-0.6803900892795569,7.859999999999999e-05,1.957808570026421e-06,0.6269999999999999,71,14,467.87490112520555,1615.106245,mp-510076,Rb7Au5O2,https://materialsproject.org/materials/mp-510076,-16.17548404092732,22.222810433751093,-5.8278694615665065,32.289181503123444
-6.990001682999999,-139.80003366,3.9587064338165376,-2.3451406338,1.0000001,0.041822447929314936,0.0,15,20,278.6557582105899,664.3122,mp-9805,KYb(CO3)2,https://materialsproject.org/materials/mp-9805,31.422135169168914,-17.435408858118066,43.80462595706419,-29.236225165486875
-6.88352284,-165.20454816,3.679523260367236,-2.1902682268678157,0.0,0.0,3.4146,62,24,532.3494333841734,1179.6122076,mp-27250,CsTcO4,https://materialsproject.org/materials/mp-27250,7.906564536482702,-25.90590105021522,-1.4193181660626217,-31.4728843456464
-7.2945183093617025,-342.84236054,3.2452001285359486,-2.404518515851065,0.0,0.0,1.8144,8,47,602.3822597605623,1177.2388,mp-1223290,Li2CaV12O32,https://materialsproject.org/materials/mp-1223290,34.35255421123886,-36.3527124282383,38.10418266912386,-50.06350612434361
-4.00399572,-512.51145216,4.2557765291251455,-0.6480683875289923,7.62625e-05,3.018486718170489e-07,1.1551999999999998,61,128,2944.416184994903,7546.210592,mp-1195102,RbAg5(PS4)2,https://materialsproject.org/materials/mp-1195102,0.2438137050154336,-15.78326740758309,20.452879371353713,-14.068493251058323
-8.88627613,-284.36083616,5.666620555769968,-3.7740449088020838,1.97485025,0.048113207420798734,0.0,62,32,478.3516619109577,1632.3840000000002,mp-768309,Ce2TiO5,https://materialsproject.org/materials/mp-768309,20.583402578272718,58.354872382094726,-1.6414785433208432,36.36990488983514
-5.360881985000002,-107.2176397,3.1858582436770453,-2.5777510645320003,0.0,0.0,3.0416000000000003,102,20,314.942881455628,604.23955776,mp-706271,K2NaMo(OF)3,https://materialsproject.org/materials/mp-706271,-4.216581177824761,-1.7973214387931225,6.6993598953906845,-38.41788639540755
-5.861289396363636,-257.89673344,5.494185747432669,-1.9002639455681831,5.455e-05,1.0483964333358694e-06,0.0,62,44,606.3824838857172,2006.3232000000005,mvc-8941,MgSb3O7,https://materialsproject.org/materials/mvc-8941,18.694535985452376,58.77583597342608,53.06799650404468,-10.728315093259539
-4.864102802857143,-34.04871962,5.927643128705744,-1.4665537864285716,0.0023094,0.00010973983696163655,0.5794999999999999,10,7,245.251842274543,875.4780000000001,mp-1227401,Ca(DyTe2)2,https://materialsproject.org/materials/mp-1227401,-23.708168889424467,-37.78757148415817,-33.30263997432117,-24.11245471929669
-6.748070287857144,-94.47298403,4.1002469623004165,-3.0105680943923296,0.0,0.0,4.8781,164,14,229.21149653932358,565.9750958999998,mp-573324,CsK2Ho(PO4)2,https://materialsproject.org/materials/mp-573324,-15.306889048295526,18.02592291391893,-12.83374667319801,-8.79538986467584
-5.92218517953125,-379.01985149,6.208695841658282,-1.6813287325,0.9998606,0.013401184678492864,0.7603999999999997,61,64,869.5082170333068,3251.06,mp-1244728,ZnCrBiO5,https://materialsproject.org/materials/mp-1244728,4.58934652953981,30.144882883118925,35.61517452005866,-6.267974256124736
-7.3268824225,-87.92258907,5.2695386696026025,-3.1210740026041663,0.0,0.0,1.484799999999999,64,12,235.672067636341,747.8794800000002,mp-28626,LaSO,https://materialsproject.org/materials/mp-28626,-20.70502270263381,13.964041238982253,-16.911621987635446,37.99647792095905
-6.8543321698,-342.71660849,3.9454220352742864,-2.4658711589199998,0.0,0.0,3.9494,88,50,811.239150480566,1927.49507424,mp-560175,Na4Th(MoO4)4,https://materialsproject.org/materials/mp-560175,25.951259426325983,56.712497844853104,39.19261586036977,-7.017644949936874
-4.8656734025,-58.38808083,1.9282927679478203,-1.029744790565476,8.5e-07,3.0886939476975205e-08,2.8213,112,12,320.7166273000333,372.4306012,mp-1102285,AlPS4,https://materialsproject.org/materials/mp-1102285,-16.19308413167819,-1.3371717986788343,5.551107806005571,-41.01896503936451
-7.017428312000001,-70.17428312,2.4811893154127507,-1.0235343636206893,0.12648210000000001,0.007247972742193475,3.8413,82,10,203.3714306606625,303.87904689999993,mp-540895,CsCo(CO)4,https://materialsproject.org/materials/mp-540895,3.86354409646912,-33.81670622646116,47.06726541589713,-27.849220877000555
-6.774536333333334,-40.647218,7.049762134906138,-3.164609710813334,0.0,0.0,2.1803,115,6,86.65287891561,367.88185640000006,mp-1215909,YBi(OF)2,https://materialsproject.org/materials/mp-1215909,-13.24104661381019,-24.399811580096806,-10.90679670331891,32.652156116842605
-6.85350797,-20.56052391,2.8195899491501137,0.2389047096233329,0.0,0.0,2.546,160,3,52.7465074487035,89.5634,mp-35308,CuCN,https://materialsproject.org/materials/mp-35308,-20.70265485720544,11.57893940710144,65.93418175204438,-43.791672112411625
-6.1559940175,-344.73566498,2.9707585690966174,-2.2524158617300003,0.0,0.0,4.2352,14,56,849.296917480883,1519.4199199999998,mp-772193,La(HO)3,https://materialsproject.org/materials/mp-772193,36.98572209769179,-33.80187583938673,24.15282907468061,-51.32858729690154
-5.793471627727272,-254.91275162,4.516232983959731,-1.6671615373863644,3.000000125,0.061556629846335975,1.4025,14,44,567.9679973012397,1544.72478,mvc-7970,ZnCoAs2O7,https://materialsproject.org/materials/mvc-7970,7.563570977398112,28.835584779513283,31.898100143169614,-4.675053570068541
-5.433108003666666,-162.99324011,2.96288255065965,-1.5999499917778328,0.9999899,0.032805532983197806,0.0,14,30,355.2433387524707,633.8569972,mp-699431,AlH4(SeO4)2,https://materialsproject.org/materials/mp-699431,23.102521334547518,-20.246684672386216,35.972982667570484,-30.300169434569828
-3.8525467175,-15.41018687,4.643219179409462,-0.44746768340499976,2e-06,2.7599526534096603e-07,0.5840000000000001,156,4,84.45119345190359,236.14344,mp-1008506,BaGaSiH,https://materialsproject.org/materials/mp-1008506,-18.242386011865,12.47630492395984,-21.14351084575989,-8.548646027976499
-8.513174748571428,-119.18444648,6.6744066833187725,-3.843824923125001,0.0015243000000000001,8.372414369512069e-05,1.9558,119,14,212.17644216823464,852.8266000000001,mp-676077,Ce3Nd2O9,https://materialsproject.org/materials/mp-676077,30.289881020767318,63.18289811206711,-10.866715251511335,33.54457606746665
-4.60131487,-101.22892714,4.30426408412278,-3.032881478813699,0.0,0.0,4.3869,127,22,466.29980979678976,1208.6903562,mp-17973,Cs3GeF7,https://materialsproject.org/materials/mp-17973,10.1998443181318,-19.094962647126714,14.945671162731148,-14.012195784929784
-9.04280108181818,-99.4708119,7.76458621183677,-4.11026497784091,0.0,0.0,2.9261,115,11,182.61189790839327,853.8828599999999,mp-753156,La2Th2O7,https://materialsproject.org/materials/mp-753156,-11.891005211153125,-28.008874695684053,-1.3651842643702057,-28.035392828854803
-7.172493467777778,-258.20976484,6.084106815658157,-1.987020009618056,3.999999975,0.08575683286833152,0.05580000000000007,14,36,543.5865252913475,1991.6656,mp-555672,Pu(SeO3)2,https://materialsproject.org/materials/mp-555672,13.33950766693496,11.351796328091742,48.452714851076784,0.6545838903917199
-4.91660458,-24.5830229,7.404747658227403,-1.3564630254999996,0.0,0.0,1.5626000000000009,107,5,109.40494442331766,487.86327,mp-1219447,SbPbIO2,https://materialsproject.org/materials/mp-1219447,-16.212713379406413,24.90074995173481,-20.19139358816943,53.91919270106576
-4.8341111219999995,-24.17055561,6.325109674530912,0.2996157060000001,4.0225001,0.32946612419227445,0.0,123,5,142.28618140318991,541.9780450000002,mp-1221564,MnSb4,https://materialsproject.org/materials/mp-1221564,-25.78118244464159,-38.64841109411175,-34.82901705043376,-23.440838519748173
-4.630254561875,-148.16814598,2.831452714117212,-0.5053773448833612,0.0,0.0,2.2971,62,32,389.31344758513677,663.8342076,mp-1184037,CsH5N2,https://materialsproject.org/materials/mp-1184037,9.320017490750363,-20.295772049485407,19.592581534449387,-17.301463108642366
-5.550918945,-199.83308202,5.602739851812878,-1.7363708497222232,0.0,0.0,0.6031000000000004,14,36,580.8111981753916,1959.6853600000002,mp-778759,Ce(IO3)2,https://materialsproject.org/materials/mp-778759,9.956329560937329,19.369324845754022,26.28619517048729,-7.387435341145031
-5.571060781818181,-245.12667439999998,5.174634766728069,-1.7978284838636371,0.025232175,0.0004081470567112584,0.0,10,44,720.469245011831,2245.1536,mp-615789,Ba2(CuO2)3,https://materialsproject.org/materials/mp-615789,7.711584002318817,28.133935602580486,31.459316460453056,-5.337903831253887
-4.577065892857143,-128.157845,4.996147025445431,-1.0702096882558505,0.0,0.0,0.11840000000000027,148,28,1063.7872680749113,3200.6700638,mp-571150,Cs2Zr7CI18,https://materialsproject.org/materials/mp-571150,2.7763248756340784,-10.856210916604416,3.077722706193959,3.2476401626707947
-6.254336073928571,-175.12141007,3.93474970520545,-2.6815574072614283,2.00000175,0.04802805836054703,2.5948,14,28,485.30277374026383,1149.954864,mp-1212491,HfNF5,https://materialsproject.org/materials/mp-1212491,38.591792247185055,-37.74623609707854,44.96900318743762,-34.01323928468446
-7.257863148125,-116.12581037,3.0809074989387124,0.9777537770366383,0.28956575,0.01218285142080318,0.0,221,16,276.9973867244577,513.9315038,mp-1147742,CsCrC6,https://materialsproject.org/materials/mp-1147742,-3.362773749304321,-35.35257947200436,-0.8657241923833199,-30.145253720983863
-6.2436937982608685,-143.60495736,4.930930679923693,-2.64699475659938,0.0,0.0,2.8782,150,23,344.083317844569,1021.7471240000003,mp-1190416,Ba3Zn3Te(PO7)2,https://materialsproject.org/materials/mp-1190416,4.0669816084354204,25.35226212804411,28.226355367627093,-2.0432320396112797
-5.1226651585,-102.45330317,3.247507353986585,-1.1841608188819996,7.00000065,0.3167036268217629,0.0,62,20,257.58612808362733,503.7598183999999,mp-1180181,MnNF3,https://materialsproject.org/materials/mp-1180181,1.422875018533144,-40.18568846811417,6.6403033407272725,-34.234838750654035
-5.958494510625,-190.67182434,2.7421934225667535,-2.23206189746596,4.325e-06,1.1405036330816169e-07,5.184,14,32,441.9436175326385,729.820168,mp-703528,RbP(HO2)2,https://materialsproject.org/materials/mp-703528,7.636057789832983,-25.287108335720056,21.905746051426878,-16.595905599662114
-8.066655565277777,-290.39960035,7.724418659219659,-3.2444538450000007,0.0,0.0,2.9706,15,36,499.2150786499423,2322.2256,mp-770766,Sm2WO6,https://materialsproject.org/materials/mp-770766,22.082137405948572,55.63147728731596,-1.4052985962772224,35.06822015714353
-5.453967866538462,-141.80316453,8.163524936329019,-1.5620301547115394,0.0,0.0,2.4537000000000004,12,26,522.2753174890777,2567.60454,mp-540977,Bi5IO7,https://materialsproject.org/materials/mp-540977,10.42517559185934,20.113688769682838,34.89747528965276,-3.1589057659780075