energy_per_atom,energy,density,formation_energy_per_atom,total_magnetization_uB,total_magnetization_T,band_gap,sgr,num_sites,cell_volume,weight,mp_id,formula,URL,tsne_xrd_lin1_0,tsne_xrd_lin1_1,tsne_xrd_lin2_0,tsne_xrd_lin2_1
-5.97579521076923,-77.68533774,7.402117028400136,-1.9583336793269237,5.3269007,0.3194424854962889,0.0,123,13,194.33872641688663,866.2958000000001,mp-1214738,Ba2EuCu2HgO7,https://materialsproject.org/materials/mp-1214738,-18.936710323339547,36.56361976388243,-13.981873178169865,54.28951947097169
-7.019628702333334,-210.58886107,6.071180986109776,-3.013797422583333,0.0,0.0,2.1249,194,30,350.2219417090396,1280.4642,mp-18407,BaSiO3,https://materialsproject.org/materials/mp-18407,-28.63382011610068,56.099876700470865,6.299936137159324,58.638064642766075
-5.731102521666667,-171.93307565,6.18031165002748,-2.031433262333333,7.5e-07,1.9344828363190635e-08,0.0,66,30,451.8286962964891,1681.648,mp-1208800,SrCa2Cu2(BiO4)2,https://materialsproject.org/materials/mp-1208800,-0.11818283194592928,13.055327220018857,6.757660268316789,26.230060755382706
-3.707647710714286,-51.90706795,5.390486629880384,-0.4209873467410716,0.0,0.0,0.9985,161,14,333.65479595178545,1083.1192,mp-4515,Ag3SbS3,https://materialsproject.org/materials/mp-4515,0.9441545964492064,18.187973661245962,2.7310164424849304,19.796472811220244
-5.305416019473684,-100.80290437,7.08761205882823,-0.26461663684210485,0.013193999999999999,0.00029165777625099834,0.0,204,19,527.2060035074284,2250.2522,mp-1210858,Pr12Ni6Pb,https://materialsproject.org/materials/mp-1210858,-10.392231614133408,21.516574775104687,-11.235823563982077,47.61524344768325
-8.30273584,-232.47660352,5.161651929283594,-3.0981899965952384,5.999987975,0.1894525601322354,0.0,57,28,369.08579354337064,1147.2734771199996,mp-21307,NaEuTiO4,https://materialsproject.org/materials/mp-21307,-1.2963645324084483,24.01786757120407,3.2181738260371677,47.41997431733947
-7.2389654656097555,-296.79758409,7.6413004471445145,-2.279113414359756,0.0,0.0,0.7506000000000004,6,41,658.3271603990776,3029.42328,mp-1173083,Nb6(Pb2O5)5,https://materialsproject.org/materials/mp-1173083,27.17804226941804,63.718478254570634,-8.920932353221756,35.982638961217845
-6.8456164589999995,-136.91232918,6.998729659453915,-0.589312945333333,1e-07,5.833500969959887e-09,0.0,127,20,199.7782263613788,842.012,mp-2847,ErB4,https://materialsproject.org/materials/mp-2847,-2.118814008164516,17.00477377868801,9.563436717608756,24.370072470527877
-5.377475346000001,-53.77475346,6.375239183182934,-1.4504222725833338,0.0,0.0,0.10780000000000013,148,10,144.62499758463645,555.2528,mp-545999,AgSbO3,https://materialsproject.org/materials/mp-545999,-6.7340354878535535,19.122858241351405,-1.1315055310831208,23.05826213872189
-5.75963734,-46.07709872,7.3855120412728175,-0.8335677825000003,0.005350100000000001,0.0003498790429126406,0.0,25,8,178.20562049279286,792.5979,mp-1217620,Tb4Si3Ge,https://materialsproject.org/materials/mp-1217620,-32.74315911702072,21.770937593203467,-12.241721465874868,45.08448369619113
-3.5670290259375,-114.14492883,4.2599487417855135,-0.3296640515624998,0.2779784,0.002695196989888813,0.0,130,32,1201.982003959626,3083.566,mp-669320,Ba5Si3,https://materialsproject.org/materials/mp-669320,3.5285535936522816,22.720951370388452,30.21197140762275,0.8640893236507702
-4.72174805,-28.330488300000003,7.675541446731093,-1.533050381793333,5e-07,4.764481272444455e-08,2.3945,99,6,122.30150677641852,565.3166,mp-1227332,Bi2BrClO2,https://materialsproject.org/materials/mp-1227332,-27.7161888501084,48.41351556500108,3.545944946144475,46.89110734865454
-6.999570209523809,-146.9909744,5.942612544998933,-2.835629638095239,3.203557,0.1276450739870843,0.0,139,21,292.48649880813014,1046.72874,mp-1218460,Sr4La2Mg(RuO6)2,https://materialsproject.org/materials/mp-1218460,-22.788334300239104,38.28165911756313,-14.633437683321164,58.53677230178925
-6.820480663448277,-197.79393924,5.957248948645803,-2.4755026956465507,0.2547984,0.007165522178542909,0.0,12,29,414.40623356613503,1486.69862,mp-772159,La6Cu6O17,https://materialsproject.org/materials/mp-772159,-3.3371697005329124,27.182696422750354,2.6879127145653907,47.83939928140271
-6.6389359149999985,-92.94510281,5.177417804100856,-0.8541444003057137,0.0040833,0.00013489835845770725,0.0,176,14,352.76220726371747,1099.8822,mp-1246810,Ba3MoN3,https://materialsproject.org/materials/mp-1246810,3.0095322166468503,20.78990965969901,4.282587886708168,36.215609844185295
-8.68465392,-95.53119312,6.746435486199697,-1.2511979706163627,1.9454129,0.152313878698041,0.0,139,11,148.85030924148342,604.7488099999999,mp-569565,La3(CrN3)2,https://materialsproject.org/materials/mp-569565,-24.065738874846808,46.64724420227883,-11.119652133376198,63.30273160168433
-8.180744644999999,-49.08446787,6.021562534219573,-0.1895212683333322,8.2e-06,1.147938259762658e-06,0.0,65,6,83.24779692833624,301.87897000000004,mp-1215921,YHoC4,https://materialsproject.org/materials/mp-1215921,26.881915822543306,60.179249584182394,-12.112915552342471,38.339865078382005
-5.534857503043479,-127.30172257,6.37093956422802,-1.9825043978260863,0.0,0.0,0.0,139,23,325.7594601541846,1249.8314,mp-556733,Ba2Ca3Tl2(CuO3)4,https://materialsproject.org/materials/mp-556733,-4.8287987734709334,19.38108386983831,4.60154440260797,48.28865372316254
-7.76265079825,-310.50603193,6.0558698912765605,-3.0681986485,3.000000075,0.061829100720470966,1.5829999999999995,194,40,565.4650445232552,2062.21152,mp-31627,Ba2NbCrO6,https://materialsproject.org/materials/mp-31627,-16.944435627082957,19.488116979668035,-14.366785858077032,46.66879351075313
-8.200112968214286,-229.60316311,7.79837759085225,-3.3995927178869048,0.0,0.0,3.7934,173,28,347.26184212330213,1630.8433,mp-557110,Tb3BWO9,https://materialsproject.org/materials/mp-557110,3.542718208073023,17.645025524320637,2.9937594305748707,37.490256407585775
-4.45819652375,-35.66557219,6.241578114034213,-1.2145871836979172,0.0,0.0,1.1665,121,8,216.6520991338139,814.3445999999999,mp-1225567,DyTl2InS4,https://materialsproject.org/materials/mp-1225567,-8.11864248087305,10.555637608483712,-2.461106743325543,20.179396006280985
-6.878618244166668,-330.17367572,7.598903104139649,-0.5009233476041667,1.8605118999999999,0.019793850771145455,0.0,225,48,1095.4172810237544,5012.811849999999,mp-582883,Pr21Fe8Bi7C12,https://materialsproject.org/materials/mp-582883,-0.15485814447740312,26.285514818122092,-13.71768774638187,43.970337961410216
-7.8672180066666675,-23.60165402,7.8598797483200595,-0.19443188750000095,2.2e-06,6.344486070240846e-07,0.0,139,3,40.411378030904935,191.2804,mp-1579,ErC2,https://materialsproject.org/materials/mp-1579,25.705136687084433,59.86261219659386,-12.401531708802187,38.35357763864722
-5.203853728421053,-98.87322084,9.850207802099275,-1.3339956528947372,1e-07,4.314945076699536e-09,0.1267999999999998,148,19,270.08605128002665,1602.1326,mp-754164,Tl6WO12,https://materialsproject.org/materials/mp-754164,17.216339372355854,61.2176537609237,-7.138557947612963,37.94429457758207
-7.0980284555,-141.96056911,4.855963220541561,-2.69545176975,2.0,0.09260142543869054,1.1542000000000003,62,20,251.70378787042762,736.0648,mp-19012,CaMoO3,https://materialsproject.org/materials/mp-19012,-25.1811655345121,43.53500436172992,-10.018209395707773,63.474492568030044
-7.057507881923077,-183.49520493,6.350464356747684,-2.704522926153845,1.0000001,0.03495389779762753,0.5320999999999998,8,26,333.41248536685885,1275.0824,mp-1208916,Sm2Cu(GeO4)2,https://materialsproject.org/materials/mp-1208916,21.90143523190101,32.80498302218285,32.98162699489069,40.328444300174546
-5.249077816578947,-199.46495703,7.9466047266338,-1.4631716871184208,8e-07,1.5239681200946106e-08,0.91,127,38,611.7747277724517,2927.68301512,mp-557830,Na2Bi5AuO11,https://materialsproject.org/materials/mp-557830,2.005328269944428,20.305540639935288,4.643019584707783,36.147362103673636
-6.5512641465625,-209.64045269,6.7522707255219965,-1.77182028777625,8.00008015,0.2370897127354385,0.0,55,32,393.24123842439997,1599.04178,mp-616515,MnFeBiO5,https://materialsproject.org/materials/mp-616515,2.1590245382403097,12.476833226259075,3.2342786308183245,34.72370043749304
-5.28689844,-15.86069532,7.818203123739269,-1.5013315190712495,0.0019442,0.00044655224172721015,1.5507999999999995,187,3,50.73948938913126,238.89329,mp-1207080,TbHSe,https://materialsproject.org/materials/mp-1207080,-36.20801012341058,50.86812964140036,-56.201066924500026,46.91069866076015
-8.158122937727272,-717.91481852,8.208427978863416,-3.1626097935227286,2.717459525,0.025977067033134474,0.0,33,88,1219.1310620542356,6026.446400000002,mp-555639,Sm3OsO7,https://materialsproject.org/materials/mp-555639,16.949862521440107,59.233646611447725,-3.107513055428364,37.972882015654505
-4.589096636,-22.94548318,5.623162979652351,-1.1786935816250002,0.0,0.0,0.5059999999999993,139,5,97.02163053554058,328.54900000000004,mp-4255,Ba(CuS)2,https://materialsproject.org/materials/mp-4255,-10.294218368560944,21.547515908647142,-22.57267912644276,33.64635598263508
-10.208663333636364,-224.59059334,8.298494688424876,-3.4925648664772737,13.8704497,0.5192892631928668,0.0,63,22,311.2853099146295,1555.6391199999998,mp-1191288,Eu2Ta2O7,https://materialsproject.org/materials/mp-1191288,1.7762708963828546,23.119953018651337,1.7786817331420688,47.06256806869504
-5.791589871666668,-173.74769615,7.590278787242494,-2.1447005036666664,0.0001727,4.503842224167247e-06,0.0,66,30,446.8755533711432,2042.656,mp-1208674,Sr2YbCu2(BiO4)2,https://materialsproject.org/materials/mp-1208674,-5.290975455463401,20.175258330020995,5.7474092803804515,26.36452163784185
-4.344752128571429,-30.413264899999998,4.762478424973276,-1.2830459182142862,0.06845520000000001,0.003062613584743754,0.0,107,7,260.4903663957586,747.0946,mp-1227974,BaBi2(BrO)2,https://materialsproject.org/materials/mp-1227974,-14.185785215176347,19.480367108003442,-15.563515145950339,43.188624252060386
-4.19832403625,-33.58659229,5.882471309373822,-1.9713940627975,7.5e-07,4.504980963062816e-08,0.9570000000000004,129,8,194.01965626681152,687.3160063999999,mp-1095151,BaCdAsF,https://materialsproject.org/materials/mp-1095151,-29.717291915308994,-16.128303079921498,-22.005624720785303,-5.11472360054591
-6.139593357586207,-178.04820737,6.2455275452006225,-2.3972904508620694,14.573186800000002,0.3727901606545021,0.0,107,29,455.58300844537285,1713.5136,mp-1227908,BaSr6Fe3Bi3O16,https://materialsproject.org/materials/mp-1227908,-5.867835017466932,18.3632004960045,-11.639869395930734,45.232541681418475
-8.516084814375,-136.25735703,6.0623672309577445,-3.337856977365302,0.0,0.0,2.2015,123,16,237.8797045633261,868.46144,mp-6680,RbCa2Ta3O10,https://materialsproject.org/materials/mp-6680,3.6438340074940627,17.620709992227468,10.58783641777795,30.02340562843626
-8.6042056065625,-275.33457941,5.527855458289649,-3.779634829114583,0.0,0.0,3.3096,62,32,492.2621270856147,1638.7172,mp-1195324,Pr2TiO5,https://materialsproject.org/materials/mp-1195324,9.137629178768265,23.40331182985645,1.8832619469230427,36.80450478359005
-5.835638887352941,-198.41172217,4.97264965108307,-2.262757799632353,0.68833765,0.018205695559448183,0.0,46,34,440.62757900663627,1319.5032,mp-1209020,Sr2Ca2Ga(CuO3)3,https://materialsproject.org/materials/mp-1209020,-17.889561209749342,35.46402738260945,-14.698603376914107,53.97629259786908
-7.748369910769231,-100.72880884,6.7939802246029135,-3.2288559107692314,0.9999996999999999,0.06421354137531644,0.3003,65,13,181.4891536385511,742.550275,mp-25232,La4CoO8,https://materialsproject.org/materials/mp-25232,-7.183834154946824,19.913383677597306,-9.49797512924766,44.855307609259675
-7.488843157142857,-209.68760840000002,6.137590100787046,-3.2273059252471423,2.9999997000000005,0.09307352411481536,1.6632999999999996,63,28,375.64056109372564,1388.42131,mp-753433,SrLiLa3MnO8,https://materialsproject.org/materials/mp-753433,-7.010059736793307,19.479208725894587,-9.488265795474067,45.09708748686707
-7.5289570575,-361.38993876,4.026919594287402,-2.512597245434028,11.9999999,0.29332093405300297,3.5612000000000004,161,48,476.7773447770327,1156.2173400000001,mp-1194881,Fe3B7IO13,https://materialsproject.org/materials/mp-1194881,-14.208010069854051,17.930061883504752,-13.351706115733807,25.704657813387488
-5.8730827409090915,-193.81173045,9.02894252605468,-1.6916957821717171,0.7156734,0.01597649255499219,0.0,197,33,522.048511642304,2838.5638,mp-769060,Bi12BO20,https://materialsproject.org/materials/mp-769060,4.469264114977293,13.85379189517625,4.923660937525629,23.364596149833236
-4.10490858375,-32.83926867,6.492741556260812,-0.4602368515234385,0.0,0.0,0.0,123,8,141.8822001596373,554.7623,mp-8159,TlCu4S3,https://materialsproject.org/materials/mp-8159,-5.1061682684390055,19.2323373695836,-1.8023508096698195,21.94819116602344
-5.013974324482758,-145.40525541,5.803070818089867,-1.478579599827586,2.4126362,0.06036265854112206,0.0,25,29,465.80152741727835,1627.8324,mvc-15237,Ba4CaCu6(HgO8)2,https://materialsproject.org/materials/mvc-15237,8.724403099268589,50.909515759725025,16.176443602316493,50.88332679671941
-9.102576498,-91.02576498,6.491277021918035,-2.9699549615000023,0.15423710000000002,0.00844890996326507,0.0,12,10,212.748054074082,831.6616,mp-605786,Eu2BrO2,https://materialsproject.org/materials/mp-605786,0.6365436527197659,26.599986128431482,2.0195005975307225,34.55971922737088
-7.208547856666666,-302.75900998,3.889902885246207,-2.2996898249999997,0.6666667,0.020335550278938748,0.0,122,42,382.05884753240525,894.9936,mp-4870,Cu(BO2)2,https://materialsproject.org/materials/mp-4870,9.02443394948382,16.25439834168277,14.650118520662902,6.018314675999293
-7.682205694285713,-215.10175944,6.127171907698388,-3.6017532171428566,3.16e-05,7.478076890328485e-07,3.2348,26,28,492.46410837146345,1817.1281600000002,mp-1227776,BaSrLa4O8,https://materialsproject.org/materials/mp-1227776,0.2091714806507042,22.63629962509157,0.6133162238250472,46.05398235028877
-6.491828234333334,-194.75484703,7.69172171798895,-0.680551167555556,2.45e-06,6.836314629720139e-08,0.0,127,30,417.65863976831184,1934.6212,mp-1212227,Ho5(SiB4)2,https://materialsproject.org/materials/mp-1212227,-5.724006205368171,24.91546369970872,-1.1308802057776886,23.08542414567564
-9.038279941,-90.38279941,5.568506067261811,-1.109009709928,3.855e-05,2.7207740022089747e-06,0.8109999999999999,40,10,165.12367312295038,553.73114,mp-989603,LaMoN3,https://materialsproject.org/materials/mp-989603,8.011536231722491,17.939267485447328,2.034039606567779,22.6015132229517
-7.322646174000001,-73.22646174,5.90724498601766,-1.0079572541519999,1.0,0.06102103853437869,0.0,15,10,190.9843728076489,679.4128000000002,mp-1078814,Ce2C2Cl,https://materialsproject.org/materials/mp-1078814,-2.2724356675557598,27.389651277369317,0.8843932839798759,49.43835777392846
-5.363759933333333,-96.5476788,3.637163222024709,-1.3263107077315273,2.99999995,0.17411859445543867,2.4837,15,18,200.79529038424175,439.81215,mp-23967,CoH2SeO5,https://materialsproject.org/materials/mp-23967,22.50923232256893,-1.7390627849204507,55.23662309892525,3.1084817490902363
-7.574056822931035,-439.29529573,6.497968153065711,-2.9134127008908037,0.0,0.0,2.3566,41,58,737.7152312374632,2886.8036,mp-1227907,Ca2Ti5(Bi2O9)2,https://materialsproject.org/materials/mp-1227907,2.751238572242852,20.220006908003484,2.912624963506512,37.61856714205664
-6.247190511666666,-74.96628614,6.3599177863928285,-0.6571556507466667,6.9999996,0.5072871783572857,0.3647,62,12,160.8131492904315,615.91952,mp-1102496,EuH2,https://materialsproject.org/materials/mp-1102496,-4.968899847362253,22.16943972554172,-16.277158495445256,45.404424297599604
-5.6342794225,-22.53711769,8.15085294862052,-0.8332326874999998,0.0001035,1.3750284957945057e-05,0.0,38,4,87.72150596508007,430.58614000000006,mp-1223968,Ho2SiGe,https://materialsproject.org/materials/mp-1223968,-32.76175580931622,21.750650660764798,-39.75510266856968,25.009226971211728
-6.665145087272728,-73.31659596,6.7681335075835545,-2.5950250697727277,4e-06,3.170961353815585e-07,0.0,107,11,147.00986195920018,599.1923999999998,mp-1218159,SrNd2(CuO3)2,https://materialsproject.org/materials/mp-1218159,-23.98393257113288,46.97450670315229,-14.260225303012355,61.01851750596422
-7.362247141071428,-206.14291995,4.271787695483715,-3.5273080575,2.5e-08,6.591550693340738e-10,2.2604,61,28,442.00770481570714,1137.0784,mp-770977,Ca2CeO4,https://materialsproject.org/materials/mp-770977,0.7374643146026499,12.364769014077392,5.802758001689721,30.997349720343546
-4.032376962,-20.16188481,4.117894982136424,-1.6093826722413795,1.0,0.06921031335667557,0.0,6,5,168.3862448722119,417.5733639,mp-998308,CsScBr3,https://materialsproject.org/materials/mp-998308,31.007225664214033,63.127627151405754,-9.61629739806752,35.26873061834437
-7.3766919899999985,-413.09475144,4.057043093956646,-2.834016314196428,1.000000025,0.01507931464596874,1.7077,14,56,772.8511101150658,1888.2364,mp-867539,Sr2V3O9,https://materialsproject.org/materials/mp-867539,17.74203738292176,33.54360970744699,27.75664937289547,37.70467775711082
-9.116809758214286,-255.27067323,5.3232328339583255,-3.370438587666667,6.98612295,0.2233788132949652,2.2356000000000003,57,28,364.47829660934485,1168.4174771199996,mp-541513,NaGdTiO4,https://materialsproject.org/materials/mp-541513,-1.1789600733145864,24.028498104135622,2.196561208474885,37.30001536553861
-4.71712641375,-37.73701131,4.203972256481595,-1.5266234672524996,6e-07,3.5846273896507764e-08,1.8869,10,8,195.0673836763,493.8504,mp-1218378,Sr4BrN2Cl,https://materialsproject.org/materials/mp-1218378,-14.116952562841794,33.75179518190743,-19.644742266428565,42.599377826098255
-5.537216961052632,-105.20712226,7.2848428869551025,-0.1375868954385969,0.0083244,0.00019351418831888207,0.0,204,19,501.3229140223714,2199.3211699999997,mp-1211071,Nd12InCo6,https://materialsproject.org/materials/mp-1211071,-4.526616591803238,78.74609653160555,-10.100766235259673,49.14473523358817
-5.2268421678125,-167.25894937,6.293557552028777,-1.6456117077604175,0.0,0.0,1.4075000000000002,4,32,716.0971460658052,2714.0576,mp-1197880,ErAgS2,https://materialsproject.org/materials/mp-1197880,-6.42342614646052,17.987863437809324,1.2005662873629874,18.69927591252951
-7.692661115,-46.15596669,9.098869656730976,-0.3113175966666664,1.1577035,0.12564366489003936,0.0,141,6,107.38266500127105,588.39982,mp-7284,USi2,https://materialsproject.org/materials/mp-7284,-7.146801891877267,17.478177147864727,-24.151517854661808,32.802615985875384
-5.998974938846153,-311.94669682,10.713483521607516,-0.9133718501923078,4.25e-07,4.79165667139818e-09,0.0,62,52,1033.6670316766701,6669.024,mp-570669,Sm3(Ge3Pt2)2,https://materialsproject.org/materials/mp-570669,-42.97287314437622,25.75270869871966,-26.511994602809338,31.62677536704605
-4.751115432000001,-47.51115432,6.3404216535003854,0.2166123219999996,0.40199665,0.0140706148605452,0.0,227,10,332.9559542268986,1271.3228,mp-1210201,Nd4Ni,https://materialsproject.org/materials/mp-1210201,30.057899736882227,64.02915328809421,-9.547102514443145,32.80497292341768
-7.978747637826087,-183.51119567,4.919524404273002,-3.264074836837392,2e-07,8.442353905285473e-09,0.0,5,23,276.08567239199664,817.9333158,mp-695170,Nd3Al3Si3(NO6)2,https://materialsproject.org/materials/mp-695170,22.03630115422331,32.08142225971467,24.19695782936956,36.52615288515083
-7.1609119665,-143.21823933,3.0544323508322275,-3.2191324267499994,0.0,0.0,4.7095,15,20,218.30485848465838,401.5548,mp-603930,MgSiO3,https://materialsproject.org/materials/mp-603930,1.681483557545501,27.05708230453539,-5.953475124041137,28.86717968178318
-3.962826778,-39.62826778,2.84581814978784,-2.63097922219738,0.0,0.0,5.3979,140,10,325.99345600761836,558.6849037999999,mp-1206863,CsCaCl3,https://materialsproject.org/materials/mp-1206863,-5.299576379462225,-6.17773727969023,-3.8815423999981897,-16.242908329445328