energy_per_atom,energy,density,formation_energy_per_atom,total_magnetization_uB,total_magnetization_T,band_gap,sgr,num_sites,cell_volume,weight,mp_id,formula,URL,tsne_xrd_lin1_0,tsne_xrd_lin1_1,tsne_xrd_lin2_0,tsne_xrd_lin2_1
-6.64310420375,-106.28966726,8.570470382855131,-0.3305337687500005,0.0,0.0,0.0,14,16,383.69023695467064,1980.3243,mp-28846,TaCoTe2,https://materialsproject.org/materials/mp-28846,31.85583909193096,-51.60113109032222,-0.6997998953226842,-53.9221032956458
-9.441542190416667,-226.59701257,10.165810245623721,-0.5679801694444441,6.853258575,0.3161055839479905,0.0,55,24,252.66342447557344,1546.8039999999999,mp-1191130,GdReB4,https://materialsproject.org/materials/mp-1191130,-37.342047274890156,-11.549755994524135,-38.42404228074498,-11.490465932358527
-9.015217096923076,-117.19782226,8.922608679287746,0.00946713307692339,2.319057,0.1629334792512084,0.0,139,13,165.8740770372245,891.2946000000002,mp-31221,ThMn12,https://materialsproject.org/materials/mp-31221,-55.57052938275811,-23.44490447500473,-55.712637305014894,-8.367830581471518
-6.966972853333334,-41.80183712,9.701045840428897,-0.24886888333333346,3.4e-06,4.4864801784395694e-07,0.0,227,6,88.31827769377199,515.96478,mp-1112,CeCo2,https://materialsproject.org/materials/mp-1112,-76.32155963080591,-18.1338121450285,-71.57175380109155,-4.60269229419247
-6.70878442,-26.83513768,6.9448808509348785,-0.09727906999999993,4.5021805,1.1118495766126006,0.0,225,4,47.19046916814786,197.3649386,mp-31186,AlFe2Ni,https://materialsproject.org/materials/mp-31186,-51.05574568204546,-52.34439603247015,-70.31295618280997,-43.90878958316742
-6.229135727638888,-448.49777239,3.6299248043416292,-2.219410546386111,29.0005205,0.5348933832329462,1.0553,1,72,631.8529167480044,1381.225325,mp-768842,Li24Mn5Cr7O36,https://materialsproject.org/materials/mp-768842,-11.13958766876393,-68.8541654146571,2.9356267266247684,-81.42010551650472
-6.372327557692307,-248.52077475,7.463472398764608,-0.8727626972527469,6.7e-06,1.4371502098567155e-07,0.0,174,39,543.3129636736774,2441.978906,mp-1210112,Nd6Ni20P13,https://materialsproject.org/materials/mp-1210112,-51.389205120979575,-0.19540824830905687,-55.799335702242544,20.004153641835245
-1.909140178125,-91.63872855,4.993662827402712,-0.5915225664583333,5.625e-08,3.364403758103451e-10,2.3606,156,48,1948.4615717645554,5859.51904,mp-571516,CdI2,https://materialsproject.org/materials/mp-571516,-19.163785378727184,-30.721291860124197,-6.233314120477601,-22.007115069886748
-9.002220374827587,-261.06439087,7.563050707014966,-0.7232110349137942,2e-07,4.808880808799836e-09,0.0,87,29,484.689275360444,2207.55398,mp-31381,Nb21S8,https://materialsproject.org/materials/mp-31381,-68.13980752612719,-2.0866160853488065,-53.68415351048231,3.103297846309608
-7.047612186666666,-147.99985592,7.6898552814742995,-0.7259047854761902,5.1530779,0.2306360207494338,0.0,174,21,260.38562159329706,1205.829974,mp-978102,Pr2Co12P7,https://materialsproject.org/materials/mp-978102,-63.56116595297279,-30.091254321614155,-65.95581647697068,-17.411268455471948
-5.566630724444446,-50.09967652,6.1782736683597825,-1.4807044268785927,0.0,0.0,1.0211,71,9,275.03412767990125,1023.30392,mp-9523,Rb(ThSe3)2,https://materialsproject.org/materials/mp-9523,-0.7921746615859161,-9.603352252005052,1.9156626833735104,-0.5930593468253126
-5.52141238125,-309.19909335,3.155752225205432,-1.0136315512096092,0.0,0.0,1.3681,15,56,1358.2228351373074,2581.218888000001,mp-554930,Nb2AgPS10,https://materialsproject.org/materials/mp-554930,38.77684807870769,-41.56789330329779,27.838086511687823,-60.50800843236605
-10.25885125,-20.5177025,17.094637468060135,-0.017496227500000572,4e-07,1.6474329149217498e-07,0.0,187,2,28.296301881556712,291.2999999999999,mp-1220023,OsRu,https://materialsproject.org/materials/mp-1220023,-55.75789843719096,-47.144404509427346,-66.16918634744556,-36.11639293384384
-2.8471455867307687,-148.05157051,9.31489699701633,-0.04210747083333315,0.0,0.0,0.0,215,52,1019.7486036443687,5720.3432,mp-21975,In4Ag9,https://materialsproject.org/materials/mp-21975,-79.93179875888451,1.389468866472587,-85.65576099861134,4.2944032571751265
-7.270265538333334,-130.86477969,10.085892285474811,-0.4611823711111119,0.0005846,2.0728883495748056e-05,0.0,166,18,328.67019911785815,1996.2988800000005,mp-1190346,La2Rh7,https://materialsproject.org/materials/mp-1190346,-70.65397965150132,-9.947125861388363,-56.23153212125239,-17.55703006542593
-9.31533764125,-74.52270113,18.56398030291221,0.7668122008333321,1.3e-06,1.4563384864596643e-07,0.0,194,8,104.02996518452038,1163.002,mp-1183263,BOs3,https://materialsproject.org/materials/mp-1183263,-57.133386464119866,-47.46573180937731,-68.30953052893625,-35.03599068648107
-3.890628055,-23.34376833,11.107264089644236,-0.09652427333333276,7.5e-07,7.708547035371968e-08,0.0,139,6,113.38775698341449,758.445138,mp-1071623,CuSnAu,https://materialsproject.org/materials/mp-1071623,-44.80331914177615,-34.75880131148092,-58.71739099728837,-7.050533118905236
-6.726634848448277,-390.14482121,5.283417674898662,-2.7464607036908864,6.00210405,0.07914539646634006,0.34640000000000004,194,58,883.8026277383248,2812.03772512,mp-774691,Ba6Na2P2Ru2O17,https://materialsproject.org/materials/mp-774691,-22.477188371187886,24.628964214336413,-15.941207662245786,48.833425223631934
-11.202504745,-89.62003796,14.812454361730582,0.17329592531249993,3e-06,3.2643734361148727e-07,0.0,156,8,107.10231228719252,955.3814,mp-1217376,TcW2C,https://materialsproject.org/materials/mp-1217376,-46.76973044299195,-32.525962627619876,-58.92520181698006,-29.625597550944505
-8.0721557,-48.4329342,5.5454339104095185,-2.005737594583335,0.0,0.0,0.0,129,6,81.03449235512157,270.6178,mp-7915,ZrSiO,https://materialsproject.org/materials/mp-7915,-29.02932978565887,7.895504345447482,-48.234828947433975,17.22381791677223
-5.0722318595,-101.44463719,4.105015664575008,-3.1672630819053795,5e-08,1.5873883476818095e-09,0.0,166,20,367.08297593273437,907.46518456,mp-561500,Cs2NaVF6,https://materialsproject.org/materials/mp-561500,1.8389858593625816,-7.878580368546469,12.218667221757775,-14.848795547153227
-4.316674388333333,-51.80009266,4.532291817772784,-0.5655335727083332,1.0000016999999999,0.0623715651202073,0.0,11,12,186.84932087256675,509.9884,mp-1095679,Cu2BrO3,https://materialsproject.org/materials/mp-1095679,-4.769024815539908,-60.24959325174275,-22.739188078461552,-62.46349772683432
-7.269301873125,-116.30882997,6.508589277373908,-0.4415075922916678,0.07162919999999999,0.0028714674327281115,0.0,97,16,290.7124513731771,1139.4661,mp-1217253,Ti10CrSb5,https://materialsproject.org/materials/mp-1217253,-49.274911976260405,-7.227276906809597,-40.36802306892829,-10.092956315611296
-5.4877982229411755,-186.58513958,10.538030742829568,-0.4566727936764716,0.0,0.0,0.0,147,34,522.2473015136285,3314.26,mp-15843,Ge9Pd25,https://materialsproject.org/materials/mp-15843,-61.45465837888536,-25.739639494402585,-61.37066590076184,-21.240791948098167
-6.94798756625,-111.16780106,4.145984381081704,-2.2255087357366072,5.0000002,0.328177031650674,1.9889,15,16,177.5576002394857,443.32052400000003,mp-1226272,CrNiPO5,https://materialsproject.org/materials/mp-1226272,-1.5494977878671938,-17.27237995287243,-0.6000316132902008,8.51972428121044
-5.74518598,-17.23555794,3.14766603591306,-0.043467191111111234,7e-07,3.181611410950304e-07,0.0,191,3,25.640608757922287,48.6035386,mp-944,AlB2,https://materialsproject.org/materials/mp-944,-39.62868489399962,-48.77039901430939,-68.66569052508304,-42.570889362459475
-9.1606696825,-36.64267873,7.479894880667598,-0.2194860137500001,4e-07,6.844187510863951e-08,0.0,221,4,68.11072755713312,306.80464,mp-1004,Nb3Si,https://materialsproject.org/materials/mp-1004,-48.80517073250748,-41.559334282996055,-80.91049423072334,-5.2099322981432765
-9.692935714848483,-319.86687859,5.617822720045477,-0.5472448106439398,1.3333333333333334e-07,4.791659177407571e-09,0.0,151,33,324.28752661174263,1097.1075,mp-28731,V6C5,https://materialsproject.org/materials/mp-28731,-45.9625800302812,-45.07957396170336,-50.33913857131956,-57.0073855268216
-5.9645786125,-167.00820115,8.260547063979757,-0.4808059003571422,14.373572400000002,0.3724061619139557,0.0,63,28,449.8060475201792,2237.61317,mp-866782,Gd2(Ga3Co)3,https://materialsproject.org/materials/mp-866782,-52.243747085929,-5.853090735025566,-47.57942233276625,-0.5554814584957584
-5.869814123333334,-140.87553896,4.055457759188524,-1.9224152865383328,18.0000002,0.971671872300246,0.7867000000000002,2,24,215.88889646490418,527.2554749999998,mp-1174555,Li7Mn2(CoO4)3,https://materialsproject.org/materials/mp-1174555,-2.348969736079402,-76.03562644285469,-19.431338376302236,-77.43135405082508
-8.017341943125,-128.27747109,4.7531995778934215,-0.7516239137500005,4.31e-05,2.180165030119025e-06,0.0,193,16,230.3909037885542,659.4810000000001,mp-1217138,Ti3V2Si3,https://materialsproject.org/materials/mp-1217138,-66.85794729705383,-17.376358769676454,-63.72538959887866,-10.248079761962801
-6.872036460769231,-89.33647399,4.524539465144031,-1.6920999649107693,13.0114585,1.016556267827757,0.0,12,13,149.16673571695028,406.44077999999996,mp-757060,Mn4NiO8,https://materialsproject.org/materials/mp-757060,6.859430689555991,-79.52215774995219,-19.22028526635829,-84.54479279060504
-3.9503532391666663,-47.40423887,2.5997367137691367,0.20130319083333367,4.75e-07,2.6923092340724795e-08,0.0,8,12,205.61088217167358,321.904,mp-1073598,MgSi2,https://materialsproject.org/materials/mp-1073598,-62.950858564632796,-26.70790249699896,-62.323695450381614,-14.324204704832844
-6.258681898571429,-87.62154658,4.390234148054252,-1.2771713932738098,0.0,0.0,0.8113000000000001,3,14,286.96540579131215,758.6966,mp-1246366,ZrCrAgS4,https://materialsproject.org/materials/mp-1246366,-29.86732106557806,-8.519135320076797,2.5289838730801484,-11.47728929552924
-5.851806035,-35.11083621,15.437762330949754,-0.4836830083333332,0.0,0.0,0.0,191,6,119.69091086721005,1112.747,mp-811,BaPt5,https://materialsproject.org/materials/mp-811,-73.43698137975697,-4.014201331045354,-58.56061097434435,-17.390592787876887
-7.413598714,-37.06799357,5.411152151124483,-0.02881903695199952,5.2e-06,9.71610398402826e-07,0.0,139,5,62.371848754324866,203.2494,mp-1247500,Fe2CuN2,https://materialsproject.org/materials/mp-1247500,-40.02525647935768,-17.81690020731195,-48.897319754006936,-29.376121955464253
-4.153419791666667,-49.8410375,5.000735737569787,0.05534622678083364,2.9653611,0.17727035188506804,0.0,1,12,194.94805513690537,587.0887,mp-1226184,Cu7S4N,https://materialsproject.org/materials/mp-1226184,9.30298237452277,-48.533991007715386,-0.4221641879147139,-52.025380656554844
-7.175871035,-114.81393656,7.075209712605901,-0.501466915,0.9875071,0.03675959235953292,0.0,140,16,313.0739752008722,1333.94276,mp-1105702,Zr4NbGa3,https://materialsproject.org/materials/mp-1105702,-67.83777438702171,-3.9102609161881836,-53.653271909651224,7.012629403642689
-5.984445196666666,-17.95333559,5.968936917548974,-0.8668819441666665,0.0383171,0.005890047935611049,0.0,187,3,75.8143176724963,272.52047000000005,mp-1206700,LaNiAs,https://materialsproject.org/materials/mp-1206700,-52.336597307733115,26.382513002419795,-48.897713333773204,30.37501502965517
-7.624393270208333,-365.97087697,9.894068299123033,-0.4152872502083322,0.29973415,0.00461573242172525,0.0,55,48,756.7858964715457,4509.1932,mp-1200972,HfCrGe2,https://materialsproject.org/materials/mp-1200972,-57.19735735003036,-8.00840326713406,-53.65756344254217,-7.418707664926312
-6.280218484166666,-75.36262181,11.926736342443654,-1.1895245375,0.00047465,2.2715334178322132e-05,0.0,194,12,243.5184004281309,1749.0584,mp-1102478,ErAsPt,https://materialsproject.org/materials/mp-1102478,-55.21337069166507,20.035124125620136,-49.35088305042383,25.671565349949407
-5.692654128125,-91.08246605,4.41868936213866,-2.445807623125,0.0009264,6.299095375057414e-05,0.0,123,16,171.39485850697878,456.0812,mp-1032148,Mg6CuSnO8,https://materialsproject.org/materials/mp-1032148,-17.35735428723834,-57.29113612675148,-36.292328649589216,-57.737705324708365
-2.8364741775,-22.69179342,13.51802617144371,-0.09555797749999996,0.0,0.0,0.0,198,8,150.85104414055255,1228.04,mp-8675,HgPd,https://materialsproject.org/materials/mp-8675,-73.44998643685648,0.5638949614076226,-66.30210334504906,9.50512068444906
-7.645050469166668,-91.74060563,7.647567615256166,0.10557696258000013,0.0,0.0,0.0,14,12,113.70723631925631,523.6756,mp-567617,RhN2,https://materialsproject.org/materials/mp-567617,-12.128740946381507,19.84684707767416,-39.81766053276131,13.506837911550194
-6.183974345,-148.41538428,3.9071993662124487,-2.049708444118333,17.9999999,0.9505549205928069,0.5260000000000002,8,24,220.68494959748818,519.265175,mp-1175333,Li7Mn4CoO12,https://materialsproject.org/materials/mp-1175333,-1.5946774755786253,-76.3993184162581,-20.24125400111775,-77.34176975817176
-4.223524175,-16.894096700000002,7.945157750699747,0.011427762500000329,0.0032177,0.0005490631188174123,0.0,123,4,68.29685501264835,326.779,mp-1226493,CeZn2Fe,https://materialsproject.org/materials/mp-1226493,-61.48035793543777,-30.81186243625836,-76.26269390460331,-10.955895987207091
-7.5331379975,-30.13255199,6.261339584735437,-0.39191492916666704,0.6513924,0.15345099635747206,0.0,123,4,49.47096729348453,186.5385386,mp-1217020,TiAlFe2,https://materialsproject.org/materials/mp-1217020,-48.39997330481573,-50.61992584245115,-68.40076047457458,-44.13346442462815
-5.76227892975,-230.49115719,4.232391985211126,-3.652630588083,2.99999985,0.06427257506440606,3.9369,14,40,543.9675092297852,1386.4676896,mvc-10592,BaMgCrF7,https://materialsproject.org/materials/mvc-10592,10.894515320509608,-12.034995708767305,11.707879497115764,-6.96543019933885
-5.919593493333332,-35.51756096,8.403054089515509,-0.28328117124999963,1.3866962999999999,0.18914236674344287,0.0,191,6,85.44171661968015,432.37247,mp-2317,LaNi5,https://materialsproject.org/materials/mp-2317,-52.39737767553198,-16.7698286628377,-54.75435437556335,-16.387657345037116
-6.159098081724138,-178.61384437,6.1247487390323805,-0.7538590993750004,0.1500105,0.0025613135595510994,0.0,12,29,682.5529334528118,2517.53504,mp-1192941,Nb8PtSe20,https://materialsproject.org/materials/mp-1192941,-28.49738970845893,-3.7151314155229462,-38.74020152072546,-33.18703054326945
-9.14153649125,-73.13229193,7.756325490530439,-0.6166380746874989,0.0,0.0,0.0,194,8,116.78308772629116,545.4901199999998,mp-9989,Nb2AsC,https://materialsproject.org/materials/mp-9989,-72.49668764756845,3.0691209604152,-65.89089493138594,5.400425987338842
-3.89615143,-93.50763432,7.470036663283852,-0.17278791874999952,2e-07,6.6746752095207604e-09,0.022700000000000387,194,24,349.2024527556436,1570.90864,mp-13226,HoMg2Cu9,https://materialsproject.org/materials/mp-13226,-56.937610286671436,-19.38527556751925,-57.287458655340316,-21.566130853735906
-8.804277279230769,-114.45560463,8.411275776922315,0.006373167692308139,0.38578229999999997,0.027834450041765636,0.0,139,13,161.52400732045732,818.1818900000002,mp-972084,TbMn12,https://materialsproject.org/materials/mp-972084,-57.087740297656815,-23.296189453943292,-57.34551303594982,-9.493113646974184
-6.845812317272728,-150.60787098,3.9761939893886526,-2.94792510219697,1.99999955,0.0864519225223345,3.1807,167,22,269.6079349162962,645.5816,mp-997184,Ca3TiNiO6,https://materialsproject.org/materials/mp-997184,-14.832833458232205,5.035962693198999,-16.67884391680531,20.655609266994464
-6.231929135714287,-87.2470079,3.567039720770659,-2.4067261617999995,11.0,0.8535424040025884,0.7851999999999999,1,14,150.19138111592622,322.6293446,mp-753419,Li3Mn3O5F3,https://materialsproject.org/materials/mp-753419,4.607057219997651,-61.29315387617057,-22.639861101868128,-78.05761665439309
-9.675257428333332,-58.05154457,12.496807617821252,-0.6126330104427081,2.09e-05,2.1957488938212656e-06,0.0,99,6,110.92796377212895,834.8165200000002,mp-1217968,Ta4SeS,https://materialsproject.org/materials/mp-1217968,-77.95890303433919,-1.5440522991069678,-65.01736792541817,4.41472690163211
-4.054601860740742,-218.94850048,3.261148077732284,-1.1457258134033337,2.0,0.014955347541511219,1.1752,14,54,1558.5147373154346,3060.7816000000007,mp-554217,HfMo2Se8(Cl7O)2,https://materialsproject.org/materials/mp-554217,40.58800566206976,-26.535760034063635,19.149348165921868,-57.22744906373032
-7.113188725714287,-49.79232108,6.388131778051032,-1.353124902797619,0.0001992,1.476233306219422e-05,0.0,44,7,157.2576430103138,604.97376,mp-1218110,Ta2InS4,https://materialsproject.org/materials/mp-1218110,-29.895793130581737,-10.373087099827009,-23.58677958881121,-49.7849895896601
-7.064435894583332,-169.54646147,5.221255407809647,-0.5711447273611109,1.49e-05,7.152415708941362e-07,0.0,139,24,242.77890460709938,763.3729999999998,mp-1190178,YNiB4,https://materialsproject.org/materials/mp-1190178,-39.511135843976064,-15.929263740904494,-41.24750583628053,-10.881207016007043
-1.36919887875,-10.95359103,5.506519745202246,-0.013495019999999913,9.3e-06,8.148672707865876e-07,0.0,44,8,133.00669479605398,441.06400000000014,mp-1094430,MgZn3,https://materialsproject.org/materials/mp-1094430,-50.364778222209644,-34.987359583892264,-57.635735904470465,-26.834898300349302
-6.044259290499999,-120.88518581,5.752992228522674,-2.088319590750001,3.9999997000000005,0.1741603845571695,0.9721000000000002,25,20,267.6627966374132,927.32658,mp-1228377,Ba3Sr(CoO3)4,https://materialsproject.org/materials/mp-1228377,-2.0948947624837397,-3.98091574669036,4.914895396423361,7.007665943951786
-4.604615017,-46.04615017,3.4572051498587797,-2.959855349314,0.9831046999999998,0.08517973087224061,0.0,123,10,134.5057766053786,280.0380192,mp-1223639,K2MgCuF6,https://materialsproject.org/materials/mp-1223639,-27.700033290085184,32.340848921161964,-39.467208769248465,8.157327225300513
-4.294241002250001,-343.53928018,3.2466107264497595,-1.6706916895083332,0.0,0.0,1.7136,62,80,1234.9660519431359,2414.54969408,mp-553903,KNa9In2O8,https://materialsproject.org/materials/mp-553903,24.396836181660994,-23.645203015983466,2.687000445780348,-10.510298539292547
-7.3698913300000015,-44.21934798,10.638815509990009,-0.7159353688888892,0.0001056,1.56038406895611e-05,0.0,191,6,78.86963629445509,505.3055,mp-1025024,LuB2Rh3,https://materialsproject.org/materials/mp-1025024,-63.64913064608936,9.033916623810173,-63.47002191288691,5.5522200918364994
-7.264248991388889,-523.02592738,4.813417175622243,-0.18987700324074,0.1935220125,0.004361432162912017,0.0,55,72,517.1049289197906,1498.9360000000001,mp-1194531,Fe2B7,https://materialsproject.org/materials/mp-1194531,6.353705090369635,6.592609933274749,7.559587804037353,25.952545242791036
-5.80981837875,-46.47854703,3.2038695529462258,-2.757936636235,1.9999999,0.31723354600690196,1.1774999999999998,65,8,73.47308843310599,141.76010639999996,mp-753080,Li3V(OF)2,https://materialsproject.org/materials/mp-753080,-6.910097597509207,-64.33585050240312,-22.660647882178136,-59.67445978621893
-4.172590351499999,-83.45180703,3.001600919288794,-1.643673212304,2.75e-07,7.601555572548635e-09,1.6829999999999998,67,20,421.6068384775873,762.0992,mp-1209094,Sr(ClO)2,https://materialsproject.org/materials/mp-1209094,28.696035262069067,-28.414508206820866,-20.789697916146864,-9.146051051941422
-5.687130093333334,-34.12278056,10.273220934478994,-0.4124147291666673,3.71e-05,5.0617941482994625e-06,0.0,216,6,85.41750027650183,528.4506,mp-568552,LuNi4Sn,https://materialsproject.org/materials/mp-568552,-76.43081077844995,-20.364595514252567,-70.57356299944435,-6.062307390270266
-9.0236975625,-72.1895805,14.088467586917565,-0.2735875925000002,4.65e-06,4.667227780494916e-07,0.0,194,8,116.11047015720345,985.113,mp-30866,Rh3W,https://materialsproject.org/materials/mp-30866,-54.20689197868658,-46.224682319975784,-64.72855776482992,-35.41978377205106