energy_per_atom,energy,density,formation_energy_per_atom,total_magnetization_uB,total_magnetization_T,band_gap,sgr,num_sites,cell_volume,weight,mp_id,formula,URL,tsne_xrd_lin1_0,tsne_xrd_lin1_1,tsne_xrd_lin2_0,tsne_xrd_lin2_1
-4.11843513025,-164.73740521,2.595818517976024,-1.2357978355833332,0.0,0.0,2.7939,205,40,1880.6241308798803,2939.864,mp-569814,TiBr4,https://materialsproject.org/materials/mp-569814,-0.3279043707707093,-32.747101523653306,-6.2968886913684505,-35.92724760976764
-5.5998176075,-291.19051559,5.237176681479327,-1.6197640168269247,0.0,0.0,2.4794,34,52,1075.1131597538008,3390.801080000001,mp-1195086,Sb5IO7,https://materialsproject.org/materials/mp-1195086,6.950299615629912,21.312061537017623,0.9224052014123734,26.48318986750873
-7.6141883267647055,-258.88240311,6.949840898504579,-1.9010046105882352,0.1671088,0.0038908370062331475,0.0004999999999999449,15,34,500.5341462890426,2094.8816,mp-540684,Eu2(WO4)3,https://materialsproject.org/materials/mp-540684,11.217574994179435,21.594540517081786,40.06153094079246,-4.155925747222792
-3.890289505,-93.36694812,5.849199335430119,-0.4807173655302624,0.0006505,8.775193006186472e-06,0.6336999999999997,12,24,863.9091048146213,3043.0941038,mp-1226121,CsBi4Se7,https://materialsproject.org/materials/mp-1226121,-0.3766224795589092,-11.687734488819098,0.34904102323414393,-0.37623771835215547
-7.410939957499999,-88.93127949,5.885699911095943,-3.0049646391666665,1.0,0.05859492538139264,0.0,14,12,198.89204904185357,704.9631999999998,mp-755820,NdO2,https://materialsproject.org/materials/mp-755820,8.640800508587867,23.81050657622348,30.26448288731288,-6.563490693681271
-2.5563584575,-10.22543383,2.8546044227878005,0.2898158262499999,1.0,0.06508534409099988,0.0,139,4,179.05820327638457,307.815912,mp-1187149,Sr3Sc,https://materialsproject.org/materials/mp-1187149,-11.0694957007571,-25.31083625065813,-12.199171684629194,-26.46567822007797
-3.2038435358333337,-38.44612243,4.445907353243653,-0.9430743152533336,0.0,0.0,2.5129,62,12,419.9129399028217,1124.2698799999996,mp-571146,SnICl,https://materialsproject.org/materials/mp-571146,0.7447566344067207,-12.516531254863315,13.484020248364386,-14.711960039272187
-2.612646255,-31.35175506,4.331656984237108,-0.7596964032844443,0.0,0.0,0.8005,15,12,342.4437344477245,893.2935380000001,mp-570340,AgAuCl4,https://materialsproject.org/materials/mp-570340,29.207321681972804,-37.26267599066478,24.130826023602093,-55.96816250927701
-5.746891700357144,-160.91296761,7.825563711021402,-1.7731051820535717,1.8000000000000001e-06,4.846059875856847e-08,0.794,13,28,432.87365670236136,2039.9884,mvc-10478,CaBi4O9,https://materialsproject.org/materials/mvc-10478,10.198151928596246,20.74688740661436,1.948700568160232,35.106774433607505
-4.985887535,-99.7177507,7.60745914634673,-2.091795671226,0.0,0.0,0.8923000000000001,115,20,408.96187384120736,1873.5848255999997,mp-1105787,Pb2OF2,https://materialsproject.org/materials/mp-1105787,-8.249944324125451,-34.32025214832736,-0.5882571466374102,-27.52147800452228
-5.3420466828125,-170.94549385,7.8015409749206786,-1.5633703890624997,0.0,0.0,2.3185,52,32,656.2880678151799,3083.3712,mp-29447,Bi3BrO4,https://materialsproject.org/materials/mp-29447,-18.147048420510377,6.975948779548181,32.22105928923711,-4.8329297132654325
-6.575647727307693,-170.96684091,2.097906508509362,-2.8102696913296703,1.0000301999999999,0.02651540760517817,0.0,15,26,439.53375708393213,555.302048,mp-1211428,KMg2(PO4)2,https://materialsproject.org/materials/mp-1211428,65.0998791385798,-28.19757469195311,67.43748246277119,-19.15984658477801
-6.0717938983333335,-72.86152678,3.4296438250155497,-3.5581771199600016,3.00000025,0.21618127895666756,2.6739,15,12,161.72629470937338,334.02622560000003,mvc-3446,CaVF4,https://materialsproject.org/materials/mvc-3446,5.2187468393534635,18.54754786040512,-11.553514110188026,6.924430756864612
-7.212604269166667,-173.10250246,4.389213728444239,-3.0858774084375007,3.0001655,0.09209571922049603,2.905,113,24,379.6498182688347,1003.50799,mp-510015,Ba2CoSi2O7,https://materialsproject.org/materials/mp-510015,3.853017191210825,25.552224964035183,32.34265446138216,-6.881984247995223
-4.757538318888889,-85.63568974,3.365140698011272,-2.9375202552760933,3.9999998999999997,0.16708645658819632,0.042999999999999934,74,18,278.9948322366031,565.3928283999999,mp-1219588,RbMgCoF6,https://materialsproject.org/materials/mp-1219588,-7.1602327871201465,-10.721584490572075,0.5496880766509227,6.8345711165901095
-4.956257099999999,-19.825028399999997,4.677633824044336,-1.7548365369218748,0.0,0.0,1.909,166,4,123.31773937364201,347.3783,mp-1006891,KSmSe2,https://materialsproject.org/materials/mp-1006891,-23.636089694763523,-36.41115927878239,-33.581565537319676,-23.541723985844317
-2.44042252,-68.33183056,3.865457166814813,-0.42303703294581296,2e-06,1.8436212563017832e-08,0.6364999999999998,194,28,1264.2580174994505,2942.9812228,mp-541811,Cs6K3GaSb4,https://materialsproject.org/materials/mp-541811,7.526855724196874,18.296198117913523,29.755799215229004,-0.8302603068890569
-5.649298156875,-180.77754102,7.127364469511597,-1.5970400021679687,0.0,0.0,2.8442,39,32,537.6430706575377,2307.6712,mp-29839,Bi2SeO5,https://materialsproject.org/materials/mp-29839,-10.938912039529868,-25.196671870703764,-0.9357962385004626,-29.048813066776987
-6.921884431973684,-526.06321683,3.9666319239689187,-2.2135376003596727,10.000055175,0.08135284317073954,3.2994000000000003,198,76,1432.5410913301375,3421.9991752,mp-1213801,Cs2Mn2(MoO4)3,https://materialsproject.org/materials/mp-1213801,9.663774006218468,-27.9625717961817,47.733985335429274,-6.849087333358788
-5.5241018657500005,-220.96407463,5.661426232721808,-1.5478659089375002,4.0000005,0.07719414865989117,2.3474000000000004,148,40,603.8833995392221,2058.8744,mp-561036,FeTe6O13,https://materialsproject.org/materials/mp-561036,4.627706756592878,19.326089394717805,32.27653703915788,-6.637158883353256
-5.0741608365,-101.48321673,2.5879154735014973,-0.6220143282260004,0.0,0.0,2.1636,19,20,364.2240575263049,567.6356,mp-29526,BrNO3,https://materialsproject.org/materials/mp-29526,8.300605187295348,-25.94860425715757,18.686548900033568,-17.560452129739225
-4.716002058333333,-226.36809879999998,7.283593829692071,-1.2900755510416673,0.0,0.0,1.9408000000000003,50,48,1065.8041474482552,4674.9184,mp-543028,Tl2TeO3,https://materialsproject.org/materials/mp-543028,-10.938427214287891,-25.227986492267327,-9.780785706727249,32.667316395342766
-4.596121352,-91.92242704,5.068976878145652,-1.2439505570949998,0.0,0.0,1.2471,2,20,619.0847889724025,1889.82397,mp-1228711,Ba10IBr4N5,https://materialsproject.org/materials/mp-1228711,-13.803807586787135,20.721450484391823,-14.979005170983529,12.686027343877685
-7.697939829473684,-146.26085676,5.880049046861132,-3.37113304513158,1.4800000000000002e-05,4.448865535478464e-07,0.4068000000000005,8,19,387.69469937538514,1372.8456800000001,mp-1223043,La4Nd4S4O7,https://materialsproject.org/materials/mp-1223043,-13.829347943266956,22.647031467954672,-18.219578842650343,37.891067245039565
-5.0372328785714275,-70.5212603,5.774876917806695,-1.0123412778571423,0.0,0.0,0.0226999999999995,11,14,520.1732068356337,1809.01272,mp-28746,Pr3RuI3,https://materialsproject.org/materials/mp-28746,-0.020947190156915,-14.710030746735995,19.766529833191715,-14.147924872888195
-2.3545307475,-9.41812299,6.5906989787078025,-0.18066434083333327,0.0,0.0,0.9072,11,4,118.30283413625787,469.54534,mp-568927,AgI,https://materialsproject.org/materials/mp-568927,-24.443531156589174,-38.08508688267735,-34.12098432906384,-23.84502823191277
-7.099105735384616,-369.15349824,3.6423403785654216,-3.038651727714285,0.0,0.0,1.3919,14,52,744.4926430042842,1633.021296,mp-1195550,K2Ce(PO4)2,https://materialsproject.org/materials/mp-1195550,34.824304696680876,-22.637986371521386,36.20395697115986,-19.400900029747763
-5.3197986075,-63.83758329,3.8431845599002714,-2.1552727370833336,9.3e-06,3.6913604614227135e-07,1.6545,29,12,293.6120802004597,679.5416343999999,mp-1214837,AlIO,https://materialsproject.org/materials/mp-1214837,5.946230724220276,-26.713248768877158,17.34002284698749,-18.233358041014217
-6.250106683125,-100.00170693,4.488739815258906,-1.1233622988541665,0.0,0.0,2.3314000000000004,14,16,224.7391121205909,607.5108,mp-5282,AgCO2,https://materialsproject.org/materials/mp-5282,3.1033596579972875,-18.362565622839746,16.72979668247812,-18.15335751208781
-7.518017234249999,-300.72068937,5.219080932414048,-0.6448961755434481,0.0,0.0,2.046,80,40,883.3802163252873,2776.4676,mp-1029857,Rb3W2N5,https://materialsproject.org/materials/mp-1029857,7.710980001282422,26.918112355493346,35.4203409567634,-5.6106367066359
-7.427100758333334,-623.8764637,4.2229504130388245,-1.0851420574484358,0.0,0.0,4.1542,205,84,1048.30273626453,2665.959888000001,mp-567486,BaSr2(PN2)6,https://materialsproject.org/materials/mp-567486,-13.343958754345307,18.525273076664032,-32.540746186215834,-20.16883079806405
-7.330996387250002,-293.23985549,8.07651594467847,-4.405214923595,0.0,0.0,5.6189,62,40,517.1009443751441,2515.071264,mp-560114,Er3O2F5,https://materialsproject.org/materials/mp-560114,6.711807798912394,27.66757829852516,32.058987015208764,-6.136340836858302
-2.989947888333333,-35.87937466,5.4567154939304015,-0.2511944116666669,0.0,0.0,0.9081,14,12,438.48664558244036,1440.9157599999999,mp-27747,PdI2,https://materialsproject.org/materials/mp-27747,37.70865924521698,-33.92601844045935,15.621456433522676,-41.424464937627675
-6.3089410144444455,-113.56093826,7.490821140147778,-2.023965973849207,0.6388234,0.03081534967958293,0.0,68,18,241.59678080043042,1089.861924,mp-756074,Bi2PO6,https://materialsproject.org/materials/mp-756074,23.005663837979466,59.177353458263035,-15.39341999088999,39.31272277330765
-6.30525984125,-453.97870857,2.542854942470944,-2.4159576444444446,0.0,0.0,3.0582000000000003,92,72,1327.7495075707325,2033.24,mp-28280,K5V3O10,https://materialsproject.org/materials/mp-28280,6.399140794662464,30.403299664761988,30.548992004543774,-3.806610687424069
-5.624997465769232,-292.49986822,7.707384675777342,-1.7406373774953858,4.05e-06,4.6575917196898086e-08,2.5488,73,52,1013.3769804110301,4703.5848128,mp-760319,Bi5O7F,https://materialsproject.org/materials/mp-760319,27.32110339587645,58.68731178754707,-8.212790788469162,32.86344580937315
-7.1061837799999985,-85.27420536,4.806790357062597,-2.5811261900416653,0.0,0.0,3.3011,82,12,175.95278726627976,509.3335,mp-1223359,KSm(MoO4)2,https://materialsproject.org/materials/mp-1223359,-9.532335626903471,-25.001209183591147,-2.0599703481168152,-29.67839536003553
-5.660992513571428,-79.25389519,5.8832292642704855,-2.7345086200252373,0.0,0.0,3.2430000000000003,39,14,176.0020445445189,623.5688256000002,mp-1147533,BiBOF4,https://materialsproject.org/materials/mp-1147533,6.833422201741903,18.407534474830914,27.907800645282315,-4.035259573216643
-4.8016400799999985,-33.61148056,6.148651571552982,-1.440452672142857,0.0,0.0,0.6163000000000003,10,7,239.9117748481653,888.34642,mp-1227395,Ca(TmTe2)2,https://materialsproject.org/materials/mp-1227395,-23.88872221688868,-37.545730006005655,-33.346493716478584,-24.098737951570893
-5.373131302142856,-150.44767646,3.7434113877845334,-2.2022417117549264,3.75e-07,6.262316276458071e-09,2.2030000000000003,14,28,697.8686634111823,1573.2297999999996,mp-756474,Rb3YO3,https://materialsproject.org/materials/mp-756474,8.407905143580859,28.179532502207557,31.197805405759286,-5.22336934101886
-6.314847632777778,-113.66725739,3.4671137686683755,-1.7070005349877784,9.999999800000001,0.4988695118250357,0.5819999999999999,5,18,233.60947629058015,487.76367928,mp-685127,NaMn2Mo2H3O10,https://materialsproject.org/materials/mp-685127,29.012412042320122,-21.734129575294133,44.65426420163657,-20.005942552417327
-6.339145845,-152.13950028,5.350494226093471,-2.4044052551041672,0.20359675,0.004813783414736773,0.0,46,24,492.903296130615,1588.2049,mp-1244820,Sr2YBi2O7,https://materialsproject.org/materials/mp-1244820,11.055091017123594,19.69859852730735,23.21334099647109,-14.441722438344458
-4.123169277142857,-57.72436988,4.6958024853098586,-0.8210500416457143,0.0,0.0,1.1687,68,14,241.95071462298046,684.2072,mp-615141,Pb(ClO2)2,https://materialsproject.org/materials/mp-615141,7.632541158907719,-15.970357144087286,-2.98693624480743,-30.48327246546502
-2.9303540696428567,-82.04991395,3.680935408090804,-1.2725210346428573,0.0,0.0,3.7769999999999997,62,28,719.817734778289,1595.628,mp-28829,Li2ZnBr4,https://materialsproject.org/materials/mp-28829,-10.282352624610649,-18.3102965639453,-9.100905457213845,-0.5816070783646194
-4.1484340865,-82.96868173,5.6769738437957376,-1.1594234379999997,1.9999218999999997,0.029618464333636206,0.0,148,20,786.9151857475543,2690.2691350000005,mp-1190033,Tb7MnI12,https://materialsproject.org/materials/mp-1190033,-24.58720269477173,-38.04275008170893,-34.145547764931806,-23.80918381961023
-3.2162007671794868,-125.43182992,3.2458934862050004,-0.4723274370287177,0.0,0.0,2.9967,71,39,521.9683584710499,1020.30344,mp-697671,Ba6Mg7H26,https://materialsproject.org/materials/mp-697671,10.371560875827932,-26.39564902883059,23.439057159977104,-13.77845110416394
-8.75309052,-175.0618104,5.14590854977942,-1.0689481289279996,0.0,0.0,1.4196999999999995,15,20,300.64702670518767,931.68668,mp-989612,LaCrN3,https://materialsproject.org/materials/mp-989612,20.019226162347262,-5.412661260363394,32.570788779086364,-2.1322441870800417
-5.5839281125,-44.6714249,6.5181990298129575,-1.9456331703125005,0.0,0.0,0.0,129,8,174.28955854242597,684.1477400000001,mp-12515,LaZnSbO,https://materialsproject.org/materials/mp-12515,-14.985483749408903,21.259541432806703,-15.43665552354711,41.585013020851775
-2.931877949285714,-41.04629129,6.027537536937282,-0.7112587414963052,0.0,0.0,0.8037999999999998,71,14,536.4299209050465,1947.1698083,mp-510075,Cs7Au5O2,https://materialsproject.org/materials/mp-510075,8.764657978857969,-24.261618363908838,-1.274708816475429,-32.98099373771044
-3.712857993333333,-44.55429592,6.130301012537568,-0.11877157708333405,1e-07,2.9612862600547822e-09,0.2689000000000004,164,12,393.5473895166115,1452.88,mp-29641,GeSb4Te7,https://materialsproject.org/materials/mp-29641,-22.374356947465035,-35.89290729459059,-32.80755453129556,-22.911015850507198
-6.620261714615384,-172.12680458,4.47769710828557,-2.5284377191538456,0.0,0.0,3.7104,70,26,412.27468669959745,1111.71199712,mp-1192524,Na2Th(AsO4)2,https://materialsproject.org/materials/mp-1192524,30.011638866082073,-20.176032694822013,47.357442931569224,-30.884780141657576
-2.424467530625,-38.79148049,4.0428082604140085,-0.3399873043749997,0.00042175,7.645788167106886e-06,0.0,140,16,642.8509017516884,1565.1080000000004,mp-570362,Sr5In3,https://materialsproject.org/materials/mp-570362,4.958255449209763,27.163019952085254,21.72504840387092,-15.126782298050811
-4.195015495714285,-58.73021694,7.398257138790588,-0.20971301857142827,0.0,0.0,0.4525000000000001,87,14,534.5504349004899,2381.601080000001,mp-541771,Bi4RuI2,https://materialsproject.org/materials/mp-541771,-13.466764166668124,18.037645846228465,-0.3542390213051879,-1.905068021682463
-5.175953224583333,-124.22287739,2.42464061276165,-1.6161814707879472,1.25e-07,3.534398579258645e-09,5.1581,62,24,412.1657656606242,601.8249679999999,mp-24212,RbP(HO)2,https://materialsproject.org/materials/mp-24212,11.601823074948435,-18.822275340234423,18.944465681933245,-16.124920462896604
-6.7450936272222215,-242.82337058,5.6436761098144475,-2.3287165338541658,0.0,0.0,3.9922,14,36,571.9295982197314,1943.81784,mp-1195659,Th(SeO3)2,https://materialsproject.org/materials/mp-1195659,16.3179575087928,-10.153952150448823,35.16638141858841,-16.0402994101112
-5.635929289166668,-135.26230294,5.868221652737009,-1.7947788873697919,0.0,0.0,1.4608999999999996,173,24,510.1985875118775,1803.0039199999999,mp-554553,Ho3CuSnS7,https://materialsproject.org/materials/mp-554553,9.21299976791418,-19.61369904065691,14.044828294445061,3.6627660867013665
-5.352967481470587,-364.00178874,4.324240128987913,-2.5381364490667644,4.000831175,0.030080126538550987,1.9121,62,68,1550.0581620815267,4036.5348511999996,mp-1199018,Ba4CrGa2(S3F2)2,https://materialsproject.org/materials/mp-1199018,7.993557017642093,-18.540692556183537,16.34135791561674,-12.862114699681928
-3.7865257966666666,-90.87661912,1.1893278127484157,-0.4718951771008335,7.5e-08,2.296097831409561e-09,4.329,57,24,380.6696935928901,272.64704,mp-696805,H2S,https://materialsproject.org/materials/mp-696805,-14.586242932833779,23.96459700176475,19.83889020605828,-21.856006048848933
-3.4789859675,-41.74783161,5.932626673995624,-1.3082140888541671,0.5000074999999999,0.015676222287561454,0.0,174,12,371.7170938810469,1328.03788,mp-1207510,YbSI,https://materialsproject.org/materials/mp-1207510,-15.406712178007515,22.972841984283548,-17.677078202659278,39.067096828515155
-4.86443085,-19.4577234,5.477485928690957,-1.7210325806330815,0.0,0.0,1.9741,166,4,123.78455879693037,408.31812,mp-10783,RbHoSe2,https://materialsproject.org/materials/mp-10783,-23.453470874923138,-36.069476224039704,-33.119391675659216,-22.87216209738896
-4.850162435714286,-33.95113705,5.9754887702912,-1.4604368807142858,1e-07,4.763783404995921e-09,0.6067999999999998,10,7,244.6388465171974,880.3386399999998,mp-1227385,Ca(HoTe2)2,https://materialsproject.org/materials/mp-1227385,-23.71375475956303,-37.758101805505,-33.2894445681568,-24.12994832522785
-2.16259193,-17.30073544,3.886067309049332,0.2199926575000002,0.37690565,0.01190322089746656,0.0,194,8,369.01632726807526,863.5884199999999,mp-982013,Sr3Tm,https://materialsproject.org/materials/mp-982013,-11.559245013127065,-18.903755914372827,-20.197695098947314,-5.708978920117509
-5.5614034420000005,-166.84210326,6.682960221276523,-1.9189210627500008,0.0,0.0,1.5876,147,30,692.9762119199817,2788.9332,mp-27228,Tl6Si2O7,https://materialsproject.org/materials/mp-27228,0.7884433866917478,27.26997132524065,-16.206557441910974,41.68748325602897
-6.871972857833332,-412.31837147,7.767335665751236,-2.383376198958333,0.4994868333333333,0.006207236068020623,0.0,12,60,937.7848441590886,4386.5814,mp-1214660,Ba4Nd(IrO4)3,https://materialsproject.org/materials/mp-1214660,-18.726374470563396,16.963167456706387,-17.042760386192402,46.74750962738656
-3.3675636941666665,-40.41076433,5.108966225096637,-0.32226207036458315,6.7025e-05,1.833841803812236e-06,1.3869999999999998,62,12,425.94387899600434,1310.4978800000001,mp-22996,SbSeI,https://materialsproject.org/materials/mp-22996,4.722089383327681,21.945496574641904,-0.42413969970987137,-2.0595750923887723
-6.547434680952383,-137.4961283,3.570467022359761,-2.8012983755805085,0.0,0.0,4.5158000000000005,189,21,351.58466716721875,755.9722653,mp-862701,CsCaCO3F,https://materialsproject.org/materials/mp-862701,5.561056692152665,-21.143260225950648,22.16916950120695,-19.404780958164388
-2.29482164,-18.35857312,3.53195957660649,0.15949227312500014,0.38042965,0.011582043387915773,0.0,194,8,382.79530079536727,814.204,mp-1187132,Sr3Nd,https://materialsproject.org/materials/mp-1187132,-11.354109290326743,-19.118790606976333,-20.24847063021962,-6.306157432656121
-5.6848346925,-68.21801631,5.358269457278887,-0.7993757534635417,6.9606496,0.2693571109244655,0.0,63,12,301.1610163885362,971.794,mp-1102153,BaFe2Se3,https://materialsproject.org/materials/mp-1102153,-18.45645447447189,15.33335598194499,-19.24189075144236,47.290825757784965
-3.452532951666667,-20.71519771,4.614484921196445,-0.9379568609766666,0.0041396,0.0003313622864381742,2.2524999999999995,164,6,145.59039609201074,404.58229,mp-1018651,Ba2H3I,https://materialsproject.org/materials/mp-1018651,1.7020856010367622,-35.19582826334158,3.4479731675671066,-29.27253034202821
-8.5352158655,-170.70431731,5.59524223653605,-3.8881355855,0.0,0.0,3.9038,36,20,331.00646768108527,1115.337444,mp-1178124,La3ScO6,https://materialsproject.org/materials/mp-1178124,5.1959714973658375,24.358227528267626,-12.843667551212926,42.11604841696953