energy_per_atom,energy,density,formation_energy_per_atom,total_magnetization_uB,total_magnetization_T,band_gap,sgr,num_sites,cell_volume,weight,mp_id,formula,URL,tsne_xrd_lin1_0,tsne_xrd_lin1_1,tsne_xrd_lin2_0,tsne_xrd_lin2_1
-7.938828821666667,-95.26594586,5.141339874125284,-1.3016865695233324,0.0,0.0,1.6727,36,12,187.03958944211803,579.1096,mp-1245470,Y2GaN3,https://materialsproject.org/materials/mp-1245470,4.727026589937934,64.42317415839398,-2.1150799836405865,69.19198348441502
-6.131434094444446,-110.3658137,4.884163176924044,-2.1081159005902785,3.0198319,0.08158508051278703,0.0,140,18,431.3695144215255,1268.79227,mp-22423,BaLa2CoS5,https://materialsproject.org/materials/mp-22423,-8.334910910066768,8.857170785689057,-0.3748771092446649,20.008576731764467
-4.84614957,-38.76919656,5.165023090510873,-2.1240860169531244,0.0,0.0,2.2347,63,8,161.2631146655429,501.6008,mp-548469,BaZnSO,https://materialsproject.org/materials/mp-548469,-10.361641593385627,23.035257277800323,-16.92018190792906,42.713068403125675
-8.123557216111111,-292.44805978,8.625354651398021,-3.3344528097222224,0.0,0.0,3.8181,19,36,473.0979800026776,2457.4176,mp-17426,Er2WO6,https://materialsproject.org/materials/mp-17426,12.740053046108745,16.967266268792983,38.38322137881859,1.103242200121445
-7.8296056896875,-250.54738207,6.27846952083247,-3.1618507496875,2.0002518,0.04407685014154125,0.0015000000000000568,57,32,528.8731831737465,1999.6604,mp-542663,Ce2SiTeO4,https://materialsproject.org/materials/mp-542663,-1.3944973978273512,30.05489964140299,2.641607946977806,28.606636333076416
-6.2771356225,-50.21708498,7.8573121193930815,-2.4430917825950003,0.0,0.0,1.6805999999999996,123,8,141.1246572168889,667.7714,mp-546152,SmBi2ClO4,https://materialsproject.org/materials/mp-546152,-14.056675851981813,31.371403316627326,-13.144155379459633,52.63872238848832
-9.5452417525,-190.90483505,7.115877281745718,-3.9061502156875014,14.0024855,0.5717548055378985,1.1899999999999995,160,20,285.412333072225,1223.0722,mp-753088,Ce5Gd2O13,https://materialsproject.org/materials/mp-753088,26.511458440653197,64.24185260920136,-10.369966280511882,36.286766698499775
-8.246862414,-41.23431207,6.622860375530532,-3.0722415661500007,0.0,0.0,2.2603,221,5,63.16746686230471,251.93584928,mp-4170,NaTaO3,https://materialsproject.org/materials/mp-4170,-10.930510068214929,50.285777409806606,10.467910151454516,35.829384195649624
-5.5110260272727265,-121.2425726,5.341143703652381,-1.7377937293181818,0.94832385,0.0316667293605128,0.0,69,22,349.00439030007277,1122.5768,mp-25225,Ba2(CuO2)3,https://materialsproject.org/materials/mp-25225,1.6461282400919008,25.933778420591835,11.680725495514373,9.602655421099275
-3.512679335,-14.05071734,7.143041867564429,-0.21420883333333365,2.7000000000000004e-06,2.550678201109562e-07,0.0,225,4,123.3631701255896,530.664,mp-862613,LiAc2Ga,https://materialsproject.org/materials/mp-862613,-30.10474710353889,48.374885168624665,-55.66946059500118,52.71640040663653
-3.7245637607142856,-52.14389265,5.317828180429295,-0.4007251449553572,4.6e-06,1.6566967418160676e-07,1.3459999999999999,146,14,323.5878758052535,1036.2808,mp-1229145,Ag6SbAsS6,https://materialsproject.org/materials/mp-1229145,0.8907167463015785,18.25499360307698,2.9425608537348085,19.78615012318617
-7.797847030833334,-374.29665748,5.216619456628288,-2.759006759062501,0.999999475,0.015776347922279967,0.15839999999999987,55,48,738.7044651644234,2320.65612,mp-1201335,LaNb2CuBrO7,https://materialsproject.org/materials/mp-1201335,1.8569613030862724,10.491512648629897,8.7223794742825,28.29737974503605
-3.4114646545833334,-81.87515171,5.285518512137881,-0.4595084924479167,0.0,0.0,0.17499999999999982,121,24,723.9552882487309,2304.3596,mp-1191338,TlHgAsS3,https://materialsproject.org/materials/mp-1191338,6.533032270923363,-20.665015030124398,10.272325369768831,-22.86409695947512
-6.5159604658333325,-78.19152559,6.9081659540116975,-0.5622391391666662,13.96962645,0.5766571674345279,0.0,194,12,282.3218728400654,1174.514,mp-1095470,Eu2ZnGe3,https://materialsproject.org/materials/mp-1095470,-51.85340842077849,24.483018488143806,-33.463896130826264,35.7236309653829
-6.051426736,-30.25713368,4.250931157768472,-0.15867630995199916,0.0,0.0,0.0,115,5,72.45325335510947,185.4782,mvc-11775,Ca(NiN)2,https://materialsproject.org/materials/mvc-11775,-27.622085910880127,9.220215340911324,-40.130805992370355,9.769801673401654
-2.9451379843333334,-88.35413953,3.735833597864184,-1.830802516530713,3.733333333333333e-05,4.638946073330765e-07,2.4914,194,30,937.89640570199,2110.0527114,mp-619015,CsCdCl3,https://materialsproject.org/materials/mp-619015,-2.809775117183984,-7.231807512486597,-8.043376158322163,-18.132967453282298
-4.850465071666666,-87.30837129,6.755699698124263,-2.856093135105555,0.0,0.0,2.8424,129,18,380.3105697905946,1547.246972,mp-554245,BaPb2IF5,https://materialsproject.org/materials/mp-554245,-8.737404686656292,-28.261563429831128,-1.5073388494015498,-26.824025678362144
-8.033287172,-40.16643586,6.693445151353862,-3.2710919212187504,1.9999995,0.2401703000048553,0.0,164,5,97.04831828754759,391.1908,mp-754640,Ce2SeO2,https://materialsproject.org/materials/mp-754640,-13.56584514333118,22.820832649327816,-18.16642792705896,38.30692783429282
-5.366714503333333,-64.40057404,3.345290968982048,-3.0218936476329015,10.0000006,0.5775244773546242,2.9652,139,12,201.79344649053715,406.5293124,mp-558227,K2RbMn2F7,https://materialsproject.org/materials/mp-558227,-30.60695164080889,-3.3366912227472416,-30.44274359364089,-11.306796286174109
-5.610257482000001,-28.05128741,5.123490081704318,-1.1917935819999996,2e-07,1.5213451944878157e-08,0.03759999999999941,71,5,153.20736956721004,472.71182400000004,mp-1219396,Sc2Te3,https://materialsproject.org/materials/mp-1219396,-33.07839721179575,-29.33067541117465,-42.23336743966377,-7.1517440786921735
-9.718449677,-194.36899354,5.6599169269272895,-2.2731689797019983,0.0,0.0,1.9396,5,20,265.76149741037557,905.8432,mp-775805,Zr2N2O,https://materialsproject.org/materials/mp-775805,-17.6230928331722,42.05547583179418,4.845614559654606,59.108079605092506
-6.76316827,-162.31603848,4.019929776842767,-2.3245846397321426,3.0000001,0.10647042814283987,0.7576,6,24,328.3747054739045,794.9486430000002,mp-757548,CoSn3(PO4)4,https://materialsproject.org/materials/mp-757548,31.1683446841714,11.133538266750678,54.194897487947905,5.489105317110907
-9.550387106,-573.02322636,9.083661844576042,-2.8224794939166657,28.000000275,0.38242244744884185,1.8749,60,60,853.2810221089113,4667.7109519999985,mp-623092,Gd4Au2O9,https://materialsproject.org/materials/mp-623092,22.03744217691721,33.629490604687874,17.16031279283756,50.328006342425745
-5.037129804,-25.18564902,4.341044822241363,0.046844040017241184,0.0,0.0,1.7529,164,5,151.57466625974766,396.25230380000005,mp-505824,Cs2PdC2,https://materialsproject.org/materials/mp-505824,-0.1530340368849938,-25.96935146373476,15.910005928769259,-17.695146504580972
-6.20636563,-55.85729067,7.546937128870773,-0.3344993727777769,9.6984064,0.6348711718137124,0.0,174,9,178.0295930799834,809.1216850000002,mp-1217644,Tb3Mn3Ga2Si,https://materialsproject.org/materials/mp-1217644,-42.622048707875685,11.842561893970627,-23.04524158192033,22.279626707690507
-5.966377834166668,-71.59653401,11.526159459422994,-1.1894442008333332,5.7225e-05,2.9148262367244363e-06,0.0,62,12,228.7971228635461,1588.1301544000003,mp-1102691,LuAlPt,https://materialsproject.org/materials/mp-1102691,-49.669168775773045,13.93999456001925,-34.4338934375418,21.795212796907244
-4.120010278181818,-90.64022612,5.650867651925902,-0.16309384046181788,0.0,0.0,0.2852999999999999,11,22,195.475946444764,665.21092,mp-1190554,BaReH9,https://materialsproject.org/materials/mp-1190554,6.135941902381356,16.355127042579447,36.51927459559111,-3.1528292720017683
-6.8921422933333325,-41.35285376,5.724751652449782,-3.4770217131700014,0.0003009,3.088863965040266e-05,4.766400000000001,129,6,113.52743693966784,391.3888,mp-23058,NdClO,https://materialsproject.org/materials/mp-23058,-7.2138437537352935,10.385983961377393,-3.3824457795202507,23.906328397889578
-6.58188133,-59.23693197,3.257586998938045,-3.1870742735003965,0.0,0.0,6.0038,155,9,126.28212375287548,247.73582230000002,mp-553342,CsBe2BO3F2,https://materialsproject.org/materials/mp-553342,10.907506132316394,-8.437528542305138,15.770847618231619,-4.903515811260116
-9.135347572999999,-91.35347573,10.858581760451289,-1.5619026113392849,10.4650309,0.5910282395857429,0.0,166,10,206.3524884038056,1349.3783119999998,mp-1216840,U5PS4,https://materialsproject.org/materials/mp-1216840,31.45793957055244,64.24627332310762,-15.145004583426296,34.64982476203518
-6.906663497777778,-124.31994296,3.709114064832052,-0.8198519077244444,1.29079045,0.07278498657455311,0.0,15,18,206.6766268712997,461.6496,mp-1246234,Mg3(VN2)2,https://materialsproject.org/materials/mp-1246234,-5.744108228486279,15.364271988775947,10.36396418238799,58.76397702849365
-5.2371091185714285,-146.63905532,6.085208738207928,-1.2699745817346937,0.123951575,0.0015905751394623634,0.0,214,28,908.1870122772476,3328.1406880000004,mp-1213898,Ce3PI3,https://materialsproject.org/materials/mp-1213898,-32.16567471225759,-17.012774786469034,-35.934100568490045,-19.02348180532924
-5.962579735,-95.40127576,2.311937064114594,-2.2244218902978568,0.0,0.0,5.4785,20,16,195.4857325297493,272.171084,mp-1106168,KP(HO2)2,https://materialsproject.org/materials/mp-1106168,5.465663082084327,-27.442994267023593,18.159244109338935,-20.39381900389479
-8.129106507777777,-73.16195857,5.0483222151023694,-0.165394429722222,0.0005186,4.187551028228825e-05,0.0,12,9,144.3277455082321,438.78099000000003,mp-1223086,La2YC6,https://materialsproject.org/materials/mp-1223086,-8.319057275176077,-26.283916483187546,-3.831246590544844,-18.858343584482867
-4.010615353888889,-72.19107637,7.162782726011339,-0.4381370223177778,1.00004655,0.03858247065049459,0.0,186,18,302.0700093275508,1302.98764,mp-1189370,Ce2Zn2Sn2H3,https://materialsproject.org/materials/mp-1189370,-30.834916612174567,6.107450099531021,-45.139160960503496,12.851104995265851
-6.96898047,-27.87592188,8.65989415857201,-0.196535629375,0.6206294,0.1473473976735784,0.0,38,4,49.087091740689885,255.994595,mp-1067743,YbCoC2,https://materialsproject.org/materials/mp-1067743,-36.314590252334064,28.753922798865084,-40.16109798729843,35.63882431631169
-6.984598395000001,-279.3839358,7.437423198386591,-0.6189912705000005,1.8124624,0.036099576519665263,0.0,128,40,585.1191688058301,2620.7025399999998,mp-1203732,Lu2Mn3Si5,https://materialsproject.org/materials/mp-1203732,-35.83906096560301,1.0530926084889451,-21.90445771235152,15.875860510987136
-8.503060180476192,-714.25705516,3.737498219993165,-1.0786895768361913,8.333333333333334e-09,9.200436019453658e-11,1.4901999999999995,205,84,1055.571781953052,2375.853600000001,mp-1246211,Ca(VN2)2,https://materialsproject.org/materials/mp-1246211,-0.8116855058378916,3.9127710292190487,19.763441395078388,51.0166367218964
-5.5021361042857135,-77.02990546,3.8580769646851056,-2.380750392474285,8.00000015,0.5652045823349457,0.5077000000000003,12,14,164.9535811323921,383.2512192,mp-752775,LiFe2OF3,https://materialsproject.org/materials/mp-752775,21.816137959339148,13.079296930054596,32.203434948844325,59.12267039741274
-9.3118182825,-111.74181939,8.606991772317242,-4.114034420833334,5e-08,3.4641117044854692e-09,2.7511,141,12,168.21144591656133,871.88226,mp-1173356,PrPaO4,https://materialsproject.org/materials/mp-1173356,29.79862270337413,63.49573432555362,-10.643108353963452,33.560373816692426
-7.069223445454545,-155.5229158,7.553390969114242,-2.8150456892045463,0.0,0.0,1.4172000000000002,46,22,304.86746197515265,1386.76844,mp-753830,Tm2Sb2O7,https://materialsproject.org/materials/mp-753830,15.329178246310608,62.29260652203111,-4.218096823633004,40.79112064416425
-6.5978518275,-158.34844386,5.2889451740524365,-2.3384201748333333,1.0,0.034885484074361844,0.0,15,24,334.0663052780895,1064.0269999999996,mp-1211299,KYb(MoO4)2,https://materialsproject.org/materials/mp-1211299,24.356433140130516,53.26342962688254,39.04653884682096,-1.9837096636736808
-5.193654416666667,-124.647706,5.630810997544415,-1.6238251338802083,5e-08,8.566247633436572e-10,1.2077999999999998,62,24,680.2316061393361,2306.6338800000008,mp-541430,BaLaCuSe3,https://materialsproject.org/materials/mp-541430,2.289581680392541,23.201862660478483,-2.9269875241919965,8.922077140861413
-4.7322804210000005,-47.32280421,4.367894822206556,-2.9943490904053798,4.999999400000001,0.33419675828805817,4.0526,225,10,174.35931206769507,458.63609228000007,mp-556320,Cs2NaFeF6,https://materialsproject.org/materials/mp-556320,-18.05857390869175,-49.681625310020024,-25.176574892492102,-8.187854734037398
-4.229172868,-42.29172868,5.2424632483371845,-2.5431072657829654,0.0,0.0,0.7836000000000001,225,10,174.72305973135727,551.6155881999998,mp-1113501,Rb2GaAuF6,https://materialsproject.org/materials/mp-1113501,-17.599976557137147,-49.93589704292889,-24.872994329835148,-8.298016416727974
-4.6847595816666665,-28.10855749,7.568910386275919,-0.6063925038888888,1.01e-05,8.346142378456094e-07,0.0,186,6,141.03048913554082,642.8317,mp-1206286,PrAgGe,https://materialsproject.org/materials/mp-1206286,-52.39374536750043,22.062883412563046,-48.598633093441144,28.2578395752646
-6.0190471375,-120.38094275,8.418488110935531,-1.5141283669419998,3.999999825,0.19225260776863856,0.0,14,20,242.4739908177296,1229.27818,mp-753819,MnTlO3,https://materialsproject.org/materials/mp-753819,-12.203029418854914,52.665572148322276,25.742541526346567,52.36474763325782
-7.4988786925,-149.97757385,8.166936738747857,-2.5503721722500003,0.0,0.0,0.7334999999999994,62,20,245.01726960189342,1205.0548,mp-3317,SmRhO3,https://materialsproject.org/materials/mp-3317,-20.304695665977462,43.54907505993166,-7.576795848086651,61.28647526312808
-4.18307361,-20.91536805,5.720527535396773,-2.11603712895538,0.0052006,0.0007046215713166586,0.0,221,5,86.01514873142666,296.3206615,mp-1207302,CsPdF3,https://materialsproject.org/materials/mp-1207302,-18.791266979152912,-49.63080567540627,-25.244555739372142,-6.693321388234299
-9.260152286875,-296.32487318,7.492203156689769,-3.0494613875000014,20.00000115,0.4990417946188525,0.0,62,32,467.0576920944792,2107.3224,mp-1098000,LiEu3O4,https://materialsproject.org/materials/mp-1098000,-1.3370388098468706,24.250691350884942,2.9158443634116447,47.68112673331563
-7.11675378703125,-455.47224237,5.734593049450253,-1.8155658861975008,0.0002423,2.8739392006999334e-06,2.9339999999999997,61,64,982.5468450075407,3393.1790655999994,mp-979340,Sr2LiTaN3F,https://materialsproject.org/materials/mp-979340,19.47979015708045,22.160498399554726,31.786438507140776,38.0299590392932
-5.9361337999999995,-94.97814079999999,7.418372699166766,-2.815704478671876,4.0000001,0.16685346008808938,0.0,146,16,279.3844384829326,1248.1356,mp-8261,Ba3Yb4O9,https://materialsproject.org/materials/mp-8261,-19.60747216656821,14.03967829427463,-19.590317918932367,45.17166669040003
-9.919072155,-99.19072155,11.647367365872901,-3.5725626536250017,3.9999998999999997,0.3958153690425116,0.0,71,10,117.77273337717614,826.08253,mp-1216910,U3O7,https://materialsproject.org/materials/mp-1216910,21.09218833028768,64.67555085249646,-8.673456828643062,37.58698789599262
-10.88854558414634,-446.43036895,11.413287687648284,-1.6322981624268278,21.1306432,0.4070066731081791,0.0,146,41,605.0463071233103,4158.63006,mp-32742,U16N25,https://materialsproject.org/materials/mp-32742,16.99097197158047,65.78396784406969,-7.870129123467024,39.709694712707574
-3.240081930333333,-97.20245791,2.990234533700673,-1.5341092149422304,0.00013833333333333333,1.571671729341411e-06,0.6094999999999999,194,30,1025.7521318057345,1847.1348,mp-772199,Rb3ClO,https://materialsproject.org/materials/mp-772199,1.289349487392147,19.589652827696032,-10.479024228538547,-9.46854695653923
-6.686606674285714,-93.61249344,5.110857369597563,-1.896350801071428,12.0000001,0.6245729331384198,0.0,162,14,223.91104547774097,689.1601999999998,mvc-966,BaCa(MoO2)4,https://materialsproject.org/materials/mvc-966,-18.58654767935866,19.147497196915868,-23.64881109571825,42.759893377120335
-6.647910656923077,-86.42283854,7.148316154321732,-2.054822349230769,0.0,0.0,3.0270000000000006,166,13,197.79662262896753,851.4781999999999,mp-21322,V2Pb3O8,https://materialsproject.org/materials/mp-21322,-16.452143192480275,18.597916945356012,-15.281834516851752,46.15487543624248
-8.490383258076923,-220.74996471,6.595403880430073,-2.6963122342307693,13.0,0.461942451465063,0.5537000000000001,8,26,327.9690826482404,1302.6424,mp-1212657,Gd2Cu(GeO4)2,https://materialsproject.org/materials/mp-1212657,21.799891110592387,32.77122271130588,32.977346626510375,40.2963029164827
-7.617613576666668,-137.11704438,4.412197473068751,-3.434687200416666,0.0,0.0,3.2218000000000004,15,18,334.62415473947937,889.1256480000002,mp-755403,Ba2Sc2O5,https://materialsproject.org/materials/mp-755403,10.677136211587731,15.778469984869131,14.700189098273606,8.068611530125592
-6.0511240834375,-193.63597067,7.686173517927508,-1.8572100795312492,0.0,0.0,2.3809,62,32,493.09317351638185,2282.3912,mp-23553,GeBi2O5,https://materialsproject.org/materials/mp-23553,9.112478332261443,23.27995558127648,14.246511951728465,8.619915562601808
-4.4454623627777785,-80.01832253,4.561121957335327,-0.7880540244709001,5e-08,1.0454132500347236e-09,1.1076,15,18,557.3903321089817,1531.024096,mp-19913,Ba3(InP2)2,https://materialsproject.org/materials/mp-19913,18.061525683047016,-13.779298118587525,31.10982809100437,4.249510365142906
-6.5450434956944425,-471.24313169,5.0180068973365435,-2.1353228040277776,1.8541666666666666e-05,2.544672360137309e-07,0.0,230,72,849.1693772037686,2566.1172,mp-1142725,SiSbO4,https://materialsproject.org/materials/mp-1142725,-12.579017590564431,8.976627027110514,-21.118486022904648,50.11534510969036
-7.623878255714287,-106.73429558,6.2315751612213965,-2.9727277951190483,0.00044445,2.7099573666663143e-05,1.4692999999999996,129,14,191.13396955524655,717.2765400000002,mp-22621,LaTiAgO4,https://materialsproject.org/materials/mp-22621,-18.89422496243137,38.01306140438257,-13.437719833944698,54.804029649200686
-4.8356948265,-96.71389653,4.922627060355613,-2.9637353061663334,1.0000004,0.03849983874929936,1.1878,15,20,302.7043700123988,897.3596447999998,mp-1228148,BaInCuF7,https://materialsproject.org/materials/mp-1228148,5.242163702943767,6.596948292668053,8.556457662377216,15.451013490158045
-6.699274217,-66.99274217,8.193957809712346,-2.0213802929166675,0.0,0.0,0.0,146,10,125.17318788117778,617.6691999999998,mp-550745,TiFe(BiO3)2,https://materialsproject.org/materials/mp-550745,-13.874960455222864,49.75885929123021,5.997892313654022,58.75876326144206
-9.144060978333334,-54.86436587,5.816012326895693,-1.4059128578566664,1.1473928999999998,0.17229464656529858,0.0,71,6,77.61002122086992,271.8279,mp-1245636,Y2CrN3,https://materialsproject.org/materials/mp-1245636,-12.414457753580255,46.58321644198926,-6.827947432511885,51.71865987422266
-6.58484658,-158.03631792,7.681474214434798,-2.221119896770833,1.39531835,0.049534599772913766,0.0,68,24,328.2782237827413,1518.5796000000007,mp-753375,Sr3Ir2O7,https://materialsproject.org/materials/mp-753375,-21.08981297716737,36.6141317925112,-14.404011189266011,56.60447976728696
-7.746099788076923,-201.39859449,6.808777265738502,-3.2265857880769233,0.99997815,0.03217600465514975,0.8837999999999999,141,26,362.18947181744727,1485.10055,mp-778224,La4CoO8,https://materialsproject.org/materials/mp-778224,-7.18018467527472,19.894678887418014,-9.167718662441112,44.65905508994781
-5.638898729375,-90.22237967,6.699300118817352,-1.8222861310937504,0.0294839,0.0013271610033403793,0.0,63,16,258.90399091205603,1044.5256,mvc-8200,MgBi2O5,https://materialsproject.org/materials/mvc-8200,1.0413183433545603,13.13589260170617,6.066793669716335,24.333200148657244