energy_per_atom,energy,density,formation_energy_per_atom,total_magnetization_uB,total_magnetization_T,band_gap,sgr,num_sites,cell_volume,weight,mp_id,formula,URL,tsne_xrd_lin1_0,tsne_xrd_lin1_1,tsne_xrd_lin2_0,tsne_xrd_lin2_1
-4.78477146,-38.27817168,4.5715691895663495,-0.6378151514062509,2.9507458,0.218646411928841,0.0,121,8,157.27759891962089,432.995195,mp-11770,CoCu2SnS4,https://materialsproject.org/materials/mp-11770,23.63407252851095,66.24261318731142,-13.369422897018636,7.601562826071563
-7.636964194545455,-168.01321228,3.627700891824353,-2.604119353405066,10.0000006,0.4485261208670647,3.2987,14,22,259.830251341318,567.6388280000001,mp-755644,Mn2P2O7,https://materialsproject.org/materials/mp-755644,6.602498256798722,31.446398553366237,31.142185985345783,-2.71873321862341
-7.14635471328125,-457.36670165,7.705432234696929,-2.3765291062499987,0.0014723125,1.8591323183016433e-05,2.9229000000000003,61,64,922.9265217724727,4282.6742399999985,mvc-7449,TaZnBiO5,https://materialsproject.org/materials/mvc-7449,18.68311857600654,59.54055182037615,34.16720593057871,-5.685292277145082
-8.809706404545453,-96.90677045,4.721100963003246,-2.5379184777272727,7.000000200000001,0.3555278004585212,0.32089999999999985,147,11,229.45731848119829,652.3731999999999,mp-754760,Eu(ReO4)2,https://materialsproject.org/materials/mp-754760,8.896243505123515,-25.965459714825247,-8.270447380977853,-32.87207738402239
-5.7277170879999995,-114.55434176,8.51385289394733,-1.632569999250001,0.0,0.0,1.6582000000000003,114,20,363.52195424444295,1863.836,mp-23195,Bi2O3,https://materialsproject.org/materials/mp-23195,-11.641652582210163,-28.150457561539092,-1.111132062696317,-28.064304605685912
-5.610836142,-56.10836142,3.261953125243665,-3.040759375506,4.99999945,0.3789468672447371,2.7802,74,10,153.7690966460209,302.0631092,mp-1205353,KMnF3,https://materialsproject.org/materials/mp-1205353,-27.32130233609173,10.703039542159557,-30.639482540362692,-11.154124952070351
-3.1862213716666665,-38.23465646,7.649715236067919,-0.07422875111111082,0.0,0.0,0.0,13,12,353.9292951212445,1630.4695379999996,mp-3291,AgTe4Au,https://materialsproject.org/materials/mp-3291,-25.445496739679275,-37.749973236004536,-35.099238763779695,-23.642835424857093
-6.741875952999999,-269.67503812,4.221623790204738,-2.311601956053573,7.5e-08,1.450764312587801e-09,0.0,14,40,602.4788798277518,1531.6948960000002,mp-766118,BiP2O7,https://materialsproject.org/materials/mp-766118,39.904396710018354,-35.310256122846546,46.142035888870666,-33.872867601696164
-7.0410027675,-422.46016605,6.3542716904174235,-2.492077274125001,4.9999513,0.06252404741889156,0.0,12,60,931.9575221907004,3566.2584,mp-1214781,Ba4Nd(RuO4)3,https://materialsproject.org/materials/mp-1214781,-18.344821254206835,16.829139964637413,-16.89869210777148,46.78560382722675
-4.960211252916666,-119.04507007,1.6576025642999903,-0.4643506344866661,0.0,0.0,4.7358,11,24,252.43764746148202,251.99124,mp-568157,H8C2BrN,https://materialsproject.org/materials/mp-568157,31.40368871333429,-13.592524001019461,25.12994555732989,-13.122648467451713
-6.660013523333332,-79.92016228,4.841267369281809,-0.9135449045833326,0.0002061,8.102314927562777e-06,0.0,8,12,296.446481172148,864.28361,mp-1216139,Y4C4I3Br,https://materialsproject.org/materials/mp-1216139,-12.84606413563691,18.17776700632173,-2.1947586453802748,8.822324131521283
-5.882637924210527,-223.54024112,3.704620076322896,-2.444467086095168,1.0,0.015117214243588637,0.0,161,38,770.9135152002162,1719.8883114,mp-558829,Cs3Yb(SO4)3,https://materialsproject.org/materials/mp-558829,17.89597100998863,-10.416465381639263,26.798834405871137,-4.5304387538170126
-4.147572443333334,-49.77086932,1.9291998805954675,-1.5379863020760718,4.04e-05,2.0653589476775866e-06,2.8384000000000005,38,12,227.96241657695117,264.844762,mp-1040450,Li5P(S2Cl)2,https://materialsproject.org/materials/mp-1040450,-16.979814118865864,15.268714417868695,-18.87761012539156,47.318492141380645
-6.207193835,-161.38703971,2.9638485477873253,-1.9949432342440392,9.0000006,0.38264043765831546,2.5289,166,26,274.11266458757336,489.25584000000003,mp-24009,KCr3H6(SO7)2,https://materialsproject.org/materials/mp-24009,-6.970191506909639,-6.623156157833708,6.386027858724997,-38.46657355324838
-3.926750315,-23.56050189,5.442343658850597,-1.1902756750000003,7.5e-07,3.649018218460666e-08,0.3703000000000003,140,6,239.531513852155,785.054,mp-2150,BaTe2,https://materialsproject.org/materials/mp-2150,2.5601945513643214,16.910286247395412,3.1428609744315135,-19.329357547607422
-2.785947895,-44.57516632,6.1142548951192754,-0.5671855954166669,0.0,0.0,1.8615000000000004,140,16,632.1085125649037,2327.4807,mp-23520,InPb2I5,https://materialsproject.org/materials/mp-23520,4.943467986788863,27.349998550121413,21.006869284363308,-17.122509002895118
-6.495985050681818,-285.82334223,1.7283700698321227,-2.41156954962987,0.0,0.0,3.0002,198,44,968.3844757743497,1007.94182112,mp-1204065,NaCa(PO2)3,https://materialsproject.org/materials/mp-1204065,29.540671282843398,-20.296917800225014,45.14679519938984,-30.368820809816068
-6.829255196399998,-170.73137991,3.730564431744269,-1.7086150367951995,2.9999999,0.0894972606624632,1.8172,143,25,390.6509863372432,877.6359,mp-1221507,Mo6NO18,https://materialsproject.org/materials/mp-1221507,17.441699636088,-6.662639659334166,14.208702287682975,-17.62439128447213
-6.5777411175,-105.24385788,5.981574981715453,-1.599521744218749,8.2852809,0.3183139290437204,0.0,99,16,303.3395382901688,1092.68626,mp-1223178,La3YFe4(AsO)4,https://materialsproject.org/materials/mp-1223178,-17.797540969780513,23.264233349828114,-21.674562501486502,44.94628795913058
-9.672523610833332,-116.07028333,8.097976693048688,-4.1941226333333335,5e-08,3.7006862416652843e-09,2.7661,141,12,157.45815791337446,767.87866,mp-1100867,YPaO4,https://materialsproject.org/materials/mp-1100867,22.815980339426552,65.4456306810236,-7.597331675998062,34.908578591488784
-6.167122678928571,-172.67943501,5.2272524368806135,-2.238176629933036,0.00017735,3.2215864649569247e-06,0.0,5,28,641.5622892310283,2019.59,mp-1220359,Nd5S9,https://materialsproject.org/materials/mp-1220359,-3.6964396436676092,-22.8854890210965,10.852627104902716,-13.269631592182556
-5.6820060225,-272.73628908,3.2208410674498866,-0.5506540916266663,1.8192056375,0.049533500331037074,0.0,206,48,428.01619494567353,830.19556,mp-1246635,Li3MnN2,https://materialsproject.org/materials/mp-1246635,5.21356402678711,-36.00752398210372,49.83874427317377,-8.463266408423232
-6.49301102625,-155.83226463,4.4198788962163365,-2.540136042187501,3.0000002,0.09467853813904947,2.015,113,24,369.2726708258303,982.8979900000003,mp-1191317,Sr2CoGe2O7,https://materialsproject.org/materials/mp-1191317,19.084044797464646,59.94644434569814,33.583686287109536,-6.095181954437063
-5.104477017500002,-142.92535649,4.0573021178494635,-2.6066711714285717,0.0,0.0,2.2005000000000003,62,28,988.45309977275,2415.1512,mp-756942,Ba3(BrO)2,https://materialsproject.org/materials/mp-756942,14.02691460965103,26.94503565163588,32.23089390558049,1.1587728746424144
-8.375256320294119,-284.75871489,6.975989719668982,-3.736253450735294,4.35e-06,1.0180872469069405e-07,4.0727,64,34,497.94535698833397,2091.888,mp-779001,Sr4Hf3O10,https://materialsproject.org/materials/mp-779001,-25.635391216300448,27.81445737362257,-24.50831821039233,56.972257351073075
-8.445032997941176,-287.13112193,6.722261893429162,-2.7336416241176478,6.9999999000000015,0.16684837842085448,3.2751,5,34,488.93763915846864,1979.3373,mp-1224627,GdY(WO4)3,https://materialsproject.org/materials/mp-1224627,11.236730237095962,21.814811130136476,40.05565837555787,-3.961208767573659
-6.738907945,-121.30034301,4.379839181401496,-2.3637864669666664,3.99999155,0.22785653563702385,0.2115,4,18,204.58557610851742,539.6150892,mp-755257,MnOF,https://materialsproject.org/materials/mp-755257,46.70663706237913,55.910069531216756,71.78582961357569,24.18299628459829
-6.2479433649999985,-349.88482844,4.016808819378043,-1.7149427685960592,23.00000035,0.3290071722996027,0.36340000000000017,14,56,814.7041050026352,1970.752,mp-768895,RbFe5O8,https://materialsproject.org/materials/mp-768895,14.266119320820367,26.67508699848208,58.76975675134031,32.8705880941722
-5.156143116666667,-46.40528805,5.23095160756539,-3.639997011348889,0.0,0.0,4.7376,139,9,144.1369535395115,454.0534192,mp-7739,Ba2ZnF6,https://materialsproject.org/materials/mp-7739,3.180364459063025,-24.479479130347624,-1.5379445166186585,-25.814266326328116
-4.996236094444446,-89.9322497,3.6989668749854268,-1.3991388149537498,0.0,0.0,2.7049000000000003,15,18,203.25456398691117,452.76375999999993,mp-23969,ZnH2SeO5,https://materialsproject.org/materials/mp-23969,22.67948408871542,-1.6884191267127977,62.63400103782217,-6.550963742121343
-6.147572973958333,-295.08350275,3.08671666924916,-1.5392176239662494,1.9999999,0.027915081695873648,1.1206,2,48,834.9654367358798,1552.0874064000002,mp-1212278,K3Mo4O16F,https://materialsproject.org/materials/mp-1212278,47.093237450467214,-12.649760038319107,50.99647030630345,-26.464559177483093
-6.469159331052633,-983.31221832,6.9221772009487506,-2.3252706104887215,0.0002316875,1.2627966017357748e-06,3.0506999999999995,61,152,2138.1916361518593,8913.335392,mp-1199340,MgBi4(PO6)2,https://materialsproject.org/materials/mp-1199340,9.952260788852533,24.369666798651675,34.905156898596076,-4.276723649864798
-7.166516613846153,-186.32943196,4.323103334854588,-3.0882875311900007,4.0000004,0.11380312930327414,1.3415,100,26,409.6219852411697,1066.42369,mp-558848,Ba2MnSi2ClO7,https://materialsproject.org/materials/mp-558848,3.6933328862943466,25.43348623432089,-5.879297089003103,29.364411661048074
-3.742076916388889,-134.71476899,1.9567824956524384,-0.4635110806955562,5.999999775,0.10530880565818213,0.3516999999999999,14,36,663.9937237552432,782.4515200000002,mp-1196111,NiH2(ClO2)2,https://materialsproject.org/materials/mp-1196111,26.554881709336886,-43.78070222973298,30.091890283809953,-59.820764211412275
-7.466299349000001,-74.66299349,3.0421061473617415,-2.154837719000001,2.0000001,0.2400247564321189,1.9881,148,10,97.10719451190279,177.9003,mp-762019,LiV(CO3)2,https://materialsproject.org/materials/mp-762019,-4.951657575666216,-5.140641264790652,0.7618446275858675,-24.85925100766706
-6.84538209,-164.28917016,3.755280412309048,-2.4764790925000004,3.75e-07,1.213486612810531e-08,2.8468,14,24,360.14194500160033,814.4548000000002,mp-510607,SrCrO4,https://materialsproject.org/materials/mp-510607,9.854877646312119,-14.86552153918545,24.564964794803174,-5.793292103979193
-8.230535888644066,-485.60161743,6.085647169389283,-3.2286728747033897,20.9999995,0.33032901062074965,0.7995999999999999,1,59,740.8836236842108,2715.23657,mp-758402,La11V12O36,https://materialsproject.org/materials/mp-758402,-27.87417249049362,47.70631665787649,-11.964028926658239,65.75239910833625
-6.266915555,-150.40597332,6.42073903765589,-1.7828239987351189,3.75e-08,9.265709634989636e-10,0.3000999999999996,62,24,471.6610450651978,1823.752656,mp-1190574,HoPS,https://materialsproject.org/materials/mp-1190574,-0.877603142859343,-24.234749300233865,11.694213182801096,-13.13212671062639
-6.453327939444446,-232.31980582,5.929122871265168,-1.9581510197222234,1.0775e-05,2.813073626849484e-07,2.0142999999999995,61,36,446.38912656177536,1593.8776,mp-17749,V2HgO6,https://materialsproject.org/materials/mp-17749,21.096325999971622,-11.13182727392085,14.057038544820585,-21.884215617862573
-4.76202144875,-38.09617159,4.1168058147501325,-0.6481809081330816,2.9968218999999996,0.1446806532558353,0.0,15,8,241.39479431757962,598.4656,mp-7086,RbFeSe2,https://materialsproject.org/materials/mp-7086,6.321491639642246,20.513312672724076,1.0088651174065952,26.1694668960763
-4.60487813,-13.81463439,2.7689715778852344,-0.4208372458333336,0.9999218000000001,0.2033788635134139,0.0,69,3,57.297760560678384,95.5448,mp-614565,CuO2,https://materialsproject.org/materials/mp-614565,37.714324718860674,-40.269002598736265,29.311686631186728,-66.42346784110156
-7.979894809666666,-239.39684429,4.555686789558164,-3.7091067524166665,0.0,0.0,4.2775,2,30,467.76447376439086,1283.3112515999999,mp-768417,LaAlO3,https://materialsproject.org/materials/mp-768417,10.714355266454806,22.456161442621003,39.44487254151779,-5.052104645867313
-7.567085228269232,-786.97686374,3.3213236248756544,-3.036732577898352,0.0,0.0,5.6628,15,104,1583.2478861061593,3166.729888,mp-1196764,Tb(PO3)3,https://materialsproject.org/materials/mp-1196764,63.93009785495571,-32.11316483877941,65.8124362661803,-23.56726246525975
-6.391956550108695,-588.06000261,2.645323777103245,-1.5329036995934775,0.0,0.0,3.6557,58,92,1167.1040786767046,1859.2566,mp-555979,Li2Pr(NO3)5,https://materialsproject.org/materials/mp-555979,38.5923877521591,-40.57193540412426,26.07739760601775,-61.44837363766178
-7.587646502142857,-212.45410206,5.599402584460716,-2.6335707431771422,1.75e-07,5.65475704147676e-09,2.4873000000000003,61,28,360.6629463014619,1216.16956,mp-510128,U(HO2)2,https://materialsproject.org/materials/mp-510128,6.959913421717423,-34.09119396365313,48.13405538037001,-7.142069953283032
-7.8326708325,-156.65341665,3.7642923260614647,-0.5890331889279992,6.1e-05,2.237033006323519e-06,1.4072999999999998,15,20,317.78608054356584,720.3924,mp-989634,CaTcN3,https://materialsproject.org/materials/mp-989634,21.07572702320493,-11.02858999375855,44.489983210351284,-3.9713032840044455
-7.0141726325,-308.62359583,5.519789021516598,-2.54283678625,5.00000005,0.1025832308130046,2.592,12,44,568.0297255573929,1888.1846,mp-744184,TbFeGe2O7,https://materialsproject.org/materials/mp-744184,7.918347581799147,25.716174106334005,32.18889955571993,-1.7833854463368772
-8.32847115,-166.569423,8.767798975937254,-3.9536468582500017,0.0,0.0,4.5066,62,20,283.46668716607144,1496.7302,mp-756048,TbErO3,https://materialsproject.org/materials/mp-756048,-21.941644218730907,30.40457649032649,-22.666426185626563,56.24138418898673
-7.14060405125,-342.74899446,4.48575304182983,-2.6247885619166667,0.0006101,9.208152165943144e-06,3.5981,60,48,772.157626156085,2085.894,mp-1211686,KDy(MoO4)2,https://materialsproject.org/materials/mp-1211686,6.12559324313284,18.563076292193433,35.11851356824128,-2.700452995762316
-8.394763718823532,-285.42196644,7.6852559250199395,-3.699163131617647,7.95e-06,1.7223999085137566e-07,3.6039999999999996,64,34,537.911169664403,2489.544,mp-779519,Ba4Hf3O10,https://materialsproject.org/materials/mp-779519,-21.382470993759874,14.915650637174759,-23.67266219743325,53.495433339461464
-4.553314965,-18.21325986,4.6212078924557645,-1.27551180875,0.8965920000000001,0.06644810393271497,0.0,166,4,157.24965234733241,437.61894,mp-27679,LaBr,https://materialsproject.org/materials/mp-27679,-7.019416522731524,-30.199678732134696,16.24470225850434,-18.179432623710056
-2.5987572983333336,-46.77763137,6.406997972440917,-0.3870814450000001,7e-07,1.1527365413095141e-08,0.5696000000000003,128,18,707.693826685188,2730.55484,mp-1208181,Tl2PtI6,https://materialsproject.org/materials/mp-1208181,2.374726983392458,-0.8878174973376306,-3.7932839380455863,-30.12681019964621
-6.467653344285713,-90.54714682,3.4145268778412627,0.1132552579360718,4.973251599999999,0.17644690367683935,1.7464,82,14,328.47613116967295,675.437645,mp-543031,MnHgC4(SeN)4,https://materialsproject.org/materials/mp-543031,26.67303291397639,-15.769816541907453,42.79086498299709,-29.23972440844709
-4.550642437272726,-50.05706681,5.7275487644880965,-0.5401654081818182,0.0,0.0,0.4779999999999998,156,11,375.34688408016183,1294.65043,mp-567713,Nb3TeI7,https://materialsproject.org/materials/mp-567713,-18.826118336743306,20.38805952769605,-14.082572080516298,-8.66826477234615
-4.147783068,-41.47783068,3.488214020951728,-0.4216010449950737,1e-07,4.198062601829362e-09,0.7658999999999998,63,10,277.6057881433516,583.153048,mp-1205511,Rb2NiP2,https://materialsproject.org/materials/mp-1205511,8.69874540890883,21.853873132521738,35.178065621192964,-5.147857496058848
-2.21777600875,-17.74220807,1.7745355922553807,1.14325952525,5.0473552999999995,0.14952423075835594,0.0,194,8,393.39580814419446,420.40255999999994,mp-976409,K3Nb,https://materialsproject.org/materials/mp-976409,-11.360247212827193,-19.495405159136446,-20.26276887898301,-6.706929544224969
-8.804096848611113,-316.94748655,5.999201939371476,-3.640362583518519,0.0,0.0,1.9645,14,36,574.8657526718905,2076.87724,mp-560110,BaUTiO6,https://materialsproject.org/materials/mp-560110,30.3232713264809,-13.776791210736947,43.67866687948108,-7.147866532582599
-4.782788667916666,-344.36078409,3.425713719036496,-1.0271544460912696,2.125e-05,1.2710024381854932e-07,1.3335,218,72,1948.4531970720814,4019.684384,mp-1208796,Sr4SiP4,https://materialsproject.org/materials/mp-1208796,-2.6550217880689506,-15.254091069225113,1.0090748986719178,-22.479441978430067
-7.086340593611111,-255.10826137,2.6046272787607796,-2.811012685726297,0.000706625,2.0185464916693757e-05,4.2777,14,36,407.9694747629742,639.9177599999999,mp-1238309,CaSiBHO5,https://materialsproject.org/materials/mp-1238309,13.503124484338345,-20.399633046978646,17.020866713320107,-11.740450456987402
-9.072617750740744,-244.96067927,7.236115522351732,-3.152645825709876,0.0,0.0,3.0034,5,27,420.0183556712692,1830.31008,mp-1218099,Ta6TiTl2O18,https://materialsproject.org/materials/mp-1218099,18.45355471509271,59.2180692120825,42.14281777438076,-2.4357395135691315
-8.475549665,-33.90219866,5.866427001208731,-1.5705317530357157,14.0000217,1.389587620078117,0.0,166,4,117.41408555429504,414.805762,mp-613052,Eu2PBr,https://materialsproject.org/materials/mp-613052,-26.291540001031226,-39.50962205792453,-32.04686482164766,-22.266264787172123
-6.445056934999998,-1031.2091096000001,4.177017044804533,-2.0391255271489994,2.00000003125,0.010762421276449536,0.34700000000000003,88,160,2165.695739890061,5447.71776,mp-1195494,NpH4ClO4,https://materialsproject.org/materials/mp-1195494,18.670272717978357,-13.428222787951606,10.581995599885062,-22.25576896524194
-5.606303769375,-89.70086031,7.763178581472089,-1.8644699925,0.0,0.0,2.0022,190,16,352.04611382706634,1645.8492,mp-1214389,BaPb3O4,https://materialsproject.org/materials/mp-1214389,-14.56388681343431,25.100778307291808,-19.55436042179015,-6.325314427257792
-5.298312230666666,-158.94936692,6.6219293310695235,-1.7557824349999995,8.025e-05,2.3824970323444907e-06,0.0,11,30,392.54558780188523,1565.4008,mp-769008,Li4Bi3O8,https://materialsproject.org/materials/mp-769008,11.501768483580976,19.39983079086661,42.84811982621013,-3.6001694237704465
-6.948819640000001,-138.9763928,3.5060301805174765,-3.228578687464,0.0,0.0,3.9142,76,20,314.29857225561415,663.6039584,mp-762371,NbOF3,https://materialsproject.org/materials/mp-762371,17.235901391510467,-26.18573296210728,22.486544012816573,-21.02395953339889
-3.7710162675,-90.50439042,2.26975443546892,-0.19767210242095187,8.03e-05,1.8507913927030808e-06,0.5625,62,24,505.63310642469355,691.138816,mp-1237028,KGa(PH)2,https://materialsproject.org/materials/mp-1237028,34.59724175014297,-22.79587871753693,15.71162734390505,-21.368997927760557
-5.1151002016666665,-61.38120242,2.26143798382869,-1.6965916008090278,0.0,0.0,1.1259,15,12,326.4021254749578,444.5172,mp-28766,K2TiS3,https://materialsproject.org/materials/mp-28766,9.117152826059355,12.2357029949137,-2.011837617298671,-7.585454445321139
-3.7021722235000003,-74.04344447,4.854423570208817,-0.4642969975,1.25e-07,1.772905020161464e-09,0.4775999999999998,36,20,821.6785896614418,2402.0970399999997,mp-570044,NbI4,https://materialsproject.org/materials/mp-570044,20.13992948979622,-4.130448772079685,17.974263354403373,-15.124626612747502
-0.95100013,-7.60800104,2.033498991008932,0.2211161090948276,0.00011630000000000001,1.8913024486198869e-06,0.0,194,8,716.6319348011872,877.5887114,mp-1185563,Cs3Ca,https://materialsproject.org/materials/mp-1185563,3.0582419883836858,-28.911909307382828,-6.6348513034131456,-33.642217876675325