energy_per_atom,energy,density,formation_energy_per_atom,total_magnetization_uB,total_magnetization_T,band_gap,sgr,num_sites,cell_volume,weight,mp_id,formula,URL,tsne_xrd_lin1_0,tsne_xrd_lin1_1,tsne_xrd_lin2_0,tsne_xrd_lin2_1
-5.964397003571428,-83.50155805,4.361928167109371,-1.7106172000000004,4.0000003,0.3296747566655359,0.027399999999999647,74,14,141.40076437138825,371.43359,mp-761710,LiFeCoO4,https://materialsproject.org/materials/mp-761710,19.66136629466634,-69.18932316758904,-15.22521377828554,-71.43760656984622
-5.75659855125,-184.21115364,4.129530799113232,-1.821249587872499,26.0,1.0422291536318886,0.0578000000000003,1,32,290.7284669889137,723.001465,mp-1176218,Li9Mn2Co5O16,https://materialsproject.org/materials/mp-1176218,13.619348508199572,-82.49770091185094,-14.009043046326411,-87.9465825794428
-6.4406238784375,-206.09996411,3.921920343073426,-2.1548991698975,25.9999995,1.0179565343472952,0.8442000000000003,12,32,297.6607232584879,703.025715,mp-1100492,Li9Mn7O16,https://materialsproject.org/materials/mp-1100492,10.750024757474927,-82.68478996037858,-19.28529209370297,-86.0634561464252
-6.458304096545455,-355.20672531,4.186698880358509,-1.904113780959456,29.9999936,0.6098053776289947,0.8603000000000001,1,55,573.3335280678454,1445.5395400000002,mp-771196,Li8Mn12Ni4O31,https://materialsproject.org/materials/mp-771196,17.985563230913503,-67.19688729783107,-15.462158694934555,-69.28410779159499
-6.4159199196875,-205.30943743,3.9149297394465785,-2.1301952111475,26.0000003,1.0161421150332623,0.0,12,32,298.1922342357131,703.025715,mp-1100498,Li9Mn7O16,https://materialsproject.org/materials/mp-1100498,2.4008595182346806,-78.51209222968153,-29.645848392622362,-77.61036576092934
-5.7939883690625,-185.40762781,4.1726419272472315,-1.8586394056849995,23.9999997,0.9721012769371128,0.9045999999999998,1,32,287.72470284833025,723.001465,mp-1175979,Li9Mn2Co5O16,https://materialsproject.org/materials/mp-1175979,12.689279864305231,-72.68026215781252,-11.585152748017068,-81.25981853240647
-6.348803672727272,-139.67368080000003,4.258103927207116,-1.9429869684090912,14.9999997,0.8112756455847199,0.7728000000000002,2,22,215.47666202426484,552.544685,mp-753039,Li4Cr3(CoO4)3,https://materialsproject.org/materials/mp-753039,6.791960244022162,-68.74707241208912,-6.144947777714658,-68.98840666023693
-5.7860019567857135,-162.00805479,4.134399323593234,-1.8454887619435718,9.914912699999999,0.4602145809985229,0.0,8,28,251.07643171446057,625.12847,mp-1174841,Li4MnCo2O7,https://materialsproject.org/materials/mp-1174841,12.99343741008438,-76.2998286927205,-14.60623610346826,-81.33231209274713
-5.81386922625,-139.53286143,4.005748397385788,-1.8664703894549997,17.999999600000002,0.9597616709705163,0.0,1,24,218.56797118426778,527.2554749999998,mp-1175047,Li7Mn2(CoO4)3,https://materialsproject.org/materials/mp-1175047,12.790467998376641,-83.72685430110161,-16.594910573838355,-88.05156761196032
-6.4983920545833325,-155.96140931,4.121741951573012,-2.239374455208333,8.000000566666666,0.41535322486974896,1.9565,2,24,224.46563359098624,557.1621,mp-754386,Li2CrFeO4,https://materialsproject.org/materials/mp-754386,2.5952569661430163,-66.76825885217059,-11.56474718624679,-65.14002680791215
-5.47545737375,-131.41097697,4.167628305276035,-1.7149256010416671,18.0,0.9836408881257068,0.4270000000000001,2,24,213.26194187168232,535.245775,mp-1174384,Li7Co5O12,https://materialsproject.org/materials/mp-1174384,19.400510993102838,-82.73637001825244,-12.296208344690097,-80.89840623857613
-7.313526222666668,-109.70289334,4.067053404543064,-2.5241932446666677,7.0000003,0.5064134547317058,0.7161999999999997,12,15,161.0906190226659,394.54908,mp-769967,Li3NbV3O8,https://materialsproject.org/materials/mp-769967,2.2788506793994245,-60.544863903439634,-10.330238252809846,-61.48381903715492
-6.701666697941175,-455.71333546,3.2011678361353413,-1.9136775659952936,5.000878375,0.08924961341364045,0.0,26,68,653.0063075100758,1258.85796,mp-758407,Li3Mn2(CO5)2,https://materialsproject.org/materials/mp-758407,17.107958963916158,-50.59807696482591,1.0431617356555996,-43.72409200713742
-5.81728201892857,-162.88389653,4.131581700483326,-1.8767688240864289,11.00000565,0.5102327279311101,0.2330000000000001,2,28,251.24765881527503,625.12847,mp-1174503,Li4MnCo2O7,https://materialsproject.org/materials/mp-1174503,15.613151470624011,-75.53685506590907,-10.469046187850703,-81.3874393504288
-5.849560381875,-93.59296611,4.462343714373357,-1.810210740685,11.7725621,0.9514680119507104,0.0,2,16,144.19633611338762,387.49683,mp-1174058,Li4MnCo3O8,https://materialsproject.org/materials/mp-1174058,12.619806031276564,-72.71064363478285,-11.927760240858795,-82.04516671556337
-5.809822988928572,-162.67504369,4.112117651846859,-1.8693097940864285,8.999999800000001,0.4154962326310889,0.05310000000000015,8,28,252.43689926630702,625.12847,mp-1174846,Li4MnCo2O7,https://materialsproject.org/materials/mp-1174846,5.803048590404158,-72.04850884652986,-23.00200536399403,-74.40449037627481
-5.7705322790625,-184.65703293,4.137121238833274,-1.835183315685,21.9999995,0.8835071710189449,0.27010000000000023,1,32,290.1950630163964,723.001465,mp-1176179,Li9Mn2Co5O16,https://materialsproject.org/materials/mp-1176179,1.99571893801584,-77.42067100210696,-26.51693590276259,-78.22378999111213
-5.523058876875,-176.73788406,4.283568651949891,-1.7278602115624997,21.9999999,0.9047826480781714,0.5888999999999998,2,32,283.37128743074123,730.991765,mp-1175521,Li9Co7O16,https://materialsproject.org/materials/mp-1175521,13.923116773190449,-74.6070654732124,-9.757323858865695,-80.94035681667405
-6.779436461666666,-406.7661877,4.025872449793824,-1.644183455057333,33.05163715,0.535414789588275,0.0,12,60,719.4159139336472,1744.17863,mp-777317,Mn7Fe3O20,https://materialsproject.org/materials/mp-777317,17.617619972549466,-67.0394875964604,-15.35783855379598,-69.23430037987922
-5.7565495409375,-184.20958531,4.110151890556185,-1.8212005775599989,26.0000005,1.037338239368984,0.0,1,32,292.0992193422886,723.001465,mp-1176176,Li9Mn2Co5O16,https://materialsproject.org/materials/mp-1176176,13.660792846708635,-82.44308688628118,-14.10916240868043,-88.0966882012093
-6.928146315,-27.71258526,3.925587089062309,-2.488644221875001,1.9999997999999999,0.6130467023677428,1.7866999999999995,166,4,38.02014940180658,89.8813,mp-19340,LiVO2,https://materialsproject.org/materials/mp-19340,1.7523824539802575,-64.47699812147295,-13.114408722318776,-64.15765371499357
-5.7808199996875,-184.98623999,4.196755823996088,-1.8454710363099995,23.999999399999997,0.9777190843680662,0.0,2,32,286.0714821065112,723.001465,mp-1175544,Li9Mn2Co5O16,https://materialsproject.org/materials/mp-1175544,12.711104479162215,-72.76498564901969,-11.188731984977887,-82.78521812167902
-6.24889933,-137.47578526,4.477452841973691,-1.8628969099036368,9.9999996,0.5597701526646387,0.0,2,22,208.19374257310776,561.3705199999998,mp-755918,Li4Mn3(CoO4)3,https://materialsproject.org/materials/mp-755918,8.817252785842996,-67.60682197227311,-4.215485719264938,-70.06866620408418
-6.072084461842105,-230.73920955,4.1665253980590915,-1.9518329567105257,44.9945725,1.4040991976378658,0.0,10,38,373.4562794500466,937.054195,mp-759442,Li8Fe9CoO20,https://materialsproject.org/materials/mp-759442,2.6162192219517126,-66.16540513756925,-11.679859422679485,-65.23520788594439
-6.939758371578948,-131.85540906,3.8157243535433847,-2.514694994996843,9.999999699999998,0.6011629609863083,1.673,1,19,193.85865695746313,445.4645032,mp-758679,Li4V5O9F,https://materialsproject.org/materials/mp-758679,3.8447196879864127,-63.52259977052879,-9.653113112388473,-65.14261395428174
-6.593009855625,-105.48815769,4.296542347438426,-2.3839478331249992,8.9999993,0.7114247185531833,3.1072,12,16,147.4317268712543,381.4705,mp-756266,Li4Cr3GaO8,https://materialsproject.org/materials/mp-756266,13.70020701038619,-67.83874410606333,-12.935604044328196,-68.65010411822423
-5.44608735,-108.921747,4.093935747982082,-1.7132890913749996,7.0,0.4598494255553658,0.4438,2,20,177.40253412167374,437.37278,mp-1174213,Li3Co2O5,https://materialsproject.org/materials/mp-1174213,19.35320418875329,-82.84805863005221,-11.07830108620251,-88.92258518964493
-5.8426727762500015,-140.22414663,4.079308432253284,-1.895273939455001,18.0000001,0.9773863951747894,0.35840000000000005,10,24,214.62664930379609,527.2554749999998,mp-1174881,Li7Mn2(CoO4)3,https://materialsproject.org/materials/mp-1174881,16.487122049886338,-71.39331964213513,-12.984578067105055,-78.3256789414791
-6.914230385,-82.97076462,4.03050298703221,-2.6662340454861115,0.0,0.0,0.2182000000000004,12,12,113.7510216704156,276.09939999999995,mp-774874,Li3Ti2CuO6,https://materialsproject.org/materials/mp-774874,2.8630778523292784,-64.9552494185421,-12.013997833559591,-64.16546689019435
-5.827424562142857,-163.16788774,4.109069466495654,-1.8869113673007152,10.99999985,0.5074522954328723,0.8811999999999998,1,28,252.62416172675483,625.12847,mp-1174628,Li4MnCo2O7,https://materialsproject.org/materials/mp-1174628,1.5560192711253715,-72.90186901539481,-21.29837657990461,-76.26347170126121
-6.207565365833332,-148.98156878,3.961945875399487,-2.0732994649516665,15.9999971,0.8567765711622783,0.5388999999999999,1,24,217.6355059653583,519.265175,mp-1175246,Li7Mn4CoO12,https://materialsproject.org/materials/mp-1175246,12.776386966604454,-79.62143628291041,-16.489805689543786,-85.19187328728405
-4.824334430526316,-274.98706254,4.568760426452129,-1.358390468684211,13.0405291,0.30436631724813,0.0,8,57,499.31665295261337,1373.8058,mp-705910,Li15(NiO2)14,https://materialsproject.org/materials/mp-705910,6.0661532893514405,-68.90131735936603,-12.418077834219027,-83.89753692234922
-5.754457036875,-184.14262518,4.117549137176802,-1.8191080734975,23.5191881,0.9400485325338293,0.0,6,32,291.574458157618,723.001465,mp-1100587,Li9Mn2Co5O16,https://materialsproject.org/materials/mp-1100587,6.3548982527045235,-71.89842743467575,-21.24116401676361,-73.9678104040173
-5.500298600769232,-71.50388181,4.508297725245011,-1.229024026153846,1.1273212,0.09504540257635102,0.0,12,13,138.22735164623998,375.281785,mp-761730,LiCo3CuO8,https://materialsproject.org/materials/mp-761730,8.74135848933129,-66.92869673207521,-4.252834000909232,-69.94849006560504
-6.00886193,-96.14179088,3.93246935452443,-2.0373633463700003,8.0000011,0.6660207683402014,0.13210000000000033,5,16,139.9844200538892,331.5094850000001,mp-1174329,Li5Mn2CoO8,https://materialsproject.org/materials/mp-1174329,19.902931214128007,-71.73602621879313,-11.902635404033644,-76.09297696384951
-6.753084840555554,-121.55552713,3.902477128498204,-1.6372937032688892,9.99999965,0.5232460349942707,0.0,64,18,222.7262814288699,523.43498,mp-753787,Mn2FeO6,https://materialsproject.org/materials/mp-753787,6.697789366551121,-65.21360994514615,-5.576316176837877,-66.30158705832072
-5.7945441625,-185.4254132,4.173004432534262,-1.8591951991224995,25.9999997,1.0532012083728406,0.6979000000000002,1,32,287.6997084521635,723.001465,mp-1175848,Li9Mn2Co5O16,https://materialsproject.org/materials/mp-1175848,16.30895977702566,-74.55670633595344,-8.903749603841543,-79.57086816465954
-7.185246054285713,-502.9672238,3.920716841414368,-2.3369713498860945,29.001661600000006,0.4483634366593943,0.0,12,70,753.8242754950912,1779.8627199999999,mp-771355,Li5Ti2Mn8O20,https://materialsproject.org/materials/mp-771355,4.0663216359961805,-77.38415390994143,-28.887484220704874,-75.88389025654052
-5.6676626966666666,-85.01494045,3.7773367084175216,-1.7594157140000002,6.0,0.4920025722197674,0.0,166,15,142.12199810232775,323.2942,mp-775127,Li4Fe3O8,https://materialsproject.org/materials/mp-775127,7.0120625129742775,-58.87333183923779,-5.741504727270898,-63.859035912432525
-5.86832240125,-140.83973763,4.085251142777859,-1.9209235644550011,18.0000005,0.9788102671972324,0.918,1,24,214.3144373973318,527.2554749999998,mp-1174922,Li7Mn2(CoO4)3,https://materialsproject.org/materials/mp-1174922,14.052879322103548,-74.38529807440949,-11.383943540199509,-79.15485817828909
-5.8793282975,-117.58656595,3.958553752822009,-1.922289561971,6.99996235,0.4529145447298954,0.1724000000000001,1,20,180.1178954873923,429.38248,mp-1174180,Li3MnCoO5,https://materialsproject.org/materials/mp-1174180,16.234613523307782,-80.42622664016467,-17.702526751694034,-84.0704506000222
-7.178924385909092,-157.93633649,3.784163502625693,-2.4350825882575764,13.999998999999999,0.7047221273861826,0.06619999999999981,12,22,231.51947245777646,527.6043,mp-771327,Li4TiCr5O12,https://materialsproject.org/materials/mp-771327,6.664255804712671,-57.99621434052214,-5.392328257031894,-63.148306055299614
-5.870935363529411,-99.80590118,4.055323168294621,-1.9733760541176475,19.0000009,1.400650877940636,1.1424999999999996,160,17,158.08881760232418,386.0802,mp-754802,Li5(FeO2)4,https://materialsproject.org/materials/mp-754802,0.4215925228000951,-61.26024306100442,-13.376432653156016,-61.150919113193815
-5.84349691875,-140.24392605,4.078664781898117,-1.8960980819549995,16.0000008,0.8686508644371734,0.0,8,24,214.6605193388296,527.2554749999998,mp-1175093,Li7Mn2(CoO4)3,https://materialsproject.org/materials/mp-1175093,1.378187964032672,-72.66009153930852,-20.881428501839327,-75.41102210402966
-6.35031873875,-101.60509982,4.1181884444886645,-2.030668501430001,16.000000699999998,1.2185274058582214,0.6316999999999999,10,16,153.02490828055787,379.50653000000005,mp-1174187,Li4Mn3CoO8,https://materialsproject.org/materials/mp-1174187,5.592935895430201,-78.44263011882717,-29.755114624702554,-76.00723416834087
-5.7737211453125,-184.75907665,4.1392899535185705,-1.8383721819349992,25.1012064,1.008578262959302,0.0,10,32,290.0430199602607,723.001465,mp-1100725,Li9Mn2Co5O16,https://materialsproject.org/materials/mp-1100725,4.810068885602816,-69.42419047679148,-20.673524718960714,-74.08729055455889
-6.2603395866666665,-206.59120636,4.243246584296212,-1.894402902348485,1.6666665333333333,0.060711614629983326,1.4749,12,33,319.92955305345527,817.5297,mp-759143,Li2V(FeO3)2,https://materialsproject.org/materials/mp-759143,7.379101297143277,-67.35838414396304,-5.953070986553245,-68.89360461937297
-5.7557923328125,-184.18535465,4.134387534768308,-1.8204433694349988,23.6900822,0.9507512606983004,0.0,8,32,290.38694329291354,723.001465,mp-1100624,Li9Mn2Co5O16,https://materialsproject.org/materials/mp-1100624,3.82435102826193,-74.14819309095715,-22.854535604623837,-77.66513084689512
-7.051146566666668,-105.7671985,3.87057312635979,-2.529035351666666,8.9999995,0.7344170333370855,3.0001999999999995,10,15,142.81610088673366,332.892,mp-755028,Li3Cr3SiO8,https://materialsproject.org/materials/mp-755028,7.0851646148324425,-68.58312489369031,-6.766589505990063,-68.46450436762453
-5.76945035875,-184.62241148,4.126119591907891,-1.8341013953725,23.999999600000002,0.9612629545767202,0.0,12,32,290.9688223686597,723.001465,mp-1100742,Li9Mn2Co5O16,https://materialsproject.org/materials/mp-1100742,5.6246385810640165,-70.827010382281,-22.50207760482295,-73.83031074378148
-5.167766171818182,-113.69085578,4.4087775260266175,-1.3377861465909098,4.00000045,0.21858534889848766,0.0,64,22,213.26344409394426,566.2203999999998,mp-756434,Li2Fe(NiO3)2,https://materialsproject.org/materials/mp-756434,9.122288514821133,-64.44349867028865,-2.482751646278111,-67.65437519478328
-5.900997662000001,-118.01995324,3.9654474797834105,-1.9439589264710009,6.0000004,0.3888906472668369,0.0,8,20,179.80476976862218,429.38248,mp-1174277,Li3MnCoO5,https://materialsproject.org/materials/mp-1174277,13.278039049660695,-75.63689242268913,-15.998530001509275,-81.15201101119533
-6.090999476153847,-79.18299319,4.33647402529428,-1.5486163176923082,4e-07,3.346907459372442e-08,0.0,166,13,139.2815895154134,363.73188500000003,mp-758629,LiCrCo3O8,https://materialsproject.org/materials/mp-758629,8.054238381173594,-67.19972732181705,-5.124921089781188,-68.74356995260118
-5.821360322916667,-139.71264775,4.116580551455733,-1.8739614861216665,12.000001300000001,0.6575445006556099,0.43510000000000026,5,24,212.6833883966229,527.2554749999998,mp-1174910,Li7Mn2(CoO4)3,https://materialsproject.org/materials/mp-1174910,13.987777126870036,-72.29347237674476,-11.233885467516837,-78.47050830559505
-5.734648058214287,-160.57014563,3.588445996800844,-1.6835243375000002,10.9999995,0.4378498344117634,0.0,9,28,292.78235731971785,632.7064,mp-1177704,Li3Fe3O8,https://materialsproject.org/materials/mp-1177704,10.628727069264956,-63.80630078528166,-0.7534195971737117,-68.79115989795534
-6.802867975714285,-190.48030332,3.7906700282171677,-1.7882685979342858,6.997226325,0.2661129785734441,0.9188999999999998,62,28,306.4342417906687,699.52652,mp-1003920,Mn2HO4,https://materialsproject.org/materials/mp-1003920,6.010469975416712,-60.41454827218837,-10.92484802744418,-68.29964862059815
-5.982926985625,-95.72683177,4.336669571712612,-1.9916957931250003,14.9999992,1.1944118270272972,1.6539,166,16,146.35736042585955,382.227395,mp-756405,Li4Fe3CoO8,https://materialsproject.org/materials/mp-756405,3.9830101334491466,-69.56808401353915,-20.14836202155654,-73.05464228042834
-6.197193682666668,-92.95790524,4.417811195295401,-1.8662585907946665,9.0000001,0.7410423583241555,0.22140000000000004,2,15,141.5392560765912,376.56068,mp-779153,Li3Mn2(CoO4)2,https://materialsproject.org/materials/mp-779153,18.659417248338748,-66.68213589215736,-15.74295316414633,-71.87235129255309
-5.8607899421428575,-82.05105919,4.1704770024235085,-1.6531433914285714,14.194885000000001,1.1140015266105878,0.0,166,14,148.49899688410684,372.9582,mp-772177,Li2Fe3CuO8,https://materialsproject.org/materials/mp-772177,0.8156123677052263,-67.40597707653771,-13.120508662876508,-65.60320128243981
-4.796973707931034,-278.22447506,4.626591207753772,-1.139161357931035,1.0,0.02135537824519592,0.06669999999999998,1,58,545.7203632148907,1520.4851999999996,mp-758751,Li5(NiO2)8,https://materialsproject.org/materials/mp-758751,9.057375790792925,-67.82065009809352,-4.094289625750746,-70.37876183986027
-6.1918730491666665,-148.60495318,3.9595756690367514,-2.057607148285,16.0003425,0.8562824951837985,0.4172000000000001,2,24,217.76578281927232,519.265175,mp-1175171,Li7Mn4CoO12,https://materialsproject.org/materials/mp-1175171,10.818942929125523,-81.2459865493829,-16.30866418193323,-85.9870295471802
-6.34946464125,-101.59143426,4.089377812496301,-2.029814403930001,16.0000017,1.2100027271803664,0.5751,12,16,154.10300488113708,379.50653000000005,mp-1174136,Li4Mn3CoO8,https://materialsproject.org/materials/mp-1174136,5.638514204383487,-78.07985105493918,-29.684363948074328,-75.84640013055387
-5.7549516471875,-184.15845271,4.110583734087848,-1.8196026838099997,26.0000001,1.0374472139810509,0.14359999999999973,2,32,292.0685324212485,723.001465,mp-1175835,Li9Mn2Co5O16,https://materialsproject.org/materials/mp-1175835,2.0761038994497203,-77.33195212000855,-26.6545064620594,-78.04948284469658
-5.4502313725,-109.00462745,4.068330356973114,-1.717433113875,6.9999999000000015,0.4569733054114699,0.4034,2,20,178.51907600829358,437.37278,mp-1174119,Li3Co2O5,https://materialsproject.org/materials/mp-1174119,16.362954220806746,-79.59575272182919,-14.656515547980499,-86.36774638054632
-5.7802422925,-184.96775336,4.149104507283267,-1.844893329122499,21.517251100000003,0.8666232209372805,0.0,8,32,289.35693388831965,723.001465,mp-1100636,Li9Mn2Co5O16,https://materialsproject.org/materials/mp-1100636,3.761484476248724,-73.23288503461319,-22.62696515143653,-77.25622716780991
-5.709407781785713,-159.86341789,4.041659558545423,-1.768894586943571,10.2788495,0.4664051044596648,0.0,8,28,256.8376218763113,625.12847,mp-1174667,Li4MnCo2O7,https://materialsproject.org/materials/mp-1174667,3.4283479439212043,-75.5087187578355,-24.766609374229226,-74.90148470453215
-5.867644005,-140.82345612,4.054923409205059,-1.9202451682050008,18.0000002,0.9715438441269232,0.7896000000000001,1,24,215.9173458871533,527.2554749999998,mp-1175025,Li7Mn2(CoO4)3,https://materialsproject.org/materials/mp-1175025,1.4524352614502882,-72.8989844487862,-20.897576951068398,-76.39388441037529