energy_per_atom,energy,density,formation_energy_per_atom,total_magnetization_uB,total_magnetization_T,band_gap,sgr,num_sites,cell_volume,weight,mp_id,formula,URL,tsne_xrd_lin1_0,tsne_xrd_lin1_1,tsne_xrd_lin2_0,tsne_xrd_lin2_1
-7.184568586319445,-1034.57787643,6.6296519783684404,-2.6567578866435184,20.000000275,0.1178210360927933,0.0,1,144,1978.2655660275461,7898.165540000001,mp-1076492,La6Sm2Co7AgO20,https://materialsproject.org/materials/mp-1076492,-22.224344672430586,44.75094915073368,-8.719562545812957,65.05690614283975
-6.3010524016071425,-352.85893449,5.23676880196186,-1.8559856884821442,5.9982157,0.07280182078494173,0.3037000000000003,176,56,960.1901921393054,3028.1095,mp-1210531,Pr7(BrO6)3,https://materialsproject.org/materials/mp-1210531,7.603044309118572,-16.1054078687311,9.287471615242843,-21.58219351448159
-7.662645377291668,-367.80697811,4.637994041674814,-2.561093274583333,1.000000225,0.01661133245798517,0.4314,137,48,701.5733038996573,1959.54008,mp-1200742,TmCO4,https://materialsproject.org/materials/mp-1200742,26.84497231654409,-40.21862379434012,8.82975775211007,-37.789587269152506
-5.446806717692309,-70.80848733,6.327031342204374,-1.7667293244711546,5.429999999999999e-05,2.9942212072052124e-06,0.0,12,13,211.34568001428914,805.2751,mp-1216815,Tl3(SO4)2,https://materialsproject.org/materials/mp-1216815,0.2385481341375609,-3.072506734289968,11.07603329430178,11.695953259684137
-7.250622207916668,-174.01493299,2.962665701723149,-3.2349360880208344,2.525e-05,9.535189268161059e-07,0.0,113,24,308.60964290421873,550.6086772000001,mp-1214098,Ca2AlSi2O7,https://materialsproject.org/materials/mp-1214098,-10.276615063126203,38.259950770222346,-6.862859973442652,45.06166535587194
-7.709225553225807,-238.98599215,6.047476839004107,-3.2850707200000007,7.0000004,0.15887862664192942,0.0,2,31,513.4640183754868,1869.97215,mp-1209915,Pr11O20,https://materialsproject.org/materials/mp-1209915,-10.494204120662587,-29.33244062800026,-0.6330092852949404,-28.970165969628102
-6.59227320125,-263.69092805,3.7182869086287202,-2.3476768128214296,0.0,0.0,3.7885,161,40,684.7922999834773,1533.3901720000001,mp-673024,LiSn4(PO4)3,https://materialsproject.org/materials/mp-673024,20.78543993456822,-14.436354110701384,20.707444705405045,-6.95082618946472
-4.696456399444443,-84.53621519,4.058917159553683,-2.703571584259828,0.0,0.0,4.8268,87,18,354.66658759181917,866.9246935000001,mp-1213089,CsSb4F13,https://materialsproject.org/materials/mp-1213089,5.57839921430675,-24.798592995369148,18.367771724210666,-18.9717063841362
-7.109718722857143,-99.53606212,2.7647459324661443,-2.56304075686704,4.999999900000001,0.3246985393734729,4.3261,146,14,179.45976230699523,298.794931,mp-753149,LiMn(PO3)3,https://materialsproject.org/materials/mp-753149,5.007121805594065,-34.15728052590723,69.83135870447067,-41.384322901070064
-3.947475666666667,-23.684854,6.029982648717171,-0.5874947053645839,4.996800599999999,0.3828698054863608,0.0,156,6,152.0961878254973,552.313045,mp-1221581,MnHg2S3,https://materialsproject.org/materials/mp-1221581,-10.305924202305086,-34.37963227398252,-18.147533424116343,-37.076405790634944
-5.76339921975,-230.53596879,3.794220649429232,-2.603415040941975,0.0,0.0,2.806,14,40,711.8493227720137,1626.528094,mp-1181770,CsSbPO4F3,https://materialsproject.org/materials/mp-1181770,25.794679165554747,-13.182500646406476,34.63449091834394,-14.635419571782913
-9.103559792021276,-855.73462045,3.8231481147690105,-3.0737733511194314,0.00074025,7.747998719472239e-06,0.007600000000000051,40,94,1113.4386775524588,2563.5296,mp-779465,Ti17(NO4)6,https://materialsproject.org/materials/mp-779465,17.86543948118821,3.0986513829399125,63.533920418996324,33.34168677874244
-3.711018045,-44.53221654,7.727115359886622,-0.1906880125000002,4.335e-05,1.1641119896345422e-06,0.0,164,12,433.98205017119074,2019.4824,mp-23224,BiTe,https://materialsproject.org/materials/mp-23224,-5.294441555129156,-31.304319567720704,-6.816960045581348,-28.758904335944706
-7.477533772954545,-329.01148601,4.237267248272548,-3.2837470923730296,0.0,0.0,5.0821000000000005,55,44,794.8185914418996,2028.172,mp-556986,Er2B2Cl2O5,https://materialsproject.org/materials/mp-556986,32.6718170862326,-28.65953041621913,9.734853463952383,-41.091077259143745
-6.16438516975,-246.57540679,4.405529008722156,-1.9808424707619048,0.0,0.0,2.0246000000000004,14,40,563.3927414876615,1494.7212960000002,mp-18702,AgPO3,https://materialsproject.org/materials/mp-18702,14.719537767327257,26.35757273896894,28.62441804887906,3.824275881023608
-9.866593405625,-315.73098898,7.392603725026237,-3.12325155546875,13.999999625,0.3868418955379203,2.2487000000000004,85,32,421.76637103560023,1877.6744,mp-767401,Gd2AsO5,https://materialsproject.org/materials/mp-767401,25.167278553496548,61.71585553273037,-4.7931069928564085,34.76435372312626
-7.25252726,-29.01010904,5.206139977186356,-1.7327922993830818,7.000000200000001,0.6383962214694585,1.3089000000000002,166,4,127.78655793255442,400.6378,mp-10781,RbGdSe2,https://materialsproject.org/materials/mp-10781,-22.720636662910533,-36.009965593242065,-32.887675018526465,-22.683715794378138
-6.3021842025,-151.25242086,6.575342932972399,-2.687394018437501,5e-08,1.5152200434975804e-09,1.6705,63,24,384.56674403734223,1522.7936,mp-770846,Ba3Sn2O7,https://materialsproject.org/materials/mp-770846,-21.285254277401005,14.860685587905142,-23.721326014343404,53.43856783845007
-3.174284523333333,-57.13712142,4.5432043080945,-0.4029864824134101,0.0,0.0,2.2893,127,18,437.75151799091867,1197.6801114,mp-643005,Cs3H5Pt,https://materialsproject.org/materials/mp-643005,10.860692911456013,-21.020137742432876,16.284250890675793,-15.168134641039812
-4.64955454375,-37.19643635,3.634816804086365,-0.8782313471725001,0.0,0.0,0.7902,20,8,104.65642200532402,229.08640640000002,mp-997035,CuO2F,https://materialsproject.org/materials/mp-997035,-0.8091384343128707,-22.497154145482856,23.792097701251286,-20.588713010554322
-5.2570792703125,-336.4530733,8.472768016992946,-2.360783246770626,5.8925e-05,7.053597505590598e-07,3.0219,41,64,973.568120634608,4967.5536895999985,mp-760230,Bi5O4F7,https://materialsproject.org/materials/mp-760230,-8.106645869494258,-34.71008008944301,-0.4398604758835356,-30.179073029606705
-5.834517707619049,-490.09948744,1.846329965201924,-1.041978924879048,0.0008902999999999999,1.2403431259314153e-05,4.4327000000000005,62,84,836.5115789405853,930.10544,mp-1201379,ZnH9C4NO6,https://materialsproject.org/materials/mp-1201379,29.002503647489508,-40.219608844039115,33.970259481302016,-51.227194676812154
-7.8255493809090915,-86.08104319,4.820416163191257,-2.0132739013636383,3.0000002,0.1814497679195437,0.0,164,11,192.68250959678582,559.342395,mp-31516,Co(ReO4)2,https://materialsproject.org/materials/mp-31516,5.277050265739581,-34.20931178775924,49.10987901428207,-7.855154975889702
-5.6380096535,-112.76019307,6.409744049899168,-2.09460173405,0.0,0.0,1.6254999999999995,11,20,315.5420106073946,1218.0042,mp-1040443,KBaBiTeO6,https://materialsproject.org/materials/mp-1040443,-22.40784972633222,12.705705621976964,-29.387216733486838,48.31277040679856
-4.3474558345,-86.94911669,5.64980785521491,-1.0966279844999995,0.0117958,0.00018607037446112263,0.0,59,20,738.8012070287002,2513.6927,mp-618999,Pr4NiI5,https://materialsproject.org/materials/mp-618999,-0.1393650491171167,-14.444195062455295,-0.6779841753432848,-1.1440472627899334
-8.26149454,-446.12070516,3.423920045245537,-3.595203960138889,4.46e-05,7.882005237769356e-07,4.4,11,54,659.4404255981691,1359.721896,mp-1198043,SrSc4Si5O17,https://materialsproject.org/materials/mp-1198043,6.961407352739848,30.84881641060091,31.4914193021186,-3.2390236136033272
-8.1466107525,-32.58644301,8.407936195199037,-0.27440079812500073,1.0084607,0.2430922583071359,0.0,38,4,48.34652654191865,244.79672000000002,mp-1018052,HoFeC2,https://materialsproject.org/materials/mp-1018052,-36.048894879476386,28.775139352000245,-40.21157342110878,35.548999435072155
-6.961591059230769,-181.00136754,2.9204976731306864,-2.6658940695604394,0.9999996999999999,0.04022659058377587,1.4963,9,26,289.71039074438886,509.53244800000004,mp-583836,Li2V(PO4)2,https://materialsproject.org/materials/mp-583836,57.1890714136254,-36.136130733052056,61.15444938125139,-30.48074563983469
-7.030848295333332,-210.92544886,7.0670534196231305,-2.9902729220277773,2.285e-05,5.535737083771578e-07,1.5067,71,30,481.04773767824616,2047.28102,mp-1228397,Ba3UIn2O9,https://materialsproject.org/materials/mp-1228397,-22.130868894141802,11.358299780393528,-30.174229817015963,48.17687838733016
-8.242601438518516,-222.55023884,6.259045512116884,-2.7663523921296296,0.0,0.0,2.6457,148,27,389.20573409745265,1467.0274799999993,mp-1192336,Nb2PbO6,https://materialsproject.org/materials/mp-1192336,-19.399162689607728,5.204460328842372,-11.98217409918418,29.062468198823233
-6.152219028611111,-221.47988503,4.901118936009309,-0.7373593650855549,0.00029995,4.178151340502909e-06,1.3105000000000002,62,36,836.6467472450441,2469.382,mp-1247171,Ba4CN4,https://materialsproject.org/materials/mp-1247171,10.42730424678182,19.523420574405247,2.8808060163419142,26.858041113532554
-8.172850315,-441.33391701,6.624470008896064,-3.303928055833333,3.3333333333333334e-08,4.6317737302085663e-10,3.2874000000000003,31,54,838.7042381159179,3345.88404,mp-1202686,La2WO6,https://materialsproject.org/materials/mp-1202686,-0.3597891905769756,17.198512159302066,8.154001112137378,34.821998217165685
-6.453627658125,-309.77412759,4.4771730631100635,-1.6909185506249995,5.0000008000000005,0.07979705060422912,2.0114,62,48,730.2316657673814,1968.8628,mp-1208422,TlCr2FeO8,https://materialsproject.org/materials/mp-1208422,10.793038538479538,30.25160670956072,53.80104974689324,2.3110830839675085
-3.9095997466666663,-11.72879924,4.813114173763887,-0.4494065883333332,1.1e-05,1.5802615877387443e-06,0.0,187,3,81.12246320028271,235.1355,mp-1227940,BaGaSi,https://materialsproject.org/materials/mp-1227940,-56.26175872348307,23.45712947369227,-50.781241738659865,31.617884187113727
-5.221717112142857,-146.20807914,4.165268523898597,-1.62881512720619,0.0,0.0,2.7719000000000005,148,28,264.45721424618046,663.3600799999998,mp-626412,In(HO)3,https://materialsproject.org/materials/mp-626412,3.3462189060832235,-37.246445865700224,2.917236573907999,-32.45633023314753
-6.99289305,-111.8862888,7.131260448034217,-2.389681402552084,0.0,0.0,2.5795000000000003,36,16,254.19444318571686,1091.6496,mp-752676,TiBi2O5,https://materialsproject.org/materials/mp-752676,7.152819989551237,27.813312629152307,33.54223715422929,-6.7852162561743645
-5.348345615454545,-470.65441416,3.3996712858084304,-3.0177830143503033,0.0,0.0,5.4624,61,88,1117.6321730186721,2288.1618048,mp-557364,CdB2F8,https://materialsproject.org/materials/mp-557364,34.746268114733326,-34.48584916261695,23.30878492380609,-55.841051936064304
-6.9727155175,-55.78172414,3.0851520099305545,-2.3699809312446134,0.9999998999999999,0.06878444033531207,0.2,183,8,169.42877706559366,314.7854519,mp-1078919,CsV2O5,https://materialsproject.org/materials/mp-1078919,6.163845247414233,-24.805698648524977,16.671715020483166,-18.240187029827627
-5.25446826453125,-336.28596893,5.9857017231538725,-1.3120755075000003,4.000290475,0.05082284286931567,0.01849999999999996,61,64,917.2970592097718,3306.55676,mvc-7920,ZnCoBiO5,https://materialsproject.org/materials/mvc-7920,4.9401849421693935,30.020014095365323,35.57748802453125,-6.264094006432225
-4.04924607382353,-137.67436651,4.970172228265302,-1.5638494007395205,2.155e-05,2.67534159379547e-07,1.8678,14,34,938.7402955611557,2809.7508304000003,mp-1196865,Cs8In2O7,https://materialsproject.org/materials/mp-1196865,9.939958013864484,-22.90614504762884,29.003538147159034,-6.963665767366455
-5.62555148578125,-360.03529509,3.5022242949777938,-1.7659202837679675,0.0,0.0,4.4259,19,64,825.3742555247255,1740.7876,mp-1195973,NdH5(SeO4)2,https://materialsproject.org/materials/mp-1195973,30.874374149010162,-21.374883705564734,46.696187623894815,-34.91061386771329
-6.749883387291668,-647.98880518,7.69885041004688,-1.9207239258333333,0.0,0.0,2.7447,198,96,1623.9363278433352,7529.1471999999985,mp-28287,ReBi3O8,https://materialsproject.org/materials/mp-28287,-8.029072898028598,-33.694923911067875,-0.6412974113896106,-25.889032415580548
-3.735434936666667,-44.82521924,6.1855879217370395,-0.1005542616666671,6.9666666666666655e-06,2.0214188586655895e-07,0.043099999999999916,164,12,401.64849671859815,1496.16,mp-7716,SbTe,https://materialsproject.org/materials/mp-7716,-6.263177942289129,-30.326960118249627,-7.055677820480318,-27.986171495573174
-3.1742214825,-12.69688593,7.738851900851673,0.0009952724999999774,2.78e-05,2.6043329128978733e-06,0.0,123,4,124.40153064634876,579.7665689999999,mp-1217358,Te3Au,https://materialsproject.org/materials/mp-1217358,-20.352361913989753,-49.79234132324667,-35.33300878881224,-18.41931465323408
-4.7905506659375,-153.29762131,2.8504397701531823,-0.989858648423751,0.0,0.0,3.1686,176,32,399.99151322424933,686.6154240000001,mp-769148,Sc(ClO4)3,https://materialsproject.org/materials/mp-769148,16.70007339214791,-10.534242730884198,23.77477162943662,-20.99078080930834
-5.047081268823528,-171.60076314,4.913361585690527,-1.3572258285294116,0.0,0.0,1.4876,86,34,567.5946745424058,1679.4533600000002,mp-23493,Ce(IO3)4,https://materialsproject.org/materials/mp-23493,7.147294001272918,-34.563148171807605,47.83765263858817,-7.537005972729823
-5.209298763333334,-15.62789629,9.521682801264863,-0.5795063657466665,4.59e-05,1.310505282403415e-05,0.0,139,3,40.81796389858611,234.05393999999998,mp-24291,ThH2,https://materialsproject.org/materials/mp-24291,22.884019568924145,59.40405225416158,-14.691664543607132,39.05376346050615
-4.337491350625,-138.79972322,2.588637165914953,-0.8706030765784051,3.0000014,0.06639533343984752,0.3326999999999999,167,32,526.576324299126,820.88708,mp-505248,Rb3Cr(HO)6,https://materialsproject.org/materials/mp-505248,20.76474422500019,-5.142983152233784,38.56309235003499,-18.853159180935712
-2.5784747613888888,-92.82509141,2.362932641788188,-0.2615174640704979,0.0,0.0,3.0927,130,36,803.2321654276889,1142.9924,mp-23948,Rb3MgH5,https://materialsproject.org/materials/mp-23948,10.212500110163402,-21.231257837715095,16.0928029756618,-16.501953448280734
-4.963094160000002,-178.67138976,4.01827627279392,-2.9113076708316483,2.0,0.04236203761165922,0.5246,62,36,550.2126634886972,1331.4390312,mp-18453,RbAlPdF6,https://materialsproject.org/materials/mp-18453,-6.621296185721151,-10.350947250046726,1.5586738895591254,6.843655484213091
-3.4089527760000005,-34.08952776,5.227899569721262,-1.1424444300312508,0.0,0.0,0.8876,166,10,221.57536749244042,697.5889999999998,mp-1217998,SrCd4S5,https://materialsproject.org/materials/mp-1217998,-28.04223543770289,-20.00457672421918,-56.42379729314376,14.301412938920718
-3.3245155094444443,-59.84127917,3.7542459499948078,-1.7237315294444444,0.0023891,2.9305801811616168e-05,3.7641,136,18,950.0755627537931,2147.9876400000007,mp-754224,BaSr2I6,https://materialsproject.org/materials/mp-754224,19.11889256807775,-6.982826968611659,16.101629347401875,-20.103028980870988
-4.519163388333333,-162.68988198,4.841841255739647,-1.1255881897743056,0.0,0.0,1.2916,62,36,1117.6720117468526,3258.936,mp-18335,Ba2Ge2Se5,https://materialsproject.org/materials/mp-18335,9.449206891461053,28.73945791243898,34.482429121970576,-5.323850128199285
-5.903872497058822,-200.7316649,4.1182459436110035,-1.7411785388082357,10.000000199999999,0.29555909727928265,2.3961,14,34,394.3057450411928,977.9041599999997,mp-766713,ZnFe2As2(HO5)2,https://materialsproject.org/materials/mp-766713,20.85640599714389,-7.1310896001361606,53.18320842208718,0.026873706644515348
-6.372623733125,-305.88593919,2.9643459511506562,-2.21992849716381,3.99999975,0.08755395871621517,4.3128,9,48,532.4288799758081,950.4765359999999,mp-40575,LiNi2P4H3O14,https://materialsproject.org/materials/mp-40575,46.57003855526603,-38.940311718042004,51.94008558635297,-32.810869457115736
-7.24973518625,-57.99788149,5.87009190600784,-1.8935971040625,4.00000015,0.29236641259262225,0.0,129,8,159.44465174699351,563.6451400000001,mp-1079055,LaCrAsO,https://materialsproject.org/materials/mp-1079055,-20.7317412938542,14.736822554602606,-21.181357823364422,44.74969550600387
-8.014936019333334,-240.44808058,5.849591587228779,-3.4492783899166666,5.04e-05,1.2080719357220101e-06,4.1974,2,30,486.2002395461384,1712.74072,mp-769271,Sr4Ta2O9,https://materialsproject.org/materials/mp-769271,-19.527113151766102,17.553236168111933,-20.266982223777248,48.150687621632365
-2.90947184875,-46.55154958,5.080780350167681,-0.7131495299999999,7.5e-07,1.4900859361367977e-08,2.5180000000000002,14,16,586.5801674553447,1794.7696,mp-610430,BiBr3,https://materialsproject.org/materials/mp-610430,36.92641982690515,-26.84559536494329,13.288451002973025,-39.78010871148064
-6.559455188636362,-288.61602830000004,4.652531711401577,-4.345009788055681,0.0,0.0,5.0518,146,44,618.4289193028479,1732.7265960000002,mp-1218554,Sr7Y6OF30,https://materialsproject.org/materials/mp-1218554,-10.640086068099274,-30.38071847272994,-0.9378719874711527,-25.908330471346346
-6.4638215820000005,-32.31910791,6.6586990760308895,0.11153669638133294,0.0039019,0.000699449736300246,0.0,166,5,65.01252767151078,260.69779,mp-1246947,In(CoN)2,https://materialsproject.org/materials/mp-1246947,-22.501572121819354,46.76103679102759,-51.99906595234376,29.710249319291147
-4.99580853125,-319.731746,3.6990736433936715,-2.2828364891026345,2.002797375,0.020294285480009038,0.2846,92,64,1150.1134325499859,2562.0320768,mp-1200466,Rb2Sb2SO5F6,https://materialsproject.org/materials/mp-1200466,3.930126762157498,-30.347497351266885,18.950787532479836,-16.15869515923702
-6.734444857068965,-390.59780171,5.198729971120321,-2.617207885267242,6.00003475,0.0756998098383802,0.4144999999999999,194,58,923.7116151731303,2891.90867712,mp-19501,Ba6Na2V2Ru2O17,https://materialsproject.org/materials/mp-19501,-18.361448866001858,17.62849321944416,-17.166684145766546,47.65013520463773
-7.425111540375002,-594.00892323,6.573544797222643,-3.2591736223125016,0.5067742999999999,0.004623028663347551,0.0,75,80,1277.513281302491,5057.2679,mp-677468,Ba16Tb8Nb5(SnO16)3,https://materialsproject.org/materials/mp-677468,-22.368158121147676,11.386304620631918,-30.212129056872477,48.8231478181431
-6.853575239166666,-82.24290287,6.8073902219543925,-2.153390065833333,0.0,0.0,2.2378,88,12,158.0285419315524,647.8389999999998,mp-23044,VBiO4,https://materialsproject.org/materials/mp-23044,25.630555097606003,58.17060195164366,-14.342339041232488,37.58107220576643
-3.786498394166667,-45.43798073,6.065451534789172,-0.01891346958333351,0.0,0.0,0.3972999999999995,164,12,346.46324041952795,1265.5264,mp-8645,GeTe7As4,https://materialsproject.org/materials/mp-8645,-25.679359862738103,-36.237470863936274,-35.101345553282485,-18.427445761088237
-6.75251788,-27.01007152,8.822648825175298,-0.31300750437500025,0.0,0.0,0.0,38,4,48.13643141451386,255.7548,mp-1064469,YbNiC2,https://materialsproject.org/materials/mp-1064469,-35.95310880360468,28.74072459580045,-40.13172204231061,35.610220543229495
-5.0701123625,-40.5608989,9.582451448961606,-0.7044530374999995,0.536246,0.031057041432438624,0.0,129,8,201.2247570851546,1161.205138,mp-1079698,CeSb2Au,https://materialsproject.org/materials/mp-1079698,-54.65806879980614,32.83179301736988,-49.17316479440604,32.299206614015326
-6.944988940499999,-277.79955762,6.652943128712188,-2.68648668575,0.0,0.0,3.1583,217,40,643.1019919946344,2576.585600000001,mp-768638,Dy3Sb5O12,https://materialsproject.org/materials/mp-768638,25.32731444609185,64.792682781842,-7.51976517179567,34.530439294751474
-8.350221512537313,-559.46484134,6.824358805379558,-3.195781760582089,0.0,0.0,1.2793,2,67,922.5627381383963,3791.47914856,mp-555626,Na2Li8U11(WO22)2,https://materialsproject.org/materials/mp-555626,42.54701468549533,-40.76348684208737,48.33155448296648,-33.352508295064126