energy_per_atom,energy,density,formation_energy_per_atom,total_magnetization_uB,total_magnetization_T,band_gap,sgr,num_sites,cell_volume,weight,mp_id,formula,URL,tsne_xrd_lin1_0,tsne_xrd_lin1_1,tsne_xrd_lin2_0,tsne_xrd_lin2_1
-6.300334688125,-100.80535501,4.127528921306777,-2.159871650625,17.9999983,1.3893881376998904,1.7405999999999997,12,16,150.98239318599653,375.2903,mp-755320,Li4CrFe3O8,https://materialsproject.org/materials/mp-755320,2.6532847705228018,-65.12970815730405,-12.207996331493034,-64.50135770722108
-5.824225534642857,-163.07831497,4.111300052159363,-1.8837123398007145,10.99999985,0.5077277631085679,0.7446000000000002,2,28,252.48710049884517,625.12847,mp-1174476,Li4MnCo2O7,https://materialsproject.org/materials/mp-1174476,1.6818933904918971,-73.25745052566306,-21.56024079345892,-76.82978338175326
-5.472458375,-131.339001,4.16921716350278,-1.7119266022916666,18.0000002,0.9840159003315906,0.5011000000000001,2,24,213.1806693023951,535.245775,mp-1174328,Li7Co5O12,https://materialsproject.org/materials/mp-1174328,16.35728422369524,-79.47347244435791,-13.87805536803118,-86.30543278932586
-6.4387452325,-206.03984744,3.9360759979406215,-2.1530205239599995,25.999993600000003,1.021630482537101,0.8986999999999998,12,32,296.59021992771613,703.025715,mp-1100497,Li9Mn7O16,https://materialsproject.org/materials/mp-1100497,11.569786017200814,-83.10790517101962,-19.31217277488827,-86.42304340988122
-6.3937646040625,-204.60046733,4.236920859073786,-2.1482283421874997,9.99999965,0.40135598861294297,0.0,2,32,290.36727232956014,740.8818,mp-768700,Li4Cr3NiO8,https://materialsproject.org/materials/mp-768700,15.085898535742528,-68.96288575806535,-10.690467518821073,-70.46866582014334
-5.7735165684375,-184.75253019,4.16693078997813,-1.8381676050599989,22.0000002,0.8898732086136818,0.0,8,32,288.11905431623325,723.001465,mp-1100669,Li9Mn2Co5O16,https://materialsproject.org/materials/mp-1100669,13.289995928250793,-75.56007741919262,-13.948336294645346,-80.44781699692766
-6.82095510875,-109.13528174,4.098847737813562,-2.3339099325599992,12.9999995,1.0198579089297453,0.6795999999999998,12,16,148.55288652439145,366.685545,mp-756944,Li4MnCr3O8,https://materialsproject.org/materials/mp-756944,13.332888943247305,-68.68990886304465,-11.15782774179528,-69.16682614989234
-7.641788912597402,-588.41774627,4.011718184052496,-2.9738059286147185,0.1678446,0.00275500726490488,0.0,10,77,710.006055171658,1715.3129999999999,mp-677305,Li17Ti20O40,https://materialsproject.org/materials/mp-677305,17.753221243155924,-69.73958362560778,-11.116637883132668,-71.00580931706108
-5.7894699834375,-185.26303947,4.207960535426707,-1.8541210200599991,20.0,0.8169412273732509,0.6397999999999997,2,32,285.3097476799292,723.001465,mp-1175595,Li9Mn2Co5O16,https://materialsproject.org/materials/mp-1175595,12.900346892786384,-77.8393603513387,-14.176675734147807,-84.80142798865718
-5.8951640975,-117.90328195,4.002224482569587,-1.9381253619709995,7.0000004,0.457913583041113,0.4725000000000002,12,20,178.15251848997752,429.38248,mp-1174102,Li3MnCoO5,https://materialsproject.org/materials/mp-1174102,18.457801763305195,-71.78778672397826,-10.795175217836682,-77.05158465350091
-6.3068820565,-126.13764113,3.8657201413492506,-2.125602844067,6.9999872000000005,0.4506812820660779,0.5216000000000003,2,20,181.01107696753186,421.39218000000005,mp-1173961,Li3Mn2O5,https://materialsproject.org/materials/mp-1173961,13.65345032508626,-81.38528779050522,-17.325270421526746,-84.95444442758135
-5.788909980625,-185.24511938,4.171939399876953,-1.8535610172474997,23.9999997,0.9719376089862948,0.3649,8,32,287.7731538106961,723.001465,mp-1100678,Li9Mn2Co5O16,https://materialsproject.org/materials/mp-1100678,1.9136220825655677,-73.2181438982406,-21.673315031942106,-75.95149747831955
-6.396574407499998,-179.10408341,3.8896965560027463,-2.1357176742235713,11.00105355,0.4930098634751673,1.0576000000000003,12,28,260.0495449206271,609.14787,mp-1174299,Li4Mn3O7,https://materialsproject.org/materials/mp-1174299,10.777082665594714,-82.54681430707824,-19.02145223466637,-85.9759143156041
-5.444595795,-108.8919159,4.073761894784935,-1.7117975363749998,7.0,0.4575834068938569,0.41590000000000016,2,20,178.28105691525033,437.37278,mp-1173994,Li3Co2O5,https://materialsproject.org/materials/mp-1173994,17.255317897801028,-79.70520111612826,-10.727452533873683,-86.43233839409645
-5.7999173575,-92.79867772,4.732669811476108,-1.89997231125,5.0,0.3909988448890072,0.0,166,16,149.02940155575052,424.74577999999997,mp-754424,Li4NbNi3O8,https://materialsproject.org/materials/mp-754424,1.6058930966379903,-67.45632839380276,-12.984901059894352,-64.83040855050153
-6.607928699375,-211.45371838,4.214581284668673,-2.230356538125,9.99999975,0.4023334329614172,2.3773000000000004,2,32,289.66184578366057,735.185,mp-768703,Li4Cr3FeO8,https://materialsproject.org/materials/mp-768703,14.951602845092738,-69.30927250061147,-10.967980466045695,-70.3581497430102
-6.909812343125,-110.55699749,3.9962636089141585,-2.441997935,4.99999995,0.3877776101613386,1.7750999999999997,2,16,150.26737427117388,361.6344,mp-754029,Li2VCrO4,https://materialsproject.org/materials/mp-754029,2.769047175515812,-66.82416817954424,-10.91525320700718,-65.0702376037304
-5.5435609875,-44.348487899999995,4.4461691759045925,-1.7250948368750008,7.005114,1.1080699118608053,0.0,10,8,73.67590385887132,197.2706,mp-754100,Li2FeCuO4,https://materialsproject.org/materials/mp-754100,2.0621570336812454,-68.16236584939998,-19.993642301468864,-72.77260710805845
-5.952716688333332,-71.43260026,4.3972429038469185,-1.9717112568750004,10.0000007,1.0736375668939928,0.4245000000000001,12,12,108.54748331933979,287.44259500000004,mp-761592,Li3Fe2CoO6,https://materialsproject.org/materials/mp-761592,5.9083216795928255,-70.46297004571841,-19.976960279209205,-74.09766485245125
-5.4979235915625,-175.93355493,4.249584439880214,-1.7027249262500002,23.6789503,0.9661059609294722,0.0,2,32,285.6374266409967,730.991765,mp-1175500,Li9Co7O16,https://materialsproject.org/materials/mp-1175500,10.935194540389046,-80.12837579403806,-13.74853421252873,-85.55585162470136
-4.8718598525,-116.92463646,4.0419141698575975,-1.5202852935416669,0.0,0.0,1.3798,15,24,198.14094172157834,482.2944,mp-674420,Li2NiO3,https://materialsproject.org/materials/mp-674420,-12.21683096315912,-69.8013797690662,3.808142005234136,-81.57557708966951
-6.91008065625,-110.5612905,3.9945238551182287,-2.442266248125,5.000000099999999,0.3876088047056269,1.6278,15,16,150.33282092871673,361.6344,mp-753589,Li2VCrO4,https://materialsproject.org/materials/mp-753589,2.7056579665200173,-66.8948074346267,-11.392889136228115,-65.02331092352554
-5.830188593214286,-163.24528061,4.119826848350392,-1.8896753983721433,11.000000199999999,0.5087808017234408,0.8565999999999998,2,28,251.9645285252974,625.12847,mp-1174421,Li4MnCo2O7,https://materialsproject.org/materials/mp-1174421,1.6084083985024082,-73.00494631182508,-21.132870118076195,-76.44967695847433
-5.738897465,-68.86676958,4.5618125516392105,-1.1350528466666665,8.9999993,0.7989776172496518,0.0,160,12,131.27598637399453,360.639785,mp-771245,FeCo3O8,https://materialsproject.org/materials/mp-771245,-21.439038165470077,2.3370923707460167,-9.466984545970863,8.994163558465477
-6.91785851,-110.68573616,3.9576239154227153,-2.4642002593750005,9.0000004,0.6932725329067212,1.9132,166,16,151.29199937418474,360.5798,mp-1177371,Li4V3CrO8,https://materialsproject.org/materials/mp-1177371,2.638935888393509,-66.73893194161705,-10.40073236802308,-65.46988522168479
-5.807274830714285,-162.60369526,4.110055007674049,-1.8667616358721424,11.00000005,0.5075740147316895,0.4043999999999999,12,28,252.56358552678338,625.12847,mp-1174534,Li4MnCo2O7,https://materialsproject.org/materials/mp-1174534,16.506291065043087,-71.39516506002114,-11.057951993187892,-77.31439742424574
-5.79713460375,-185.50830732,4.178982175783628,-1.8617856403724995,26.000002,1.0547099908009308,0.8129,2,32,287.28817403595804,723.001465,mp-1175411,Li9Mn2Co5O16,https://materialsproject.org/materials/mp-1175411,1.6000141052606185,-72.8357097111044,-21.211361166166345,-76.1281255874862
-5.833287390714285,-163.33204694,4.2790593104320385,-1.597037463214286,24.9999722,1.0064757634391062,0.0,10,28,289.4767126189413,745.955375,mp-753106,Li4Fe3Co5O16,https://materialsproject.org/materials/mp-753106,6.288463309956968,-68.39473701419996,-6.679002053682661,-68.41123367178687
-6.411228993571428,-179.51441182,3.9243127729625735,-2.150372260295,10.99999985,0.4973497457373236,0.7917000000000001,2,28,257.7556575604509,609.14787,mp-1174287,Li4Mn3O7,https://materialsproject.org/materials/mp-1174287,12.588131831390795,-82.50221749425705,-17.678584843093432,-85.53601181371236
-5.7958219465625,-185.46630229,4.158720340986647,-1.8604729831849989,23.9999999,0.9688579700999296,0.6652,1,32,288.68787996570614,723.001465,mp-1175994,Li9Mn2Co5O16,https://materialsproject.org/materials/mp-1175994,5.696789105139136,-71.67743371328731,-22.302925158542376,-76.35044625401524
-6.6196399308333325,-79.43567917,4.015636974552797,-2.416873414930555,9.000000199999999,0.9177498981876776,0.0,12,12,114.28667602249209,276.3764,mp-774498,Li3Ti(FeO3)2,https://materialsproject.org/materials/mp-774498,2.4581309686638315,-64.09579997134729,-11.521759650301158,-65.11400406635497
-5.7733799546875,-184.74815855,4.174766490018002,-1.8380309913099997,23.3515143,0.9463164672971444,0.0,6,32,287.57827808580413,723.001465,mp-1100608,Li9Mn2Co5O16,https://materialsproject.org/materials/mp-1100608,12.481125863787296,-72.1150877914761,-14.05289210054266,-80.16719836946639
-5.772659639375,-184.72510846,4.1487766452698285,-1.8373106759974995,25.116441199999997,1.011503332053061,0.0,8,32,289.3798006644945,723.001465,mp-1100646,Li9Mn2Co5O16,https://materialsproject.org/materials/mp-1100646,3.75571913529614,-71.14612830516984,-20.405151723833093,-73.8124921291966
-7.030246382222222,-126.54443488,3.957313141021542,-2.246546984305556,12.999999800000001,0.8190925524367357,0.0,2,18,184.96425008596898,440.7975,mp-762282,Li3Cr5O10,https://materialsproject.org/materials/mp-762282,4.20323401712439,-67.04291007108039,-8.755572090189611,-66.39552498312099
-5.67222719392857,-317.64472286,4.493329789341418,-1.4885668946428559,5.000000075,0.1043910311786326,0.4759,1,56,558.1928263275979,1510.43992,mp-1178332,Li(CoO2)2,https://materialsproject.org/materials/mp-1178332,22.461022179100176,-69.07256558462079,-14.64597139016772,-71.96235177392813
-5.8323079558333335,-139.97539094,4.048488191420123,-1.8849091190383345,15.9999995,0.8622239555000811,0.0,1,24,216.26055428461723,527.2554749999998,mp-1175095,Li7Mn2(CoO4)3,https://materialsproject.org/materials/mp-1175095,1.7834497216369183,-73.43135089555334,-21.240620806473213,-76.81120797010466
-5.731341519583334,-137.55219647,3.8676504896590185,-1.783942682788335,21.156733600000003,1.0891885758112931,0.0,8,24,226.37213539128052,527.2554749999998,mp-1175092,Li7Mn2(CoO4)3,https://materialsproject.org/materials/mp-1175092,6.74733968764627,-79.76508674075487,-23.960268610384173,-73.78927584072015
-6.210684974583334,-149.05643939,3.9856844074475406,-2.0764190737016666,16.000002300000002,0.8619103434438188,0.5307,1,24,216.33928004654263,519.265175,mp-1175217,Li7Mn4CoO12,https://materialsproject.org/materials/mp-1175217,19.167221752146197,-82.93185467304707,-14.908857043862396,-83.53497846113625
-6.9584994363636365,-229.63048140000004,4.020366583998728,-2.2402955021327275,8.999999133333334,0.3148995012945724,0.6204000000000001,12,33,333.07951400892114,806.425935,mp-850919,Li2MnCr2O6,https://materialsproject.org/materials/mp-850919,3.9595650415975183,-67.21617235581343,-9.559938123161428,-66.60664854801435
-6.4207482390625,-205.46394365,3.9366886040812017,-2.1350235305225,25.9999816,1.021789016283028,0.38690000000000013,2,32,296.544066165446,703.025715,mp-1100507,Li9Mn7O16,https://materialsproject.org/materials/mp-1100507,2.3622716348612207,-78.26557784678721,-28.66837795584907,-78.59707316805661
-5.879100392000001,-117.58200784,3.923978560750116,-1.922061656471,7.00000035,0.4489610908934719,0.0686,1,20,181.70496094548474,429.38248,mp-1174159,Li3MnCoO5,https://materialsproject.org/materials/mp-1174159,13.603719398126323,-81.43477090906823,-17.81390598390111,-85.26522623254087
-6.4313106528125,-205.80194089,3.934533314949254,-2.1455859442725,25.999993,1.0212300469940312,0.0,2,32,296.7065093707232,703.025715,mp-1100537,Li9Mn7O16,https://materialsproject.org/materials/mp-1100537,2.354583885045538,-78.30235812535669,-28.763482678223077,-78.646771867297
-5.455139467916666,-130.92334723,4.1641905004306565,-1.694607695208333,17.9999873,0.9828288062491658,0.4988999999999999,12,24,213.43800320629842,535.245775,mp-1174365,Li7Co5O12,https://materialsproject.org/materials/mp-1174365,17.330054074465934,-71.97158863284494,-10.22303957250039,-79.07793096921411
-6.223218092500002,-149.35723422,4.0038153522087985,-2.0889521916183327,13.999999300000002,0.7576021426738622,0.7062999999999997,12,24,215.35960561324242,519.265175,mp-1175162,Li7Mn4CoO12,https://materialsproject.org/materials/mp-1175162,19.475282827762705,-82.60008417993646,-15.278137464328802,-83.61168676269405
-5.804909147857143,-162.53745614,4.109740328293373,-1.8643959530150005,10.9999724,0.5075338774305624,0.2624,12,28,252.582924109352,625.12847,mp-1174542,Li4MnCo2O7,https://materialsproject.org/materials/mp-1174542,16.271369074415652,-71.28344463783729,-13.537396553804484,-78.40565542871852
-5.846854209166668,-140.32450102,4.085912056924002,-1.8994553723716683,18.0000001,0.9789685978984098,0.5273999999999996,10,24,214.27977109971576,527.2554749999998,mp-1174903,Li7Mn2(CoO4)3,https://materialsproject.org/materials/mp-1174903,18.228420176406747,-71.78826619842171,-13.169500039268767,-77.85241542988298
-7.35248137875,-117.63970206,3.939173483667322,-2.8050877506250007,0.0023831,0.0001875115252503208,0.0,166,16,148.1125052042074,351.3563000000001,mp-756669,Li4Ti3CrO8,https://materialsproject.org/materials/mp-756669,4.46808802641504,-67.08754856258679,-10.63191355095706,-65.6326984137694
-5.7682287796875,-184.58332095,4.137365331888769,-1.8328798163099995,23.9999995,0.9638828729839298,0.3852000000000002,1,32,290.177942314225,723.001465,mp-1176115,Li9Mn2Co5O16,https://materialsproject.org/materials/mp-1176115,10.867292687508659,-80.34974673304681,-14.643320494872528,-85.84462366844883
-5.482880758333334,-131.5891382,4.209125777121724,-1.7223489856250005,15.9999995,0.8830533893855781,0.0,2,24,211.15940754574726,535.245775,mp-1174265,Li7Co5O12,https://materialsproject.org/materials/mp-1174265,20.285679484329318,-72.5874604468132,-9.727155298903757,-78.08153691381341
-5.9025926565,-118.05185313,3.980997712623615,-1.945553920971,7.0,0.4554849010685213,0.19410000000000016,2,20,179.10243175249738,429.38248,mp-1174097,Li3MnCoO5,https://materialsproject.org/materials/mp-1174097,13.792302023809292,-74.7877848046195,-11.884850462099037,-80.99975048813175
-6.1910735362499985,-148.58576487,3.938953953480631,-2.0568076353683327,16.000082199999998,0.8518090650665732,0.4276,8,24,218.90585809920455,519.265175,mp-1175284,Li7Mn4CoO12,https://materialsproject.org/materials/mp-1175284,13.158055746872186,-80.65378968688646,-18.183731075414787,-84.16898961010045
-5.7580370475,-184.25718552,4.128195250770967,-1.8226880841224995,24.0000001,0.9617465412977289,0.0,1,32,290.82252308329635,723.001465,mp-1176134,Li9Mn2Co5O16,https://materialsproject.org/materials/mp-1176134,13.75627123993186,-82.73355035502979,-14.66041362407624,-87.61035375301344
-5.789314030625,-185.25804898,4.165912362209099,-1.8539650672475,22.0000002,0.8896557172195966,0.5068999999999999,1,32,288.1894898943708,723.001465,mp-1176139,Li9Mn2Co5O16,https://materialsproject.org/materials/mp-1176139,13.250577569042811,-76.47034612870064,-10.380507615279193,-82.18417462000066
-5.830459011785713,-163.25285233,4.1104031273933614,-1.8899458169435712,11.0,0.5076170037038258,0.8546999999999998,2,28,252.54219532203282,625.12847,mp-1174393,Li4MnCo2O7,https://materialsproject.org/materials/mp-1174393,1.7359885830649588,-72.93789190277411,-21.491086367400552,-76.60280323909681
-6.2967666229166666,-151.12239895,4.372617326736298,-2.4030816160416664,2.0000003,0.1030437436520662,1.6413000000000002,2,24,226.19648913417026,595.6323,mp-755369,Li2VGaO4,https://materialsproject.org/materials/mp-755369,2.969443916956473,-65.59867310208679,-11.121167656554274,-64.93486851199917
-5.075135564166667,-60.90162677,2.943080015098484,-2.8556348882933342,4.9999995,0.3720871744351168,3.2814,12,12,156.60394133237466,277.5592256,mp-1176695,LiFeF4,https://materialsproject.org/materials/mp-1176695,23.988791934129768,-78.42594027255036,1.5083684330785363,-70.07103931913151
-5.904169791999999,-118.08339584,4.050771615187516,-1.947131056471,5.000000099999999,0.3310486247931416,0.26180000000000003,2,20,176.0174205967949,429.38248,mp-1174117,Li3MnCoO5,https://materialsproject.org/materials/mp-1174117,20.163689001395053,-73.25988700113298,-8.811560947852191,-80.82740606781485
-5.817049642916667,-139.60919143,4.0665035780761745,-1.8696508061216681,13.9999995,0.7578031703122372,0.0,1,24,215.30247877107442,527.2554749999998,mp-1175082,Li7Mn2(CoO4)3,https://materialsproject.org/materials/mp-1175082,15.700295939231939,-76.49890370745305,-9.501667389572237,-85.19497034701719
-6.4388157259375,-206.04210323,3.9162392449963455,-2.1530910173975,17.999997600000004,0.7037182089219841,0.7278000000000002,2,32,298.0925252135617,703.025715,mp-1100526,Li9Mn7O16,https://materialsproject.org/materials/mp-1100526,2.449742876198727,-78.41348130073091,-28.801714603454762,-78.74814726081338
-5.7793596415625,-184.93950853,4.151226277888358,-1.844010678185,25.1610638,1.013898698449014,0.0,1,32,289.20903806294064,723.001465,mp-1176205,Li9Mn2Co5O16,https://materialsproject.org/materials/mp-1176205,4.816156742677267,-73.01234739950063,-22.373562571172034,-76.051020237424
-6.778397031956521,-311.80626347,3.6353426975370087,-2.4674907321739123,7.0000208,0.182858489340652,0.6909000000000001,1,46,446.1302076081903,976.6926,mp-760815,Li6V5O12,https://materialsproject.org/materials/mp-760815,3.9499101213847303,-67.01691086904209,-16.964839379910646,-75.2426124882505
-5.689802578125,-182.0736825,4.070583400989936,-1.754453614747499,29.0235418,1.1468225560382888,0.0,8,32,294.9385973317052,723.001465,mp-1100639,Li9Mn2Co5O16,https://materialsproject.org/materials/mp-1100639,6.7997569969946134,-79.72919756899846,-24.276684292039853,-75.08934773474961
-6.745458515277778,-242.83650655,4.026658007914569,-1.6296673779911102,9.999985475,0.269947751257243,0.0,2,36,431.7149444940197,1046.86996,mp-752751,Mn2FeO6,https://materialsproject.org/materials/mp-752751,17.925026952947587,-67.28677646731305,-15.334471293644386,-69.1355340652854
-5.771444545,-184.68622544,4.154950981651451,-1.8360955816224989,19.999999399999997,0.8066498305339511,0.0,10,32,288.94977676307195,723.001465,mp-1100722,Li9Mn2Co5O16,https://materialsproject.org/materials/mp-1100722,2.1071638975813447,-72.81679942311018,-22.456665052296962,-75.39905897470808
-6.908529708125,-110.53647533,4.040416388170067,-2.4265591425000004,6.9999993,0.5472907065520951,0.0,166,16,149.0587073257881,362.689,mp-850338,Li4VCr3O8,https://materialsproject.org/materials/mp-850338,2.376412048383707,-66.9844956345717,-12.200370503256266,-65.2698426378695
-5.826996106071428,-163.15589097,4.075573526254089,-1.886482911229287,11.0000007,0.5033157306730018,0.9038,1,28,254.70040541865865,625.12847,mp-1174672,Li4MnCo2O7,https://materialsproject.org/materials/mp-1174672,6.878717806716358,-71.93170981336887,-22.077425169128052,-77.36034127595299
-6.35689528,-101.71032448,4.130622860583733,-2.0372450426800004,16.0000005,1.2222065997746632,0.6310000000000002,2,16,152.5642573214429,379.50653000000005,mp-1174215,Li4Mn3CoO8,https://materialsproject.org/materials/mp-1174215,5.219535760434843,-77.90691269682257,-29.35180672979805,-76.3551904455243