energy_per_atom,energy,density,formation_energy_per_atom,total_magnetization_uB,total_magnetization_T,band_gap,sgr,num_sites,cell_volume,weight,mp_id,formula,URL,tsne_xrd_lin1_0,tsne_xrd_lin1_1,tsne_xrd_lin2_0,tsne_xrd_lin2_1
-5.451798765,-87.22878024,5.894777859296689,-2.060132158750001,0.0,0.0,0.0,123,16,246.21220434408215,874.0332000000002,mp-22601,Ba2Ca2Cu3HgO8,https://materialsproject.org/materials/mp-22601,-0.7368937455799465,26.141135639268555,-0.2373643791300135,20.412451092939765
-5.442348586122448,-266.67508072,5.989164022422831,-2.033646294464286,0.0232625,0.0003706464466534482,0.0,12,49,731.4320269881042,2638.099,mp-1228760,Ba6Ca6Cu9Hg3O25,https://materialsproject.org/materials/mp-1228760,17.484377253453008,52.43671096674326,3.920638819267636,47.10554313783138
-5.42661103060606,-179.07816401,6.1284698048826005,-2.0096490126893936,0.11973339999999999,0.0029193147556164103,0.0,139,33,477.98230607174315,1764.0658,mp-1228265,Ba4Ca4Cu6Hg2O17,https://materialsproject.org/materials/mp-1228265,17.407779479016412,52.338742278933296,4.783349182206568,48.692850846598795
-7.0004915710416675,-336.02359541,6.494332600861597,-0.5268629115104156,3.4523764999999997,0.03608878718687555,0.0,225,48,1114.8675942453103,4360.22327,mp-582023,La21Fe8Sb7C12,https://materialsproject.org/materials/mp-582023,-0.3236970745747693,26.256927209587122,4.18888023034797,48.42460801765545
-6.7832572375,-54.2660579,7.4627347570621625,-1.357282190595,4.8e-06,2.5100071829909514e-07,0.0,129,8,222.86593953738569,1001.59608,mp-1078349,La2BiN,https://materialsproject.org/materials/mp-1078349,-3.8191373471289976,19.382587499219976,3.783414430635207,47.11110716090003
-8.0189480403125,-513.21267458,5.920966652855368,-0.2774236934375001,9.000000000000001e-07,9.795690765210968e-09,0.3475000000000001,148,64,1070.7420790123147,3817.93381,mp-1195612,La11(MnC6)3,https://materialsproject.org/materials/mp-1195612,-1.8468073785290584,26.5644517660647,0.1957441536205964,20.47450624637341
-7.036792009791667,-337.76601647,6.375248615329079,-0.4637944816145835,7.7994518,0.0805637046208492,0.0,225,48,1128.241518875416,4331.61763,mp-1201735,La21Mn8Sn7C12,https://materialsproject.org/materials/mp-1201735,-0.2515257905615928,26.25609968460063,-13.771895956210122,43.951073601589634
-5.512541256363637,-303.18976910000003,6.518685265735017,-1.969709482613636,0.0938163,0.0013746746892308744,0.0,123,55,795.3454337139301,3122.2431,mp-680433,Ba6Ca6Tl5Cu9O29,https://materialsproject.org/materials/mp-680433,17.432472735638758,52.42037051285153,4.9303956800924995,37.21879305719278
-6.7492049925,-26.99681997,3.4363844469019216,-2.0498341095312504,0.9555483,0.0669217831738382,0.0,129,4,166.40354236500255,344.36199999999997,mp-20560,CeS,https://materialsproject.org/materials/mp-20560,-6.615874676799204,19.32439204350952,5.825542431532754,48.12844890578361
-5.528091175,-409.07874695,6.52906163123588,-1.9874769651520272,0.033272300000000005,0.00035988162186356205,0.0,139,74,1077.4585746394243,4236.4517,mp-1204270,Ba8Ca8Tl7(Cu4O13)3,https://materialsproject.org/materials/mp-1204270,17.470391037117395,52.41614400525231,4.882120943797106,37.174798912542855
-2.4627453341666667,-29.55294401,2.7341995626987585,0.01820776155582908,0.9999913,0.02375955598437509,0.0,62,12,490.4958404887754,807.6374480000001,mp-1101799,Rb2P,https://materialsproject.org/materials/mp-1101799,9.012944557496557,18.57503112973718,37.780502400525016,0.8520901024761941
-5.554081361470589,-188.83876629,6.837629993601958,-1.8111620769117651,0.1849941,0.004822828455674258,0.0,99,34,447.02672793697235,1840.7296,mp-1218932,Sr2CaCu2(BiO5)2,https://materialsproject.org/materials/mp-1218932,-5.195883615567616,21.235485646262067,-11.456331300310236,45.21746996699849
-3.725062323,-37.25062323,5.216463238876601,-2.052432163047333,0.0,0.0,1.4951,148,10,146.6036693696773,460.5448192,mp-998537,ZnAgF3,https://materialsproject.org/materials/mp-998537,-9.197611219314384,21.936301753180146,1.2388135872193309,18.43478446498536
-4.2414296671428575,-29.69000767,3.294365020653122,-1.960653485064828,5.0000002,0.24992005719294375,1.783,139,7,233.15586131058484,462.5609488,mp-1025252,Cs2MnCl4,https://materialsproject.org/materials/mp-1025252,1.0893173693200215,8.343322404815583,5.65125657251818,14.103804414380047
-5.4078125965217385,-248.75937944,3.866449834324283,-0.6730324588608695,0.007942,9.288827556404178e-05,0.014199999999999768,136,46,996.4291172555569,2320.116,mp-1246141,Sr11(SiN5)2,https://materialsproject.org/materials/mp-1246141,4.5643160283493325,23.18482851906928,2.862605004453287,25.064240953014817
-7.933279245714287,-111.06590944,5.0792535968172094,-3.4367283398809527,0.0,0.0,2.2874000000000003,129,14,171.99409356209915,526.0952,mp-10520,LiNdTiO4,https://materialsproject.org/materials/mp-10520,-0.6062024024679914,25.20766670124219,-7.358846033438144,30.51786410831077
-5.3396436283333335,-64.07572354,6.158074508568789,-2.030289607291667,1.9e-06,1.1120621834113713e-07,0.0,123,12,199.1140729193597,738.4104000000002,mp-6879,Ba2CaCu2HgO6,https://materialsproject.org/materials/mp-6879,-6.6441131023714375,15.712194398937118,1.456052165446751,22.188883097026032
-5.35173894,-26.7586947,7.229821175264615,-0.7046466060000001,0.3395634,0.041403064385693716,0.0,119,5,95.57973344982616,416.14461580000005,mp-1226648,CeAl3Pt,https://materialsproject.org/materials/mp-1226648,-8.557803193206556,10.88478296509369,-27.85417678644659,29.63457468953148
-4.134711589,-41.34711589,5.7524701939024006,-0.2319167894895827,0.0,0.0,0.8468,9,10,260.99640635301256,904.1486,mp-29959,TlBSe3,https://materialsproject.org/materials/mp-29959,4.350322969994538,21.635972735812558,30.05609618112133,1.2959725631295451
-8.418449884375,-134.69519815,5.063778988123035,-3.4783710516361364,0.0,0.0,1.6396000000000002,99,16,233.45401361728656,711.91312,mp-1219633,RbLa2Ti2NbO10,https://materialsproject.org/materials/mp-1219633,6.4155983210866845,24.297846941963204,-2.798912865997007,44.58225366001252
-5.535589168055554,-199.28121005,6.4522132025520555,-1.9881990685069448,1.7e-06,3.833670630386599e-08,0.0,139,36,516.7869653777112,2008.0345,mp-542197,Ba4Ca4Tl3Cu6O19,https://materialsproject.org/materials/mp-542197,17.42216987556412,52.39391151721078,4.9000260655973875,37.153581309088494
-8.627152610416667,-207.05166265,5.047651180688324,-2.009776956953125,25.99999975,0.5918503162766346,0.24239999999999995,173,24,511.96336783135047,1556.2491672,mp-1191013,Gd3MnAlS7,https://materialsproject.org/materials/mp-1191013,6.7521600760045635,-4.745752571402199,11.622180041859806,3.373962152111743
-5.906660705833333,-141.75985694,5.008926194080375,-1.8494207509114584,1.0000078000000001,0.022367311213521254,0.0,173,24,521.0351643526947,1571.67439,mp-1192335,Nd3GaCoS7,https://materialsproject.org/materials/mp-1192335,7.139046754922206,1.044863932322655,12.341216308432694,5.893508644691369
-5.2431918556521735,-241.18682536,4.012140546619872,-0.5782004971217387,3.56042835,0.040128805019450216,0.0,136,46,1034.0069331455588,2498.3340000000007,mp-1245458,Sr11(GeN5)2,https://materialsproject.org/materials/mp-1245458,4.216776076282217,23.03665908952503,2.6272153979465145,25.0904992777842
-6.155136281428571,-86.17190794,4.774799653665936,-0.7014797438771428,1.79791,0.07420766908601956,0.0,176,14,282.35571677833843,811.9002,mp-1029750,Sr3RuN3,https://materialsproject.org/materials/mp-1029750,-4.106577620880397,21.08743505183604,4.9030663359450415,47.56109174225102
-7.2021941258333335,-345.70531804,6.471786778420143,-0.6119957346354165,1.0455228,0.01090939352297197,0.0,225,48,1116.8898075526213,4352.967629999999,mp-1203312,La21Mn8Sb7C12,https://materialsproject.org/materials/mp-1203312,-0.24445510134500725,26.272112774850093,-13.706308369726989,43.92277953557371
-2.878273559166667,-103.61784813,3.822273133450381,-1.1077735770210728,0.0,0.0,0.0,88,36,1341.7510414194767,3088.4784,mp-568477,Rb2SbBr6,https://materialsproject.org/materials/mp-568477,1.1778997431202791,19.56899093819065,-16.120126150677756,-9.06132989823761
-4.871314676,-24.35657338,6.885716259310322,-0.35041677143750005,5.0006695,0.5026348353734836,0.061599999999999426,119,5,115.94525917778864,480.787345,mp-1221565,MnTlCuSe2,https://materialsproject.org/materials/mp-1221565,-16.838228424336652,23.646737320547853,-17.051873540534686,42.04917013388655
-7.696907982857143,-215.51342352,7.610184227418109,-3.6847388678571433,0.0,0.0,3.2026,62,28,453.1353399554682,2076.7012,mp-18258,BaTb2O4,https://materialsproject.org/materials/mp-18258,-0.4534471890361702,23.8343669344665,-13.293812586570516,46.782910694909276
-4.399872822727274,-48.39860105,7.261146182171013,-0.4270688232845462,1e-07,4.566677871663923e-09,0.08009999999999984,6,11,255.1978725031769,1115.9202,mp-1101007,Tl5NO5,https://materialsproject.org/materials/mp-1101007,8.60604687196236,22.225684248871,2.6641511683761734,24.766557107266074
-8.482515917999999,-84.82515918,4.412946242686234,-3.008738296875001,0.9999998999999999,0.07091854000198303,0.0,123,10,164.33028100729857,436.71403,mp-1079978,LaNb2O7,https://materialsproject.org/materials/mp-1079978,27.969412478901514,61.73283922765329,-8.215496554971255,42.00289960030603
-7.712647941666668,-46.27588765,7.861292557391533,-4.287837936646668,0.0,0.0,4.9436,166,6,81.92468714212303,387.8463064,mp-14093,TbOF,https://materialsproject.org/materials/mp-14093,26.270747815120767,64.59374647150257,-11.19975249352103,36.35170765934308
-7.4058150214285705,-51.84070515,6.117910540415808,-3.0010709062085703,4.0000004,0.4895925772522111,0.0,107,7,95.21440053992191,350.79764500000005,mp-1217982,SrNdMnO4,https://materialsproject.org/materials/mp-1217982,-21.71114047155705,24.573161087206092,-14.366092767254028,59.010077075756925
-8.375124207941179,-284.75422307,5.4545505331760635,-1.1387166032664713,27.99999965,0.4804116850434033,0.4205999999999994,194,34,679.2378697517893,2231.16542,mp-638276,LiEu4C3(IN2)3,https://materialsproject.org/materials/mp-638276,-3.6616694043771463,19.368248387614273,-3.326622551647972,63.09102773794223
-6.528334775,-156.6800346,6.677800396755012,-2.8013073346875013,1.99999545,0.08540711145628226,0.0,113,24,272.9055709963389,1097.480328,mp-1207637,Yb2Be2GeO7,https://materialsproject.org/materials/mp-1207637,-2.9139107550862664,12.480978088088547,-16.1696059679909,44.51666302858261
-7.770176513571428,-108.78247119,5.00744249291421,-3.3549929112380954,3.1e-06,1.951739352345846e-07,2.4499000000000004,129,14,185.10463885206985,558.19273856,mp-20980,NaNdTiO4,https://materialsproject.org/materials/mp-20980,-4.943199958763753,20.138112056347406,3.517714187821185,47.52625239179162
-6.284184600666666,-94.26276901,7.340103087529216,-2.0531756726666672,6.0988873,0.3141027047837286,0.0,139,15,226.28530907965515,1000.252,mp-1208972,Sr2EuCu2(BiO4)2,https://materialsproject.org/materials/mp-1208972,-5.549814023122192,20.695414649068827,-10.5850876305931,45.02649289029381
-4.33467273625,-34.67738189,6.0342822616864,-2.0657496869641667,3.85e-06,2.383134891586171e-07,1.2797999999999998,129,8,188.27364549428168,684.1732063999999,mp-1080438,SrAgTeF,https://materialsproject.org/materials/mp-1080438,-36.11413550519032,-5.00573665079092,-40.396513583533824,-8.777054940663183
-4.7721579985,-95.44315997,4.766678016794439,-1.4895221872469997,0.0005591,1.1233480144409463e-05,1.0459,166,20,580.0328598596241,1665.0195,mp-1228725,Ba10BrN5Cl4,https://materialsproject.org/materials/mp-1228725,-13.730626779966526,20.780326377196115,-1.4844753386952203,-23.570492462043614
-5.521831287826087,-127.00211962,6.214213818617921,-1.969478182608696,0.0,0.0,0.0,139,23,333.9752853208769,1249.8314,mp-556574,Ba2Ca3Tl2(CuO3)4,https://materialsproject.org/materials/mp-556574,-4.4935763161382125,19.708069223582218,4.121878801903444,47.36933367097151
-6.972900597333332,-104.59350896,6.276143992955816,-2.5196669547499986,2.999998,0.14007638585118304,0.0,121,15,249.59361135069042,943.3596,mp-1226848,Ce4Cu3(SO)4,https://materialsproject.org/materials/mp-1226848,-8.76763719680091,15.834102441241194,-14.468902886100215,58.3529708380108
-3.88499475625,-31.07995805,4.667508793215041,2.173263877113333,0.0,0.0,0.0,65,8,106.64785222138228,299.7700000000001,mp-561891,AgCNO,https://materialsproject.org/materials/mp-561891,1.017485475706988,8.423007903798483,3.359325093455181,21.96337520087959
-6.6399327075,-53.11946166,5.609066653057631,-0.2720919363541663,0.12309415,0.00795323300352817,0.0,12,8,180.3728366296817,609.2739999999999,mp-1078268,Pr2BC,https://materialsproject.org/materials/mp-1078268,6.964676597240026,8.577944162157955,7.747489611106308,25.385399104984746
-6.28759023,-88.02626322,4.045848936619212,-1.0294896591152385,0.9997113999999999,0.040236407416311536,0.0,176,14,289.5562043827806,705.4942000000002,mp-1245686,Sr3TiN3,https://materialsproject.org/materials/mp-1245686,-4.241268456327062,21.087767568730182,4.620668048162859,48.666252504600784
-7.472212657142856,-104.6109772,5.875639870431173,-3.0443976904942853,4.0,0.2387340311865765,0.10440000000000003,63,14,195.26440725079132,690.92223,mp-1218183,SrLaMnO4,https://materialsproject.org/materials/mp-1218183,-22.865500938347317,38.35700660065126,-14.540557740034174,58.726659027645255
-6.9143306708333325,-331.8878722,6.454808886210098,-0.4579028743229176,0.0099441,0.00010382459432001817,0.0,225,48,1116.2016694002778,4338.87327,mp-607917,La21Fe8Sn7C12,https://materialsproject.org/materials/mp-607917,-0.2353700937023093,26.279883875523424,-13.714266411727483,43.99916010414278
-7.19468142877193,-410.09684144,6.990012085683196,-2.8576425222587725,6.634823599999999,0.10108291568503608,0.0,82,57,764.9429526730028,3220.01492,mp-867595,La16Ni8O33,https://materialsproject.org/materials/mp-867595,-22.888425493651056,38.54168124155303,-14.796661117838955,58.73718611222166
-7.187997684680852,-337.83589118,6.440525285209889,-0.7090952673404252,4.8134164,0.051133956674338704,0.0,225,47,1097.037470817362,4254.9421600000005,mp-1223565,La20Mn8Te7C12,https://materialsproject.org/materials/mp-1223565,-0.10727982077172088,26.3456599172262,-16.696911642074888,41.283764073353794
-6.044748837857143,-84.62648373,8.690057290326028,-1.82546274059,0.0001082,5.585608125960803e-06,1.0690999999999995,99,14,225.75336113004775,1181.4294000000002,mp-1227592,Bi3PbWClO8,https://materialsproject.org/materials/mp-1227592,-13.152140238217644,25.10063954414796,-17.509250452181256,41.15398373896025
-6.8628539616129025,-212.74847281,7.7558465425932255,-2.4618461604032262,4.16e-05,7.934457177384736e-07,0.0,87,31,611.0173433417916,2853.866507,mp-1194552,Sm10As8Au3O10,https://materialsproject.org/materials/mp-1194552,-9.425646158997774,22.293123614075302,-15.561356176713787,45.3854998097432
-7.508444551538461,-97.60977917,4.5554187545551565,-3.045006695592282,0.00019219999999999998,9.554979071698571e-06,1.3487000000000002,123,13,234.42345948412301,643.10263,mp-1209483,Rb2LaNb2ClO7,https://materialsproject.org/materials/mp-1209483,21.82713567589767,59.40188810338465,-5.997634447475443,35.86706752414013
-5.04893001125,-40.39144009,6.041040812615982,-1.7474056072916673,8.5e-07,6.500476780553549e-08,0.0,63,8,152.38813076465132,554.388,mp-996979,BaAgO2,https://materialsproject.org/materials/mp-996979,-5.953143882302856,19.23338367413037,6.683639559474747,26.480734758170886
-5.33484489826087,-122.70143266,6.6990641315172,-1.5945895978260864,15.734202499999999,0.5712294609680634,0.0,139,23,321.00482837285324,1295.0204,mvc-139,Ba2Tl2Zn3(FeO3)4,https://materialsproject.org/materials/mvc-139,-4.940907167846019,19.4471592491053,4.414136885513581,48.01429195262896
-4.20024182,-16.80096728,6.88133913141488,-1.378654693697917,0.0016581,0.00023208380625422374,0.0,123,4,83.26132318863394,345.0382,mp-1215421,YbAgS2,https://materialsproject.org/materials/mp-1215421,31.66029400878307,63.80755227704554,-15.329773251237981,35.154165982790644
-9.619558891363637,-211.63029561,6.976245864227244,-3.2041098651136366,18.00000105,0.6668473668347017,0.0,63,22,314.57450171628426,1321.58836,mp-756886,Eu3NbO7,https://materialsproject.org/materials/mp-756886,17.107395037694488,61.3283431654653,-7.565979412633425,37.5166675852281
-6.525066374285713,-91.35092924,4.962921270441412,-0.915366173877142,4e-07,1.3767262870926439e-08,0.0,176,14,338.60222999505953,1011.9944,mp-12905,Ba3CrN3,https://materialsproject.org/materials/mp-12905,4.0219684650945755,15.753225775088337,1.6020635237620982,22.395589870765267
-5.267387244782608,-121.14990663,6.646007696303022,-1.7669419441304353,1e-07,3.8788198860938656e-09,0.0,139,23,300.4538781071329,1202.5123999999996,mvc-10565,Ba2Mg3Tl2(CuO3)4,https://materialsproject.org/materials/mvc-10565,9.438065694388289,51.586950981177715,23.35873987919261,40.827829499469736
-9.272232665,-92.72232665,10.576579110901632,-1.1151749597633924,9.7598375,0.5381921244503073,0.0,166,10,211.340473461646,1346.104598,mp-1216889,U5P4S,https://materialsproject.org/materials/mp-1216889,31.521059870281306,63.179805699181536,-14.693860123528975,35.08034840837826
-6.415613447999999,-32.07806724,11.718738150641467,-0.917581258,3.97e-05,5.255259263503099e-06,0.0,139,5,88.038733823041,621.306,mp-1222307,Lu(SiPt)2,https://materialsproject.org/materials/mp-1222307,-48.33469130495263,29.638699902595235,-27.22690541545978,34.450615975363576
-7.399840191428572,-51.79888134,7.0076493072924775,-2.991535034285714,0.0001196,1.4510983053746216e-05,0.0,42,7,96.05318548272324,405.35454,mp-1223234,La2CuO4,https://materialsproject.org/materials/mp-1223234,-21.651544158646878,37.949208231506304,-15.141227096036827,58.49438457611429
-9.48475374125,-151.75605986,6.270802903538956,-3.9821197329687497,0.0,0.0,4.5549,15,16,231.06802608717862,872.5974,mp-753917,Y2HfO5,https://materialsproject.org/materials/mp-753917,2.38600181860256,18.84747270433021,2.8912365885695817,38.25094984674882
-4.513353628571427,-63.18695079999999,5.777508159754754,-1.0608760754761906,1.55e-06,1.0335733709730259e-07,0.0,74,14,174.7703733936364,608.078,mvc-6513,Mg(AgO2)2,https://materialsproject.org/materials/mvc-6513,-5.232800660003621,20.639705567247635,5.1384801268285765,36.057166444071285
-7.5742225775,-212.07823217,6.39198707994354,-3.1856046343750006,13.5022266,0.406405504328592,0.0,99,28,387.18920313380204,1490.42469,mp-756619,SrLiLa7Fe3O16,https://materialsproject.org/materials/mp-756619,-22.769496208122174,38.37348068401759,-13.843382187652367,58.943348169457224
-7.7534707934375,-248.11106539,6.504225373891605,-2.6701037985212497,6.99999985,0.22515115156768428,1.0821,55,32,362.32749018511794,1419.2136400000004,mp-510225,HoMn2O5,https://materialsproject.org/materials/mp-510225,-2.070408893864341,27.246871531182627,1.1331446267755456,49.68653689907471
-7.659856476428572,-107.23799067,6.031918984673898,-3.5622225492857145,0.0,0.0,2.6914,63,14,263.80436197602376,958.2710800000001,mp-752726,BaLa2O4,https://materialsproject.org/materials/mp-752726,4.980969252635975,15.71195156012496,3.5005001921729932,32.85673307780523
-7.477795958571428,-52.34457171,5.893439673418524,-3.0499809919228573,4.0000003,0.4789145513811768,0.0,107,7,97.33732761307449,345.461115,mp-1218156,SrLaMnO4,https://materialsproject.org/materials/mp-1218156,-22.51366640340409,37.950340603326566,-15.333086453977039,57.939878239870026
-11.364784699375,-181.83655519,7.321252443036548,-3.958144591093751,13.9999999,0.6277214758425725,3.1513000000000004,63,16,259.91926663243186,1145.974,mp-754041,Gd2HfO5,https://materialsproject.org/materials/mp-754041,0.8734778474021959,13.977678384720518,7.034532749815222,32.46487221043377
-7.888327005,-110.43657807,8.23795902106199,-1.9818479742857136,6.866042299999999,0.4572429975697738,0.14559999999999995,88,14,174.99951255814332,868.1752,mp-20102,Gd(PdO2)2,https://materialsproject.org/materials/mp-20102,0.3778103973396556,65.14038976369348,-7.207750565381312,51.931237705833254