energy_per_atom,energy,density,formation_energy_per_atom,total_magnetization_uB,total_magnetization_T,band_gap,sgr,num_sites,cell_volume,weight,mp_id,formula,URL,tsne_xrd_lin1_0,tsne_xrd_lin1_1,tsne_xrd_lin2_0,tsne_xrd_lin2_1
-5.534942535,-77.48919549,4.1030439164854995,-1.6106864771428573,3.0000001,0.2518747981264189,0.0343,12,14,138.80783525447282,342.981785,mp-1177929,Li2MgCo3O8,https://materialsproject.org/materials/mp-1177929,8.476877312075736,-66.76376906980019,-4.445173795097976,-69.02640290104392
-6.198346490625,-99.17354385,3.7020244228171526,-2.0866976089300007,9.9999993,0.7932996684069341,0.0,2,16,146.90619977414443,327.514335,mp-1174777,Li5Mn3O8,https://materialsproject.org/materials/mp-1174777,10.50475335954433,-79.5494657277388,-16.120972690167314,-82.62331287861663
-5.849827330833333,-140.39585594,4.078644914702664,-1.9024284940383336,17.999999300000002,0.9772273755243812,0.3613999999999997,2,24,214.66156495632825,527.2554749999998,mp-1174855,Li7Mn2(CoO4)3,https://materialsproject.org/materials/mp-1174855,16.053987254440642,-73.79636835818428,-10.384854002521584,-79.08316581832679
-7.747100016,-77.47100016,3.740993684486639,-2.751299832916668,3.0000002999999995,0.31171164237523874,1.3877000000000002,8,10,112.1619890341182,252.6874,mp-849731,LiTiV2O6,https://materialsproject.org/materials/mp-849731,12.329154568584954,-70.42193106128148,-7.306811253615193,-66.61813434688275
-7.58575347,-60.68602776,4.159001940105223,0.14141513912250048,1.49232225,0.22062561336723588,0.0,194,8,78.82865410591883,197.435,mp-567262,NiCN2,https://materialsproject.org/materials/mp-567262,16.016140670393618,-48.60301885303076,-12.552592264643181,-55.3050806212149
-4.506822809166667,-108.16374742,4.003035294275999,-2.222786914657501,5.999999900000001,0.26342327720579944,3.6297,2,24,265.4449834944664,639.9040384,mp-753448,Li2Ni3OF6,https://materialsproject.org/materials/mp-753448,15.446249520304134,-76.92461067746746,-11.575542361893053,-84.03237765675848
-5.79670286,-185.49449152,4.1555811423557785,-1.8613538966224992,26.0000002,1.0488038619525621,0.8388,1,32,288.9059598362445,723.001465,mp-1175750,Li9Mn2Co5O16,https://materialsproject.org/materials/mp-1175750,6.8599537104701795,-71.89051697962473,-21.538623756429466,-75.4656328951818
-5.8305840658333326,-139.93401758,4.055487686910832,-1.8831852290383333,17.9998504,0.9716709563370288,0.16769999999999996,1,24,215.88730329943527,527.2554749999998,mp-1175059,Li7Mn2(CoO4)3,https://materialsproject.org/materials/mp-1175059,12.74948580775756,-77.6802731314535,-14.483362378654688,-84.43547737877564
-5.617498594107143,-314.57992127,4.686757968360242,-1.6588702922321426,44.0000007,1.0176268546503011,0.03799999999999981,2,56,503.8967434941404,1422.214125,mp-766887,Li13Co15O28,https://materialsproject.org/materials/mp-766887,16.247468931444573,-74.25450501863257,-10.424558873926326,-79.35314140617704
-6.698657857468356,-529.19397074,3.8690539243666393,-1.9012649844324063,60.999684200000004,0.8319016098941787,0.0,12,79,854.5412850720588,1991.080145,mp-530628,Li10Mn21O48,https://materialsproject.org/materials/mp-530628,18.461126032881502,-67.27976390438097,-15.67416662446282,-69.68250829190694
-5.818961356428572,-162.93091798,4.1169759619100414,-1.8784481615864288,8.9999999,0.41598713019425415,0.3761999999999999,8,28,252.13900665304647,625.12847,mp-1174736,Li4MnCo2O7,https://materialsproject.org/materials/mp-1174736,6.9133477839874224,-71.49861221972468,-21.591312355473548,-75.60852638376564
-5.8292137379166675,-139.90112971,4.059666660025072,-1.8818149011216656,16.8410431,0.9100528231423526,0.0,1,24,215.66507144846145,527.2554749999998,mp-1175054,Li7Mn2(CoO4)3,https://materialsproject.org/materials/mp-1175054,12.965933452275493,-72.60280266055659,-11.920617607106653,-81.50093910571468
-8.351462615,-66.81170092,5.174790255251726,-0.6055017938541676,0.0001602,1.6182550508855073e-05,0.0,164,8,115.37002004365459,359.5312372,mp-1216714,TiNbAlC,https://materialsproject.org/materials/mp-1216714,-71.2682059169066,1.885142681844002,-17.496946518880005,-52.00638299073126
-7.076940934375,-113.23105495,4.266684883381605,-2.467692976875001,6.0000004,0.44750239741753056,0.0,12,16,156.25479036650373,401.49008,mp-769928,Li4NbV3O8,https://materialsproject.org/materials/mp-769928,2.964782712086429,-61.28762399056138,-9.65395136155702,-61.74099491882674
-6.257185239999999,-75.08622288,4.178557337064351,-1.984251768701667,11.9999989,1.232066328141454,0.4354,12,12,113.50749651782463,285.628685,mp-1173936,Li3Mn2CoO6,https://materialsproject.org/materials/mp-1173936,5.423056045517703,-78.57013096050697,-29.55623095188813,-76.73612467016486
-6.4156767659375,-205.30165651,3.9333529114332464,-2.1299520573974995,25.999976800000002,1.0209230305695312,0.0,10,32,296.79555131909893,703.025715,mp-1100476,Li9Mn7O16,https://materialsproject.org/materials/mp-1100476,2.418395325417534,-78.48986665905495,-28.939212917191966,-78.67357418148497
-5.7578100225,-184.24992072,4.107843040054753,-1.8224610591224997,23.9999999,0.957005074386018,0.16469999999999985,1,32,292.2633963623136,723.001465,mp-1176121,Li9Mn2Co5O16,https://materialsproject.org/materials/mp-1176121,10.772060610904749,-81.66090483148814,-16.46107798276313,-87.18405471677988
-5.7950266775,-185.44085368,4.149338003350148,-1.8596777141224996,26.000000600000003,1.0472282071586598,0.7345000000000002,1,32,289.3406508798174,723.001465,mp-1175896,Li9Mn2Co5O16,https://materialsproject.org/materials/mp-1175896,1.7677729391395225,-73.07709620873301,-21.586266061170196,-76.83707850667841
-6.8178004627272735,-149.99161018,3.8503092125678564,-2.1128060513109093,9.99999985,0.4971912164525983,0.0,64,22,234.3980386640601,543.50118,mp-756038,Li2Mn2CrO6,https://materialsproject.org/materials/mp-756038,6.2500165807582775,-57.66271150235758,-5.988609694451648,-62.49777363417093
-7.104251361515153,-234.44029493,3.915217269747058,-2.3934286790151518,7.000000066666666,0.24211582074384266,1.3120000000000005,12,33,336.93979160149587,794.4363,mp-849313,Li2VCr2O6,https://materialsproject.org/materials/mp-849313,4.5112365760507664,-65.13104726030129,-8.718966052545737,-65.27286211989001
-7.930982555,-63.44786044,16.123213600660634,-0.08719202374999924,4.9000000000000005e-06,3.8635685735609853e-07,0.0,194,8,147.80355595684398,1435.1173,mp-1186752,PrIr3,https://materialsproject.org/materials/mp-1186752,-46.64249450610391,-31.56491341476973,-60.07379126831132,-30.681447247021065
-6.251172495333334,-93.76758743,4.0665471718270885,-1.971563748730667,17.9999984,1.3836043197778591,0.0,2,15,151.6135388282471,371.291245,mp-1177588,Li3MnFe3O8,https://materialsproject.org/materials/mp-1177588,5.6763760522685125,-66.36505231543666,-7.509502470860161,-66.27293556094958
-6.230262838333334,-149.52630812,4.01360588445016,-2.0959969374516665,14.000519500000001,0.7594829268463383,0.7331999999999996,5,24,214.8342712324024,519.265175,mp-1175269,Li7Mn4CoO12,https://materialsproject.org/materials/mp-1175269,12.39053626060833,-77.4660439057582,-14.904576467513635,-78.81148105126726
-6.92646632,-55.41173056,9.443342934649015,-0.2554091287500002,13.552538199999999,1.2888294920052143,0.0,65,8,122.54697692373304,696.914135,mp-1078895,Mn3Pd5,https://materialsproject.org/materials/mp-1078895,-57.841698947949546,-37.38215056229317,-67.92299757455571,-29.634286705015267
-4.7738184725,-324.61965613,4.4827010342285085,-1.3733354901470596,5.00000815,0.09893964013842282,0.0,212,68,588.9491690277259,1589.8952,mp-780142,Li5(NiO2)4,https://materialsproject.org/materials/mp-780142,14.209959144193578,-68.35502220959134,-11.345596521414617,-69.89025625079746
-5.7727315034375,-184.72740811,4.155630064075165,-1.8373825400599992,24.3461198,0.9821001875708344,0.0,8,32,288.90255872111186,723.001465,mp-1100640,Li9Mn2Co5O16,https://materialsproject.org/materials/mp-1100640,6.2609514036060006,-72.2811372840188,-22.870135567879306,-74.68412154896455
-5.7134641691666666,-205.68471009,4.587239136134505,-2.250083421666667,1.999999925,0.05699740353337725,2.5876,2,36,408.93316583123766,1129.6778800000002,mp-768238,Li3LaNiO4,https://materialsproject.org/materials/mp-768238,10.513943105083307,-49.37632251468999,1.6738369588956323,-48.20603504251356
-6.374607962083334,-152.99059109,3.8686148371169216,-2.1469085291583334,17.9999992,0.9484652791667424,0.0,2,24,221.17115005740132,515.270025,mp-1175331,Li7Mn5O12,https://materialsproject.org/materials/mp-1175331,12.865052861712126,-82.31036317534918,-16.866384993123713,-85.74871875301405
-5.7573415190625,-184.23492861,4.128717947651968,-1.8219925556849992,26.0000008,1.0420240346657044,0.0,6,32,290.78570486813413,723.001465,mp-1100589,Li9Mn2Co5O16,https://materialsproject.org/materials/mp-1100589,6.352285535701965,-72.11245964677516,-22.299126361028954,-74.74465088809656
-5.7747067925,-184.79061736,4.137272912757538,-1.8393578291224992,25.519613600000003,1.0248903969287653,0.0,10,32,290.184424360224,723.001465,mp-1100716,Li9Mn2Co5O16,https://materialsproject.org/materials/mp-1100716,6.108571743989653,-71.56252042056825,-22.171894246138745,-73.78581608820294
-6.904696843125,-110.47514949,3.9718608655292407,-2.436882435,5.0000002,0.3854097081840667,1.5376000000000003,12,16,151.1906030290816,361.6344,mp-754015,Li2VCrO4,https://materialsproject.org/materials/mp-754015,2.6982183740336887,-66.41795664225286,-10.279373795974653,-65.31057312616376
-5.859417247916666,-140.62601395,4.11388455755631,-1.9120184111216656,14.0000003,0.7666327788240387,0.4384000000000001,5,24,212.82276836939647,527.2554749999998,mp-1174907,Li7Mn2(CoO4)3,https://materialsproject.org/materials/mp-1174907,17.787109859655313,-78.88162200040306,-10.598505108438351,-85.62746406568688
-5.404918959642856,-151.33773087,4.137547015564034,-1.6245775340178583,12.3164574,0.5649004213426038,0.0,166,28,254.09220259904743,633.11877,mp-1174520,Li4Co3O7,https://materialsproject.org/materials/mp-1174520,3.853041317090447,-71.32046602594927,-23.01451690537789,-73.09985817279899
-6.92146044962963,-186.87943214,4.022684709674094,-1.9890991947288887,27.000000300000004,1.0641488543081852,0.0,115,27,295.6914825228045,716.3177599999999,mp-1222562,Li3Mn8O16,https://materialsproject.org/materials/mp-1222562,13.713117124349036,-68.27964727872593,-9.576970672428628,-66.82981789306636
-6.6114637605,-132.22927521,3.5571850416627786,-2.6209622673750004,3.0000001,0.20700634624161984,3.3036,2,20,168.89431709633357,361.8032,mp-765411,Li3CrSiO5,https://materialsproject.org/materials/mp-765411,21.559527571436966,-72.63368870842564,-12.693741249219654,-75.5091587377511
-5.8484766175,-93.57562588,4.430163517488206,-1.8091269763099997,14.000000199999997,1.1233316134970446,0.0,166,16,145.24376166956145,387.49683,mp-1174054,Li4MnCo3O8,https://materialsproject.org/materials/mp-1174054,4.194565090149164,-69.77792435612204,-19.54236062279981,-72.3300775579078
-6.2675717508333335,-75.21086101,4.251789231477761,-1.994638279535,10.000001699999999,1.0447161732769774,0.0,12,12,111.55246804684963,285.628685,mp-752794,Li3Mn2CoO6,https://materialsproject.org/materials/mp-752794,2.877973523940345,-67.25260056243253,-11.673347330640063,-64.76981266530295
-6.366819340625,-101.86910945,4.2433920650159624,-2.0471691033050003,12.0000046,0.941680671720425,0.9434999999999998,2,16,148.50982406160497,379.50653000000005,mp-1174190,Li4Mn3CoO8,https://materialsproject.org/materials/mp-1174190,3.9259597487351336,-78.06158183298307,-29.211797419235968,-76.38188331203992
-5.8285511845833335,-139.88522843,4.034412112110396,-1.8811523477883332,16.0000013,0.8592262089666187,0.0,6,24,217.01508818672863,527.2554749999998,mp-1175101,Li7Mn2(CoO4)3,https://materialsproject.org/materials/mp-1175101,1.3031300311081588,-72.36412641184087,-20.50858205147684,-74.8384045750917
-5.914336796111113,-106.45806233,4.514331483273828,-1.2268171792200002,3.9999903,0.2339939427457483,0.0,12,18,199.21945627653437,541.59682,mp-755620,MnCo5O12,https://materialsproject.org/materials/mp-755620,22.181356275613204,-65.4744732204857,-2.6999096163939496,-71.78894092156101
-6.43303023625,-205.85696756,3.930561418408562,-2.1473055277099995,25.999997,1.0201992760673428,0.0,2,32,297.0063361467789,703.025715,mp-1100539,Li9Mn7O16,https://materialsproject.org/materials/mp-1100539,10.747221418064038,-82.59068872030717,-18.64540335713715,-86.34647143103037
-6.3463739025,-101.54198244,4.202367618270224,-2.0267236651800005,13.9999994,1.0880056293326152,0.08899999999999998,2,16,149.95960997322928,379.50653000000005,mp-1174192,Li4Mn3CoO8,https://materialsproject.org/materials/mp-1174192,3.889709032264365,-78.04594322519742,-28.467776667042564,-76.65595422874763
-6.377413729090909,-210.45465306,4.056708678186071,-1.9908862702272718,10.666666699999999,0.3700410369901843,0.08689999999999998,2,33,335.93578063722424,820.6935,mp-782631,Li2Cr(FeO3)2,https://materialsproject.org/materials/mp-782631,5.0520121916884095,-65.47298649465253,-8.589464317228035,-65.90442359068227
-6.1357072875,-122.71414575,3.951298838375614,-2.066548313519,11.999999699999998,0.7822848120429333,0.4733000000000001,1,20,178.7696394223511,425.38732999999996,mp-1174771,Li6Mn3CoO10,https://materialsproject.org/materials/mp-1174771,22.81729824820047,-79.25071474698785,-9.957628802917009,-85.24175015302957
-5.597311927222222,-100.75161469,5.468127645410602,-1.1086897644444444,3.9995667,0.22064591605530692,0.0,12,18,211.24891054992057,695.639175,mp-755838,Co5BiO12,https://materialsproject.org/materials/mp-755838,22.045645920909056,-66.15578612450379,-2.299680870089906,-71.79722079760157
-7.070953485333334,-212.12860456,3.8909251993844327,-2.447582861333333,7.9999999000000015,0.3088739603213246,0.9044,1,30,301.8464778257137,707.2776,mp-769596,Li3V3CrO8,https://materialsproject.org/materials/mp-769596,4.6302194686969775,-65.34263295137576,-8.93123407225346,-65.90178039499042
-5.8342705975,-93.34832956,4.353857783010722,-1.7949209563099997,16.0000002,1.261695081337174,0.017899999999999583,2,16,147.78930460293782,387.49683,mp-1174113,Li4MnCo3O8,https://materialsproject.org/materials/mp-1174113,5.114179984782622,-74.710698433791,-26.011084764061394,-76.48810516713091
-5.782964726,-86.74447089,4.195719977599145,-1.7609654880000003,14.999997899999999,1.1777166047378491,0.0,12,15,148.43209852999482,375.0466,mp-754094,Li3Fe3NiO8,https://materialsproject.org/materials/mp-754094,3.2194197856672035,-67.13071284180975,-9.84614747996562,-66.3137201238525
-6.3475867884375,-203.12277723,3.7928266859724302,-2.0618620798975,29.4447005,1.1148777943334474,0.0,12,32,307.79198274442297,703.025715,mp-1100528,Li9Mn7O16,https://materialsproject.org/materials/mp-1100528,5.6912944709830775,-78.85154290762155,-25.991420579242174,-72.9320607700987
-6.1442057158333325,-147.46093718,3.3355586576439973,-2.629783856448333,2.00000005,0.1010603358521146,1.6993,1,24,230.63578733728227,463.28281280000004,mp-763177,Li2VO2F,https://materialsproject.org/materials/mp-763177,12.053467975357304,-61.95323560450157,-0.6054342399578231,-75.40473120817255
-5.075431222857143,-71.05603712,3.3172140813775663,0.12478510476190405,0.116803,0.005142713290485728,0.0,176,14,264.6909618989711,528.766,mp-1094398,Mg3Ti4,https://materialsproject.org/materials/mp-1094398,-70.34141185099425,2.0772931713519904,-57.020166664915436,-29.729386241342173
-7.113960881515152,-234.76070909,3.8651788584496702,-2.423728973560606,6.000000666666666,0.20569472697377647,0.0041999999999999815,12,33,339.94258109323897,791.2725,mp-780616,Li2V2CrO6,https://materialsproject.org/materials/mp-780616,4.9950820814095005,-64.67968344617995,-8.187550526225595,-65.54319770231707
-5.817015641071428,-162.87643795,4.154831567132331,-1.8765024462292863,8.79258195,0.4101369582180194,0.0,8,28,249.84171143354718,625.12847,mp-1174819,Li4MnCo2O7,https://materialsproject.org/materials/mp-1174819,6.784161729960135,-71.90026529448487,-21.458264828816755,-74.83342791412393
-5.71595331625,-91.45525306,3.9422581543261064,-1.8846050306850008,10.0,0.8246598920949496,0.0,10,16,141.31965049196145,335.504635,mp-1174001,Li5Mn(CoO4)2,https://materialsproject.org/materials/mp-1174001,19.049396141302726,-72.37336415723645,-12.180369674783659,-78.08662987447275
-5.76677958625,-184.53694676,4.171456489284658,-1.8314306228724997,22.728608800000003,0.9203430380949708,0.0,1,32,287.8064680031154,723.001465,mp-1176183,Li9Mn2Co5O16,https://materialsproject.org/materials/mp-1176183,16.097844903345596,-75.6228817295184,-11.324924391929214,-82.7252028821803
-5.84415504875,-140.25972117,4.037425954640912,-1.896756211955,16.8263971,0.9042800370656172,0.0,12,24,216.8530915805026,527.2554749999998,mp-1174510,Li7Mn2(CoO4)3,https://materialsproject.org/materials/mp-1174510,1.7926007903268009,-72.80769857887806,-21.135572645959765,-76.16289446952173
-4.856307996428573,-339.94155975,4.58260199592304,-1.0896660040000012,4.0000012,0.06829377455302155,0.0,1,70,682.5845163811352,1883.73359,mp-1120825,Li5CoNi9O20,https://materialsproject.org/materials/mp-1120825,9.51849507775086,-67.62669220087254,-4.099019919733031,-70.5266607719251
-6.34818183625,-101.57090938,4.115361916713084,-2.028531598930001,15.999999599999999,1.217690983153501,0.2974000000000001,12,16,153.13000940224882,379.50653000000005,mp-1174203,Li4Mn3CoO8,https://materialsproject.org/materials/mp-1174203,5.60770697568642,-78.50948772150682,-29.094294646700288,-75.68814551933588
-5.8494720025,-140.38732806,4.064869744636461,-1.902073165704999,18.0000691,0.9739306753047235,0.0817000000000001,2,24,215.38901743321324,527.2554749999998,mp-1174871,Li7Mn2(CoO4)3,https://materialsproject.org/materials/mp-1174871,13.686957342261506,-75.01664588612101,-11.51020479000893,-81.05020345167854
-6.410706879285714,-179.49979262,3.9115422758160383,-2.1498501460092854,10.9999592,0.4957294384298158,0.7597999999999998,2,28,258.597184420516,609.14787,mp-1174297,Li4Mn3O7,https://materialsproject.org/materials/mp-1174297,2.25638469207766,-78.22800451325172,-28.747775168478714,-78.88306717858924
-6.769852297333332,-101.54778446,4.012074947165703,-2.2276401686666665,12.9999986,1.0149693717980526,0.7286000000000001,12,15,149.26837196987822,360.6515,mp-755458,Li3Cr3FeO8,https://materialsproject.org/materials/mp-755458,3.4800226240346728,-66.09708783031114,-9.038153736808557,-66.41433985861433
-5.7733407296875,-184.74690335,4.169581609836103,-1.8379917663099992,22.000000600000003,0.8904393233761214,0.0,8,32,287.93588205049787,723.001465,mp-1100663,Li9Mn2Co5O16,https://materialsproject.org/materials/mp-1100663,12.281041319887626,-72.23375427509286,-14.500504227870822,-80.52090872542482
-6.919624218181817,-152.23173280000003,4.079670459981768,-2.4765224920454543,3.0000001,0.15902096038492572,0.5825,2,22,219.8590386981449,540.157385,mp-780162,Li4Ti3(CoO4)3,https://materialsproject.org/materials/mp-780162,6.800839027153008,-64.92770379861621,-6.173843420700517,-65.9933673328492
-5.554661836842105,-105.5385749,4.421992312065799,-1.6983381971021054,14.0,0.8950638672000695,0.24190000000000025,1,19,182.28521203321682,485.4229782,mp-849667,Li4Co5O9F,https://materialsproject.org/materials/mp-849667,4.846814191910246,-73.69161557783906,-22.341168923590008,-77.49048116740829
-5.7881122840625,-185.21959309,4.162524279384424,-1.852763320684999,21.999999600000002,0.8889321474490319,0.4655,8,32,288.4240614657124,723.001465,mp-1100682,Li9Mn2Co5O16,https://materialsproject.org/materials/mp-1100682,12.417612173455447,-72.1791510650482,-14.323210687882518,-80.53985870169596
-5.823616164583334,-139.76678795,4.0466154640300465,-1.8762173277883327,17.522506,0.9438335112456464,0.0,8,24,216.36063719761017,527.2554749999998,mp-1175024,Li7Mn2(CoO4)3,https://materialsproject.org/materials/mp-1175024,16.070583763412007,-71.41058886558251,-13.620510188306564,-78.66656867399148
-6.49897635375,-103.98362166,4.1229682960757215,-2.2399587543750004,8.0000005,0.6232152025746672,2.0535000000000005,2,16,149.5992453687613,371.4414,mp-755550,Li2CrFeO4,https://materialsproject.org/materials/mp-755550,2.2657832188296267,-66.89387967914385,-12.016746527321176,-64.91734830280751