energy_per_atom,energy,density,formation_energy_per_atom,total_magnetization_uB,total_magnetization_T,band_gap,sgr,num_sites,cell_volume,weight,mp_id,formula,URL,tsne_cry_lin1_0,tsne_cry_lin1_1,tsne_cry_lin2_0,tsne_cry_lin2_1
-5.706673334166666,-136.96016002,8.035867723696791,-0.4113307374999995,0.000343575,6.0990698690502575e-06,0.0,31,24,656.5009731321054,3177.01352,mp-1190788,TaTe4Rh,https://materialsproject.org/materials/mp-1190788,54.83957322076724,31.44220817968189,-8.604250342815693,-0.5045126942092143
-4.37466022625,-34.99728181,6.490216495860211,-0.79171499328125,1.75e-07,8.328876150506985e-09,0.7614000000000001,11,8,244.8663299038013,957.06,mp-1078696,PbS,https://materialsproject.org/materials/mp-1078696,72.55885238343416,21.99340137403527,7.180199710938197,-4.280977804462326
-2.4339229025,-9.73569161,5.548019229042568,-0.2600564958333331,1.1900000000000001e-05,9.86814952256086e-07,1.5959999999999999,129,4,140.5363492683185,469.54534,mp-567809,AgI,https://materialsproject.org/materials/mp-567809,49.10667688113315,-10.579254877255382,8.14602823065855,-1.2020235414170948
-6.589556527857143,-92.25379139,5.262465348932447,-1.8427798617857152,21.999999,1.5449418501169832,1.0029000000000003,166,14,165.95408644204613,525.9302,mp-690495,Fe5SnO8,https://materialsproject.org/materials/mp-690495,-24.84629148543264,-37.05762646605006,7.354084803486898,-4.54939951302053
-4.487501512272726,-98.72503327,3.983423524710272,-0.6050820093874553,5.0006322999999995,0.08161583928356705,0.9726,14,22,714.0488076765766,1712.9129456,mp-867332,Cs2Mn(PSe3)2,https://materialsproject.org/materials/mp-867332,64.87888260831133,4.4378035389271036,6.44323243195567,-6.452295194688312
-5.041530010000002,-35.29071007,2.6993120946692475,-1.1400552523214296,2.1695664,0.2117110904482112,0.0,12,7,119.42816647177109,194.1381,mp-753833,Li2CrS4,https://materialsproject.org/materials/mp-753833,18.02445237991198,6.635385398596692,-7.185481454865115,-2.999771170568593
-6.613715397096773,-410.05035462,7.157649556104107,-1.5400166491129033,7.45e-06,1.290358620361493e-07,0.4059999999999997,148,62,672.8577713631763,2900.3112920000003,mp-1227633,Be3Bi(RhO2)9,https://materialsproject.org/materials/mp-1227633,-9.964963317135402,-22.30172299868921,7.300924929148151,-3.5849469339507727
-6.1192020398333336,-367.15212239,3.088393279452017,-1.1926215182013329,0.0,0.0,2.1166,14,60,983.5131107761522,1829.2104,mp-6592,K2Pt(NO2)4,https://materialsproject.org/materials/mp-6592,-1.8600302951012957,-23.592748099210645,8.848591499510679,2.1064502290083067
-3.889923475,-15.559693900000001,8.263637157525373,-0.6640627624999995,0.0,0.0,0.0,216,4,56.00124445167945,278.689,mp-3726,Li2GaPt,https://materialsproject.org/materials/mp-3726,31.776621204060856,36.64323741055332,-8.604250342815693,-0.5045126942092143
-2.8719440869999997,-28.71944087,3.2096820314587218,-1.4994258386456552,0.0037155,0.00011730000793488404,0.0,225,10,369.14471213405835,713.5256209,mp-1113412,CsRb2AuCl6,https://materialsproject.org/materials/mp-1113412,4.4779553175729685,-3.242259174215225,2.4865198598304983,-4.785428674600048
-6.458361526923077,-83.95869985,3.2618357573508554,-1.2072493328846159,10.039277400000001,0.4554710548614236,0.0,166,13,256.8733794179111,504.5824,mvc-11278,Ca(CrS2)4,https://materialsproject.org/materials/mvc-11278,15.963215697969265,7.682929284648732,-8.139285378730872,2.2241420243938137
-6.353220467500001,-304.95458244,4.7679149781471715,0.23869857934555466,0.0001122125,1.2884431234094022e-06,2.6981,14,48,1014.9704861091667,2914.2903999999994,mp-621981,TlAg(CN)2,https://materialsproject.org/materials/mp-621981,13.647104801582453,-19.308922886743176,7.530663396614012,-0.4306671656851692
-5.172101838333334,-62.06522206,7.5260277314921336,-0.6385960322916672,8e-07,3.0954813709152175e-08,0.0,65,12,301.1890785597337,1365.07321,mp-13093,La3Ni2Sn7,https://materialsproject.org/materials/mp-13093,0.5949406851803843,52.1618331073323,-8.604250342815693,-0.5045126942092143
-7.608697321428571,-106.5217625,4.841764985844471,-2.4292044845238103,8.00000005,0.6080067851601858,1.5377999999999998,36,14,153.34124723397238,447.1092,mp-1217399,Ti(FeO2)2,https://materialsproject.org/materials/mp-1217399,-26.332215855736127,-43.80888411989365,2.379664212637608,1.3541253761083123
-8.668572357307692,-225.38288129,2.129875879532744,-0.005983463076922555,8.435e-05,4.173123324704222e-06,0.0,63,26,235.5598641780096,302.1388,mp-1232339,LiC12,https://materialsproject.org/materials/mp-1232339,60.10941813395928,37.39582382984004,-4.659335194173432,-1.5268609322699105
-7.559912233333333,-45.3594734,2.96084839542157,-1.8587620607688893,0.0,0.0,0.5613000000000001,59,6,109.16788933487898,194.6534,mp-27850,TiNCl,https://materialsproject.org/materials/mp-27850,36.30274455242769,5.772131073835676,5.2676265197842636,-5.801773914469631
-8.177457097083334,-196.25897033,4.855990334036068,-3.425369525885417,0.0002616,9.691934411172753e-06,1.6090999999999998,166,24,314.5608724907492,919.8847599999999,mp-1218495,Sr4Ti3Nb2O15,https://materialsproject.org/materials/mp-1218495,4.011474459023495,-38.94681353410045,-4.919011835702193,-2.9744377318326745
-3.842061788666667,-57.63092683,6.128727406957339,-0.005479418333333304,0.000195,5.468299442030008e-06,0.0,12,15,415.5848915628328,1533.8432,mp-675637,Ge5(Te4As)2,https://materialsproject.org/materials/mp-675637,68.59922723306299,26.87236257440148,4.902546574590425,-6.605558983704635
-7.1129381292857135,-99.58113381,3.670394492432462,-1.0714622544642851,11.00000055,0.4933261178685959,0.0,227,14,259.8579606158996,574.38049,mp-15974,Mn(CrS2)2,https://materialsproject.org/materials/mp-15974,16.94812214745071,8.591579164918514,-7.0736411885198835,-3.3802241605350223
-6.612291411428571,-92.57207976,3.7324409865640154,-1.0426751944642854,18.9989654,0.8405252359351946,0.0,166,14,263.42477764735645,592.1073899999999,mp-1221909,Mn2Cr3GaS8,https://materialsproject.org/materials/mp-1221909,17.672954752489996,8.419444338217259,-8.604250342815693,-0.5045126942092143
-6.548432514814813,-176.80767790000002,5.875292118083724,-0.6425259120344435,3.7000000000000006e-06,1.476769336108505e-07,0.0,8,27,291.98899654903613,1033.1107,mp-756104,Ge11N11O5,https://materialsproject.org/materials/mp-756104,21.882026432507335,-12.293804597848844,8.405563754158441,0.2750173319034627
-2.28252709,-6.84758127,4.090820256628269,0.09660982666666693,4e-07,3.618707355267073e-08,0.0,123,3,128.82019603599122,317.35494,mp-1213016,CuI2,https://materialsproject.org/materials/mp-1213016,16.908701484338472,-10.902449782826102,-8.604250342815693,-0.5045126942092143
-8.5597650435,-171.19530087,4.561739417043005,-2.3979248009375014,7.000000175,0.1877572534240685,1.1102,62,20,434.4889689194915,1193.603648,mp-510490,GdScS3,https://materialsproject.org/materials/mp-510490,54.306784198566255,1.6088647690237368,7.875680520419839,-5.243494588145455
-6.714639158,-67.14639158,4.942390867792212,-0.7737822297968748,10.0048785,0.6414049361324022,0.0,146,10,181.7845412660204,541.0594,mp-1226292,Cr4(SeS)3,https://materialsproject.org/materials/mp-1226292,15.521366662758785,7.7020452439136955,1.4754750624245396,-2.199676769983314
-6.886168877375001,-550.89351019,4.852779325132669,-2.566756700625,14.999999725,0.1667308248410772,0.0,1,80,1048.4622057747997,3064.0386,mp-694869,Ca2YFe3(SnO6)2,https://materialsproject.org/materials/mp-694869,-23.17452637205084,-33.8783321534871,8.86188465741273,-1.1254462928713649
-3.7288033797222218,-134.23692167,2.5156730357332937,-1.3959501231577771,2.003566975,0.02473445400111661,0.0017999999999999683,62,36,944.0151499506476,1430.15816,mp-1212065,K2HRuCl5,https://materialsproject.org/materials/mp-1212065,6.1951311092246995,-11.062890801104023,7.558340171376778,-4.826502813895254
-4.509696312678573,-252.54299351,2.40973841770985,-0.9111854826014032,0.00230345,1.792321444794689e-05,1.2825999999999995,15,56,1497.753406807431,2173.50742,mp-1211845,K3Sn2P5S18,https://materialsproject.org/materials/mp-1211845,63.41877956527182,-3.1038738505788097,9.189069945484444,-4.646486185115285
-4.439336239166667,-53.27203487,6.024038415706983,-1.8325849436197919,0.00020059999999999997,8.241773031284632e-06,1.5252,8,12,283.65321205782885,1029.0259999999996,mp-1215973,Yb4CdS7,https://materialsproject.org/materials/mp-1215973,-12.22527605858497,9.747321529647444,7.95297943011379,-3.879889000009733
-6.33565005,-177.3982014,2.9856147009562743,-1.7473795250319657,6.00003145,0.13256557648666234,1.6449,2,28,527.472945910136,948.3854,mvc-1433,V3Se2ClO8,https://materialsproject.org/materials/mvc-1433,-24.42800517902909,-55.06771534020008,5.5002007580503225,2.7333472898279427
-4.534896725416666,-217.67504282,5.881784966908263,-1.1515050815,0.0,0.0,0.4675000000000002,14,48,1674.2879795911438,5930.485,mp-567710,KPr3Te8,https://materialsproject.org/materials/mp-567710,56.56153080038261,21.297402008505745,5.294581809583254,-5.918644920219901
-3.2936919328571435,-23.05584353,4.9075203493446535,-0.4825901966666671,0.0,0.0,1.1261000000000003,82,7,258.62716403043135,764.341,mp-1222182,Mg(InTe2)2,https://materialsproject.org/materials/mp-1222182,60.12731634264564,16.09671550124809,8.285438739697293,-6.183207352606366
-5.215691985,-52.15691985,2.1314620277631344,-0.7449697542723215,1.9999993000000003,0.08841118107599348,0.0,5,10,263.6331864771679,338.39862400000004,mp-768680,CrP2S7,https://materialsproject.org/materials/mp-768680,24.043481373936714,-1.7938228255255046,4.03287648931798,-5.012529192956639
-6.1083879725,-24.43355189,9.492630186940428,-0.6944719233333343,1.3e-06,2.067600139862213e-07,0.0,225,4,73.27473002268819,418.88199999999995,mp-977475,ZrInPd2,https://materialsproject.org/materials/mp-977475,30.837202457542762,40.6971864802569,-8.604250342815693,-0.5045126942092143
-3.8732537190909095,-42.60579091,6.0849307363471565,-0.05339800227272724,0.0,0.0,0.4017,166,11,309.2876355777726,1133.3632,mp-541312,Ge3(Te3As)2,https://materialsproject.org/materials/mp-541312,68.57756237301851,26.823211629330594,6.280509547573367,-7.227218757559378
-7.610722323500001,-152.21444647,6.399934702382761,-2.9441887282500003,5.00000115,0.2312901478650524,1.3628999999999998,62,20,251.93609759362133,970.9946800000001,mp-22590,LaFeO3,https://materialsproject.org/materials/mp-22590,-20.604836232254648,-33.44315169392329,7.6810720948456215,-1.6618657415440092
-6.382808682727273,-70.21089551,7.042958475202485,-0.2895694840909083,15.633970999999999,0.6916351984785416,0.0,71,11,263.4326753281523,1117.3151300000002,mp-1102859,Pr3(MnSn)4,https://materialsproject.org/materials/mp-1102859,1.369564398029553,50.505902461891225,-8.604250342815693,-0.5045126942092143
-3.1305071719444446,-112.69825819,3.0383308130617914,-0.468203983388889,0.0,0.0,0.5772999999999997,64,36,1107.814712606859,2026.99695424,mp-18447,K3Na2SnAs3,https://materialsproject.org/materials/mp-18447,36.94825446913163,18.825529906052452,7.464542933140716,-6.406794800664613
-5.7397115455,-114.79423091,5.206314257948394,-1.5996968346562503,8.25e-07,1.812790330258377e-08,0.16800000000000015,62,20,530.3759225145125,1662.896,mp-541570,SrZrSe3,https://materialsproject.org/materials/mp-541570,57.26591149431138,1.2595036491326097,3.651989689855764,-5.327462349211984
-6.777222257954546,-298.19777935,2.2974963813114484,-1.9716424443181817,2.999999975,0.06271379560824847,2.1152,14,44,557.4880883422251,771.3319799999998,mp-759781,Li2Co(CO3)2,https://materialsproject.org/materials/mp-759781,-8.831959621878665,-69.34735165920085,8.52782295627909,0.8695289984405229
-5.855421285833334,-70.26505543,2.135949446178751,0.24067207778999966,0.0,0.0,1.2369,1,12,202.4901144741404,260.4628,mp-676693,KCN,https://materialsproject.org/materials/mp-676693,27.172203567402054,-18.30980457753717,7.085309114301131,-1.8278740834484917
-6.303167519642857,-176.48869055,4.916842657087142,-1.007577222916667,8.999791199999999,0.19189567827599813,0.17269999999999985,17,28,546.5685862578979,1618.3851599999996,mp-1239190,TaCr3(AgS4)2,https://materialsproject.org/materials/mp-1239190,14.488817629254944,3.5532879966262723,-8.604250342815693,-0.5045126942092143
-6.919044262394366,-491.25214263,3.2967708471303414,-2.383791648380281,42.9999995,0.6851074617311633,1.0162999999999998,1,71,731.4542716069208,1452.2014,mp-766960,Li11Fe12(BO3)12,https://materialsproject.org/materials/mp-766960,-22.00971781257505,-81.64404823735606,8.174250411508439,-3.3120505260344815
-5.990392756666666,-35.94235654,3.4605994505136883,-1.1428743318975,5.9999998,0.5140551435072398,0.2690999999999999,25,6,136.02506888166252,283.4792,mp-1226363,Cr2S2BrCl,https://materialsproject.org/materials/mp-1226363,16.203084416010856,7.182528153402666,-8.13928540726666,2.2241420304351247
-5.215084201875,-83.44134723,4.126748272851768,-0.7353024332812508,5.00263575,0.18918459044291835,0.25570000000000004,31,16,308.17013651866955,765.8600899999999,mp-20474,MnCu2GeS4,https://materialsproject.org/materials/mp-20474,30.03258556142335,0.4229988252219558,-4.327708135655223,-1.650154769913154
-5.610323194499999,-448.82585556,4.966794883618191,-1.7394678141999995,5.0000000875,0.050662270808026884,2.1497,61,80,1150.1719909739384,3440.24935424,mp-556373,NaFe(TeO3)2,https://materialsproject.org/materials/mp-556373,-18.708868849789386,-37.394653958008,8.249650822352146,-0.12758332450153576
-3.942625185,-39.42625185,3.2661114025363007,-2.105731625556,0.0,0.0,2.2741,225,10,269.16877298515016,529.4276,mp-1112229,K2LuCuCl6,https://materialsproject.org/materials/mp-1112229,13.127004697795705,-12.402743078227992,9.380430960490392,-0.36225238212115657
-6.3885512375,-25.55420495,9.392152762919757,-0.7145512018750004,0.21952729999999998,0.027159309590966917,0.0,38,4,94.19920506359459,532.7988700000002,mp-1223014,LaCeNiPt,https://materialsproject.org/materials/mp-1223014,12.430713303412626,54.17310837303379,-8.604250342815693,-0.5045126942092143
-2.401722438125,-38.42755901,4.744108510271409,-0.07098525312500037,2.8875e-06,4.721929975734857e-08,0.7942999999999998,2,16,712.6558886661403,2036.0357600000002,mp-23273,TeI,https://materialsproject.org/materials/mp-23273,66.32572946583416,18.993656052219702,8.208413390842614,-6.892723162650015
-6.652927393000001,-133.05854786,4.734014287084731,-2.3866800804375004,1.5e-07,4.10312340739381e-09,1.8075000000000008,62,20,426.04366047920183,1214.603648,mp-1184176,DyScS3,https://materialsproject.org/materials/mp-1184176,54.571346082202226,1.5206366378356042,9.102516211549226,-4.699189785223208
-5.6783713844444454,-102.21068492,2.787713321148852,-1.3120993111458346,1.9999982,0.07086395379889063,0.15160000000000018,15,18,328.91346472072917,552.18,mp-756394,Li2V2S5,https://materialsproject.org/materials/mp-756394,19.756719963793355,4.084198299789887,-6.453924195592981,-3.282962776503477
-6.324495991666668,-151.7879038,4.09206400382436,-1.7777737616666685,5.016522075,0.18492871840857755,2.2951,14,24,316.1373403662428,779.0568000000002,mp-21016,FeAsO4,https://materialsproject.org/materials/mp-21016,-18.33256854349409,-35.21170331229921,7.954674394176358,-1.6791103363094575
-3.08210938,-21.57476566,5.156438544126729,-0.3280101119047621,0.00014169999999999997,6.05281836751981e-06,0.4550000000000001,8,7,272.82843759747163,847.2086699999999,mp-1223909,In2AgTe3I,https://materialsproject.org/materials/mp-1223909,58.00451884799882,16.88775899125139,2.8371960824626403,-4.784702952371656
-9.313223141,-186.26446282,4.109866843158459,-2.1281002863686664,4.125e-06,2.128522169471977e-07,0.3708999999999998,12,20,225.85161609443887,558.9872,mp-776387,Ti2N2O,https://materialsproject.org/materials/mp-776387,36.29897201302818,5.634243824389736,4.142468134058726,-5.754365132715432
-7.262605938333333,-130.72690689,3.0835766405311853,-2.471915283979445,5.000000366666667,0.2988593816417272,1.9731,174,18,194.97573680256767,362.064735,mp-756752,LiMnBO3,https://materialsproject.org/materials/mp-756752,-2.572672420484123,-81.18606795217093,9.169734988096527,0.11721427464268087
-5.963258705909091,-393.57507459,2.4422772063308913,-1.972258327696233,3.99999955,0.07976053115153899,2.3274,15,66,584.4526506141523,859.597608,mp-850983,Li2V2P2(H4O5)3,https://materialsproject.org/materials/mp-850983,-16.458753719633282,-51.34236199362915,8.876539667529594,2.5642137080620686
-6.14678947826087,-141.376158,6.689966822437185,-2.0238959744565226,0.0,0.0,2.177,150,23,316.6203466101258,1275.5975999999996,mp-636461,Ga2Ge4Pb3O14,https://materialsproject.org/materials/mp-636461,20.69542165378176,-38.94843491862049,8.279044513220652,-0.8097140172096735
-2.2133973444444446,-79.6823044,6.114790489028385,-0.4896421434099619,6e-07,5.01693849767111e-09,1.0159,60,36,1393.7661118990684,5132.4224,mp-29107,Rb2Hg3Te4,https://materialsproject.org/materials/mp-29107,61.466709698599395,16.42819259211597,7.5685568575180815,-6.4411538856631925
-2.962363296666666,-17.77417978,7.746410049142213,-0.02910920444444483,1.25e-06,9.896667683898332e-08,0.0,64,6,147.19682857898485,686.6728,mp-32811,Ag2Te,https://materialsproject.org/materials/mp-32811,52.56550551930846,19.670884060738768,-8.604250342815693,-0.5045126942092143
-4.0385322081481485,-109.04036962,8.080665316166327,-0.4839005403703709,0.0,0.0,0.5049999999999999,148,27,928.6888281428627,4519.2696,mp-984696,Hf(TlTe)4,https://materialsproject.org/materials/mp-984696,58.58865707864589,23.777594586890768,7.156844556622912,-5.979343617920869
-5.958644690625,-95.33831505,3.988618935841012,-1.5099604546121883,5.0,0.23896713809330275,2.4761999999999995,15,16,243.84241418185002,585.71009,mp-19175,MnSe2O5,https://materialsproject.org/materials/mp-19175,3.561106731224537,-76.95855520712733,9.360421702610493,0.3874742337277361
-3.934919008,-39.34919008,3.2750338649583455,-2.091004555524965,0.0,0.0,2.3116000000000003,225,10,298.18777105819663,588.10725,mp-1113382,Rb2PrCuCl6,https://materialsproject.org/materials/mp-1113382,13.24741736347918,-12.296019769888616,8.101871135554429,1.6914229898702882
-6.0543740758333335,-72.65248891,5.281419863446224,-1.611457495833334,7.00000025,0.1598578670956431,1.3096,14,12,510.3186837381334,1623.09176,mp-23305,EuI2,https://materialsproject.org/materials/mp-23305,-17.492639348507815,10.719423484583462,7.556936087639952,-5.903160005356039
-3.803220685,-38.03220685,2.9442175645866526,-1.910554097856,0.0,0.0,1.4922,225,10,271.37930766317646,481.16888856,mp-1111485,Na2TbCuCl6,https://materialsproject.org/materials/mp-1111485,12.706995048219914,-12.5641874902111,9.162361212247266,-3.177096897721174
-5.98549763,-17.95649289,11.562021945830717,-0.10035490222222283,5e-07,9.013094228730897e-08,0.0,216,3,64.65074300127816,450.151,mp-961705,TiPtPb,https://materialsproject.org/materials/mp-961705,14.34046792549859,44.58149757624465,-8.604250342815693,-0.5045126942092143
-6.19972436357143,-173.59228218,5.303170830673603,-0.9041340668452388,8.68401215,0.19971123127763726,0.0,26,28,506.7518708604934,1618.3851599999996,mp-1239168,TaCr3(AgS4)2,https://materialsproject.org/materials/mp-1239168,16.274717706164306,5.7557092428606715,-6.291200664846166,-3.314391275877475
-4.384421248888889,-78.91958248,7.925871444307036,0.1628198072488887,0.00016815,3.75118156300945e-06,0.07710000000000061,58,18,522.4036636429202,2493.47,mp-1246983,Bi4Te3N2,https://materialsproject.org/materials/mp-1246983,65.21825809667776,22.113487398586717,-2.298026142441817,-0.9908587531218204
-8.724752828333333,-418.78813576,6.222536271811683,-3.7406822056423614,0.9994350000000001,0.01938149202137662,0.0,165,48,600.9589051821566,2251.9727000000007,mp-28801,La5Ti4O15,https://materialsproject.org/materials/mp-28801,5.739016252982425,-41.4269487458733,-2.2794341046611524,-0.8846501969893482
-2.9201240142857143,-20.4408681,5.971592476290041,-0.2948286366666665,0.0,0.0,0.5186999999999999,82,7,261.5627575459447,940.6260000000001,mp-19765,In2HgTe4,https://materialsproject.org/materials/mp-19765,58.30582734724267,16.953407342822516,-1.9428308330883053,-2.4480495217979046