energy_per_atom,energy,density,formation_energy_per_atom,total_magnetization_uB,total_magnetization_T,band_gap,sgr,num_sites,cell_volume,weight,mp_id,formula,URL,tsne_cry_lin1_0,tsne_cry_lin1_1,tsne_cry_lin2_0,tsne_cry_lin2_1
-4.370169688333333,-78.66305439,2.414730441871472,-1.2969378394088886,0.0,0.0,1.6187,36,18,632.241976607559,919.3966,mp-569207,K2OsNCl5,https://materialsproject.org/materials/mp-569207,6.696508353668138,-14.216616134854867,8.723164200732509,-2.539358364655854
-7.194735571944443,-259.01048059,2.343075106303077,-2.6579945899206345,2.00000075,0.04399566281617228,2.219,12,36,529.7826375080812,747.540696,mp-32502,LiV(PO3)4,https://materialsproject.org/materials/mp-32502,-14.097876821999192,-50.52139793019294,8.504982137826984,1.6221265247996068
-4.5298491225925925,-244.61185262,4.702030862588437,-0.2895987820967194,0.0,0.0,1.6622999999999997,218,54,1162.487685735453,3291.734096,mp-1212555,Ge19(PCl)4,https://materialsproject.org/materials/mp-1212555,39.41450898496432,12.31037358000559,8.540695662850242,-4.7863782066791085
-6.851268537999999,-102.76902807,6.457615548208732,-0.8557197488833339,1.3699999999999998e-05,5.122473906396147e-07,0.0,147,15,311.6866777685453,1212.10804928,mp-1221416,Na(Nb3Se4)2,https://materialsproject.org/materials/mp-1221416,47.99531658321718,23.137950683252875,-8.604250342815693,-0.5045126942092143
-7.185999834583334,-344.92799206,4.674239402955252,-2.5418675432738103,1.0000011,0.018302909059072302,1.7614999999999998,19,48,636.7336227491281,1792.336896,mp-1216361,VP2PbO8,https://materialsproject.org/materials/mp-1216361,-13.896389034694373,-52.179147651632064,8.566359096090144,0.09453509135254266
-6.5049700789285705,-182.13916221,5.367105274507324,-1.3225015950595238,2.999956975,0.060543209739749165,0.5901000000000001,24,28,577.4667886263127,1866.4572,mp-1239266,HfCrAgS4,https://materialsproject.org/materials/mp-1239266,14.501378804570141,3.4382994107016325,3.0940071400878773,-4.788383420405126
-3.7537246809615383,-195.19368341,4.151583256855775,-1.0671770963123075,0.0,0.0,1.0223,57,52,1711.1700631192498,4278.168,mp-31304,Zr(TeCl)6,https://materialsproject.org/materials/mp-31304,66.3059767836334,18.90136138124007,9.195884515520973,-6.596802111464782
-7.563893606875,-121.02229771,7.445570591188368,-0.10583299249999902,13.2789856,0.7043001885859148,0.0,193,16,219.72755481863624,985.22045,mp-617291,Mn5Ge3,https://materialsproject.org/materials/mp-617291,50.649900275813884,45.314808891218945,-8.604250342815693,-0.5045126942092143
-4.726345753571429,-66.16884055,6.797470259304276,-1.1149973878571429,0.00022615,5.864643539882295e-06,0.0,63,14,449.399307970092,1839.6306,mp-1104180,Pr2Te5,https://materialsproject.org/materials/mp-1104180,-10.121905569907067,24.208737378899606,-8.604250342815693,-0.5045126942092143
-3.551207565,-28.40966052,0.8996704868645602,0.1982408632031252,0.00031275,2.4975165555153618e-06,0.0,63,8,1459.3732119889544,790.68,mp-1205455,SnSe,https://materialsproject.org/materials/mp-1205455,68.8208996179737,25.442728763289992,-8.604250342815693,-0.5045126942092143
-7.5538354696875,-241.72273503,2.499533890764312,-0.2786397677621117,2.99999965,0.05472260756976214,1.7163,14,32,638.8984697811682,961.7048076,mp-540847,Cs2LiCr(CN)6,https://materialsproject.org/materials/mp-540847,19.086458629553142,-9.960713287206486,8.551007356355248,-1.4610662676925663
-4.265339088888889,-38.3880518,3.491749653031216,-1.7635838755832949,2.0,0.08636553413446002,0.0,225,9,269.87767491638067,567.4936,mp-30227,Rb2WCl6,https://materialsproject.org/materials/mp-30227,13.30861792108521,-7.218094409373809,-8.604250342815693,-0.5045126942092143
-4.080736245833333,-48.96883495,4.170545339022122,-1.062828605364584,0.0,0.0,0.9149000000000004,2,12,254.07097903657902,638.1148000000002,mp-768229,Li2BiS3,https://materialsproject.org/materials/mp-768229,50.53651916927585,10.456101797954547,6.3175908579934985,-6.180102722933575
-5.68942584,-28.447129200000003,5.913275799153996,-0.2672787832413789,1.5602989,0.16416660190805016,0.0141,139,5,110.76445655699457,394.4386519,mp-28884,Cs(FeAs)2,https://materialsproject.org/materials/mp-28884,22.712190500792627,21.284898232199694,-8.604250342815693,-0.5045126942092143
-3.742838681363637,-82.34245099,2.01350436158428,-1.8653531157327277,3.99999975,0.06912726172975442,0.09709999999999996,12,22,674.3541550794216,817.69533856,mp-1181681,K3NaFeCl6,https://materialsproject.org/materials/mp-1181681,21.581777582351254,-0.2528811662879682,3.5068127242596723,-5.4506319426419765
-5.207399984722223,-187.46639945,6.584302978033537,-1.1888117487557877,1.9416935000000002,0.02628501482928439,0.0,62,36,860.8943903751336,3413.5840000000003,mp-642448,Ce2InCuSe5,https://materialsproject.org/materials/mp-642448,47.27725060798683,2.3858173325642285,2.354740809688963,-4.63996505565959
-5.88561136,-94.16978176,3.853512853119717,-2.130700730086251,4.99999895,0.2855819315550259,2.2652,15,16,204.0406103731493,473.50474496,mp-1210021,NaFeAsO4F,https://materialsproject.org/materials/mp-1210021,-7.699391572554072,-43.09442386732597,9.517489610801654,0.8013211248692022
-6.819365914642857,-190.94224561,3.3328440366995418,-1.9956605051785716,5.00000095,0.21065986067514086,1.9254,62,28,276.60862751646283,555.1772,mp-757567,LiFeCO4,https://materialsproject.org/materials/mp-757567,-16.728259548913872,-70.51414784410916,7.839723374173308,-0.1603554221502952
-4.110602105227273,-180.86649263,5.909598474031029,-0.4159241984090914,2.25e-07,1.71372430471732e-09,0.0,62,44,1530.0970912345545,5445.376,mp-29087,Ba2(SnSb2)3,https://materialsproject.org/materials/mp-29087,37.42288706411145,22.173289835550374,-8.604250342815693,-0.5045126942092143
-3.866749734,-19.33374867,5.783302638260758,-1.7258336430473336,1.9999991000000001,0.3631166419955032,1.9448000000000003,221,5,64.18906863748134,223.55680959999998,mp-998365,NiAgF3,https://materialsproject.org/materials/mp-998365,4.490106737325137,-17.712347561233774,7.959524306966134,-0.6525916211248938
-5.465027214,-54.65027214,7.965107812484032,-0.5646473375,4.48e-05,2.5362618741718314e-06,0.0,129,10,205.85496597474065,987.4245400000001,mp-1078717,La(NiSn)2,https://materialsproject.org/materials/mp-1078717,2.2329064898093884,54.95147594335596,-8.604250342815693,-0.5045126942092143
-4.272682093333334,-25.63609256,4.435068486497683,-1.1989829216522991,0.0,0.0,1.1239,63,6,159.08793054052532,424.90170379999995,mp-541037,CsCuO,https://materialsproject.org/materials/mp-541037,13.312826526513918,-16.21395277414335,7.199835914592682,-6.063065704521628
-6.370893799999999,-19.1126814,3.8789319389975607,-1.4205453664409733,0.0,0.0,0.0,156,3,68.02036573291004,158.892,mp-1216698,TiSeS,https://materialsproject.org/materials/mp-1216698,22.97227127863549,15.8669293434795,-8.604250342815693,-0.5045126942092143
-5.777911135,-23.11164454,1.8142953088206653,-1.39900191197,2.8800000000000002e-05,4.309033297594102e-06,2.4555,8,4,77.89149961712249,85.1038,mp-34857,KNO2,https://materialsproject.org/materials/mp-34857,-1.15542881740494,-24.170277823373013,10.043915403287071,1.5848809801425423
-5.445243938571429,-38.11670757,7.095860678049718,-0.5380148364285711,1.9766074,0.1217519681634841,0.0,38,7,189.2003145163909,808.49594,mp-1223275,La2FeSn4,https://materialsproject.org/materials/mp-1223275,0.5640289970841667,52.164145975171735,-8.604250342815693,-0.5045126942092143
-4.91033688,-137.48943264,5.836524052855524,-0.5756088558928576,7.775e-06,1.546486688884684e-07,0.17010000000000058,62,28,585.9109829907376,2059.3816,mp-601716,FeBiSbS4,https://materialsproject.org/materials/mp-601716,19.11538656611155,5.825910971792514,4.0374056657456885,-5.972997799012727
-5.661147335,-113.2229467,4.611080883736337,-1.7171247769687497,2.5e-07,8.128406005780143e-09,1.5290000000000001,15,20,358.43635161286363,995.3268,mp-1205352,BaPd(SeO3)2,https://materialsproject.org/materials/mp-1205352,-9.867439039929613,-25.93429670201295,6.294588054265334,0.4717915915979741
-5.4189745025,-43.35179602,7.891866348447821,-0.7194633793750009,7.2000000000000005e-06,4.466141506570756e-07,0.0,129,8,187.8786559695417,892.9108,mp-1078507,NdNiSb2,https://materialsproject.org/materials/mp-1078507,3.1299502688179275,34.9265876682812,-8.604250342815693,-0.5045126942092143
-7.313126793333333,-43.87876076,8.032033026721766,-0.6979248923809523,1.59318345,0.11322282258882024,0.0,65,6,163.986930340875,793.2053440000002,mp-1237725,UTeP,https://materialsproject.org/materials/mp-1237725,-9.377586730691636,21.321467862586697,-8.604250342815693,-0.5045126942092143
-3.8855026984615386,-202.04614032,4.508945134480952,-1.090746971504616,0.0,0.0,1.0253,57,52,1704.1013261346302,4627.232,mp-31305,Hf(TeCl)6,https://materialsproject.org/materials/mp-31305,66.34658774432624,18.985887324153296,9.348182481135506,-6.60120067956769
-6.8563136,-41.1378816,3.27021062937414,-1.8059263571527782,0.00022610000000000002,1.9409878297973694e-05,0.4481999999999999,164,6,135.75479478152252,267.351,mp-1215189,ZrTiS4,https://materialsproject.org/materials/mp-1215189,20.831239454170507,8.277718222762925,-11.33119362864093,-0.2884241617114324
-5.948497292608696,-136.81543773,5.853419629910437,-1.87129421464674,5.0000003,0.12353369484428812,0.9211,143,23,471.69581896232063,1662.7333050000002,mp-1216995,Tm6Mn(GeS7)2,https://materialsproject.org/materials/mp-1216995,54.14531647581073,-1.1392575519468453,7.460799664347067,-6.26933350313683
-8.230535888644066,-485.60161743,6.085647169389283,-3.2286728747033897,20.9999995,0.33032901062074965,0.7995999999999999,1,59,740.8836236842108,2715.23657,mp-758402,La11V12O36,https://materialsproject.org/materials/mp-758402,-24.980784703390654,9.278717906533029,-8.604250342815693,-0.5045126942092143
-6.765234972499999,-189.42657923,2.453097747791498,-1.9415295630357152,5.000000075,0.1550535019482665,2.2183,14,28,375.8078598979027,555.1772,mp-758117,LiFeCO4,https://materialsproject.org/materials/mp-758117,-28.82606398613913,-71.35774223798506,9.12762704506824,1.4183494171370858
-7.291775864761903,-306.25458632,4.766561930760234,-2.2287964502380957,5e-08,1.4516487295713965e-09,0.7986,122,42,401.4078797148325,1152.2376,mp-540900,B2PdO4,https://materialsproject.org/materials/mp-540900,-9.047430146539144,-22.16789415021421,6.76092025526866,-3.3077420101811543
-5.389592390714286,-452.72576082,1.8525594236661904,-1.0851517064434526,0.00022834285714285718,3.557633107948408e-07,0.9945,10,84,7480.036211572139,8345.008,mp-1080628,CeSe2,https://materialsproject.org/materials/mp-1080628,34.93705914835161,8.458647011353008,7.424551393360603,-6.3463191628883395
-7.739048542794117,-526.25530091,4.734317018909025,-1.0108397756525738,0.0,0.0,0.0,176,68,1436.8873993496125,4096.67,mp-31257,Mo15S19,https://materialsproject.org/materials/mp-31257,67.7034225407192,33.72877326598194,-8.604250342815693,-0.5045126942092143
-4.2932380766666665,-77.27828538,7.444765635433451,-0.374357096388889,1e-06,2.981725672926547e-08,0.0,38,18,390.8496639505168,1752.3129999999999,mp-1222500,Li3Sn11Pd4,https://materialsproject.org/materials/mp-1222500,33.515483289801544,35.327058732791265,-8.604250342815693,-0.5045126942092143
-7.2424793335294115,-246.24429734,3.8267025512564503,-2.5164184864320744,4.0,0.11221490903182693,1.8666,5,34,415.4194793939302,957.3317720000001,mp-1216770,V2AgP3O11,https://materialsproject.org/materials/mp-1216770,-14.503413921531866,-48.74942414227226,8.523772689500495,-0.3431033257578374
-5.505671101428571,-77.07939542,5.552937270975829,-0.4909411971726193,11.0000302,0.4044475650255901,0.0,216,14,316.96337309584646,1059.9436,mp-1226280,Cr4CdAgSe8,https://materialsproject.org/materials/mp-1226280,14.083562677924606,2.5673466693898868,-8.604250342815693,-0.5045126942092143
-4.221156198,-21.10578099,7.4549019054744585,-1.2641824154999999,0.0,0.0,1.5821,107,5,106.98303751699837,480.29467,mp-1226753,CdBiIO2,https://materialsproject.org/materials/mp-1226753,9.026909605942944,-23.0426795443422,7.101162745427174,-3.5498226573278835
-6.003608258125,-96.05773213,2.2265559734615525,-0.7069631420981253,0.0,0.0,0.8429,2,16,340.07581245551063,455.9952,mp-558979,VS2N3Cl2,https://materialsproject.org/materials/mp-558979,35.73101436907045,-5.743786806636352,6.087552529763249,-6.23211243658232
-4.94800205125,-39.58401641,7.701422936978818,-0.6682319806249994,1e-07,5.988199814203825e-09,0.0,129,8,194.61716599564048,902.6160000000001,mp-20020,NdCuSb2,https://materialsproject.org/materials/mp-20020,2.9269389360782765,34.83516823344567,-8.604250342815693,-0.5045126942092143
-6.900596927619048,-579.65014192,4.682184600261429,-2.049093689821429,138.0000009,1.717983052705281,0.959,1,84,936.1331862787542,2639.5937,mp-760116,Fe31Si5O48,https://materialsproject.org/materials/mp-760116,-25.41050256962205,-38.45005866044236,6.11349740136334,-2.8464890624891512
-3.525720497142857,-24.68004348,4.814303365910721,-0.507663711339286,2.23e-05,1.4509418363652314e-06,1.3731000000000002,121,7,179.11513605474582,519.298,mp-35539,Zn2GeSe4,https://materialsproject.org/materials/mp-35539,39.35650496448121,3.4292365310700124,7.283718204807075,-6.5268862231642935
-5.90267072,-472.21365760000003,4.437732194456316,-1.1315847533630006,0.0,0.0,2.1622,61,80,1220.2155684718014,3260.983200000001,mp-1195356,GeBiNO7,https://materialsproject.org/materials/mp-1195356,-8.930170016994332,-53.279538220943955,8.160410053209988,1.4547766593865616
-6.194478317000001,-61.94478317,7.168281668136338,-2.47115135475,0.0,0.0,1.7355999999999998,12,10,162.47782378222809,701.3908,mp-23127,Ba2BiSbO6,https://materialsproject.org/materials/mp-23127,0.7524013518225121,-29.61359777161775,8.525661022016031,-0.5288620973492376
-4.2308060925,-67.69289748,5.288859405404955,-0.8728322667812503,0.0,0.0,0.6823000000000001,36,16,407.4473332160754,1297.7302,mp-558063,KCu(BiS2)2,https://materialsproject.org/materials/mp-558063,72.13782519634513,19.75754603797497,5.753498470110904,-7.034361494737137
-3.298531613,-32.98531613,4.0086260059300285,-1.6944511653640462,0.0,0.0,1.8679,225,10,329.47832864523474,795.3775038000001,mp-1078258,Cs2AgBiCl6,https://materialsproject.org/materials/mp-1078258,6.217562724891533,-7.867785735075014,9.643639067504663,-3.5379965008218197
-5.459501206363636,-120.10902654,4.815584815648328,-1.5634391374600007,10.0000285,0.3964184434779915,2.07,2,22,293.98475722765687,852.5596199999999,mp-743878,Fe2Te4H3ClO12,https://materialsproject.org/materials/mp-743878,-18.72781585015753,-37.44653233358789,8.759533385246568,1.673674807348968
-5.0732507525,-101.46501505,9.21964153050464,-0.96224831575,0.0,0.0,0.601,220,20,538.4015908734485,2989.312234,mp-1190030,La3Sb4Au3,https://materialsproject.org/materials/mp-1190030,54.77592928401807,22.797142653732482,5.812766225217537,-5.484972134697101
-7.0219547497727275,-308.96600899,4.006253637325055,-2.4191934817911247,1.99999965,0.04224883088283105,2.0082000000000004,14,44,551.6868746223366,1331.0120960000002,mp-1201897,VAgP2O7,https://materialsproject.org/materials/mp-1201897,-14.419498141568404,-48.75613332765107,8.39591789722385,-0.5502579405893027
-8.583285940925926,-463.49744081,5.802228067631142,-3.6278283039969135,4.9817130999999995,0.08356298186359573,1.4582000000000006,58,54,694.7718457495807,2427.6603,mp-641117,La5Ti4FeO17,https://materialsproject.org/materials/mp-641117,5.868859216128283,-42.161116348186326,7.036495070292803,-2.1893633862526882
-4.1765707475,-16.70628299,6.237234532653988,-1.295874513666666,0.0,0.0,1.1136999999999997,225,4,138.78525396211086,521.2982999999998,mp-863710,KAcTe2,https://materialsproject.org/materials/mp-863710,59.33994604611707,22.48738331019307,7.899292671253669,-6.103164542620182
-6.0283195887500005,-144.67967013,4.303829593942572,-2.2370541903966665,2.4999998,0.10390653545030876,0.3914,6,24,280.3977581806641,726.7424255999998,mp-752804,FeOF,https://materialsproject.org/materials/mp-752804,-42.873773429239,-76.64513366445485,-2.3182049294325457,-0.9794763277330584
-5.961076899871794,-464.96399819,11.621923364401713,-0.8580412583333332,5.5700000000000005e-05,3.694659593920152e-07,0.0,108,78,1756.945102330323,12296.6584,mp-1209768,Pr8Sb14Pt17,https://materialsproject.org/materials/mp-1209768,23.893224793751457,28.257940423518058,-8.604250342815693,-0.5045126942092143
-8.967305203333334,-53.80383122,3.7656580102460415,-3.517319291388889,0.0,0.0,2.0622,141,6,70.43670906916306,159.7316,mp-390,TiO2,https://materialsproject.org/materials/mp-390,1.6475615205563274,-47.12835738969449,8.044947647377047,-0.3940828869140627
-7.858273837,-157.16547674,6.459081148354188,-3.0532848102500014,7.0000005000000005,0.3274050369903985,1.2182000000000004,14,20,249.16678125921013,969.1964,mp-1219885,Pr2VFeO6,https://materialsproject.org/materials/mp-1219885,-14.268497442626396,-29.240288824226216,6.583646465876456,-1.8940728023640183
-2.6307719188888887,-94.70778908,4.608235818893887,-0.6824905601111111,0.0,0.0,1.4380000000000002,62,36,1334.4596549371902,3703.3184,mp-18531,K2Cd3Te4,https://materialsproject.org/materials/mp-18531,60.64675598496178,16.889014455184917,7.8501084715259495,-6.0578430012175755
-5.659922003055557,-203.75719211,2.7369710143792263,-3.1620255821822223,2.0000000833333336,0.04782711723701859,1.9744,1,36,487.3413214679552,803.2566767999998,mp-759816,LiVF4,https://materialsproject.org/materials/mp-759816,-21.109644220145977,-51.90040396683929,8.934766113290369,2.737298310135957
-5.798171293999999,-260.91770823,5.380750988798987,-1.8949040426388892,0.0,0.0,0.999,1,45,977.7062585910536,3168.1242,mp-1217873,Tb12Ge5S28,https://materialsproject.org/materials/mp-1217873,54.66116327861002,-1.6812135508512505,7.593207557700003,-6.329712395626447
-3.75020841,-26.25145887,5.2460557333819855,-0.3862188384821432,0.0,0.0,0.7225999999999999,82,7,208.03560314020424,657.2361999999998,mp-1223888,InAgSnSe4,https://materialsproject.org/materials/mp-1223888,38.837450181619225,1.8724070261586288,5.812137118352807,-5.959996773875218
-4.012016422083333,-577.73036478,4.355838506860873,-0.9811619100599996,0.9998929625,0.002637086527089463,1.1381,14,144,4418.822526639938,11591.2224,mp-1198077,Te3WCl4O,https://materialsproject.org/materials/mp-1198077,66.63481481267436,19.825151451875364,7.1065493375512725,-5.013161233962962
-5.960796855,-23.84318742,9.579944220753182,-0.3939489808333328,4.2354154,0.7442980008971786,0.0,225,4,66.31726183705773,382.596045,mp-31328,MnInPd2,https://materialsproject.org/materials/mp-31328,44.41474983007173,37.9677903232539,-8.604250342815693,-0.5045126942092143
-2.93942805,-29.3942805,3.1049546828357366,-1.5454153748249655,2.0,0.07032652515588256,0.2681,225,10,331.42728854376986,619.7184689999998,mp-1114398,KRb2AuCl6,https://materialsproject.org/materials/mp-1114398,4.507824451476782,-3.3557708279503493,2.6180035734771288,-4.839069143926007
-6.689070063125,-214.05024202,2.8305694104775236,-2.7057057400000013,2.000000175,0.06375252349371166,2.5026999999999995,33,32,365.6032782275631,623.2105544,mp-770522,Li2AlVO4,https://materialsproject.org/materials/mp-770522,-21.68602189992567,-54.73797164578418,8.83620194271556,2.1822463204412115
-7.697275256923077,-400.25831336,2.5206462942796293,-0.8265091988461546,0.0,0.0,2.9754,62,52,927.2934260162393,1407.6024,mp-541695,W(CO)6,https://materialsproject.org/materials/mp-541695,-7.0453626320290486,-30.164767774408745,8.060903548440415,-0.6059286817008296
-6.028219353571429,-84.39507095,3.4637884073617915,-1.5369348296428589,6.000000900000001,0.23977441405415115,0.0,166,14,291.6257741671494,608.3145,mp-1247305,SmMg2V3S8,https://materialsproject.org/materials/mp-1247305,23.03034655205705,10.64605134764736,-8.604250342815693,-0.5045126942092143
-6.357617335,-25.43046934,8.814163881434315,-0.22331723875,2.3e-06,3.163393244080595e-07,0.0,225,4,84.73290200971421,449.7634,mp-863717,Pm2NiRu,https://materialsproject.org/materials/mp-863717,14.173997225036823,51.442710067870856,-8.604250342815693,-0.5045126942092143