energy_per_atom,energy,density,formation_energy_per_atom,total_magnetization_uB,total_magnetization_T,band_gap,sgr,num_sites,cell_volume,weight,mp_id,formula,URL,tsne_xrd_lin1_0,tsne_xrd_lin1_1,tsne_xrd_lin2_0,tsne_xrd_lin2_1
-5.562771429583332,-267.01302862,4.276396424581325,-2.5304018566266664,0.0,0.0,3.7704,14,48,764.10802343695,1967.8121024,mp-558576,ReSb(OF4)2,https://materialsproject.org/materials/mp-558576,34.271460014560326,-13.797123346883886,42.8843270035176,-33.288801852311174
-7.018672264444443,-126.33610076,7.018832429040562,-0.7393014305555552,1.5e-07,6.6923162173329886e-09,0.0,11,18,261.2114638809772,1104.0990000000004,mp-568792,Si5Rh4,https://materialsproject.org/materials/mp-568792,-0.1907308590667947,-12.500665280954811,-44.00442531991831,-3.19850467384548
-4.310680996388889,-155.18451587,5.685527877019703,-2.4973257128700004,0.0,0.0,1.8252,14,36,532.8210052419969,1824.3284895999998,mp-17649,TlSnF7,https://materialsproject.org/materials/mp-17649,11.949057087523506,-26.54721793200467,25.02201960574584,-14.444959778656619
-3.7999631371428566,-26.59974196,5.020637223043573,-0.691692500625,0.0,0.0,1.43,82,7,188.6533383629247,570.3930772000001,mp-3038,Al2HgSe4,https://materialsproject.org/materials/mp-3038,-8.599012862235218,-30.531386504276913,-4.574845979957902,-31.191724167315837
-8.433050977272726,-92.76356075,3.4984616567331277,-3.0979525457629884,3.0000001,0.2570367073372185,0.0,160,11,136.02024335464665,286.570562,mp-867750,Ti3PO7,https://materialsproject.org/materials/mp-867750,3.044317094418089,26.829357963429988,21.649439103283807,-22.664137569541804
-3.134467195833333,-37.61360635,3.707170677714844,-1.7035010129022987,0.0,0.0,4.3506,63,12,459.0920639107195,1024.9278076,mp-1095674,Cs2LiBr3,https://materialsproject.org/materials/mp-1095674,7.904724417071315,17.070139962042337,31.090874901431718,-0.44550495169657467
-7.439402734166666,-267.81849843,4.439041272929755,-2.60222441125,0.0,0.0,4.2305,19,36,474.0490756410743,1267.2532,mp-29155,TlB3O5,https://materialsproject.org/materials/mp-29155,35.31670160220238,-16.236900637921053,43.227604824430294,-31.90677880802148
-8.273358956428572,-231.65405078,5.029085801702983,-2.566297934285715,7.000063725,0.155549523256422,1.5235,2,28,524.4580269700532,1588.3664,mp-1193134,GdMoBrO4,https://materialsproject.org/materials/mp-1193134,35.00374188795555,-7.404194132562143,44.48331042247451,-6.843102038131086
-6.484264088333332,-155.62233812,4.134541451716278,-2.8340273859375014,0.0,0.0,3.6062,113,24,366.94215382416564,913.6416000000003,mp-972387,Sr2MgGe2O7,https://materialsproject.org/materials/mp-972387,19.082455849327047,59.933894584152966,33.58478902938405,-6.1392496233687615
-5.904275303214287,-661.27883396,7.426405353643438,-1.622676371785715,3.65125e-05,1.9562668824083218e-07,1.8820000000000008,14,112,2175.1584297344825,9727.9304,mp-705034,CrPb5O8,https://materialsproject.org/materials/mp-705034,12.295452202382492,21.188363344314173,27.0487026998484,-6.191979807197537
-5.798906404615384,-75.38578326,4.4355849730246835,-1.7458504517666666,7.2000000000000005e-06,2.8878642459190094e-07,0.0,12,13,290.5582091713844,776.1308799999999,mp-569894,La4B4Cl5,https://materialsproject.org/materials/mp-569894,-0.35176179617266284,-11.566184362346124,13.794391367245202,-14.543254006182686
-6.38795334076923,-664.34714744,7.056166561279178,-1.9584216534134613,0.0,0.0,3.2825,13,104,1768.1270604872407,7513.342800000001,mp-557475,BaBi12Mo4WO34,https://materialsproject.org/materials/mp-557475,15.896229735287964,-16.471160928287087,27.506388812371732,-7.314722767733534
-5.5452572528571435,-232.90080462,3.6969359719572377,-1.7589709204022623,0.37375855,0.005789026994461539,0.0,173,42,752.4246052342241,1675.1582,mp-1211928,KSn4S3ClO12,https://materialsproject.org/materials/mp-1211928,31.120363079443926,-17.546451547496275,19.98264757102118,-12.914140182857375
-3.871065691666667,-69.67918245,5.703820956224152,-0.6640261818577776,4.5e-06,2.3930944975385213e-07,1.2658,64,18,219.14425665371982,752.74328,mp-1208839,Sr2H6Pt,https://materialsproject.org/materials/mp-1208839,-16.291778960367992,25.04476153004368,-20.081634825095517,53.786959256284504
-2.6547686180000003,-26.54768618,3.50947640511349,-0.8003818569601293,0.0,0.0,1.205,11,10,427.3355349368264,903.1549038,mp-998413,CsSeBr3,https://materialsproject.org/materials/mp-998413,33.29098059393381,-7.154380058703063,37.14730717647354,-21.707606658930956
-6.494272183562499,-1039.08354937,4.430272565794349,-2.8415902601856518,1.9025375625,0.008332663468840375,0.0,199,160,2660.889410512635,7099.179888,mp-640715,Rb3Yb2(PO4)3,https://materialsproject.org/materials/mp-640715,5.971513817659117,29.73293080020921,32.031592858458154,-4.371599417623767
-8.902174419166666,-106.82609303,5.734503750642501,-3.5779425079166662,9.35e-06,6.360536503574061e-07,3.5826,15,12,171.31495992862253,591.6188999999998,mp-542724,LaNbO4,https://materialsproject.org/materials/mp-542724,1.3775239938988302,-17.53126462296291,37.60344062170541,-2.292517604980848
-1.6267880458333333,-19.52145655,2.61983720463736,0.04397891416666658,0.00026715,5.311354681949819e-06,0.0,38,12,586.1750138001305,924.81,mp-1094530,Sr5Mg,https://materialsproject.org/materials/mp-1094530,-17.94955082160874,6.907493763696957,-19.874611938677614,-6.7728814240330415
-6.377521336875,-102.04034139,6.617987020688068,-1.894225977343749,0.0,0.0,2.9272,12,16,296.24646654400993,1180.674,mp-21138,MoPb2O5,https://materialsproject.org/materials/mp-21138,19.25346309952521,-12.590324528486846,35.04606492499721,-3.2029234301665066
-3.756999088928571,-105.19597449,4.544441017573232,-0.6544465018839288,0.0,0.0,1.6011000000000002,82,28,716.1580729909875,1959.9287,mp-1224211,K3Ag9(SbS3)4,https://materialsproject.org/materials/mp-1224211,-12.641559980679212,22.990305643778036,-7.972300081858302,-1.1482302005349811
-6.70698445625,-107.3117513,4.218034956762692,-2.2934070743387496,3.0,0.19439160072572567,0.6614,2,16,179.85444940601386,456.85909,mp-1252337,MnZnSiO5,https://materialsproject.org/materials/mp-1252337,6.661107249851709,25.411350178775148,59.00128907054136,34.09066720946599
-7.591358981078431,-774.31861607,4.661207464224406,-2.7346416551960786,0.0,0.0,3.6505,15,102,1619.4050244148184,4545.74244,mp-554402,La2(MoO4)3,https://materialsproject.org/materials/mp-554402,-9.632311960924325,-25.073805867776056,-1.996188268950416,-29.774105577788127
-7.2629168575,-87.15500229,5.598100760765684,-2.849567850416667,1e-06,7.070794986477027e-08,3.7797,88,12,164.81972387614437,555.6493399999998,mp-1095309,LaAsO4,https://materialsproject.org/materials/mp-1095309,26.587519054570123,59.3292674563201,-8.950313474915996,33.129923458753915
-2.7724576625,-22.179661300000003,5.208034754226925,-0.543408635,0.00936595,0.0003172249965832315,0.0,194,8,344.0819264944558,1079.162,mp-984765,Ba3Te,https://materialsproject.org/materials/mp-984765,-14.562368645893647,25.405195381482862,-19.593328492798047,-6.654355135055768
-8.023736656,-240.71209968,6.490421098145838,-3.409970966583333,1e-07,2.2651286487334645e-09,3.8006,194,30,514.4990232266059,2010.98272,mp-540795,Ba3SrTa2O9,https://materialsproject.org/materials/mp-540795,-18.958823925612872,5.074099914508743,-11.414276720569625,28.862674921958217
-6.886255343269231,-358.08527785,3.1704380749490406,-2.0799160453646155,1.0005676,0.0196788635574094,0.7339,14,52,592.5484256601884,1131.34232,mp-626872,V3(HO4)2,https://materialsproject.org/materials/mp-626872,41.21142968915965,-41.908464416347925,53.48328880581553,-14.271209091100516
-5.211696971111111,-93.81054548,5.523163815904153,-0.5043896929096294,0.0,0.0,0.7401,15,18,329.8267276111942,1097.0456,mp-1246921,Sr3(InN2)2,https://materialsproject.org/materials/mp-1246921,6.544058616898853,31.401447579873143,30.35592934948067,-3.517610289633041
-5.9685877475,-23.87435099,3.503449388964468,-1.8219144090312505,0.44656899999999994,0.056467644583788223,0.0,166,4,92.16506354705237,194.4523,mp-1002123,KZrS2,https://materialsproject.org/materials/mp-1002123,-19.023882775135363,27.4401946932308,-21.021775415623004,46.101116263975975
-6.90856148828125,-442.14793525,3.9602873489643375,-0.7223232892187497,0.0,0.0,1.4111,141,64,1180.5538862022072,2815.55116,mp-1203525,CoBi(CO)3,https://materialsproject.org/materials/mp-1203525,40.321446804588746,-51.618087131357356,1.229938402962624,-61.30344038962082
-2.6138818386956517,-60.11928229,5.2925728568723045,-0.34449903913043456,0.2699577,0.0032801298906531898,0.0,8,23,959.1402250917379,3057.03112,mp-675786,Cu3(BiI4)4,https://materialsproject.org/materials/mp-675786,-24.25824435400841,-38.00572284727085,0.3665225306969506,-0.4166559353038223
-3.7466458925,-29.97316714,3.8613288290067085,-1.41143109875,1.5e-06,3.896469405770992e-08,1.952,194,8,448.6394050200573,1043.24212,mp-862800,PrI3,https://materialsproject.org/materials/mp-862800,-2.546495659311183,-1.3674678041513133,-4.787268288409614,15.843507014592744
-4.8835503325,-19.53420133,0.8387557193337718,2.79823527,2.0000038,0.024660335705326476,0.0,71,4,945.1685536272366,477.41456900000003,mp-1097650,Zr2TcAu,https://materialsproject.org/materials/mp-1097650,45.642805714775456,-22.995132538772346,15.289238004288967,-60.72031203615283
-6.427767994705883,-218.54411182,5.879461251751473,-2.460321274824118,4.999999900000001,0.09657041719242497,0.0,36,34,603.3972348000037,2136.4452,mp-561481,Ba5Ru2ClO9,https://materialsproject.org/materials/mp-561481,-20.58167336448775,12.281046778803644,1.073613354415304,27.261782631334835
-4.6699130975,-18.67965239,6.5151290633604075,-0.9238339762500004,0.0,0.0,0.09089999999999954,166,4,128.5940847202047,504.539212,mp-13314,ScTlTe2,https://materialsproject.org/materials/mp-13314,-22.114999157981742,-35.30334444626045,-32.85091837820891,-22.77787982565704
-7.083255634642858,-198.33115777,2.7207228071063363,-2.554423224371837,4.999999225,0.15217276433502394,3.2269,198,28,382.92210229295824,627.4016280000002,mp-765442,LiMnPO4,https://materialsproject.org/materials/mp-765442,12.10826159293362,-42.48261674630611,71.4083018857834,-25.057845115598077
-5.119365995052084,-982.91827105,5.051185912557215,-1.1964227514409724,1.25e-08,5.1230024201739795e-11,1.3705000000000005,56,192,2843.563162947889,8649.82144,mp-1198619,VAg(IO4)2,https://materialsproject.org/materials/mp-1198619,7.201234784359406,19.795891591349143,32.32413365070372,2.3873243245346285
-6.36494123375,-101.83905974,4.060833538389069,-2.17030988171875,4.00000005,0.2485423184025516,0.0,1,16,187.55864181422808,458.673,mvc-14037,ZnFeSiO5,https://materialsproject.org/materials/mvc-14037,7.173882116499909,25.126242354649182,42.79587018748989,-0.14503589314208554
-8.456153245454546,-93.0176857,3.2945188352396118,-3.628824629204547,0.0,0.0,4.2797,12,11,130.07958126009993,258.07862400000005,mp-5594,Sc2Si2O7,https://materialsproject.org/materials/mp-5594,2.1171310340458502,27.185034788595942,-5.9777033385366,28.87902231163792
-5.872977379,-176.18932137,4.34740570621021,-2.5204659377500005,1.99999995,0.06471183400989332,0.0,14,30,360.1834087850567,942.985,mp-562387,Li6Tb2O7,https://materialsproject.org/materials/mp-562387,26.605215487213545,-19.63615608106591,38.66260875643882,-20.675191966215323
-5.174049708,-51.74049708,5.944079106728059,0.18922238600000013,1.05e-05,3.5637843111350865e-07,0.07559999999999968,227,10,343.3644391147283,1229.11015,mp-1211676,La4Co,https://materialsproject.org/materials/mp-1211676,-13.263866707453653,-23.8513412485402,-11.248460113180439,32.44683277796151
-6.372374588571428,-44.60662212,4.68903719426369,-2.947268476300952,0.0,0.0,3.742,174,7,99.34952235093563,280.54360319999995,mp-1077866,BaZnBO3F,https://materialsproject.org/materials/mp-1077866,2.7414702849020953,16.916951132419037,17.811199263651208,-22.594442396179065
-5.20411647,-166.53172704,6.377418986462464,-1.6451942411979168,0.0,0.0,1.4177,4,32,710.1701525435672,2727.45928,mp-1208047,TmAgS2,https://materialsproject.org/materials/mp-1208047,-6.451510573939452,17.92266083714987,1.4469148783693546,18.062312886664323
-8.20170082125,-262.45442628,4.1267547175242285,-3.61423423578125,0.0,0.0,4.8154,11,32,450.1782483993315,1118.7784,mp-560478,BaY2Si3O10,https://materialsproject.org/materials/mp-560478,12.03047598683886,24.887944652803654,38.07596242133362,-4.635253029567138
-8.707445548333332,-313.46803974,6.526950812465856,-2.788434800833334,11.999999875,0.2771385863267731,0.0,15,36,504.6167611213223,1983.4576,mp-1213281,Eu2MoO6,https://materialsproject.org/materials/mp-1213281,22.061831483766074,55.803491514897686,-1.3751302819958808,35.010185847742875
-4.296111600555555,-77.33000881,5.701754695781635,-1.454180425700231,0.022749099999999998,0.00047546394250907683,0.0,36,18,557.6016627430722,1914.624,mp-1188896,Ba2YbInSe5,https://materialsproject.org/materials/mp-1188896,6.033806176486353,30.232773196077517,20.43929658706588,-14.70890009182036
-5.5901513096153845,-145.34393405,7.723296616582612,-1.7057912213415398,0.0,0.0,2.5875,12,26,505.6445840002877,2351.7924064,mp-1178487,Bi5O7F,https://materialsproject.org/materials/mp-1178487,9.97935806851295,21.03894758765469,1.8352524027562305,35.240933311955025
-3.314307888333333,-19.88584733,3.559843471551552,-0.5931323274133332,1.595e-05,2.222839186868222e-06,1.3337,194,6,83.6238330781897,179.27176,mp-23759,SrH2,https://materialsproject.org/materials/mp-23759,-18.42734208427412,22.362562502813073,-19.660195773058426,37.84408104082138
-6.545382255833334,-314.17834828,2.7652316154059706,-0.6088700493491679,1.00000035,0.014006442791807986,0.0,12,48,832.0505802014578,1385.58173856,mp-1180028,NaMo4C4NO14,https://materialsproject.org/materials/mp-1180028,43.34610018465701,-42.236964307905815,35.880866069718145,-55.28911074264565
-2.7347413,-92.98120420000001,2.42917035720496,-0.3067118075046647,0.0,0.0,3.4262,64,34,580.8616208908375,849.7312,mp-24662,Rb4Mg3H10,https://materialsproject.org/materials/mp-24662,10.312651225668713,-23.509924947383638,16.83436238859937,-13.255273924812874
-7.588863440000001,-136.59954192,3.2644481485914087,-2.3705433356481485,1.9999988999999998,0.0917397949319143,0.7061999999999999,5,18,254.06767851341408,499.4708,mp-756231,TiV4FeO12,https://materialsproject.org/materials/mp-756231,70.53765763092842,6.8434169788561,63.04821523044093,-9.80487245852742
-2.9097623735000004,-58.19524747,1.7231529058538726,1.4984956980000002,12.0,0.22434270833217398,1.0964,87,20,623.3711731056069,646.8766,mp-1223943,K5C4Br,https://materialsproject.org/materials/mp-1223943,-23.763216716467184,-38.19888728347999,-34.06881165591525,-24.05876877600305
-5.206009806071427,-437.30482371,2.9518752032002054,-1.7527456261728565,3.9999988583333335,0.04017122225332298,0.8870999999999998,64,84,1160.4388208856496,2062.86663408,mp-761217,Na3MnO3,https://materialsproject.org/materials/mp-761217,3.056275512464512,-23.72661820500037,7.887080055039166,-34.99732337149061
-4.874551629375,-389.96413035,2.8562050344200136,-1.2769205699415005,0.0006979,9.925075919073104e-06,4.3981,186,80,819.4770368596816,1409.5389400000001,mp-1217606,TbH18(BrO6)3,https://materialsproject.org/materials/mp-1217606,6.104398217205497,-29.27398218994649,18.956543787337424,-17.724395181123462
-5.353735333947368,-406.88388538,2.3781320069786815,-1.832996721493684,0.0,0.0,1.7124,122,76,1379.6837345720462,1975.9066,mp-1199172,K9CuS8(NO9)2,https://materialsproject.org/materials/mp-1199172,-7.95031767052592,39.172465883302735,-6.293982099960713,31.64002947555429
-2.158033655,-8.63213462,3.907632718101413,0.2364735699999998,0.010591799999999998,0.0006634516914571763,0.0,139,4,186.05352107383283,437.827,mp-972300,Sr3Lu,https://materialsproject.org/materials/mp-972300,-11.376996374247119,-29.61800837116408,-12.639399776568924,-26.41779443217633
-6.0331004453125,-386.1184285,6.420021176227177,-2.1528488039062506,0.0026291625,3.307057213171328e-05,0.0,61,64,926.5164796832196,3582.1232000000005,mvc-7507,CaSnBiO5,https://materialsproject.org/materials/mvc-7507,18.71845067329456,59.22372432052449,34.12554201508514,-5.561963887541213
-7.379467567499999,-295.1787027,6.526395522400732,-3.06383204,0.9999998,0.01867035494971993,0.06179999999999985,139,40,624.2014398296992,2453.291,mp-1228285,Ba8Y4Cu(WO8)3,https://materialsproject.org/materials/mp-1228285,-22.65228867628745,13.646326136867199,-28.828967732314567,49.676358804651564
-6.04869669875,-387.11658872,5.70787593164108,-2.083968500416666,0.0002907125,4.594602849195655e-06,0.7848999999999999,29,64,737.3830592965984,2534.653456,mp-1214285,BeSi(AgO2)2,https://materialsproject.org/materials/mp-1214285,-58.56685961133957,22.669211962617503,-52.65715223869947,30.951562541218404
-5.50195691734375,-352.12524271,4.99956439442138,-2.23505832609375,0.000573775,4.649223768579382e-06,3.2905000000000006,62,64,1438.2639657111324,4330.3368,mp-1198919,Ba3Te3(BrO4)2,https://materialsproject.org/materials/mp-1198919,11.939661809916105,20.083079447515555,35.595362750195434,1.6890193549046253
-5.878269364827586,-340.93962316,4.085273386650038,-1.9638455120366376,10.0000007,0.12616148599577387,2.408,167,58,923.7419404472304,2272.5984,mp-556960,Sr3Fe2(SeO3)6,https://materialsproject.org/materials/mp-556960,7.464031994070138,29.03765153254309,31.597258604856357,-4.944863256217944
-6.162454915,-98.59927864,5.7881056488852405,-3.5659180783925004,0.0,0.0,5.0299,67,16,236.63363638582518,824.8288384,mp-7310,ZrPbF6,https://materialsproject.org/materials/mp-7310,-1.021236135977002,-24.3405970565899,11.987776922295973,-13.316292953698936
-3.1884045741666664,-38.26085489,2.562012388268724,-0.4805154132466664,0.0,0.0,2.7374,36,12,150.3120967045958,231.91352000000003,mp-643009,SrMgH4,https://materialsproject.org/materials/mp-643009,8.620148357286107,19.82774992038037,22.59938075042674,-12.141731328988302
-5.142399639545454,-113.13279207,5.220420585302626,-1.4442560653409091,0.00010669999999999999,2.381258810378073e-06,1.9473000000000005,14,22,522.198051640884,1641.69188,mp-772282,Sb4I2O5,https://materialsproject.org/materials/mp-772282,10.046883640829456,-17.594755898611115,19.069682586634208,-15.358629636069601
-7.4455409527272725,-163.80190096,3.146038104493273,-2.910523776499612,5.000000099999999,0.2052322732557517,3.6236000000000006,2,22,283.923790853259,537.9187380000002,mvc-6951,CaMnP2O7,https://materialsproject.org/materials/mvc-6951,10.946840371403592,29.47859174079225,32.23485213549018,-1.0639599327162217
-6.947693253214285,-194.53541109,4.863780893729653,-2.57878358,9.2225e-05,2.01698173817123e-06,2.0445,2,28,532.8735026742585,1560.8064,mp-1194049,SmMoBrO4,https://materialsproject.org/materials/mp-1194049,35.01849444778952,-7.421427623288947,44.47659590065956,-6.530150243918631
-7.308058027777778,-263.09008900000003,6.269075951364282,-2.701697172083333,5.99878615,0.1387156758303203,0.5644,62,36,503.98227835727477,1902.69732,mp-505669,La2Co2O5,https://materialsproject.org/materials/mp-505669,-22.058183433504187,44.14831240917746,-8.725917984234993,61.78459316779152
-7.504114148499999,-300.16456594,7.240716762362711,-2.4722473657500004,0.0002618375,4.816930949211536e-06,0.7667000000000002,9,40,633.4886709107967,2762.30304,mp-1101462,NbTlO3,https://materialsproject.org/materials/mp-1101462,23.12290692337335,64.96551784032751,-8.164474289368009,38.564882793909696
-4.930925278,-49.30925278,6.020223051035898,0.31801875399999985,0.5338489000000001,0.0181152951794756,0.0,227,10,343.43959608279715,1245.1275899999996,mp-1212172,Pr4Co,https://materialsproject.org/materials/mp-1212172,-13.249737062184384,-23.867648723364987,-11.1990808020312,32.46837035210209
-5.854877026666667,-158.08167972,7.161241529617452,-2.3483679158333337,2.000000033333333,0.058816229297407964,0.0,150,27,396.2873889063712,1709.0292,mp-8504,Yb2TeO6,https://materialsproject.org/materials/mp-8504,6.996467464593022,16.971225735857306,37.49180139054813,-2.9430318072042896