energy_per_atom,energy,density,formation_energy_per_atom,total_magnetization_uB,total_magnetization_T,band_gap,sgr,num_sites,cell_volume,weight,mp_id,formula,URL,tsne_xrd_lin1_0,tsne_xrd_lin1_1,tsne_xrd_lin2_0,tsne_xrd_lin2_1
-5.353937004375,-85.66299207,4.542817517230773,-1.6186632119350002,7.000000200000001,0.5770195676746718,0.0,166,16,141.37901088429882,386.777445,mp-1177345,Li4MnNi3O8,https://materialsproject.org/materials/mp-1177345,19.780586060746256,-69.4891272506525,-9.93036061682114,-74.3277786692269
-5.808841518214287,-162.64756251,4.177339379628776,-1.8683283233721428,8.00000005,0.3751878869075453,0.3223999999999996,1,28,248.4955458760729,625.12847,mp-1174678,Li4MnCo2O7,https://materialsproject.org/materials/mp-1174678,19.567995097579285,-82.5409047264764,-14.962354532614254,-83.4691517110217
-5.8247760996428575,-163.09373079,4.17647626039982,-1.8842629048007142,10.0000001,0.4688879590369485,0.7056,1,28,248.54690047995015,625.12847,mp-1174602,Li4MnCo2O7,https://materialsproject.org/materials/mp-1174602,19.730058309333156,-82.30092935534131,-11.834617518729885,-80.82385683905919
-5.792818565,-185.37019408,4.182733697051274,-1.8574696016224996,23.999998,0.9744522896702648,0.3961000000000001,3,32,287.0305033897012,723.001465,mp-1176292,Li9Mn2Co5O16,https://materialsproject.org/materials/mp-1176292,16.4019743310052,-76.73459479087758,-13.589879322285302,-81.99031298720865
-5.76031411125,-184.33005156,4.135781989293466,-1.8249651478724989,22.000000699999998,0.8832212143850464,0.13680000000000006,1,32,290.2890340249276,723.001465,mp-1176210,Li9Mn2Co5O16,https://materialsproject.org/materials/mp-1176210,12.883558399647574,-83.72105331601061,-17.29084224922008,-87.1908915927643
-5.7688130003125,-184.60201601,4.15643843317051,-1.8334640369349997,23.999968300000003,0.9683250785833794,0.07430000000000002,1,32,288.8463712173654,723.001465,mp-1176088,Li9Mn2Co5O16,https://materialsproject.org/materials/mp-1176088,14.969440605521257,-79.70343651936645,-13.072259531849204,-85.43710358488477
-5.879910217000001,-117.59820434,3.969973959982177,-1.922871481471,6.0,0.3893345323258632,0.1903999999999999,1,20,179.59976017959073,429.38248,mp-1174162,Li3MnCoO5,https://materialsproject.org/materials/mp-1174162,14.53034773550151,-82.01602660094085,-13.98097505773334,-87.69568716466162
-5.336294515,-85.38071224,4.871998099199606,-1.5791829306249996,1.99348265,0.17010203162248072,0.0,74,16,136.57788625143957,400.71759,mp-753366,Li2CoCuO4,https://materialsproject.org/materials/mp-753366,24.101137596773423,-68.70769163356407,-15.440056549960813,-72.09953356236828
-5.795910548571428,-162.28549536,4.099753584069565,-1.8553973537292865,9.99998725,0.4602738051280218,0.18469999999999984,1,28,253.19820037087743,625.12847,mp-1174762,Li4MnCo2O7,https://materialsproject.org/materials/mp-1174762,14.222239335674642,-80.40796663525714,-12.605896787783546,-86.5185272357761
-6.179042871666668,-148.29702892,3.953455707214789,-2.044776970785,15.9999995,0.8549406881567293,0.6130999999999998,6,24,218.10288493339272,519.265175,mp-1175320,Li7Mn4CoO12,https://materialsproject.org/materials/mp-1175320,18.62269392821548,-83.18411418894975,-18.664236720635497,-83.58269323212433
-5.7691490146875,-184.61276847,4.152228226947311,-1.833800051309999,21.9925153,0.886431700731542,0.0,1,32,289.13925078062135,723.001465,mp-1176223,Li9Mn2Co5O16,https://materialsproject.org/materials/mp-1176223,14.39270631623694,-79.97346386431731,-13.001802863010663,-86.31163023980308
-5.7808929228125,-184.98857353,4.176469027967344,-1.8455439594349992,20.0000013,0.8108274606770893,0.6424999999999996,2,32,287.4610467766364,723.001465,mp-1175777,Li9Mn2Co5O16,https://materialsproject.org/materials/mp-1175777,14.961021336022169,-80.01944747125027,-13.37767942936528,-86.77481279376438
-5.7694484378125,-184.62235001,4.1311648817599735,-1.834099474434999,23.999999600000002,0.9624383568213424,0.11240000000000007,1,32,290.61346931721147,723.001465,mp-1176068,Li9Mn2Co5O16,https://materialsproject.org/materials/mp-1176068,10.948615181793675,-80.35062506826603,-14.559272497789731,-85.82832990960637
-5.7796767396875,-184.94965567,4.194393111332138,-1.8443277763099992,19.9999997,0.8143072103958134,0.09580000000000012,1,32,286.232626924278,723.001465,mp-1176019,Li9Mn2Co5O16,https://materialsproject.org/materials/mp-1176019,17.178620987748086,-79.5542205910622,-12.21391442293817,-85.76195691744303
-6.8968115545833335,-331.04695462,4.046022222847985,-1.695874739009999,51.0000004,1.0390925814838528,0.0,12,48,571.9964887184659,1393.7103849999999,mp-771188,Mn13Fe3O32,https://materialsproject.org/materials/mp-771188,17.81699779638314,-69.5801428777321,-9.822062628717957,-70.71079080086369
-5.797896545625,-185.53268946,4.191764527495188,-1.8625475822474995,22.0000008,0.8951766274922449,0.8022999999999998,1,32,286.4121185087422,723.001465,mp-1176136,Li9Mn2Co5O16,https://materialsproject.org/materials/mp-1176136,16.094398844797382,-76.42631773604758,-10.115406565367717,-82.48302409094012
-5.787923705,-185.21355856,4.240845925458337,-1.8525747416224991,18.000001100000002,0.7409931372212406,0.2568000000000001,2,32,283.0973300403362,723.001465,mp-1175834,Li9Mn2Co5O16,https://materialsproject.org/materials/mp-1175834,15.733091229043564,-76.003489950995,-10.382263665989148,-82.16740705554271
-5.797451460714287,-162.3286409,4.092017017036915,-1.856938265872144,9.99999965,0.4594058008455757,0.4260999999999999,1,28,253.67690924270272,625.12847,mp-1174776,Li4MnCo2O7,https://materialsproject.org/materials/mp-1174776,12.839665151896975,-78.44028855899876,-13.662966160713925,-85.35215160291806
-6.462401803333334,-96.93602705,4.186137346559822,-2.0610279673333336,8.9999995,0.7274112274192707,0.3607,166,15,144.19158403441793,363.4999,mp-756615,Li3Cr3NiO8,https://materialsproject.org/materials/mp-756615,16.398266199578384,-69.75491227002274,-11.227342094185104,-71.0403807661534
-5.8359103845833324,-140.06184923,4.063251759221975,-1.8885115477883343,14.0000001,0.7571972181407172,0.2727999999999997,1,24,215.47478526383225,527.2554749999998,mp-1175076,Li7Mn2(CoO4)3,https://materialsproject.org/materials/mp-1175076,14.865527461393885,-82.22768483390627,-16.243660337046286,-88.5967178145173
-6.563213133125,-105.01141013,4.21618935540584,-2.216318254999999,13.0,1.037747816303955,0.7715000000000001,10,16,145.9919641969172,370.680695,mp-754195,Li4Cr3CoO8,https://materialsproject.org/materials/mp-754195,14.749413002836715,-68.66862317021273,-11.002173106186671,-69.75493720695422
-5.882826410714286,-82.35956975,5.200713372342453,-1.778355262857143,0.0,0.0,0.0,166,14,140.62733778677242,440.436785,mp-761676,Li2Co3SbO8,https://materialsproject.org/materials/mp-761676,22.07065556481424,-69.76768630157372,-7.913600384545861,-73.1600031915081
-5.774289605,-184.77726736,4.160685463495155,-1.8389406416224992,21.999999600000002,0.8885394572333118,0.0,8,32,288.5515305454408,723.001465,mp-1100674,Li9Mn2Co5O16,https://materialsproject.org/materials/mp-1100674,1.9240253022751783,-72.79109367019375,-22.17133240332029,-75.47342817420592
-5.7691406384375,-184.61250043,4.152301843300658,-1.83379167506,23.7557918,0.957519409813868,0.0,1,32,289.1341246173376,723.001465,mp-1176235,Li9Mn2Co5O16,https://materialsproject.org/materials/mp-1176235,14.462247092358474,-79.95692936025699,-13.120318967532663,-87.07407660535273
-4.909487896538462,-255.29337062,4.6463023061241335,-1.4543753553365388,10.9999999,0.2904802883140013,0.0,2,52,441.31982957196436,1234.8432,mp-769522,Li13Mg(Ni6O13)2,https://materialsproject.org/materials/mp-769522,24.72838393461675,-71.83374704371843,-4.09569039259141,-73.63968752855148
-5.789813854375,-185.27404334,4.2306669750781545,-1.854464890997499,18.0000003,0.7392145600606753,0.41380000000000017,1,32,283.77845991707136,723.001465,mp-1175904,Li9Mn2Co5O16,https://materialsproject.org/materials/mp-1175904,19.422531232158025,-79.84176884490157,-10.56588376898719,-86.32564013741745
-5.7809867309375,-184.99157539,4.2262511344135945,-1.8456377675599995,18.0,0.7384429782269317,0.22529999999999986,2,32,284.07496867227144,723.001465,mp-1175720,Li9Mn2Co5O16,https://materialsproject.org/materials/mp-1175720,21.52916911151945,-80.59422395947236,-11.745091114189286,-87.02020743997267
-6.216869785833333,-149.20487486,4.018731397718124,-2.082603884951666,13.999995199999999,0.7604243348608952,0.5760000000000001,1,24,214.5602703603261,519.265175,mp-1175216,Li7Mn4CoO12,https://materialsproject.org/materials/mp-1175216,20.33100714626321,-79.05794829570812,-9.61638818114814,-86.21219224312884
-5.5213457865625,-176.68306517,4.292205520547625,-1.7261471212499997,22.0000003,0.9066069586204416,0.5877000000000003,2,32,282.80108160946975,730.991765,mp-1175419,Li9Co7O16,https://materialsproject.org/materials/mp-1175419,20.247104240334007,-72.53243166395933,-8.36699027194529,-77.31737756309678
-5.804815056071428,-162.53482157,4.130338666784726,-1.8643018612292863,9.00000025,0.4173373396979084,0.6367000000000003,2,28,251.32327230167343,625.12847,mp-1174507,Li4MnCo2O7,https://materialsproject.org/materials/mp-1174507,13.556252532903954,-75.68781666494444,-10.364581478972786,-82.00114754519805
-5.784815481875,-185.11409542,4.227277848454486,-1.8494665184975,18.0,0.7386223735704716,0.3604000000000003,1,32,284.0059730279212,723.001465,mp-1176034,Li9Mn2Co5O16,https://materialsproject.org/materials/mp-1176034,19.3984196440638,-79.89392533375073,-11.051126707837293,-86.79755205964253
-7.089359017692307,-92.16166723,4.086508488133163,-2.0294978356061537,12.0000008,0.978435750774604,1.1336,160,13,142.93098599806194,351.746435,mp-756504,LiMn3CrO8,https://materialsproject.org/materials/mp-756504,18.13949553323712,-69.45372856619535,-11.747436011489455,-70.95294803661963
-7.591530543333333,-22.77459163,3.6662712917588185,-2.3081853025,1.0,0.31023252905283466,0.0,166,3,37.565579625516726,82.9403,mp-25199,VO2,https://materialsproject.org/materials/mp-25199,1.9278061087371807,-67.33228185305865,-8.962084952723563,-66.29797846053579
-6.490962302000001,-97.36443453,4.22824689741842,-2.057252746666667,7.9999996,0.6444882730267762,0.0,166,15,144.6613032708791,368.3525,mp-768828,Li3Cr3CuO8,https://materialsproject.org/materials/mp-768828,15.62440547602538,-69.00818679776908,-10.825812172399642,-70.3957946232416
-5.8005008971875,-185.61602871,4.246880182852209,-1.8651519338099989,16.0,0.6595977276644494,0.5227999999999997,1,32,282.6950860203897,723.001465,mp-1175775,Li9Mn2Co5O16,https://materialsproject.org/materials/mp-1175775,19.49584150656397,-80.04445788358646,-12.204465882834532,-85.7726068809196
-6.339264025,-126.7852805,3.863808561054789,-2.1579848125670003,7.00000065,0.4504592878326494,0.8451,2,20,181.10063037121182,421.39218000000005,mp-1173947,Li3Mn2O5,https://materialsproject.org/materials/mp-1173947,18.876857140525146,-82.91595581993981,-11.402199500090175,-85.96529180266077
-5.612340774,-224.49363096,4.537569460149821,-1.7008705176250003,30.9999994,1.0118658289853448,0.4858000000000002,2,40,357.03943211441737,975.641755,mp-761094,Li10FeCo9O20,https://materialsproject.org/materials/mp-761094,1.6068260901941291,-72.48990434872005,-19.87004163404969,-74.19946891554002
-5.825710538571428,-163.11989508,4.167336520294788,-1.8851973437292853,9.99999985,0.4678618397279613,0.8243,1,28,249.0920098233485,625.12847,mp-1174598,Li4MnCo2O7,https://materialsproject.org/materials/mp-1174598,15.722750786922905,-75.6923416879968,-11.454593207132405,-82.37135038150376
-5.751672645,-184.05352464,4.150551820653123,-1.8163236816224997,22.0000009,0.886375409105529,0.0,1,32,289.25603401351435,723.001465,mp-1176257,Li9Mn2Co5O16,https://materialsproject.org/materials/mp-1176257,15.479787643542762,-80.97945793488427,-14.481984447008404,-86.00074068870023
-5.77574481625,-184.82383412,4.147257316120118,-1.8403958528724988,24.0000003,0.9661874428404876,0.2345999999999999,1,32,289.48581365886025,723.001465,mp-1176022,Li9Mn2Co5O16,https://materialsproject.org/materials/mp-1176022,14.335767298376947,-80.10273247761388,-13.256685285144545,-86.27172718003824
-5.8067271896875,-185.81527007,4.239259040586397,-1.8713782263099992,21.9999998,0.9053193264152656,0.6179000000000001,1,32,283.2033020665856,723.001465,mp-1175562,Li9Mn2Co5O16,https://materialsproject.org/materials/mp-1175562,19.126030328459933,-73.64130826627068,-9.547667608603867,-77.84928617678322
-6.191827362083332,-148.60385669,3.952476896229576,-2.057561461201665,16.000722500000002,0.8547676418912898,0.5181999999999998,12,24,218.15689701373736,519.265175,mp-1175278,Li7Mn4CoO12,https://materialsproject.org/materials/mp-1175278,18.67510686970833,-83.16841361936805,-17.763625917441747,-83.09619136675771
-5.484566508125,-87.75306413,4.42291209274091,-1.7543673262500006,5.000000099999999,0.4054678259935606,0.0,166,16,143.71134105503688,382.7809,mp-755156,Li4VNi3O8,https://materialsproject.org/materials/mp-755156,16.529048142835062,-68.78745686451009,-10.778556786228624,-71.00321706904542
-5.77436597875,-184.77971132,4.170103276394822,-1.839017015372499,22.000000600000003,0.8905507284188906,0.0,6,32,287.8998621942102,723.001465,mp-1100604,Li9Mn2Co5O16,https://materialsproject.org/materials/mp-1100604,16.665503809700414,-76.574683189571,-12.238629606482991,-83.29115965129887
-5.823181015416666,-139.75634437,4.076513326073649,-1.8757821786216662,15.9999994,0.8681925836259263,0.0,8,24,214.77381042551895,527.2554749999998,mp-1175126,Li7Mn2(CoO4)3,https://materialsproject.org/materials/mp-1175126,18.202649103308357,-73.35385107448259,-12.319666635548954,-77.396715630957
-6.892718262222222,-868.48250104,4.047100980618938,-2.0683708860679366,7.0009693111111115,0.061097625969677535,0.0,70,126,1335.3996743324217,3254.66442,mp-641353,LiMn2O4,https://materialsproject.org/materials/mp-641353,2.5968368086389697,-74.46550441380639,-7.714879658684596,-67.4022084449943
-6.015209793125,-96.24335669,3.9540502613606168,-2.043711209495,8.0000006,0.6696757663234729,0.8245999999999998,2,16,139.22039569202863,331.5094850000001,mp-1174009,Li5Mn2CoO8,https://materialsproject.org/materials/mp-1174009,20.862683549171635,-72.64392319188165,-11.573564056926065,-76.14319208491138
-5.89555296875,-47.16442375,4.346877549011651,-1.9006071681249992,3.9999998999999997,0.6471354566997046,0.0,10,8,72.03477640147912,188.5691,mp-1178023,Li2CrNiO4,https://materialsproject.org/materials/mp-1178023,16.379394364115043,-68.82383541589107,-11.15799546158238,-70.67343727526438
-4.835746403529412,-164.41537772,4.697311936235554,-1.2486996296323531,6.999998599999999,0.2668403944883791,0.3557000000000001,2,34,305.71996885494,864.8168,mp-757736,Li7(NiO2)9,https://materialsproject.org/materials/mp-757736,24.379762795298433,-72.23310372283063,-5.011582116761665,-72.65922233154718
-5.76687065875,-184.53986108,4.1674138687486515,-1.8315216953724995,21.7996102,0.8818699019192773,0.0,1,32,288.0856560978402,723.001465,mp-1176052,Li9Mn2Co5O16,https://materialsproject.org/materials/mp-1176052,14.946677754548276,-80.1477499502118,-13.255581867517154,-86.64486880895299
-5.6657868175,-90.65258908,3.9441938922330375,-1.8344385319350005,7.999999799999999,0.6600518384998557,0.0,10,16,141.25029340356116,335.504635,mp-1174028,Li5Mn(CoO4)2,https://materialsproject.org/materials/mp-1174028,19.367746983927532,-71.7706077872563,-11.817446248920515,-76.22733017402201
-5.76859452875,-184.59502492,4.168632038613897,-1.8332455653724988,23.9999999,0.9711671004227206,0.17510000000000006,1,32,288.00147086354343,723.001465,mp-1176057,Li9Mn2Co5O16,https://materialsproject.org/materials/mp-1176057,12.871318292061096,-78.1826301773891,-13.653812297846205,-85.49712922569698
-6.3686014391666665,-152.84643454,3.8873067517307596,-2.140902006241666,17.9999999,0.9530479983417466,0.0,2,24,220.10765995591225,515.270025,mp-1175321,Li7Mn5O12,https://materialsproject.org/materials/mp-1175321,19.02874111084045,-82.92047095540484,-15.928931338612484,-83.8937860483468
-5.249255493,-104.98510986,4.5580941366816665,-1.5622834834229995,8.0000007,0.5283089572526692,0.0,2,20,176.47349161587934,484.4106450000001,mp-850209,Li5Mn(Ni2O5)2,https://materialsproject.org/materials/mp-850209,20.202674438871068,-72.77713649879911,-7.641453788726916,-76.11919828392527
-5.4323305490000005,-108.64661098,4.117084918851239,-1.6995322903749999,6.7828479999999995,0.4481036646174405,0.0,12,20,176.40505127739223,437.37278,mp-1174026,Li3Co2O5,https://materialsproject.org/materials/mp-1174026,17.576735904972924,-73.42908378141856,-13.330011746634007,-76.72663238340355
-5.84499438125,-140.27986515,4.096341497467578,-1.897595544455,17.9999999,0.9814674402831464,0.4533999999999998,12,24,213.7342066896788,527.2554749999998,mp-1174515,Li7Mn2(CoO4)3,https://materialsproject.org/materials/mp-1174515,18.633096471060874,-71.7631385059284,-10.676569689781212,-76.89008356532112
-5.384951062000001,-80.77426593,4.4375207639026115,-1.5181702099999996,5.000000099999999,0.4131606465735144,0.0,12,15,141.03551611573153,376.8945,mp-755220,Li3CrNi3O8,https://materialsproject.org/materials/mp-755220,19.20413940451755,-73.9501121858543,-6.7894664738829,-72.01495466001481
-6.821947594375,-109.15116151,3.9101726282755855,-2.56804591375,9.000000199999999,0.7291457653822144,3.097,166,16,143.8485831826359,338.7290386,mp-770341,Li4AlCr3O8,https://materialsproject.org/materials/mp-770341,16.454566238067848,-69.68134756049164,-11.499816506146464,-70.85779458862713
-6.902977718125,-220.89528698,4.054910237067683,-2.4210071525000005,10.999998800000002,0.4315566764834219,1.9238000000000004,2,32,297.0518254007442,725.3779999999998,mp-769608,Li4VCr3O8,https://materialsproject.org/materials/mp-769608,14.028531277508733,-68.44303815015954,-11.23010449791608,-69.73141104177964
-5.7464188128125,-183.88540201,4.121985529654698,-1.8110698494349995,23.971146899999997,0.9591453727315584,0.0,1,32,291.26064368068427,723.001465,mp-1176150,Li9Mn2Co5O16,https://materialsproject.org/materials/mp-1176150,14.958903455772289,-80.97091372255522,-13.784887945452633,-85.55442269675022
-5.771965295625,-184.70288946,4.158333633970135,-1.8366163322474989,22.000000600000003,0.8880372502290661,0.0,8,32,288.71472668811737,723.001465,mp-1100635,Li9Mn2Co5O16,https://materialsproject.org/materials/mp-1100635,12.42838014178207,-72.31720195712748,-14.349515730348756,-80.58915383120643
-5.785005664375,-185.12018126,4.263735409157127,-1.8496567009975,13.9999994,0.5794386002011878,0.0230999999999999,2,32,281.57754724443083,723.001465,mp-1175801,Li9Mn2Co5O16,https://materialsproject.org/materials/mp-1175801,20.606465310683475,-79.02089196700645,-11.213699037186947,-86.83202496287791
-5.7842741235714294,-161.95967546,4.073573398220897,-1.8437609287292869,9.000000300000002,0.4116016703893765,0.05420000000000025,2,28,254.8254635362233,625.12847,mp-1174457,Li4MnCo2O7,https://materialsproject.org/materials/mp-1174457,13.568508660018676,-84.14526407267822,-15.767596734536324,-87.47119542347748
-5.837483814375,-93.39974103,4.396723162420417,-1.7981341731849998,11.9999996,0.9555876667735416,0.3778999999999999,10,16,146.3484486789973,387.49683,mp-1173981,Li4MnCo3O8,https://materialsproject.org/materials/mp-1173981,12.261353886370664,-82.84512225725206,-18.85504399674196,-87.10565693235233
-6.09065891375,-97.45054262,4.294788896364796,-1.9111589744949988,7.485299799999999,0.5883179336878345,0.0,11,16,148.2772557423265,383.50167999999996,mp-1173918,Li2MnCoO4,https://materialsproject.org/materials/mp-1173918,6.281707641811633,-79.1997629367532,-26.582771430705442,-75.7379923774833
-5.756310640625,-184.2019405,4.184671734391763,-1.8209616772474997,21.999560600000002,0.8936440373321115,0.0,1,32,286.89757161661686,723.001465,mp-1176256,Li9Mn2Co5O16,https://materialsproject.org/materials/mp-1176256,22.882228489256484,-78.84244776688885,-10.491952891533206,-84.22488427825111