energy_per_atom,energy,density,formation_energy_per_atom,total_magnetization_uB,total_magnetization_T,band_gap,sgr,num_sites,cell_volume,weight,mp_id,formula,URL,tsne_xrd_lin1_0,tsne_xrd_lin1_1,tsne_xrd_lin2_0,tsne_xrd_lin2_1
-6.588577644210527,-250.36595048,8.119548047286518,-0.02160049315789455,20.2743705,0.4840050599987546,0.0,194,38,488.1742910507618,2387.0288600000003,mp-1199930,Y2Co14Cu3,https://materialsproject.org/materials/mp-1199930,-67.23294237953448,-30.588297482655392,-60.87288637266944,-12.548072982704273
-6.5451314813157895,-248.71499629,9.400865755028144,-0.02262729710526245,26.601226300000004,0.6510223504692629,0.0,194,38,476.1931969098429,2695.88863,mp-1199900,Yb2Co17,https://materialsproject.org/materials/mp-1199900,-56.92486819680174,-22.93193091852692,-54.93013289168611,-7.919455354119901
-7.8239821615789475,-297.31132214,8.23449228724563,-0.10269511315789707,29.9090845,0.7016624933040135,0.0,194,38,496.7664815738375,2463.42884,mp-1200417,Tm2Fe15Si2,https://materialsproject.org/materials/mp-1200417,-55.50727539654736,-22.78087148068099,-56.340054072096045,-9.442874668219694
-7.496080348421053,-284.85105324,7.418600764566883,-0.1032168521052633,28.9330913,0.6444229520739266,0.0,194,38,523.2403951402121,2337.6214,mp-1200648,Y2Ga3Fe14,https://materialsproject.org/materials/mp-1200648,-57.39916753547928,-25.54119357320943,-59.970109336548866,-11.86791549879265
-6.90037890736842,-131.10719924,8.466548328272452,-0.03525960789473677,25.85517,1.1968107509508692,0.0,166,19,251.76731212194116,1283.679615,mp-1105621,Pr2Co17,https://materialsproject.org/materials/mp-1105621,-55.18927260092722,-24.653969815054197,-57.36800170428745,-12.117716570295642
-6.8289666816666665,-40.97380009,7.8008122115555585,-0.2406153958333329,3.9389429,0.5428160006886467,0.0,65,6,84.56769077141584,397.27863,mp-1215928,YCo4Ge,https://materialsproject.org/materials/mp-1215928,-52.71097389699147,-17.26590173733483,-55.09903259834361,-15.160212159351225
-8.022877665789473,-152.43467565,7.6511869632185165,0.04999010789473489,40.1543287,1.751329501345779,0.0,166,19,267.203371615025,1231.1803,mp-880,Pr2Fe17,https://materialsproject.org/materials/mp-880,-52.408150804761604,-23.47085647495452,-56.21209103259818,-11.292056087142539
-6.9481119163157885,-264.02825282,9.485568973316118,-0.11013078894736708,25.08769935,0.6177470261645542,0.0,194,38,473.29029657120805,2703.59663,mp-1204082,Lu2Co17,https://materialsproject.org/materials/mp-1204082,-57.09384674429892,-22.829131917477326,-54.90950227224946,-7.980604264194387
-6.029590095789473,-229.12442364,8.222018942131216,-0.2720570436842108,0.14270045,0.003383619571207945,0.0,194,38,491.4974193684882,2433.6079999999997,mp-1202894,Ce2Si2Ni15,https://materialsproject.org/materials/mp-1202894,-56.26073847696669,-23.323635144060567,-54.8910663397842,-9.100988232998306
-8.055474123684213,-153.05400835,7.68117977562713,-0.014178733245614694,34.3494904,1.5056256473306435,0.0,160,19,265.8769706372483,1229.871,mp-1220302,Nd2TiFe16,https://materialsproject.org/materials/mp-1220302,-52.44973586195425,-23.40862984134921,-56.15134330518195,-11.304828169543107
-8.765458289230768,-113.95095776,8.067644113278838,0.05577914865384715,3.0235115,0.21305984260890545,0.0,139,13,165.38169947989215,803.49854,mp-20642,NdMn12,https://materialsproject.org/materials/mp-20642,-55.54655586722454,-23.81712318582725,-55.85910979927072,-9.162444803318749
-7.661275187999999,-76.61275188,11.650446379298945,-0.5664019830000001,2.45e-06,1.688869355521495e-07,0.0,127,10,169.0625660263385,1186.1536,mp-646507,Hf2Ni2Sn,https://materialsproject.org/materials/mp-646507,-54.77425960181945,-9.521048205860874,-56.876123382892324,-18.581151184282803
-8.459459728125,-135.35135565,8.211623556308906,-0.4052179200000001,0.229275,0.00968081739201342,0.0,193,16,276.0082741497619,1364.9038,mp-17910,Nb5Ge3,https://materialsproject.org/materials/mp-17910,-54.25131615059942,-20.255346498958836,-55.90086972997477,-13.812672731707158
-6.839101679736843,-259.88586383,7.44463004908525,-0.1506337976315788,19.629855600000003,0.4596029791933512,0.0,194,38,497.75049117371583,2231.5454044,mp-1200452,Y2Al2Co15,https://materialsproject.org/materials/mp-1200452,-56.50976709575569,-24.152967559276906,-59.236218556790746,-12.383188979003371
-8.261920453636364,-181.76224998,7.6501359737904595,-0.03356878642045625,35.2944602,1.4875622246495666,0.0,166,22,276.5087190757537,1273.8810999999996,mp-1190844,Nd2Fe17C3,https://materialsproject.org/materials/mp-1190844,-51.583248990790864,-22.70606308977575,-57.167678892590104,-10.40289316682172
-6.617755672105264,-125.73735777,8.01249560603271,-0.10651965263157892,19.3333829,0.8912997855828039,0.0,166,19,252.79092425896908,1219.7763022,mp-1188126,Pr2Al2Co15,https://materialsproject.org/materials/mp-1188126,-55.11249891410336,-24.605002984098316,-57.4321427231273,-12.15500607626227
-6.446644668333334,-38.67986801,9.48230030750447,-0.2043268058333337,4.730258900000001,0.6821920391700821,0.0,191,6,80.80824818571789,461.445385,mp-1225558,ErCo3Ni2,https://materialsproject.org/materials/mp-1225558,-54.31022308068695,-18.14134203039484,-54.72981118485749,-5.441635596186277
-7.862829123684209,-149.39375335,8.048014688480464,-0.02406130263157916,34.5728421,1.5684460397521172,0.0,166,19,256.8874739666254,1245.0379750000004,mp-1188210,Ce2Fe12Co5,https://materialsproject.org/materials/mp-1188210,-54.7026208529453,-24.568387062798237,-57.27700480044141,-12.028291165349374
-8.06219383736842,-306.36336582,8.196903924482745,-0.006889133750001675,79.2109468,1.790681858735987,0.0,187,38,515.5184323778217,2544.749,mp-1220311,NdEr3Fe34,https://materialsproject.org/materials/mp-1220311,-54.04851011353765,-22.678143876453905,-55.980749067215605,-9.746143180955835
-8.034399166842105,-152.65358417,7.7463489618249035,0.0365121981578945,39.969264100000004,1.7554314569993854,0.0,166,19,265.350373479782,1237.849,mp-1510,Nd2Fe17,https://materialsproject.org/materials/mp-1510,-52.711111651113214,-23.608164252138806,-56.323986586987324,-11.32579148159338
-6.840154764473684,-259.92588105,9.140725967537046,-0.18767175078947373,7.224603999999999,0.17658913798817874,0.0,194,38,476.79038434249617,2624.5756,mp-580102,Gd2Ni17,https://materialsproject.org/materials/mp-580102,-57.299660808906545,-23.178930267226967,-58.73598664387106,-13.76707583247551
-5.91310588,-35.47863528,9.45277533651272,-0.33488184916666697,1.5209502000000001,0.2201205542341325,0.0,191,6,80.52520223887883,458.39732000000004,mp-1553,HoNi5,https://materialsproject.org/materials/mp-1553,-54.17045796457487,-17.64375603557688,-55.52535924450986,-16.139040116397208
-5.849729945789473,-222.28973794,9.458454915466172,-0.20832380368421125,7.1052688999999996,0.17656489765566494,0.0,194,38,468.97919737444056,2671.31244,mp-11527,Tm2Ni17,https://materialsproject.org/materials/mp-11527,-57.57369566821153,-22.836187582483763,-58.80832913372087,-14.232294334665248
-9.416297323125,-150.66075717,13.74287000826592,-0.2731067837500003,1.2e-06,5.154766636663878e-08,0.0,193,16,271.29991933296384,2245.3188,mp-17013,Ta5Ge3,https://materialsproject.org/materials/mp-17013,-66.43992127547105,-11.806553161048619,-64.32133068258325,0.23669730851824725
-5.855287463157895,-222.5009236,9.574317838349033,-0.2088612631578952,6.9323025,0.17281579523260976,0.0,194,38,467.4891102936219,2695.4436,mp-1202260,Lu2Ni17,https://materialsproject.org/materials/mp-1202260,-57.59933252194931,-22.89796255441912,-58.752372605957795,-14.140981705387313
-7.005192981111112,-126.09347366,6.624483235757829,0.1347251917200004,1.15e-06,6.512792027908658e-08,0.0,2,18,205.78231933420508,820.9391599999999,mp-1245654,Co4SnN4,https://materialsproject.org/materials/mp-1245654,9.213948145557072,-16.432951608643087,-38.19299414418397,-11.320313705520453
-7.263145185,-217.89435555,10.70922815783402,-0.5554043826666667,3.905e-05,1.0063952165632185e-06,0.0,139,30,452.1993168077312,2916.34556,mp-977049,Hf4Co4Ge7,https://materialsproject.org/materials/mp-977049,-62.50752191609228,-25.85953475855285,-63.285295500619995,-16.432681874189118
-8.203769602307691,-106.64900483,8.09568198722721,-0.08582124012820512,21.4076512,1.4706076096737035,0.0,44,13,169.64834947951945,827.09232,mp-1224104,HoTiFe11,https://materialsproject.org/materials/mp-1224104,-54.329701133526676,-24.50341927372588,-53.351386994755146,-10.367159681850866
-6.0782413734615375,-158.03427571,8.645682532060796,-0.4466059184615388,9.800000000000001e-06,3.6795385448388855e-07,0.0,129,26,310.3917335810538,1616.0706400000001,mp-542390,Ho(SiNi5)2,https://materialsproject.org/materials/mp-542390,-57.53552529776887,-23.05066832080984,-58.91479944412271,-14.338980303942526
-6.146021995000001,-36.87613197,8.791109883092261,-0.3417543900000008,0.011354399999999999,0.0016157121442956484,0.0,191,6,81.89881689057758,433.583,mp-1910,CeNi5,https://materialsproject.org/materials/mp-1910,-53.89274602560194,-17.65704387430994,-55.4439450833527,-16.215741516984156
-7.4165646345,-148.33129269,6.90753830515083,-0.4566907444999998,5.55e-06,1.8739832867868334e-07,0.0,84,20,345.14747246549837,1435.7502772,mp-637263,Zr5AlNi4,https://materialsproject.org/materials/mp-637263,-62.27514112533572,-29.067446822614446,-64.8908287617426,-17.64420846928371
-7.29521729125,-58.36173833,8.431490790746901,0.0814924162499997,7.448723299999999,0.7618046608810904,0.0,194,8,113.95034484387905,578.59,mp-1184324,Fe3Sb,https://materialsproject.org/materials/mp-1184324,-54.726546302154816,-46.76886276860919,-63.99122642116691,-33.4412441027554
-8.109355656842105,-154.07775748,7.932900756908044,0.018365184999999274,32.8034181,1.4654774162492674,0.0,160,19,260.8659506177826,1246.2361,mp-1219244,Sm2CrFe16,https://materialsproject.org/materials/mp-1219244,-53.5709910489473,-23.95452352482133,-56.3361778659612,-11.4981643517846
-7.528241491111111,-406.52504052,8.944294999731191,-0.5149837777777788,2.2204114333333336,0.03765353133136118,0.0,176,54,687.2348422801524,3701.70831,mp-541830,UCo5Si3,https://materialsproject.org/materials/mp-541830,-63.23559867281585,-28.748713648859788,-62.46174881443876,-16.017819749576855
-6.940093696052631,-263.72356045,9.326673479397307,-0.10713262657894744,25.16886275,0.6148519255682898,0.0,194,38,477.05723043651216,2679.46547,mp-1196360,Tm2Co17,https://materialsproject.org/materials/mp-1196360,-56.93088165556637,-22.932795647899443,-55.03475364542291,-8.019078065122992
-8.415870990909092,-185.1491618,6.421768604492892,-0.5201846068181818,8.905e-05,3.2574242531986006e-06,0.0,72,22,318.5935841723371,1232.09044,mp-3276,Nb4Cr2Si5,https://materialsproject.org/materials/mp-3276,-55.94531520520993,-18.726540821764114,-52.83411005592744,-13.953551880636008
-5.287802266896552,-153.34626574,8.117324574500417,-0.5973600665517241,2.45e-05,5.796656210692614e-07,0.0,225,29,492.56774345359435,2407.8520000000003,mp-1194145,Zr6Ga16Pd7,https://materialsproject.org/materials/mp-1194145,-43.89666115369857,-37.731079339116725,-58.700418826431864,-18.230949142550113
-8.249514037727273,-181.48930883,7.996752040219954,-0.19918496646091005,30.428431899999996,1.3216720265502333,0.0,166,22,268.3078019102976,1292.1051,mp-1190790,Sm2Fe17N3,https://materialsproject.org/materials/mp-1190790,-52.062887115280844,-23.439546331577652,-56.69931673052029,-10.841676556154294
-8.070680807105262,-306.68587067,8.408165603706896,-0.019457209210526717,37.89320135,0.8740046437812541,0.0,194,38,505.27171235839853,2558.45128,mp-1196975,Ho2Fe17,https://materialsproject.org/materials/mp-1196975,-54.6932831259562,-22.718117961211373,-54.703765998533584,-9.30531761882234
-5.855744553684211,-222.51829304,9.394652461133926,-0.204945472105264,7.09972715,0.1756777660517331,0.0,194,38,470.9798054310149,2664.6116,mp-30608,Er2Ni17,https://materialsproject.org/materials/mp-30608,-57.53813776045104,-22.949560049755988,-58.752097778705675,-13.942482460777711
-6.668892117,-200.06676351,8.193716747882423,0.01886413300000148,34.837841,0.9706508175494442,0.0,65,30,418.27859020935125,2063.9420136,mp-1220652,Pr4AlCo25,https://materialsproject.org/materials/mp-1220652,-52.98752197648322,-17.340956445555154,-54.03227171028886,-14.123399893338194
-5.379925303333334,-64.55910364,7.417769045573686,-0.2843168475000013,1.5530648,0.11276966660479006,0.006199999999999761,166,12,160.4998783814234,716.9666,mp-13505,CeMg2Ni9,https://materialsproject.org/materials/mp-13505,-58.88098441087345,-24.796480053195246,-60.28882917305006,-18.901851892117783
-6.602993875,-39.61796325,8.702771104633362,0.4352569683333331,0.09374395,0.010134956973824234,0.0,59,6,107.79503733042135,564.9463900000001,mp-1077563,CoTeMo,https://materialsproject.org/materials/mp-1077563,-54.16264224079419,-17.415596437128013,-55.42194688688461,-14.919302636045485
-6.280731443333334,-37.68438866,9.205973080475623,-0.2555783475000008,3.8352687000000008,0.5439497887622371,0.0,187,6,82.17021271701942,455.54892,mp-1223882,HoFeNi4,https://materialsproject.org/materials/mp-1223882,-53.77520657591752,-17.290491062726428,-55.2121563030695,-15.161523912666516
-7.00797943263158,-133.15160922,8.24642764091859,-0.08638891377193066,21.421426999999998,0.9772704771763224,0.0,160,19,255.45302309753188,1268.60906,mp-1223096,La2TiCo16,https://materialsproject.org/materials/mp-1223096,-54.76634896260256,-24.63480117683748,-57.19795929776553,-12.09737513639643
-7.108489092999999,-213.25467279,8.61605524103333,-0.10733331366666618,29.338779,0.8348650104140661,0.0,65,30,409.54648541832495,2125.017875,mp-1227615,Ce4ZrCo25,https://materialsproject.org/materials/mp-1227615,-53.79513897737277,-17.979501046854008,-54.62003131381628,-5.794840389135588
-5.872266147586206,-170.29571828,8.234091675483823,-0.6583214717241376,0.00026510000000000005,6.428121396699375e-06,0.0,225,29,480.6213791780481,2383.2505,mp-1193205,Zr6Ga16Rh7,https://materialsproject.org/materials/mp-1193205,-43.90987713026635,-37.75617583984764,-60.87762532456322,-30.85179277834909
-8.809868832307693,-114.52829482,8.484269123631233,-0.000912292307692024,2.6539557,0.19230619425060588,0.0,139,13,160.83398536293666,821.7565400000002,mp-20656,DyMn12,https://materialsproject.org/materials/mp-20656,-56.706733236775534,-23.21689503089287,-57.396152078939096,-8.657428370165439
-7.710831193,-154.21662386,6.216420393939859,-0.13152154695199986,2.4966146,0.12878980909601628,0.0,59,20,225.91623098708507,845.7436,mp-1247553,SrFe5N4,https://materialsproject.org/materials/mp-1247553,-34.145632032092145,2.228883687790264,-56.91548143567461,0.8781698838015859
-8.04329310263158,-152.82256895,7.839105234965387,0.025052658947367645,40.1059653,1.7737603631994496,0.0,160,19,263.50657454604266,1243.9669999999999,mp-1220091,NdSmFe17,https://materialsproject.org/materials/mp-1220091,-52.967574753341395,-23.823283566718523,-56.02252128339444,-11.383076962360525
-8.295345337272728,-182.49759742,8.263330013601134,-0.09307706119318353,34.3754283,1.5065534912668286,0.0,166,22,265.9138691821784,1323.26552,mp-1191478,Tm2Fe17C3,https://materialsproject.org/materials/mp-1191478,-52.4803237395468,-23.64290425181006,-55.75193375743744,-11.296441224951398
-7.0924870590909075,-156.03471530000002,8.793827817611426,-0.08521348827908977,1.252207,0.057476179079245626,0.0,166,22,253.90173321250273,1344.604415,mp-1190849,Sm2Co17N3,https://materialsproject.org/materials/mp-1190849,-55.1171237673925,-24.64111493682618,-56.86332447261306,-12.000304890819145
-7.786993312631577,-147.95287294,7.5871054254012416,-0.03550444289473825,29.8428771,1.3440221832328116,0.0,166,19,258.7686624981055,1182.33,mp-1205374,Nd2Fe15Si2,https://materialsproject.org/materials/mp-1205374,-54.412615770597064,-24.33097718959252,-56.95195268401641,-11.898850330549054
-8.457208406666666,-152.22975132,8.176276857737665,-0.5558238446296302,1.49e-05,6.166549740998927e-07,0.0,193,18,281.59274214012964,1386.5258,mp-1105818,Nb5Ge3B,https://materialsproject.org/materials/mp-1105818,-54.14372937563076,-20.175645145107698,-55.890093231813935,-13.872050505104992
-6.077662659230769,-158.01922914,8.536986524823554,-0.4422269807692312,5e-08,1.867592575217365e-09,0.0,129,26,312.00768645172246,1604.0607,mp-21601,Tb(SiNi5)2,https://materialsproject.org/materials/mp-21601,-57.51918961268099,-23.058817906683522,-58.9164243786495,-14.31135988836309
-6.212885150000001,-37.277310899999996,7.806281083866797,-0.3197740583333347,1.5072875,0.215964103858616,0.0,191,6,81.33771234209098,382.37285,mp-2152,YNi5,https://materialsproject.org/materials/mp-2152,-54.514269465985244,-18.035388442185663,-56.32761255506753,-15.884240923294964
-5.374583662307692,-139.73917522,7.5397512203096815,-0.9114610973076924,3.846153846153847e-07,1.173566798680774e-08,0.0,148,26,381.94098621989946,1734.2200017999999,mp-669546,AlPd,https://materialsproject.org/materials/mp-669546,-62.486234440198544,-18.259786591597887,-61.273706599112394,-4.8351357351721935
-5.7149327225,-22.85973089,5.997868738353378,-0.6188184275000008,0.0473728,0.011621527235079015,0.0,123,4,47.50543267592851,171.5896722,mp-1228913,Al2CoNi,https://materialsproject.org/materials/mp-1228913,-50.97961423734351,-51.74432520059604,-68.84660218425196,-42.57919986151849
-7.887910888947368,-149.87030689,7.846588739257822,0.0409124202631568,38.1939306,1.6907303089711954,0.0,166,19,263.2676180046128,1244.0253899999998,mp-1190182,Nd2Fe15Co2,https://materialsproject.org/materials/mp-1190182,-53.076613127458494,-23.837604396146588,-56.053375638407275,-11.39832218201382
-8.389361304545455,-184.5659487,7.655719855714643,-0.05471621392045475,33.4644886,1.4206664054501918,0.0,166,22,274.5171675974136,1265.6291,mp-1191404,Ce2Fe17C3,https://materialsproject.org/materials/mp-1191404,-51.70380065267952,-22.99806372548356,-57.23091369205525,-10.605401553086732
-7.511205120277778,-270.40338433,10.126175149626787,-0.661222992222222,0.0004766,1.4460170884669491e-05,0.0,55,36,384.11214603906126,2342.364,mp-1201657,Er2ReB6,https://materialsproject.org/materials/mp-1201657,-35.708009148033135,-10.522607158280913,-37.773428817897326,-12.179836587519205
-7.131582739736843,-271.00014411,8.020300263528085,-0.08923157763157974,25.387598999999998,0.6056864381259957,0.0,194,38,488.48497265547934,2359.35203,mp-570718,Y2Co17,https://materialsproject.org/materials/mp-570718,-67.23769509632153,-30.523994519787713,-60.91932257458311,-12.534091396432855
-8.298635291818181,-182.56997642,8.086818805394564,-0.08479741301136362,34.639540000000004,1.5002900955636835,0.0,166,22,269.0755901444506,1310.3971,mp-1190738,Dy2Fe17C3,https://materialsproject.org/materials/mp-1190738,-52.162947854683544,-23.484541241032254,-56.00161461632079,-11.213477318925982
-6.160650835064934,-474.3701143,9.756439544571695,-0.2926925583441562,0.0031503,3.909001992281259e-05,0.0,229,77,939.2116024880546,5518.3052,mp-1203980,Lu11(Ni10C)6,https://materialsproject.org/materials/mp-1203980,-55.55575399363936,-30.677204391121673,-60.16472512748786,-29.96887566005157
-8.260708310526315,-156.95345790000002,7.33690939303607,-0.010608674210526726,38.153386100000006,1.7429405639590887,0.0,166,19,255.110267152125,1127.1767,mp-1105569,Y2Fe17,https://materialsproject.org/materials/mp-1105569,-55.46420454799821,-25.201165043277783,-59.897002880766564,-12.241950809906893
-5.900908103333332,-35.40544862,8.896438654827028,-0.29963618541666764,1.4814025,0.208402958481113,0.04010000000000069,191,6,82.84124570523542,443.827,mp-1075,SmNi5,https://materialsproject.org/materials/mp-1075,-53.43072083888453,-17.212284529384338,-55.164858047209634,-16.19672413169482
-8.06355452736842,-306.41507204,7.691359883602169,0.03959329302631581,79.5922301,1.7453805742887434,0.0,8,38,531.4445563574974,2461.56895,mp-1227066,CePr3Fe34,https://materialsproject.org/materials/mp-1227066,-52.48676241227148,-23.747083199560645,-55.83498358395118,-11.218809397951718