energy_per_atom,energy,density,formation_energy_per_atom,total_magnetization_uB,total_magnetization_T,band_gap,sgr,num_sites,cell_volume,weight,mp_id,formula,URL,tsne_cry_lin1_0,tsne_cry_lin1_1,tsne_cry_lin2_0,tsne_cry_lin2_1
-7.509965303125,-240.3188897,2.0870824709182685,-0.25522499449810265,3.0000005,0.054651901802465576,1.8634,14,32,639.7252244044355,804.0517385599999,mp-17509,Rb2NaCr(CN)6,https://materialsproject.org/materials/mp-17509,19.086655257906404,-9.964035783442288,8.522826960701506,-2.5302912937268487
-6.873924016,-103.10886024,6.4273872241763685,-0.8935797071166661,5.9e-06,2.1669049323619385e-07,0.0,147,15,317.3142537598755,1228.2165799999998,mp-1223754,K(Nb3Se4)2,https://materialsproject.org/materials/mp-1223754,48.003001299699896,23.122050339494987,-8.604250342815693,-0.5045126942092143
-3.947644518,-39.47644518,3.057732053695743,-2.1005913715560003,0.0,0.0,2.3155,225,10,278.8005611976735,513.3859500000002,mp-1111991,K2TbCuCl6,https://materialsproject.org/materials/mp-1111991,13.131555512623398,-12.394892633793399,9.395085345773783,-0.25555490609850084
-3.61293179,-7.22586358,8.286317706487402,-0.0926017575000002,5.2e-06,8.984717760837273e-07,0.0,166,2,67.44912687347797,336.5804,mp-1227339,BiTe,https://materialsproject.org/materials/mp-1227339,66.84678430652401,23.86985753612597,2.378907001331869,-4.70087038423365
-3.340085085,-173.68442442,3.986222070174508,-0.22270706246153849,0.0,0.0,1.1233999999999995,14,52,2040.829921998893,4899.1327999999985,mp-570900,K4Sn9,https://materialsproject.org/materials/mp-570900,37.53898009994069,13.504609110857091,5.982866047443666,-6.233568710921545
-3.835625977,-38.35625977,7.591387165845853,-0.3215550194999999,0.001214,4.201509967896522e-05,0.6671000000000005,166,10,336.73690511248867,1539.44,mp-1224514,GeTe5Pb4,https://materialsproject.org/materials/mp-1224514,66.76815964556324,22.842048189920828,8.038209026076084,-7.065208992340628
-3.711018045,-44.53221654,7.727115359886622,-0.1906880125000002,4.335e-05,1.1641119896345422e-06,0.0,164,12,433.98205017119074,2019.4824,mp-23224,BiTe,https://materialsproject.org/materials/mp-23224,66.45361498843133,23.87431657497977,-2.817753389288874,-1.0901242668993534
-5.217882283787879,-344.38023073,10.194821106702985,-0.5178630858333328,0.0049353,4.800719722373447e-05,0.062400000000000226,152,66,1198.0767301195026,7355.549999999998,mp-1209131,Sn9Pd13,https://materialsproject.org/materials/mp-1209131,44.90647535739296,37.43535669322709,-8.604250342815693,-0.5045126942092143
-5.7999302450000005,-115.99860490000002,7.543623552916935,-1.8640530381562501,0.0,0.0,0.3632999999999997,62,20,494.73501388304163,2247.52,mp-7368,Dy2Se3,https://materialsproject.org/materials/mp-7368,50.62977222905123,4.400527622180053,6.240956757280334,-7.130576717675624
-7.663349255357143,-429.14755830000007,4.573661967813943,-2.4838564184523824,8.0,0.14358490654802208,1.2908999999999995,8,56,649.3197678078777,1788.4368,mp-531655,Ti(FeO2)2,https://materialsproject.org/materials/mp-531655,-24.585493708325338,-37.58697991312262,5.989916613241701,-1.906560616768956
-5.157447847272726,-113.46385264,2.977456773593969,-1.7913501214318188,10.00000085,0.300168091278261,2.217,14,22,388.25131990300986,696.1604000000002,mp-553960,K4Fe2O5,https://materialsproject.org/materials/mp-553960,-32.77035797611056,-30.940286631262538,5.0119065166830925,-5.64480580990509
-6.188647252142857,-86.64106153,4.8983609487687785,-1.5919723571428588,13.000000300000002,1.079078583490373,1.1990999999999996,166,14,140.4001968507673,414.1612,mp-33551,LiFe5O8,https://materialsproject.org/materials/mp-33551,-27.626479443922854,-33.348708106650385,7.558512190020786,-3.0757145717431986
-6.73884343,-40.43306058,5.690257311591853,-0.3348933276302084,13.134360699999998,1.3154250261094214,0.0,71,6,116.36443530095171,398.75219,mp-1221987,Mn2CrSe3,https://materialsproject.org/materials/mp-1221987,51.224142716240756,34.176310685560715,-8.604250342815693,-0.5045126942092143
-6.478006491818181,-142.51614282,9.367781873182981,0.1534243263636367,4.1184937999999995,0.11024925085313576,0.0,216,22,435.35165218059484,2455.99725,mp-510113,Mn5(NiBi2)2,https://materialsproject.org/materials/mp-510113,49.03342485765411,39.63072720932748,-8.604250342815693,-0.5045126942092143
-6.8660718539999985,-102.99107781,7.311148107470476,-0.8019532219166658,0.2829949,0.010420416126802286,0.0,147,15,316.49800303283314,1393.50158,mp-1220435,Nb6TlSe8,https://materialsproject.org/materials/mp-1220435,48.05813216896232,23.144402131056342,-8.604250342815693,-0.5045126942092143
-4.574908970888889,-205.87090369,5.5654750331247484,-1.798696897506945,1.6162103,0.017068678073611038,0.0,1,45,1103.5078077545186,3698.525,mp-685044,Yb16S29,https://materialsproject.org/materials/mp-685044,-12.141480103466947,9.666246662617247,7.948478050622512,-3.813177544621563
-7.521098078125,-481.35027699999995,1.7369598708812606,-0.26888673817374986,2.9999999,0.028097518238709013,1.8504,60,64,1244.316058637035,1301.5816,mp-645346,K3Cr(CN)6,https://materialsproject.org/materials/mp-645346,19.07673842527111,-9.969076454241424,7.774355397147273,-1.7970658214569502
-3.763944783333333,-22.5836687,3.6648806200993596,-0.8370022061979169,0.0,0.0,1.1001999999999996,156,6,135.77127239130363,299.653,mp-1215520,Zn2GeS3,https://materialsproject.org/materials/mp-1215520,40.004297767119596,4.080781006998182,6.307217242486874,-5.266194376257112
-4.216877273148149,-227.71137275,5.270960389626249,-0.04371243555555564,0.00029075,2.440661099123614e-06,0.0,223,54,1388.3202931527178,4406.87096,mp-1212552,Ge12As11I4,https://materialsproject.org/materials/mp-1212552,39.775695721618526,12.398688662552786,-8.604250342815693,-0.5045126942092143
-7.530305285999999,-150.60610572,9.26034582441789,-2.62943293325,7.5e-08,3.810016669544879e-09,0.9448999999999996,62,20,229.4097201538979,1279.35164,mp-1207705,TmRhO3,https://materialsproject.org/materials/mp-1207705,-9.637805928159343,-21.687672300106478,7.193690445717494,-3.682171353085391
-5.359197991379309,-155.41674175,8.54277164387888,-0.5527116127586214,0.0004944,8.352552375068179e-06,0.0,216,29,689.8214300040806,3548.83975,mp-1217735,Tb5(Sn3Rh)6,https://materialsproject.org/materials/mp-1217735,0.8551111644880489,49.834370179102,-8.604250342815693,-0.5045126942092143
-6.002672593703704,-324.14432006,4.339687102942752,-2.21140719535037,4.921807533333333,0.09167445757119223,0.0,6,54,625.6820635889251,1635.1704576,mp-1178241,FeOF,https://materialsproject.org/materials/mp-1178241,-43.07850425138293,-76.69661498902092,-8.604250342815693,-0.5045126942092143
-6.009820991428571,-42.06874694,5.915238612974927,-0.9340340153869044,1e-07,8.82786598809575e-09,0.0,12,7,132.01451843826166,470.2674,mp-1025281,Ti2NiSe4,https://materialsproject.org/materials/mp-1025281,23.05084196507627,16.10057329250221,-8.604250342815693,-0.5045126942092143
-4.2854472975,-34.28357838,6.1002845781610535,-0.7025020645312505,0.0,0.0,0.7471000000000001,28,8,260.518255051878,957.06,mp-1078944,PbS,https://materialsproject.org/materials/mp-1078944,72.71693167124884,21.863008497361236,7.352420945862312,-4.270848134943979
-4.728846991666667,-85.11924585,3.325506765784372,-1.016278966361112,0.0,0.0,0.7067999999999999,70,18,382.02736327126127,765.0735999999998,mp-17228,K2Ni3S4,https://materialsproject.org/materials/mp-17228,19.480958645380632,4.908305638556763,4.691640318285813,-4.73973897772029
-2.5996522625,-10.39860905,5.587380234188425,-0.30687765224999985,0.0,0.0,0.4167000000000001,225,4,110.59288525300295,372.12283856,mp-866132,Na2TlSb,https://materialsproject.org/materials/mp-866132,35.092420203769905,20.307550392266972,4.7408972602215265,-5.450855674040659
-5.390266814305557,-388.09921063,4.6261487407039095,-1.5683125850844453,4.999999975,0.04757885652098562,2.1340000000000003,14,72,1224.7104666280818,3411.96,mp-559874,FeTe2ClO5,https://materialsproject.org/materials/mp-559874,-18.722050470348226,-37.483651724307016,6.928908991701263,0.2202964547250428
-4.1330019425,-99.19204662,6.978201144128293,-0.6345246491666661,0.0,0.0,0.04129999999999967,186,24,553.1759445607195,2324.65056,mp-1192002,LiHoSn,https://materialsproject.org/materials/mp-1192002,0.08289936193428675,45.0132625519569,-8.604250342815693,-0.5045126942092143
-7.370362105520832,-707.55476213,5.719813452148113,-2.7546503948437486,0.0,0.0,1.8777,62,96,1528.925575618249,5266.464,mp-1208774,Sr5Re3BrO15,https://materialsproject.org/materials/mp-1208774,-3.77231903867818,-42.95655342537236,9.022925927054363,-0.07955282636359733
-5.211775493181818,-114.65906085,2.5385909525139354,-2.7184561143581814,1.99999995,0.07357746791801974,2.2246,15,22,316.7835156869783,484.290792,mp-23839,K2VH2OF5,https://materialsproject.org/materials/mp-23839,-20.73725064255752,-50.82716507960664,6.249704061021472,-0.160074078260819
-6.006490246111111,-216.23364886,4.302390046174028,-2.2152248477577783,4.999999675,0.13849570970893155,0.4981999999999998,6,36,420.73736578332114,1090.1136384000001,mp-759503,FeOF,https://materialsproject.org/materials/mp-759503,-42.246548502563655,-76.87425438773148,2.5090458453124906,-1.227013067470667
-6.2072139335714285,-86.90099507,3.86941381818361,-1.0412495744642862,6.1655225,0.2772312154459465,0.0,227,14,259.18220809331575,603.9504,mp-1104382,Cr2GaS4,https://materialsproject.org/materials/mp-1104382,15.629912847462515,7.418163367102507,-8.604250342815693,-0.5045126942092143
-8.78100789764706,-447.83140278,4.188474376924953,-2.9952569801862743,1.0112591999999998,0.015648451980562673,0.0,71,51,753.1275447108557,1899.65748928,mp-707376,NaNb14O36,https://materialsproject.org/materials/mp-707376,-0.292228175590274,-47.03115672679695,7.606803692327089,0.4615902475474205
-4.890345757727274,-107.58760667,3.1163139373794864,-1.908065044943182,2.5e-07,5.799344640876714e-09,1.8132,167,22,502.3871443342041,942.824,mp-866871,Ca4SnS6,https://materialsproject.org/materials/mp-866871,43.030566154472076,1.8360776585145309,7.676333350267812,-4.895020742827696
-5.760542459500001,-115.21084919,5.275655569699071,-1.6085007336562505,9.6e-05,2.0754835891371367e-06,0.2623000000000002,6,20,539.0503803650199,1712.6029999999998,mp-1227715,BaSr3(ZrSe3)4,https://materialsproject.org/materials/mp-1227715,57.280304569757135,1.2554309840981934,3.802615411875199,-5.412598485558138
-8.647647678333334,-155.65765821,6.255462559825858,-2.9989913993518518,5.00000015,0.28833329083359555,1.7459000000000002,102,18,202.09364462370547,761.31256,mp-1217927,TaTiFeO6,https://materialsproject.org/materials/mp-1217927,-3.651608562002561,-38.649079770843294,7.985494288879735,0.19160572181113802
-8.200436739,-164.00873478,6.526485445093048,-3.2321274417500008,2.0000003,0.09417744200241784,1.0340999999999996,62,20,247.4916768363747,972.7268,mp-541129,NdVO3,https://materialsproject.org/materials/mp-541129,-13.674421573521908,-28.977177221838254,7.799371108399062,-2.6496602092447805
-6.510912171538461,-169.28371646,7.397506531585852,-1.1573160740384612,0.0,0.0,0.7238000000000007,55,26,540.3813563760025,2407.33552,mp-560046,Ta2Pt3S8,https://materialsproject.org/materials/mp-560046,18.25081837640155,4.630772122771928,6.314359035980222,-6.823166841868048
-4.74372295328125,-303.59826901,2.0931386873244042,-1.2737293190842642,0.999999725,0.0065831747676823905,1.2594,33,64,1770.2798389772504,2231.4688960000003,mp-556552,K4VP2S9,https://materialsproject.org/materials/mp-556552,66.61798018012516,4.39259509405675,7.99603116688264,-6.263958475082762
-4.624389138571429,-32.37072397,9.176121721655802,-0.21471422857142844,2e-07,1.6320522969097063e-08,0.0,166,7,142.81484477705382,789.1933689999997,mp-568925,Ni2Sn4Au,https://materialsproject.org/materials/mp-568925,44.31944899538415,41.842543044183344,-8.604250342815693,-0.5045126942092143
-3.5695014425,-99.94604039,4.48621322558279,-0.9563598952586204,2.0020636,0.01825353334666938,0.4359000000000002,194,28,1278.2280794661233,3453.3386914,mp-1192748,Cs3Nb2I9,https://materialsproject.org/materials/mp-1192748,10.27671463684215,-4.5480037318353475,4.2359735259982205,-5.040020511929773
-6.010051760833334,-144.24124226,4.319999595339821,-2.21878636248,4.99999965,0.20859385149404147,0.8393999999999999,6,24,279.34821360513735,726.7424255999998,mp-753238,FeOF,https://materialsproject.org/materials/mp-753238,-41.239785411585565,-77.66498790066473,4.45554159011064,1.2895672840357402
-5.147423066428573,-144.12784586,6.1765311275166495,-1.6192580670535717,0.0,0.0,1.5715,62,28,725.5232603637517,2698.652,mp-1232076,Er2MgSe4,https://materialsproject.org/materials/mp-1232076,52.2103654639269,6.576914376648822,8.040486452007006,-6.1652920778204265
-6.99039448875,-223.69262364,5.1675708891168535,-2.273111851289064,1.9975481,0.034058006032989925,0.0,62,32,683.5266551175678,2127.124,mp-1203122,Ce2ZrS5,https://materialsproject.org/materials/mp-1203122,45.26565350216193,4.462009752478607,2.204066692882444,-4.582954392210652
-3.20710934,-28.86398406,5.250924970556406,-1.1722389955066663,1.6e-06,7.220902097005309e-08,1.7341000000000002,225,9,258.229558933207,816.5686000000002,mp-27834,Tl2PtCl6,https://materialsproject.org/materials/mp-27834,49.84717273348843,-16.495799191176925,9.096827909344189,-2.875657087298679
-5.641016962916668,-270.76881422,2.894454781641439,-3.1431205420433344,2.0,0.037934295344232836,1.8682,1,48,614.4342298601027,1071.0089024000001,mp-759977,LiVF4,https://materialsproject.org/materials/mp-759977,-21.184543103760127,-51.84191892118032,8.775859279103878,1.2353748483720943
-3.083603369,-30.83603369,2.6903824735180493,-1.368010498522667,0.0,0.0,1.5314,225,10,301.40099450446155,488.3257385600001,mp-1111538,Na2AgSbCl6,https://materialsproject.org/materials/mp-1111538,6.151091658351192,-7.710910325831679,8.372569950048598,-4.6977287400087775
-5.707147574166666,-68.48577089,2.7049599404157982,-3.2092511532933337,2.00000035,0.14180324098584415,2.0645,2,12,164.36954093573112,267.75222560000003,mp-752465,LiVF4,https://materialsproject.org/materials/mp-752465,-22.316513685947022,-51.493929423358075,8.532369972383961,3.1641276436890466
-5.0306320866666665,-181.10275512,8.741440546663739,-0.3959658188888887,0.0003373,4.863561799166996e-06,0.0,164,36,808.2381205596381,4254.74217,mp-1213283,Er7Co6Sn23,https://materialsproject.org/materials/mp-1213283,-0.0870250098402074,47.91513083231679,-8.604250342815693,-0.5045126942092143
-6.20894188625,-49.67153509,5.5522841056946755,-1.7674269743749995,1.9999997,0.2499872011869297,0.7844000000000007,10,8,93.2372775015435,311.7541,mp-1216344,VGa(CuO2)2,https://materialsproject.org/materials/mp-1216344,-26.992227640538673,-30.89455858731773,8.072112460872184,-2.0809577549726916
-4.3110539740909095,-94.84318743,3.6643070272119305,-0.8545657156171635,4.99999965,0.0836772351105784,0.6852999999999998,165,22,696.3700426630052,1536.6778975999996,mp-1192359,Cs2Mn(TeS3)2,https://materialsproject.org/materials/mp-1192359,25.72343777374009,-0.0015466309463203678,-8.604250342815693,-0.5045126942092143
-9.569116672,-47.84558336,10.381453795055421,-2.578883210702,0.0,0.0,1.9715,164,5,81.27007104277466,508.08892000000003,mp-1206128,Th2N2O,https://materialsproject.org/materials/mp-1206128,33.74757111950432,-16.239038646919816,8.831733180457652,-3.924704845648675
-4.791698185,-57.50037822,7.586188907181802,-0.2564345933333338,0.0,0.0,0.0,140,12,255.16022652343517,1165.702,mp-21297,LiSn4Ru,https://materialsproject.org/materials/mp-21297,33.53360763129887,35.491311278945325,-8.604250342815693,-0.5045126942092143
-8.226487383,-164.52974766,5.0286740849559255,-3.4343269069083333,1.0000003,0.04981561693957461,0.05079999999999973,5,20,233.94407185432,708.46180856,mp-1221390,Na2LaCeTi4O12,https://materialsproject.org/materials/mp-1221390,5.143386900070004,-40.88880747299115,3.439500792251884,-2.561745578187702
-5.880089239999998,-123.48187404,8.077215571283734,-1.8362848270833327,6e-07,2.2369099222869888e-08,1.1654,160,21,312.59367191624926,1520.5222,mp-1219089,Sn3TePb4O13,https://materialsproject.org/materials/mp-1219089,-0.9349870970183874,-30.165501269979274,6.888020415531438,-1.0309111251997194
-5.707926232857143,-159.82193452,8.916004306886935,-0.6369889196428582,4.025e-06,7.633204221115117e-08,0.0,62,28,614.5205781314747,3299.572,mp-669722,Nd(Sn2Rh)2,https://materialsproject.org/materials/mp-669722,2.236139680197365,50.04872050160606,-8.604250342815693,-0.5045126942092143
-7.341257653125,-117.46012245,3.2169086453089117,-2.649904953593751,1.99999995,0.109498958133861,2.3266,63,16,212.86165055490548,412.37,mp-19003,MgV2O5,https://materialsproject.org/materials/mp-19003,-23.643938769354467,-54.61005127417543,8.39568707513268,2.3836614698106815
-3.5443625002941173,-241.01665002,2.530900346967844,-1.4898520662811765,3.918981475,0.02707412879978275,0.0,88,68,1686.9264488568883,2571.1185536,mp-1209223,Te3(OF6)2,https://materialsproject.org/materials/mp-1209223,-42.50549092762608,-17.58712707214842,-4.534065865534334,-2.8573916948198366
-3.58183022,-7.16366044,8.115756853863047,-0.061500187500000074,1.6e-06,2.707625058017764e-07,0.0,225,2,68.86663860965484,336.5804,mp-567362,BiTe,https://materialsproject.org/materials/mp-567362,66.56294092699824,23.849430167108284,-8.139285426103408,2.2241420344230507
-4.141285462,-41.41285462,3.5763429247951533,-2.1532292231973797,0.0,0.0,2.4017000000000004,225,10,292.9719540900968,630.9807538,mp-1112909,Cs2YCuCl6,https://materialsproject.org/materials/mp-1112909,13.241291997219706,-12.298847025433485,8.324728734322331,1.2467382496432442
-6.922021376842107,-526.07362464,3.58510110278205,-2.200922711979455,9.999999375,0.0826988407590241,3.016,198,76,1409.2173405597528,3042.49796,mp-1196652,Rb2Mn2(MoO4)3,https://materialsproject.org/materials/mp-1196652,-10.899693179919913,-40.0664696026004,8.725171504677592,-1.1325467278730441
-3.9139994695454554,-86.10798833,2.0170796397829234,-1.6742714228254545,2.99999325,0.05355207077299278,0.3187,15,22,652.8620676676775,793.0405444,mp-756318,Al2CoCl8,https://materialsproject.org/materials/mp-756318,21.448028539352478,-2.1364535643688827,5.042542789183616,-6.2868227371848775
-4.46764394,-49.14408334,2.5070459915474808,-0.9283065667324134,0.0,0.0,2.0423,5,11,291.64466857170584,440.318824,mp-22583,KInP2S7,https://materialsproject.org/materials/mp-22583,63.31182223930256,-2.786395700619222,8.621972491199209,-5.236014942047206
-4.634404565,-18.53761826,5.008022456464082,0.013437180000000382,0.0,0.0,0.0,64,4,99.36875708588889,299.6864,mp-158,As,https://materialsproject.org/materials/mp-158,34.8053900990451,29.51752812452569,2.4130745119135506,-4.749455576377655
-6.10555676625,-48.84445413,7.840833120571003,-2.2299453500000004,0.0,0.0,1.2339000000000002,123,8,158.78710850696345,749.77052,mp-545728,PrBi2IO4,https://materialsproject.org/materials/mp-545728,38.82763775203257,-8.843539156054176,8.203900655995566,-4.486739984806159
-4.29997594,-30.09983158,3.3336472610760186,-2.4312600643942863,0.2094012,0.01879904194062702,1.8723,12,7,129.8138041267826,260.6102128,mp-28163,K2PdF4,https://materialsproject.org/materials/mp-28163,-9.295698890948694,-24.9470257472152,7.736755961352296,0.5257629849625789
-3.0655704760000004,-15.32785238,5.030746514796822,-0.5121137405999999,2e-07,1.6683624816573687e-08,0.8298999999999994,119,5,139.70662731497558,423.2533,mp-1223207,KZnCuTe2,https://materialsproject.org/materials/mp-1223207,55.0494771358666,20.01564406002177,5.562782285009809,-5.799100263471433
-4.45764520375,-35.66116163,6.476700419280509,-0.4923725112500002,1.03240955,0.06102865503656114,0.0,63,8,197.14948265370086,768.954,mp-20754,LiCeSn2,https://materialsproject.org/materials/mp-20754,-0.4181572039284827,45.76713124562124,-8.604250342815693,-0.5045126942092143
-6.560598001000001,-131.21196002,7.426448793815937,-2.0010575513333344,14.999999800000003,0.6297112673689164,1.9087000000000005,1,20,277.60495693206235,1241.536,mp-1217154,TiFe3Bi3PbO12,https://materialsproject.org/materials/mp-1217154,-20.512793669731085,-35.436888273898006,8.947185852378079,-0.05836376061396529