energy_per_atom,energy,density,formation_energy_per_atom,total_magnetization_uB,total_magnetization_T,band_gap,sgr,num_sites,cell_volume,weight,mp_id,formula,URL,tsne_cry_lin1_0,tsne_cry_lin1_1,tsne_cry_lin2_0,tsne_cry_lin2_1
-3.86145787,-7.72291574,6.1908130614935235,-0.2855515825000001,0.0,0.0,0.042799999999999734,225,2,66.06682626009183,246.31,mp-1883,SnTe,https://materialsproject.org/materials/mp-1883,66.98674738528867,23.728701144520112,6.342665591278269,-6.179463441385503
-5.4911014025,-219.64405609999997,7.55741798233722,-0.6073764960000005,1.61375e-05,1.8999760449299832e-07,0.0,57,40,989.8412707309295,4504.949320000001,mp-570885,LaCoSb3,https://materialsproject.org/materials/mp-570885,3.894171290236891,34.483576700113524,-8.604250342815693,-0.5045126942092143
-5.9097986749999984,-330.9487258,5.714703252421456,-0.146741574196428,5.214805625,0.05460688544332444,0.0,1,56,1112.9307602268327,3830.12316,mp-686354,Cr2CoSe4,https://materialsproject.org/materials/mp-686354,23.640543264960364,16.8664481513777,-8.13928536745623,2.22414202200686
-5.8207397614285705,-162.98071332,6.1834309320243,-0.475213323571429,0.0,0.0,0.15869999999999962,14,28,825.8910226551442,3075.41104,mp-29073,Nb2GeTe4,https://materialsproject.org/materials/mp-29073,56.91393121472362,31.637910293720196,-8.604250342815693,-0.5045126942092143
-6.263610095,-50.10888076,9.60756541271672,-0.3676338468749991,8.3307302,0.7238497590262534,0.0,166,8,134.12571896704588,776.0260900000002,mp-1221819,Mn2SnSbPd4,https://materialsproject.org/materials/mp-1221819,45.12545783888281,37.63313236719801,-8.604250342815693,-0.5045126942092143
-6.069922007142857,-42.48945405,5.5610557734710975,-1.3324842334821432,4.0,0.2403063242270821,0.0,12,7,193.98681761778283,649.6514,mp-1077938,Pr2CrSe4,https://materialsproject.org/materials/mp-1077938,26.68854727503466,5.200900034335097,-6.211135520788435,-3.264679376367551
-5.416184931764707,-92.07514384,7.830791612365643,-0.2224161286764712,0.0371395,0.0011194038682995073,0.16019999999999968,204,17,386.6577120891938,1823.40547,mp-30073,La(FeSb3)4,https://materialsproject.org/materials/mp-30073,43.93719573974594,23.5212939897393,-8.604250342815693,-0.5045126942092143
-3.8164197654545458,-41.98061742,6.5833597447912355,-0.13285437772727252,0.0,0.0,0.0,160,11,353.49937910528536,1401.4808,mp-540687,Ge3(BiTe3)2,https://materialsproject.org/materials/mp-540687,66.99132108431944,24.812243675,3.1578007066602147,-5.164422440746907
-4.130112922857143,-115.64316184,5.696490797164646,-0.2397377152380957,4.950409575,0.062239189454138075,0.0932000000000004,62,28,926.9464198318527,3179.89618,mp-651582,Mn(InTe2)2,https://materialsproject.org/materials/mp-651582,57.36826982753392,17.70950068245638,-8.604250342815693,-0.5045126942092143
-4.9776371577272736,-109.50801747,2.2442440154180274,-1.0698173563327926,5.00000065,0.10162439287947288,1.0923000000000005,14,22,573.3892207065828,774.944338,mp-542638,K2Mn(PS3)2,https://materialsproject.org/materials/mp-542638,23.742503639343546,-0.2404832647908187,3.5443017056278725,-5.227633613795368
-5.590003018571429,-39.13002113,7.873032181319628,-0.3185401300000003,3.9234188999999997,0.2821998163541279,0.0,12,7,162.02624998560205,768.2071,mp-1077939,Cr(Te2Rh)2,https://materialsproject.org/materials/mp-1077939,52.99830822837138,32.441369986133445,-8.604250342815693,-0.5045126942092143
-6.5614059266666676,-19.68421778,7.589429972020893,-0.2064552733333341,3.9999998,0.9051213096630012,0.0,216,3,51.50277234858406,235.391445,mp-600124,MnNiSb,https://materialsproject.org/materials/mp-600124,47.88992639437632,42.01764554979695,-8.604250342815693,-0.5045126942092143
-6.275001132000001,-94.12501698,7.170396525235947,-0.4645639596333335,2.2899999999999998e-05,7.19703812253018e-07,0.0,147,15,370.816548068796,1601.22804928,mp-1221437,Na(Nb3Te4)2,https://materialsproject.org/materials/mp-1221437,56.56458608542862,31.803445214898602,-8.604250342815693,-0.5045126942092143
-6.037592966666666,-18.1127789,7.525434224113135,-0.21099085333333295,4.905521299999999,0.8966238289589818,0.0,216,3,63.760588473035746,288.958045,mp-22792,MnTePd,https://materialsproject.org/materials/mp-22792,51.5108855669113,33.295673231714986,-8.604250342815693,-0.5045126942092143
-4.2807210908333335,-51.36865309,2.445704188147268,-1.7686333603212068,10.0001078,0.2793508846798561,0.8392999999999999,139,12,417.1882404000247,614.4504900000002,mp-568008,Rb3Mn2Cl7,https://materialsproject.org/materials/mp-568008,17.897338401188442,-8.298385355200166,6.797009896984326,-2.828589149879005
-5.259433119166666,-63.11319743,6.768343150698478,-0.8656717950000002,5.875e-06,1.8243651880795864e-07,0.0,64,12,375.29564248515663,1529.70188,mp-1101942,LaSb2,https://materialsproject.org/materials/mp-1101942,2.8677312674492685,33.26098808370521,-8.604250342815693,-0.5045126942092143
-3.7535637471428567,-26.27494623,7.123864944535407,-0.1837213764285716,1e-07,4.994702091751799e-09,0.8372000000000002,166,7,233.3285260757613,1001.0008,mp-27948,Ge(BiTe2)2,https://materialsproject.org/materials/mp-27948,66.98049141582833,24.37629512475038,6.075573755100014,-7.119073894208447
-5.667731319512195,-232.37698410000002,5.307684578661163,-0.5636276617378042,35.9187009,0.4687040767004334,0.0,119,41,893.0984125029075,2854.6662,mp-1215748,Zn3Cr12(GaSe12)2,https://materialsproject.org/materials/mp-1215748,21.936945200942844,10.007831133163227,-6.2022939969324735,-1.971217084993499
-4.079001391111111,-36.71101252,3.194292116171828,-1.8371981657748655,2.0000625,0.07805127622206556,0.0,225,9,298.63519281672063,574.4689038,mp-570990,Cs2MoCl6,https://materialsproject.org/materials/mp-570990,11.678504751735106,-8.551390977283944,6.861528616151992,-3.6788080915628747
-3.155615268888889,-28.40053742,4.498783431100408,-0.7929916680459768,2.9999998,0.08417834175339244,0.7190999999999999,225,9,415.33476733588816,1125.2377238,mp-1206848,Cs2TcI6,https://materialsproject.org/materials/mp-1206848,9.609147182971032,-7.569698307273793,5.857978087255275,-4.956648392951107
-4.25110632625,-68.01770122,6.530572672672983,-0.663736950826824,2.42e-05,6.72082677053398e-07,0.0,12,16,419.6334426181572,1650.3356,mp-558796,Ag(Bi2S3)3,https://materialsproject.org/materials/mp-558796,70.70888702752849,23.04153165017503,5.766879651654048,-6.940133249509177
-4.4645287925,-17.85811517,2.5716942728989856,-0.7276208020312511,0.0,0.0,1.4747,39,4,194.7103715977628,301.5499999999999,mp-8781,SnS,https://materialsproject.org/materials/mp-8781,70.47978760587793,24.462569830287773,7.27507109460658,-1.9017871062565344
-3.99641436875,-31.97131495,7.307334361324793,-0.5081358162500003,0.02917185,0.0013411225874964145,0.0,63,8,253.4970573197541,1115.534,mp-1025470,LuTe3,https://materialsproject.org/materials/mp-1025470,57.753602774425566,28.958084575285696,-8.604250342815693,-0.5045126942092143
-3.3379678766666667,-60.08342178,3.777015009651584,-1.3444969431800768,3.0000002,0.0463875676341911,0.7029,140,18,753.6975623339708,1714.3391014000001,mp-29287,Cs3CoBr5,https://materialsproject.org/materials/mp-29287,21.1861154665566,-1.5284301839039751,5.813453907410358,-6.382133168268254
-5.076675207272729,-111.68685456,6.694250105528302,0.1217677827272726,0.0436822,0.0010400882995650603,0.0,163,22,489.4538169699533,1973.17027,mp-675570,Mn3(SiTe3)2,https://materialsproject.org/materials/mp-675570,51.93709635454318,33.63689074786316,-8.604250342815693,-0.5045126942092143
-3.5422493538461537,-46.0492416,5.685492670907617,0.054302482692307315,6.620000000000001e-05,1.893955394902689e-06,0.0,1,13,407.34807695040314,1394.71247,mp-1101132,Te7As5I,https://materialsproject.org/materials/mp-1101132,67.77550394153539,26.25720947470069,-11.340788219467054,-0.6105990246992472
-4.5165144744444445,-40.64863027,4.714487065988043,-0.3976747166666665,13.999773199999998,0.5016968980133475,0.0,12,9,325.2048484254424,923.29901,mp-1221924,Mn2CrI6,https://materialsproject.org/materials/mp-1221924,22.57116566312286,-0.6605140374302778,-8.604250342815693,-0.5045126942092143
-5.046313674166666,-60.55576409,10.254762882630867,-0.43898359583333263,2.5e-08,1.1378389496437198e-09,0.2270000000000003,198,12,256.0569924286916,1581.296,mp-1224373,GeTePt,https://materialsproject.org/materials/mp-1224373,52.10566422777146,30.383101871305648,-8.604250342815693,-0.5045126942092143
-5.2869991375,-21.14799655,4.567541164176277,-0.7984730854218745,2.9999998,0.4129063861352722,0.6795,166,4,84.67341063456493,232.90586928,mp-3332,NaCrSe2,https://materialsproject.org/materials/mp-3332,18.991624548382358,5.949701148095372,4.318659296755492,-2.40309790354418
-4.2033089569444435,-151.31912245,3.9179842762529535,-0.3173840645998267,4.0,0.04040710116393998,0.7650999999999999,8,36,1153.6650179657024,2722.0326,mp-1224595,K4Mo6Se25O,https://materialsproject.org/materials/mp-1224595,66.00405025569549,14.739801815188954,3.3094084630517004,-5.151542443190684
-6.442473061034483,-186.83171877,7.44063918607512,-0.4423606027586206,0.0015930999999999999,2.4753192312812524e-05,0.0,8,29,750.048331323909,3360.85986,mp-1220786,Nb12TlTe16,https://materialsproject.org/materials/mp-1220786,56.57927938010174,31.80471122891861,-8.604250342815693,-0.5045126942092143
-5.405847271931819,-475.71455993,5.68425916176002,-0.5643996036363642,0.00020885,9.70181166456401e-07,1.0785,14,88,2508.759716125113,8587.83808,mp-1218308,Ta2Se8Br,https://materialsproject.org/materials/mp-1218308,51.524846810375074,24.32344185704979,5.363427270184655,-5.798264668903086
-4.731669901666667,-56.78003882,6.132194689947431,-0.4539526583333332,0.0,0.0,0.04300000000000015,63,12,442.1951974200032,1632.98,mp-1168,HfTe5,https://materialsproject.org/materials/mp-1168,57.02759795683628,28.574411531980353,-2.5594442576235825,-2.2589475135141357
-4.704843825833334,-56.45812591,11.413313265359635,-0.33901417083333324,1.75e-07,6.591443760277967e-09,0.0,198,12,309.41041285800793,2126.6576,mp-29638,BiTePt,https://materialsproject.org/materials/mp-29638,49.906959643418894,29.722254396436917,-8.604250342815693,-0.5045126942092143
-6.99352526142857,-48.95467683,6.587088716109821,-0.7333852834821418,3.1683281,0.2645559836905447,0.0,12,7,139.56932813627623,553.64886,mp-7443,Nb2CrSe4,https://materialsproject.org/materials/mp-7443,48.148995575342795,23.078340728244985,-8.604250342815693,-0.5045126942092143
-4.213190663333333,-75.83743194,6.449789941514204,-0.6748016568865746,0.0,0.0,0.5369000000000002,12,18,460.915977334299,1790.2687999999996,mp-23474,AgBi3S5,https://materialsproject.org/materials/mp-23474,70.64895743507572,23.16794709639791,5.9249136882884565,-7.028699957846742
-3.957536255,-31.66029004,6.131198136371076,-0.07495558749999988,0.0,0.0,0.4144999999999994,225,8,216.9274781039148,800.96,mp-2612,GeTe,https://materialsproject.org/materials/mp-2612,68.33077919824615,26.577616609073488,6.118146861809279,-7.197519400290282
-5.84760157,-23.39040628,6.9966229118823895,-0.04647857000000055,2.00313605,0.2680966437397667,0.0,129,4,87.07560433919251,366.89,mp-21273,FeTe,https://materialsproject.org/materials/mp-21273,54.92994364742454,35.255427464042306,-8.604250342815693,-0.5045126942092143
-6.4463638933333325,-19.33909168,10.065862605882392,0.0014442333333342106,4.0065799,0.7613156040167178,0.0,216,3,61.331912054189814,371.782045,mp-567480,MnSbPt,https://materialsproject.org/materials/mp-567480,48.54091698283046,42.06519817214228,-8.604250342815693,-0.5045126942092143
-4.89688384,-39.17507072,6.4260298471307635,-0.923226455,7.929999999999999e-05,3.7909059045114273e-06,0.0,63,8,243.7853536180267,943.4117,mp-945077,YTe3,https://materialsproject.org/materials/mp-945077,-9.836779584535574,24.060983729586617,-8.604250342815693,-0.5045126942092143
-6.463511280833332,-155.12427074,6.111695825238421,-2.101163205939375,5.000000099999999,0.0974566200741532,1.9432,186,24,597.9103829362026,2200.63865,mp-16841,La4MnSe6O,https://materialsproject.org/materials/mp-16841,46.48583716717074,1.69535314251569,7.3167177319929015,-1.4566891306525505
-4.197987975652174,-386.21489376,5.021625226109769,-0.7413458810794605,0.000394625,1.2213101605115068e-06,1.0936000000000003,14,92,3765.6161879020397,11387.5752304,mp-667336,Cs4Zr3Te16,https://materialsproject.org/materials/mp-667336,65.43787799883846,18.354728411077314,7.333845229811693,-6.183114213284379
-4.89363803,-24.46819015,7.697016322143242,-0.7865240300000004,0.0,0.0,0.0,139,5,128.08085624092473,593.687,mp-6963,Ba(SbPd)2,https://materialsproject.org/materials/mp-6963,28.11346436574615,23.691254797808032,-8.604250342815693,-0.5045126942092143
-6.0815743475,-24.32629739,8.839724033265087,-0.8733079737500002,0.0,0.0,0.0,225,4,78.98248303838723,420.45585,mp-5538,YSnPd2,https://materialsproject.org/materials/mp-5538,29.124707888813067,41.26798682797332,-8.604250342815693,-0.5045126942092143
-5.517128006875,-88.27404811,3.2020020457209566,-0.9229617337890632,1.8787326000000002,0.06443450382984961,0.0,59,16,339.80041917505343,655.2339999999998,mvc-14775,V2ZnS5,https://materialsproject.org/materials/mvc-14775,19.9615930835272,12.482444244974545,-6.192241706309723,-3.1629226398822783
-5.6022134700000015,-78.43098858,5.858449475571554,-0.4564324561383931,2.37561465,0.08984965675338517,0.0,11,14,308.13213991158227,1087.1027599999998,mp-1209948,NbFeSe5,https://materialsproject.org/materials/mp-1209948,49.15036085468055,25.030039999562373,-8.604250342815693,-0.5045126942092143
-5.6141308510000005,-224.56523404,7.912185686218773,-0.4927378305000005,0.4778946125,0.005867275755045389,0.0,57,40,949.2335116076764,4522.936,mp-1201926,NdFeSb3,https://materialsproject.org/materials/mp-1201926,3.5644225694944165,34.361588193164465,-8.604250342815693,-0.5045126942092143
-3.2967246725,-79.12139214,4.230420945265301,-0.6871727593333331,5.5e-07,7.042167878860625e-09,0.9614000000000004,64,24,910.1935277840724,2318.8264,mp-29835,K2SnTe3,https://materialsproject.org/materials/mp-29835,75.88007380911775,14.75644104769835,8.024929520799262,-5.195358767984237
-4.795700681764706,-81.52691159,3.613906525678061,-0.3617214648860287,3.6644147000000005,0.12092938478646112,0.0,12,17,353.14267365809883,768.56043856,mp-1221377,Na2V3(SeO)6,https://materialsproject.org/materials/mp-1221377,4.3742626521609775,-2.7434957044665795,-8.604250342815693,-0.5045126942092143
-5.606211353928572,-156.97391791,9.019849453384591,-0.8918635312500011,8e-07,1.5071845875221378e-08,0.0,59,28,618.5872583381107,3360.092000000001,mp-542565,Nd3Sb5Pd6,https://materialsproject.org/materials/mp-542565,23.98490530589685,28.240654220946013,-8.604250342815693,-0.5045126942092143
-3.760066372,-18.80033186,5.954732169421478,-0.1542619497187502,9.1e-05,6.5833149123195136e-06,0.4804000000000004,160,5,161.0920802707396,577.6800000000002,mp-1219475,Sb2Te2Se,https://materialsproject.org/materials/mp-1219475,67.64155030689987,26.033958283032536,4.1190890329395655,-6.040618596033332
-4.6013357497500005,-368.10685998,3.1848660611968844,-1.8259830593611723,10.00000075,0.05164859452681644,1.4307,194,80,2256.41486537715,4327.738735200001,mp-568508,CsRb(MnCl3)2,https://materialsproject.org/materials/mp-568508,17.961875834913307,-7.8787178177337776,7.863645220717781,-4.366544277424799
-4.761428796666666,-14.28428639,3.1838997695995586,-1.1055845221733336,3.9999995999999998,0.7051739784631899,0.5400999999999998,164,3,66.10603319510638,126.751,mp-571096,FeCl2,https://materialsproject.org/materials/mp-571096,18.96773737219365,-0.3692746006924621,5.680490975599442,-5.513245353897057
-6.427206185,-51.41764948,6.340684112948781,-0.03764668999999987,3.9110301,0.24226948722096034,0.0,62,8,188.1351161290081,718.3843999999998,mp-1079818,CrTe,https://materialsproject.org/materials/mp-1079818,53.843876509251736,33.907873725763906,-8.604250342815693,-0.5045126942092143
-5.6249656875,-22.49986275,11.081767701866667,-0.90207814625,9.000000000000001e-07,1.3819294200097875e-07,0.0,225,4,75.89865403711742,506.51700000000005,mp-5181,LuSnPd2,https://materialsproject.org/materials/mp-5181,29.28076292225276,41.230502644549375,-8.604250342815693,-0.5045126942092143
-6.520394812352941,-221.69342362,5.525380041304602,-0.4996935691727938,22.01791785,0.3700767260126345,0.0,12,34,693.3649774345386,2307.1454,mp-1226358,Cr7Se10,https://materialsproject.org/materials/mp-1226358,23.92073779789026,17.103711816047173,-8.604250342815693,-0.5045126942092143
-3.762791621818181,-41.39070784,6.045086403084452,-0.037571454999999664,1.6100000000000002e-05,5.566702413780963e-07,0.026400000000000645,12,11,337.0585112897573,1227.04,mp-1224415,Ge3(SbTe3)2,https://materialsproject.org/materials/mp-1224415,67.86957652962252,26.24136297677114,4.724073566292351,-6.495029129400541
-4.355274797272728,-191.63209108,3.958046294228523,-0.6883921370511362,4.99995005,0.04112544010200372,1.0268000000000002,130,44,1416.8782534055858,3377.25858,mp-669410,K2Mn(SnSe3)2,https://materialsproject.org/materials/mp-669410,25.01602252782856,0.7770272322649757,6.493413351375656,-6.420976937718445
-3.23829516,-77.71908384,3.870186240463908,-0.6461951100574712,5.000843675,0.05232933092940612,0.5623999999999999,14,24,1113.7187323208314,2595.72272,mp-1209403,RbFeI4,https://materialsproject.org/materials/mp-1209403,21.64750795254968,-1.4033920598554863,5.089601524154069,-5.386601903893511
-4.4871671305000005,-89.74334261,4.6186558064065935,-1.429616858456,4.999999725,0.11080320099195504,1.9325000000000008,62,20,525.8902282269031,1462.7213800000002,mp-570300,MnTlCl3,https://materialsproject.org/materials/mp-570300,17.534082536017,-7.359958555045693,6.750789130243407,-1.9433454830435857
-4.830397035,-19.32158814,7.936626459239759,-0.7089158062500003,0.0011605,0.00017252467939318677,0.0,225,4,78.39192755566788,374.67800000000005,mp-1183547,CaSbPd2,https://materialsproject.org/materials/mp-1183547,28.63525353990687,41.4877844980496,-8.604250342815693,-0.5045126942092143
-4.452456005,-35.61964804,7.279986133885043,-0.9387784850000004,0.00047095,2.2208771504676918e-05,0.0,63,8,247.13126538679435,1083.4507,mp-1084847,TbTe3,https://materialsproject.org/materials/mp-1084847,-9.853169764959762,24.141321777064533,-8.604250342815693,-0.5045126942092143
-4.765397756666666,-14.29619327,2.932922246063713,-1.1095534821733335,3.9999796,0.6495839245394291,0.012400000000000187,166,3,71.76289250133355,126.751,mp-23229,FeCl2,https://materialsproject.org/materials/mp-23229,18.97045161818468,-0.3717352118525731,5.715404426046394,-5.5176250516972605
-4.221728491,-42.21728491,3.805679887873398,-1.2091632770689649,4.999999900000001,0.17566382442885098,1.182,194,10,331.7149839293928,760.2356900000001,mp-29763,RbMnBr3,https://materialsproject.org/materials/mp-29763,16.998082152396993,-7.983821255513284,4.942474922630137,-4.867523748288437
-3.8572223432142856,-108.00222561,3.809907590657508,-1.295140835431034,4.0017427,0.04965648157999695,0.0,194,28,939.1839120495492,2154.8448,mp-650503,Rb3V2Br9,https://materialsproject.org/materials/mp-650503,10.096594628410001,-5.858572559914245,4.115407120174755,-5.010493150274355
-4.271423356818182,-93.97131385,1.9495524767403545,-1.85267612828,2.9999999,0.052824031548066516,1.6263,15,22,661.8615074932178,777.0571544000002,mp-568443,Al2VCl8,https://materialsproject.org/materials/mp-568443,12.279991700249155,-8.898776845359965,6.564678755642718,-5.085971288935181
-6.37475761225,-254.99030449,7.964755477150361,-0.3901396757499995,3.25e-07,3.3981748545335502e-09,0.0,62,40,1114.5898057684853,5346.11656,mp-505206,Ta3SiTe6,https://materialsproject.org/materials/mp-505206,56.3188707522708,31.66889092011631,-8.604250342815693,-0.5045126942092143
-2.9645658175,-11.85826327,5.687300879065026,-0.15539006249999998,0.0,0.0,1.6333999999999995,164,4,111.21283974458522,380.90094,mp-570081,CuI,https://materialsproject.org/materials/mp-570081,16.584094096653196,-11.524046922576686,7.494321714598626,-1.7538652691820271
-2.5721428563888886,-92.59714283,4.457200479155078,-0.7581914864655173,0.0,0.0,1.1296,62,36,1548.0019537309768,4155.12968,mp-29936,Rb2PdI6,https://materialsproject.org/materials/mp-29936,9.206975302541167,-5.81384871514662,7.218783136583035,-6.181541476055558