energy_per_atom,energy,density,formation_energy_per_atom,total_magnetization_uB,total_magnetization_T,band_gap,sgr,num_sites,cell_volume,weight,mp_id,formula,URL,tsne_xrd_lin1_0,tsne_xrd_lin1_1,tsne_xrd_lin2_0,tsne_xrd_lin2_1
-7.5077567975,-60.06205438,3.8595879682068666,-2.9432742010416666,0.10972839999999999,0.017120032505470617,0.0,186,8,74.69506150649602,173.6136,mp-755000,LiTiO2,https://materialsproject.org/materials/mp-755000,5.674126048736834,-58.22232628313263,-25.886248921853234,-70.21383392229299
-5.104067405714285,-71.45694368,4.974134632990366,-1.3555364260714282,1.9999991999999998,0.15989133353891113,0.0,166,14,145.7747565548655,436.6674,mp-774694,Li2Ni3SnO8,https://materialsproject.org/materials/mp-774694,16.877291123896818,-76.87584528431516,-8.45942950733183,-73.29305841963881
-6.6014623825,-26.40584953,3.719463595681772,-2.1416618471150004,4.0000002,1.1122580325158915,1.1382000000000003,8,4,41.911373133091466,93.877845,mp-25542,LiMnO2,https://materialsproject.org/materials/mp-25542,6.397982597916519,-56.955779144621445,-5.526647085246767,-62.17371579245261
-5.690013532,-56.90013532,4.636407128083817,-1.3925688502499995,1.9999919999999998,0.23264207919081425,0.0,12,10,100.18839409307304,279.736985,mp-752635,Li(CoO2)3,https://materialsproject.org/materials/mp-752635,9.042936332301133,-67.05356710785836,-4.026191532182678,-69.97630097324354
-8.230820460833334,-98.76984553,5.81602540210961,-0.3713853636899991,0.0685185,0.006632911681709789,0.0,36,12,120.38740683379557,421.65598,mp-1246070,VCo2N3,https://materialsproject.org/materials/mp-1246070,-70.05175316592975,2.7959644186735098,-67.41598962758793,4.244375571889382
-5.417038186875,-86.67261099,3.99192044082986,-1.725840199375,10.000000300000002,0.8252218596626655,0.2906,2,16,141.22341750551286,339.49978500000003,mp-1174143,Li5Co3O8,https://materialsproject.org/materials/mp-1174143,20.76886997734249,-79.07256083073085,-9.442472594386736,-87.04106962023054
-5.7848718282142855,-161.97641119,4.066522998441377,-1.844358633372144,10.60130875,0.4839960023939308,0.0,12,28,255.26727129007602,625.12847,mp-1174592,Li4MnCo2O7,https://materialsproject.org/materials/mp-1174592,5.2004870054596335,-69.72232951094668,-22.273211642134523,-73.97644189206679
-7.407578429375,-118.52125487,3.8591822014905866,-2.8743409587500004,1.0,0.07731813597050048,0.0,166,16,150.72873429082819,350.3017,mp-760347,Li4Ti3VO8,https://materialsproject.org/materials/mp-760347,4.391899848082309,-66.5653394449469,-10.52305022696166,-65.32790112333339
-2.4966639616666666,-29.95996754,6.63123465358479,-0.0761032594444444,1.85e-06,8.967023733601804e-08,0.0,194,12,240.43674322444744,960.1656,mp-1094121,MgAg2,https://materialsproject.org/materials/mp-1094121,-56.679870547994824,-27.77160845531202,-51.98413838767488,-22.955566289706173
-6.450446598571429,-90.30625238,4.404193632618466,-1.9184188114285712,12.0000004,0.9011942244474488,0.7331000000000001,166,14,155.1816224944051,411.583165,mp-1177871,Li2NbCo3O8,https://materialsproject.org/materials/mp-1177871,1.7473473036527092,-62.70577413541479,-11.9132941894642,-61.9947147589624
-6.902958576666666,-165.67100584,3.980180688133955,-2.435144168541667,5.000000366666667,0.2574780236270109,1.3286000000000002,2,24,226.3118510664328,542.4516,mp-867715,Li2VCrO4,https://materialsproject.org/materials/mp-867715,2.8436016435806906,-66.56995917892938,-10.0120919000348,-65.61359634128146
-6.97801387642857,-97.69219427,3.990208963084084,-2.159466055205715,7.999999099999999,0.6264357429569073,0.0,166,14,148.83012142912276,357.632835,mp-756678,Li2Mn3VO8,https://materialsproject.org/materials/mp-756678,0.40141399278210704,-67.49622314040097,-15.140486860085412,-65.62926659898126
-2.416626725625,-38.66602761,3.937292739334501,-0.099124920625,2.5e-08,9.18372490301601e-10,0.0,88,16,317.2477642686248,752.2239999999998,mp-574266,MgGa,https://materialsproject.org/materials/mp-574266,-35.6542696192656,-11.153054276399784,-39.475137109345994,-15.14817608757114
-5.69424249625,-91.10787994,3.927979078507296,-1.8628942106850008,9.9999999,0.8216729204012005,0.0,8,16,141.83337878932025,335.504635,mp-1174137,Li5Mn(CoO4)2,https://materialsproject.org/materials/mp-1174137,17.959176761449722,-74.46438918553477,-14.55724485985678,-77.82765778619124
-6.684231656666667,-40.10538994,3.5534832339147693,-2.309110178633333,4.0,0.5545998764229798,0.0,59,6,84.05385769448979,179.87169640000002,mp-752469,MnOF,https://materialsproject.org/materials/mp-752469,32.218829815065604,-41.4421860847439,0.14137033684886766,-74.64664341891861
-5.3831694,-43.0653552,4.300971645311907,-1.7281375846425,3.00000015,0.29212445925379443,0.1714,38,8,119.68253584481278,309.99041919999996,mp-867369,TcF3,https://materialsproject.org/materials/mp-867369,19.984083870981024,-29.69307046378321,6.542632488543493,-37.9604607035081
-5.8389276033333335,-87.58391405,4.234102337817432,-1.7845926460000006,14.0146345,1.0962335377635002,0.0,166,15,148.98965649232466,379.8992,mp-771398,Li3Fe3CuO8,https://materialsproject.org/materials/mp-771398,4.2975977173370135,-66.4565788067239,-7.915511319419738,-67.28131607086925
-6.300669595625,-201.62142706,4.118031847638098,-2.160206558125,18.00000095,0.6930957421742162,1.6826,2,32,302.66118259417544,750.5806,mp-768692,Li4CrFe3O8,https://materialsproject.org/materials/mp-768692,3.145886818800562,-65.37428136226251,-10.419739407776682,-64.86852862417561
-6.196040768333333,-148.70497844,3.930391705539445,-2.061774867451666,16.0000005,0.8499531165463432,0.4965000000000002,1,24,219.38273836286427,519.265175,mp-1175264,Li7Mn4CoO12,https://materialsproject.org/materials/mp-1175264,0.4781490079765295,-80.50443242059606,-28.33264717270607,-79.30850279630455
-7.020424555,-393.14377508,3.9307878707892177,-2.201876733777144,12.000000175,0.23141516734648265,0.9394,19,56,604.3198503959394,1430.53134,mp-1177922,Li2Mn3VO8,https://materialsproject.org/materials/mp-1177922,4.946022898280546,-74.27017645015653,-6.390109510565928,-66.29652307822563
-5.824183715416668,-139.78040917,3.9690527302652416,-1.8767848786216668,18.0000005,0.9509695799972694,0.0,8,24,220.588729803228,527.2554749999998,mp-1175220,Li7Mn2(CoO4)3,https://materialsproject.org/materials/mp-1175220,5.164831415593522,-70.45993007069595,-22.66243903792603,-74.20625940285579
-4.63588657826087,-106.62539129999999,4.191323383826571,-0.8469121831086963,2.0000001,0.08641200243920984,0.5109999999999999,2,23,269.73256090116587,680.82493856,mp-761163,Na2(NiO2)7,https://materialsproject.org/materials/mp-761163,9.712098954803373,-53.417683971617244,-3.4464706234025058,-59.68911582369537
-5.931741403999999,-118.63482808,4.003244758501872,-1.9747026684710007,6.9999996,0.4580302653282156,1.1143999999999998,1,20,178.10711413979251,429.38248,mp-1174020,Li3MnCoO5,https://materialsproject.org/materials/mp-1174020,16.33970727543973,-73.13061432340615,-10.946853159312555,-79.08561004916275
-5.864043802916666,-140.73705127,4.101222779247673,-1.9166449661216671,18.0,0.9826369818116756,0.6500999999999997,12,24,213.47981990187088,527.2554749999998,mp-1174493,Li7Mn2(CoO4)3,https://materialsproject.org/materials/mp-1174493,14.233621658457336,-74.02573232527361,-14.273779617345605,-77.15838943476048
-7.259540529285713,-101.63356741,5.165706416033493,-2.32332592,9.999999699999998,0.7526211856104484,2.2918,166,14,154.84635093662928,481.7055,mp-1178047,Li2Cr3WO8,https://materialsproject.org/materials/mp-1178047,2.1097935241108754,-61.63732567969149,-10.595420820936717,-60.96586802918323
-5.740836662272727,-126.29840657,4.941678193947328,-1.711009807045455,0.0,0.0,0.0,12,22,213.77481353539864,636.182775,mp-757593,Li4Co5SbO12,https://materialsproject.org/materials/mp-757593,9.149355387496612,-66.02490744744276,-2.672165641144332,-68.49430519642125
-5.343540734492754,-368.70431068,4.366627391208808,-1.4987870012318838,13.6666666,0.24078231615021234,0.2392000000000003,1,69,661.4780534049518,1739.45214,mp-760155,Li5Co4(NiO6)2,https://materialsproject.org/materials/mp-760155,8.097500543453,-59.683713673955964,-2.858254667916516,-65.46925413394298
-6.177986205333334,-92.66979308,4.275780832613945,-1.8470511134613328,7.0000000999999985,0.5578364004020229,0.0,1,15,146.24082350046032,376.56068,mp-757164,Li3Mn2(CoO4)2,https://materialsproject.org/materials/mp-757164,8.303185628762643,-59.197559201908675,-2.8975522374002725,-65.19154024559961
-5.323756942666666,-79.85635414,4.424636140365128,-1.4666630740639996,5.999999900000001,0.4905242810386076,0.0,166,15,142.55030825772346,379.836445,mp-771310,Li3MnNi3O8,https://materialsproject.org/materials/mp-771310,7.1307225622659445,-68.33615825908049,-6.140142639381545,-68.91205072167367
-6.266927804375,-100.27084487,3.8137051877665646,-2.155278922680001,9.9999999,0.8172315730103775,0.7138999999999998,2,16,142.6041900594932,327.514335,mp-1174741,Li5Mn3O8,https://materialsproject.org/materials/mp-1174741,19.61596339984424,-74.75893836940966,-14.635799847084439,-77.84426580338948
-5.865154722083332,-140.76371333,4.062580802092663,-1.917755885288333,17.9999995,0.9733784877632592,0.8024999999999998,1,24,215.51037208669257,527.2554749999998,mp-1174700,Li7Mn2(CoO4)3,https://materialsproject.org/materials/mp-1174700,1.3394459889770198,-72.83726504165,-20.780686756543087,-76.3492754097131
-6.4410932246875,-206.11498319,3.9109533654093194,-2.1553685161475,26.0013534,1.0151628533714945,0.8268,2,32,298.49541449575264,703.025715,mp-1100553,Li9Mn7O16,https://materialsproject.org/materials/mp-1100553,3.897060091394769,-78.65531914446855,-29.29661623818024,-77.69936494217632
-5.348192595833333,-64.17831115,3.797474733604371,-1.7263283935416671,3.0,0.3309020063220271,0.043300000000000116,12,12,105.6572448933857,241.62679,mp-1173879,Li2CoO3,https://materialsproject.org/materials/mp-1173879,-10.943655031745463,-68.5437778114311,-26.420096031684423,-61.69303205195036
-5.77367611125,-184.75763556,4.112691794644562,-1.8383271478725,25.7054745,1.0262211224336395,0.0,12,32,291.9188255665175,723.001465,mp-1100740,Li9Mn2Co5O16,https://materialsproject.org/materials/mp-1100740,4.528074239652291,-70.38375653027278,-21.35957933982888,-74.08302177564754
-6.49622162590909,-142.91687577,3.1595253212322367,-1.3432731613636355,1.9999997,0.0780830923911746,0.0,186,22,298.5041362364687,567.967,mvc-8154,Cr3O8,https://materialsproject.org/materials/mvc-8154,6.426805080207398,-58.243813583369395,-5.67864060000738,-63.157662926138194
-5.7550366828125,-184.16117385,4.073368191031627,-1.819687719435,25.9999844,1.0280539706476453,0.17289999999999986,1,32,294.73696025147063,723.001465,mp-1176216,Li9Mn2Co5O16,https://materialsproject.org/materials/mp-1176216,3.78692611857302,-77.28289010968227,-27.449630759107126,-77.2792583722065
-5.77535196,-115.5070392,3.8768828193706977,-1.8183132244709996,6.66163605,0.4221313370359947,0.0,12,20,183.91228323164935,429.38248,mp-1174221,Li3MnCoO5,https://materialsproject.org/materials/mp-1174221,6.568341539322832,-80.00045343951764,-25.198536520875173,-73.97139648818595
-6.207372510625,-595.90776102,3.6883156692352457,-2.2042062243808327,43.112568700000004,0.601812316124665,1.0065,1,96,834.8726915006341,1854.382195,mp-1177783,Li32Mn11Cr5O48,https://materialsproject.org/materials/mp-1177783,-11.834696693730988,-68.77066693023512,3.1802789509860125,-81.20201684819972
-8.8819398775,-35.52775951,14.241046246698222,-0.3651403325000011,2e-07,3.4780194770806024e-08,0.0,129,4,67.01552334227836,574.7357599999999,mp-999133,TaPd,https://materialsproject.org/materials/mp-999133,-77.54611452924966,-1.845005207753216,-53.718197460955295,-37.24413468928185
-11.657946713333333,-34.97384014,16.508112408373794,0.0569618937499996,1.06e-05,3.234459070954312e-06,0.0,164,3,38.192811805370866,379.6907,mp-1008625,W2C,https://materialsproject.org/materials/mp-1008625,-70.60153271927145,2.164646536878493,-58.40715484877757,-32.715856237724665
-5.774880374375,-184.79617198,4.144994128901384,-1.8395314109974992,23.9971483,0.9655454350022532,0.0,12,32,289.643874339552,723.001465,mp-1100738,Li9Mn2Co5O16,https://materialsproject.org/materials/mp-1100738,-1.911748445278648,-76.1881368931286,-20.13772594182684,-76.93548882256304
-6.816034335,-27.26413734,3.8723333492104572,-1.08238520994,0.0,0.0,4.1935,166,4,34.47890532086515,80.40390000000002,mp-1017514,MgSiN2,https://materialsproject.org/materials/mp-1017514,-49.642592052112846,-35.876224390317304,-63.23416680233807,-28.209612458650135
-5.8881963755,-117.76392751,3.962473642765731,-1.9311576399710009,6.9999997,0.453365454616585,0.07580000000000009,8,20,179.93971327323558,429.38248,mp-1174195,Li3MnCoO5,https://materialsproject.org/materials/mp-1174195,6.050709112864988,-71.1793929275696,-22.125163954609604,-73.39462578008713
-5.961821825,-119.2364365,4.6133713217841885,-1.8260210883750003,2.5e-07,1.5517099717568224e-08,0.14070000000000027,12,20,187.76164658149898,521.64639,mp-1222819,Li3CoRuO5,https://materialsproject.org/materials/mp-1222819,-5.544288508964728,-65.59425036660048,-15.685631229978034,-79.36413975731607
-7.493159256666666,-22.47947777,8.399459284940137,-0.5639880903766669,1.0,0.27566290722292863,0.05649999999999977,160,3,42.27650680305366,213.8461,mp-1216189,WNO,https://materialsproject.org/materials/mp-1216189,1.3144232917052088,-62.353216691779274,-13.683664934886695,-59.51639384022547
-5.907469585,-23.62987834,5.211541801855488,-0.538969775,0.002015,0.00033756680335185897,0.0,225,4,69.56531354248895,218.328224,mp-1186942,Sc2GaNi,https://materialsproject.org/materials/mp-1186942,-45.94020174910406,-64.35429171954875,-49.59236798411325,-37.21767312536349
-10.351982856666668,-31.05594857,8.897604106821632,-0.035262956250000116,3e-07,9.188090263623779e-08,0.0,164,3,38.05164437282095,203.8907,mp-1221498,Mo2C,https://materialsproject.org/materials/mp-1221498,-70.66860713239694,2.0574186044601444,-58.48968400337887,-32.73698773422893
-5.844504772142857,-163.64613362,2.4399774204658358,-2.1092820953014284,0.0,0.0,5.183,14,28,212.3428737131485,312.0142344,mp-560196,Al(HO)3,https://materialsproject.org/materials/mp-560196,20.159999532863267,-39.60927916955768,2.523412795939532,-70.6700195902392
-5.733303732272727,-126.13268211,4.512072288390988,-1.630773029318182,3.051943,0.16947356810708444,0.2810000000000001,12,22,209.87072970391617,570.267775,mp-756543,Li4FeCo5O12,https://materialsproject.org/materials/mp-756543,9.318685078193813,-65.15737688483907,-2.9525092433559825,-68.67135304733903
-6.209679375833333,-149.03230502,3.953454832643703,-2.075413474951666,16.0000003,0.8549405417764548,0.5244999999999997,1,24,218.1029331814404,519.265175,mp-1174885,Li7Mn4CoO12,https://materialsproject.org/materials/mp-1174885,13.595901334238697,-81.42878554322435,-16.428442167884743,-85.10707205175305
-5.7550661715625,-184.16211749,4.075571195739486,-1.819717208185,25.999997699999998,1.028610500509641,0.18900000000000008,2,32,294.5776434637544,723.001465,mp-1175789,Li9Mn2Co5O16,https://materialsproject.org/materials/mp-1175789,0.2306531752155011,-80.15637628427713,-27.034443332796542,-78.38021609853418
-6.5780392475,-52.62431398,4.005011850378162,-2.118238712115,4.0000004,0.5988238235220908,0.9005999999999998,9,8,77.84637471115073,187.75569,mp-755562,LiMnO2,https://materialsproject.org/materials/mp-755562,4.90701531613515,-74.81913968242318,-2.4393280281891445,-67.53990242142403
-5.34376052375,-42.75008419,4.873032036838848,-1.5869539617500008,0.0,0.0,0.8346999999999998,194,8,77.64017788618261,227.84352856,mp-867515,NaCoO2,https://materialsproject.org/materials/mp-867515,-7.408477618598081,-56.83910938668309,-58.39160186511555,-20.006119759350653
-5.83150644,-23.32602576,10.897651261942023,-0.6979779749999997,6.7e-06,1.168657490356621e-06,0.0,225,4,66.81361700965336,438.479,mp-977538,ErZnRh2,https://materialsproject.org/materials/mp-977538,-39.86474014568617,-61.1749804979593,-48.17187872109012,-39.52281132125761
-5.8139988916666665,-139.53597340000002,4.012965099932969,-1.866600054871667,15.9999959,0.8546582575105506,0.0,1,24,218.17491019442662,527.2554749999998,mp-1175044,Li7Mn2(CoO4)3,https://materialsproject.org/materials/mp-1175044,13.995073360619518,-84.08037604646749,-15.621847196154391,-88.76045631333817
-3.41384112125,-27.31072897,8.823461435329326,-0.2357321434374997,0.0,0.0,0.0,162,8,127.82414345512736,679.2080000000001,mp-27819,Ag3O,https://materialsproject.org/materials/mp-27819,-71.38283548918507,7.748428381111458,-69.28390007899442,15.746331538215616
-6.4212817459375,-205.48101587,3.9228260075036263,-2.1355570373975,25.9999775,1.0181907431089563,0.0,12,32,297.592002206673,703.025715,mp-1100486,Li9Mn7O16,https://materialsproject.org/materials/mp-1100486,2.3382663869858806,-78.61188175198575,-29.40824916338151,-78.14374463313581
-4.508418366428572,-63.11785713,5.648024674723562,-1.0559408133333332,5e-08,3.259384797923464e-09,0.4831999999999999,88,14,178.77706216192138,608.078,mvc-5984,Mg(AgO2)2,https://materialsproject.org/materials/mvc-5984,0.8922756839133082,-55.18098462751483,-10.846988036693924,-56.298180202143705
-3.3899211800000004,-16.949605899999998,1.2873000207555687,-1.6532873232379999,0.041400900000000004,0.0014443790440210773,0.0,123,5,334.04581175523185,258.9624032,mp-1207045,Ca2Br2F,https://materialsproject.org/materials/mp-1207045,29.510301810550803,-38.608029358781536,4.632282875857389,-63.09928710614273
-7.601029092142857,-106.41440729,4.174268137624492,-2.557349265,8.999999800000001,0.6747266677280571,1.858,166,14,155.45047444974847,390.77187999999995,mp-755986,Li2NbCr3O8,https://materialsproject.org/materials/mp-755986,1.8928653855711988,-62.01851843391333,-11.782122019969563,-61.875139782182075
-5.847938227916668,-140.35051747,4.064431110744622,-1.9005393911216677,18.000001100000002,0.9738219010490926,0.2885000000000004,12,24,215.412262241749,527.2554749999998,mp-1174501,Li7Mn2(CoO4)3,https://materialsproject.org/materials/mp-1174501,16.400132748465413,-71.37168763883238,-12.891849890054505,-78.35718765194919
-7.239424842142857,-101.35194779,3.8878687050049754,-2.3897402885714283,8.9999994,0.7040398079018841,0.955,166,14,148.97818956171224,348.807,mp-1177800,Li2VCr3O8,https://materialsproject.org/materials/mp-1177800,0.6205733672826894,-67.16033112398392,-13.006867438256586,-66.15466885675887
-5.7705679990625,-184.65817597,4.116780125931167,-1.8352190356849996,24.0023211,0.9591799089126124,0.0,6,32,291.6289240339592,723.001465,mp-1100579,Li9Mn2Co5O16,https://materialsproject.org/materials/mp-1100579,4.7832253145365415,-73.1735275436865,-22.935844592124504,-75.01025821069156
-8.020121455714285,-112.28170038,3.6564409974578433,-3.1118461535714297,3.0000004000000002,0.2288372922304714,0.0,166,14,152.78191171783803,336.4197,mp-756158,Li2Ti3VO8,https://materialsproject.org/materials/mp-756158,1.2540989294702185,-64.26431918088534,-17.638831605594557,-64.63254779372058
-6.912613114375,-110.60180983,3.9302020511371016,-2.45895486375,8.999999800000001,0.6884688912865661,0.9598,2,16,152.34759616548402,360.5798,mp-753970,Li4V3CrO8,https://materialsproject.org/materials/mp-753970,3.0006504005056085,-66.24691818645371,-10.235424779700985,-65.42840579853676
-7.01160855,-399.66168735,3.99763680023061,-1.8802743605663157,19.00127673333333,0.33619960981853275,0.32109999999999994,1,57,658.6626020509775,1585.6862099999996,mp-1176651,LiMn6O12,https://materialsproject.org/materials/mp-1176651,6.929221111384015,-66.60149714087962,-7.369985962859834,-66.53064006580988
-7.072811698571429,-396.07745512,3.850682067664304,-2.390975004285715,9.00000045,0.1734613237264112,1.1613000000000002,96,56,604.6684410341344,1402.1868,mp-775461,Li2V3FeO8,https://materialsproject.org/materials/mp-775461,2.9213896321298396,-66.39238002450475,-8.833879795308293,-66.37213555523671
-5.916088684375,-94.65741895,3.7937935329150982,-1.944590100745,10.0000009,0.8031674680403792,0.0,2,16,145.10131803345914,331.5094850000001,mp-1174333,Li5Mn2CoO8,https://materialsproject.org/materials/mp-1174333,16.95963660737186,-82.48375256327957,-9.168216249184054,-87.68613571658979