energy_per_atom,energy,density,formation_energy_per_atom,total_magnetization_uB,total_magnetization_T,band_gap,sgr,num_sites,cell_volume,weight,mp_id,formula,URL,tsne_xrd_lin1_0,tsne_xrd_lin1_1,tsne_xrd_lin2_0,tsne_xrd_lin2_1
-5.632852285499999,-225.31409142,4.645630075568646,-1.7213820291250002,20.9999999,0.7017814356951217,0.1166999999999998,1,40,348.73444438713915,975.641755,mp-764262,Li10FeCo9O20,https://materialsproject.org/materials/mp-764262,23.90568285774089,-73.23023163030014,-7.6749199669207595,-76.73053732021539
-5.811825620714287,-162.73111738,4.193948187221868,-1.8713124258721427,7.00000005,0.32959465690928125,0.3580000000000001,5,28,247.5114577269225,625.12847,mp-1174773,Li4MnCo2O7,https://materialsproject.org/materials/mp-1174773,22.628255421710307,-79.46675312882067,-9.778740461573786,-86.09583084113865
-6.3698791945833335,-152.87710067,3.877819829966132,-2.1421797616583333,18.0,0.9507221023310336,0.0,2,24,220.64614401173682,515.270025,mp-1175332,Li7Mn5O12,https://materialsproject.org/materials/mp-1175332,14.614901718573847,-80.72668800556677,-12.81332063749489,-84.48579533935877
-5.4935563596875,-175.79380351,4.220440372955921,-1.6983576943749998,25.9999326,1.0535274204975849,0.23830000000000015,10,32,287.6098834328166,730.991765,mp-1175491,Li9Co7O16,https://materialsproject.org/materials/mp-1175491,19.59006510396132,-82.47249847558378,-13.082459496884663,-83.19028909947694
-5.502672329166668,-132.06413590000003,4.276885409013944,-1.7421405564583334,14.0000014,0.7851104945788305,0.7315999999999998,2,24,207.81396282194808,535.245775,mp-1174313,Li7Co5O12,https://materialsproject.org/materials/mp-1174313,21.558733296864492,-72.28668107356378,-8.414591452261416,-77.45730339844533
-5.82234406642857,-163.02563386,4.194982729769582,-1.8818308715864291,7.00000005,0.3296759597010303,0.20219999999999996,12,28,247.45041787275383,625.12847,mp-1174564,Li4MnCo2O7,https://materialsproject.org/materials/mp-1174564,19.64583542698966,-82.56133693926232,-15.436526179573796,-82.76766326198597
-5.5172515553125,-176.55204977,4.294538560642948,-1.7220528899999996,21.9999997,0.9070997225828856,0.5103,12,32,282.6474478131773,730.991765,mp-1175447,Li9Co7O16,https://materialsproject.org/materials/mp-1175447,20.215132799295713,-72.50181989639113,-8.424392857032636,-77.30689005512335
-5.2664636109375,-168.52683555,4.596121124250602,-1.6388590180208331,8.000019400000001,0.3350311785328261,0.0,1,32,278.28079964861905,770.2392,mp-760950,Li8TiNi7O16,https://materialsproject.org/materials/mp-760950,23.05612147286003,-71.17618736344956,-8.499146345220584,-76.02615670991226
-6.267057024666668,-94.00585537,4.563467324559767,-2.057700367777778,0.0,0.0,1.7178999999999998,166,15,135.90237909687124,373.484785,mp-757214,Li3TiCo3O8,https://materialsproject.org/materials/mp-757214,8.700071381721926,-68.53548024355203,-4.732671479386106,-68.6071677160794
-5.498683566666667,-131.96840559999998,4.278869170402723,-1.738151793958334,12.0000007,0.6732639618457739,0.06190000000000007,2,24,207.71761649793626,535.245775,mp-1174229,Li7Co5O12,https://materialsproject.org/materials/mp-1174229,21.283311707736548,-72.32805138853601,-9.710328357069272,-78.55078302988017
-5.2888220271428565,-74.04350838,4.791809620398931,-1.3368385650000008,0.00021040000000000002,1.876212812531986e-05,0.0,74,14,130.68961110213914,377.13039,mp-754509,LiCoNiO4,https://materialsproject.org/materials/mp-754509,25.946120357264252,-69.41467534524415,-14.66846764832677,-72.26127738914285
-5.791373496875,-185.3239519,4.179447991332776,-1.8560245334974992,26.0000005,1.0548274945324951,0.5852000000000004,12,32,287.2561546643018,723.001465,mp-1176303,Li9Mn2Co5O16,https://materialsproject.org/materials/mp-1176303,16.498326610853223,-74.66109251670359,-13.73612762741294,-79.42429169965204
-6.273290118333333,-75.27948142,4.350911207909857,-2.070864361041666,4.0,0.4295400948498632,0.4118000000000004,12,12,108.52597848061777,284.3576,mp-753263,Li3Cr2CuO6,https://materialsproject.org/materials/mp-753263,16.255854826656748,-68.8093625448527,-11.221857407678065,-70.62716343064713
-5.83628183875,-140.07076413,4.0722664884143835,-1.8888830019550005,13.9999999,0.7588771248315009,0.03779999999999984,1,24,214.99779122562973,527.2554749999998,mp-1175053,Li7Mn2(CoO4)3,https://materialsproject.org/materials/mp-1175053,15.178370425023044,-82.70806789855706,-16.014071798337827,-87.0955003233839
-5.801627127142857,-162.44555956,4.1560449248769435,-1.8611139323007142,8.00000005,0.3732753246866854,0.15739999999999998,1,28,249.76877012011713,625.12847,mp-1174697,Li4MnCo2O7,https://materialsproject.org/materials/mp-1174697,16.082684109435608,-82.61610617554315,-15.175681263032766,-88.33683189079098
-5.7741556953125,-184.77298225,4.2194332806149735,-1.838806731935,18.000001100000002,0.7372517556295545,0.2326000000000001,1,32,284.53398330183165,723.001465,mp-1176262,Li9Mn2Co5O16,https://materialsproject.org/materials/mp-1176262,22.73202393716003,-79.3267768029592,-9.834841419725397,-86.15779013465038
-6.01354669625,-96.21674714,3.9448814347546937,-2.04204811262,8.0000005,0.6681228841899295,1.0164999999999995,12,16,139.54397643563792,331.5094850000001,mp-1173979,Li5Mn2CoO8,https://materialsproject.org/materials/mp-1173979,19.7853561120748,-71.50144105207423,-12.271574149551162,-76.00505738292793
-5.882686508333332,-35.29611905,4.236154943166294,-1.2379388458333338,2.9999999,0.4988990717956524,0.0,10,6,70.07868951616935,178.775795,mp-755732,FeCoO4,https://materialsproject.org/materials/mp-755732,21.988532672836207,-68.47669025063571,-7.196593262917196,-71.18520296824204
-5.799576822857143,-81.19407552,5.104822616163268,-1.7035305874999995,0.9935398000000001,0.0813820460736272,0.0,166,14,142.27680111213422,437.386785,mp-757136,Li2Co3SnO8,https://materialsproject.org/materials/mp-757136,18.001040145004524,-76.68022935912963,-8.376405878640103,-73.29528483386902
-5.8193250603571425,-162.94110169,4.223762233105777,-1.8788118655150008,7.00000005,0.33193768781608274,0.6107,5,28,245.76436176123931,625.12847,mp-1174780,Li4MnCo2O7,https://materialsproject.org/materials/mp-1174780,21.772131278724693,-75.87916802410307,-14.496348701181311,-79.05242376445673
-7.046133693571428,-98.64587171,5.6395420344939975,-0.4060339327885702,0.0,0.0,1.6596000000000002,227,14,135.08716392059628,458.7846,mp-1020663,Si(GeN2)2,https://materialsproject.org/materials/mp-1020663,-21.790304395429978,1.1567549414637222,-42.72682095082079,-18.99143946278813
-5.759963479375,-184.31883134,4.1277924546091205,-1.8246145159974996,21.9999998,0.8815149649528908,0.0,1,32,290.85090198009516,723.001465,mp-1176203,Li9Mn2Co5O16,https://materialsproject.org/materials/mp-1176203,12.868777628590387,-83.60721119157432,-15.43554506346333,-87.15438277610315
-5.7758999321875,-184.82879783,4.1788289377442815,-1.84055096881,20.000001100000002,0.8112856098351361,0.0,6,32,287.2987089195755,723.001465,mp-1100599,Li9Mn2Co5O16,https://materialsproject.org/materials/mp-1100599,16.315095646676394,-76.86892787777104,-13.911475682006207,-83.26220862320139
-5.7997092503125,-185.59069601,4.1876667316040335,-1.864360286934999,22.0000001,0.8943014899794409,0.7799,1,32,286.6923839829607,723.001465,mp-1175617,Li9Mn2Co5O16,https://materialsproject.org/materials/mp-1175617,15.803429641620495,-76.22390484782173,-11.132959808652151,-82.4014329098153
-5.7667498184375,-184.53599419,4.192451288406351,-1.8314008550599992,18.0000001,0.7325372142398855,0.0,2,32,286.36520164938145,723.001465,mp-1175671,Li9Mn2Co5O16,https://materialsproject.org/materials/mp-1175671,15.019530247947435,-82.05276331097218,-13.851087002604508,-87.30230421892819
-5.815321596785713,-162.82900471,4.153111381654443,-1.8748084019435711,9.00000025,0.41963833847988596,0.1583000000000001,8,28,249.9451938697942,625.12847,mp-1174807,Li4MnCo2O7,https://materialsproject.org/materials/mp-1174807,5.51658961585388,-71.97866823486598,-23.45964667629794,-74.29278309531895
-6.5878945196875,-210.81262463,4.300675044633398,-2.2409996415624995,8.99999955,0.3664185816909339,0.7972000000000001,2,32,286.2479769030317,741.36139,mp-768741,Li4Cr3CoO8,https://materialsproject.org/materials/mp-768741,17.760682173077395,-69.8379702263271,-10.877219598182462,-71.14409756512347
-5.7938006403125,-185.40162049,4.177861751150616,-1.8584516769349992,23.9999999,0.9733173485326506,0.3796999999999997,2,32,287.365219368268,723.001465,mp-1175393,Li9Mn2Co5O16,https://materialsproject.org/materials/mp-1175393,20.169936836305986,-76.01779026429129,-12.938545583431143,-81.2111584510866
-5.1048521025,-102.09704205,4.593220554639703,-1.5054585048750002,0.9899873,0.06575809430837394,0.0,166,20,175.45180163078817,485.3176,mp-753971,Li5Fe(Ni2O5)2,https://materialsproject.org/materials/mp-753971,20.626475805712715,-69.93460320012818,-10.356362938050916,-74.08295503375054
-5.7714637615625,-184.68684037,4.212000969996844,-1.8361147981849992,20.0,0.8177256448004248,0.0,12,32,285.0360593840493,723.001465,mp-1176312,Li9Mn2Co5O16,https://materialsproject.org/materials/mp-1176312,22.890219642929345,-78.66969883034302,-11.340024601159262,-85.23221309213211
-5.76451715625,-184.464549,4.207963436654159,-1.8291681928724997,21.9007431,0.8945816142043114,0.0,10,32,285.30955096993284,723.001465,mp-1100697,Li9Mn2Co5O16,https://materialsproject.org/materials/mp-1100697,18.179005962810574,-77.07854901038867,-14.095478860045118,-81.56727086481915
-5.5245564690625,-176.78580701,4.3694061623272455,-1.72935780375,17.999997399999998,0.7551108521475903,0.0,2,32,277.8044243555711,730.991765,mp-1175405,Li9Co7O16,https://materialsproject.org/materials/mp-1175405,22.176356253711734,-74.82426094573486,-9.399117687015424,-76.34180970048187
-5.7913758871875,-185.32402839,4.238368987197649,-1.8560269238099991,15.9999997,0.6582758119311138,0.16639999999999988,1,32,283.262774486158,723.001465,mp-1175978,Li9Mn2Co5O16,https://materialsproject.org/materials/mp-1175978,19.53916429920508,-79.97660146814583,-13.280501102130618,-86.17135579701721
-8.105627642,-81.05627642,3.667476071772588,-3.0598352575833347,2.0000002,0.2062332278578045,1.5684999999999998,12,10,113.01831483723385,249.6129,mp-752618,LiTi2VO6,https://materialsproject.org/materials/mp-752618,5.2313729187111715,-64.13209049848152,-7.627749277231165,-66.35498099386109
-6.5331301915625,-209.06016613,3.709050901081965,-2.375723104524999,20.0000014,0.8017924427059706,1.1553,2,32,290.70031014542616,649.320625,mp-867683,Li9Mn5(SiO8)2,https://materialsproject.org/materials/mp-867683,13.453449618175455,-84.27458581871224,-9.236060061464164,-86.95358425001548
-5.7695485890625,-184.62555485,4.150240683406518,-1.8341996256849988,24.0000025,0.9668825671997632,0.5044,1,32,289.27771909947734,723.001465,mp-1176212,Li9Mn2Co5O16,https://materialsproject.org/materials/mp-1176212,12.890089663906664,-78.20888433524196,-13.617566156882136,-85.46887122469758
-6.068985675,-72.82782809999999,4.343938914301304,-1.9311970253683333,8.9999996,0.9614295678517284,0.0,12,12,109.09439630172359,285.38889,mp-756831,Li3Mn2NiO6,https://materialsproject.org/materials/mp-756831,13.133253629469607,-76.44969528217325,-14.611236898076074,-81.1784738944645
-6.3595133025,-101.75221284,4.142002921218353,-2.0398630651800005,14.0000956,1.0723843962755086,0.4749000000000003,2,16,152.14509042754727,379.50653000000005,mp-1174149,Li4Mn3CoO8,https://materialsproject.org/materials/mp-1174149,5.662747511997164,-77.30174005898711,-29.94783729475737,-76.57850073467803
-5.43662314375,-86.98597029999999,4.0643723345390255,-1.7454251562500005,8.0000001,0.6721594555381233,0.0,12,16,138.70595522790512,339.49978500000003,mp-1174003,Li5Co3O8,https://materialsproject.org/materials/mp-1174003,20.89546232372809,-71.97533643168231,-11.777258928287996,-75.92245569201641
-5.787456563928571,-162.04878379,4.064193164974805,-1.846943369086429,8.99999985,0.41065385309563335,0.11240000000000007,2,28,255.41360543499263,625.12847,mp-1174486,Li4MnCo2O7,https://materialsproject.org/materials/mp-1174486,14.110387088032248,-83.94710391689101,-16.3816810263198,-87.39354312991699
-6.712272658125,-214.79272506,3.7761186083938014,-2.53216170375,14.9999976,0.6264084772963763,2.8319000000000005,10,32,279.06861090567685,634.6109,mp-756673,Li9Cr5(SiO8)2,https://materialsproject.org/materials/mp-756673,21.067471470864227,-71.61939847818667,-11.318475473829539,-75.88664426530562
-5.4978248846875,-175.93039631,4.224293813748189,-1.7026262193749997,24.0000169,0.9733779800810604,0.027499999999999858,12,32,287.3475229754373,730.991765,mp-1175514,Li9Co7O16,https://materialsproject.org/materials/mp-1175514,13.755876755502827,-78.05269753883317,-14.113319940412605,-83.66288902539092
-5.7883011246875,-185.22563599,4.217177686376371,-1.8529521613099995,19.9999995,0.8187306416076887,0.4668999999999999,2,32,284.6861687825372,723.001465,mp-1175386,Li9Mn2Co5O16,https://materialsproject.org/materials/mp-1175386,17.341352749116485,-79.52405224076762,-10.687570949842186,-86.5711246946761
-5.87406553,-140.97757272,4.115379545626084,-1.9266666932050007,14.0,0.7669113571933117,0.7088000000000001,10,24,212.74545654525951,527.2554749999998,mp-1174874,Li7Mn2(CoO4)3,https://materialsproject.org/materials/mp-1174874,18.163863688962127,-78.90611199234064,-9.537834260832293,-88.60552589536104
-5.5051282940625,-176.16410541,4.326279424704904,-1.7099296287499994,17.1910855,0.7140583779045944,0.0,12,32,280.5737319622627,730.991765,mp-1175471,Li9Co7O16,https://materialsproject.org/materials/mp-1175471,22.030343143436635,-75.02959581248541,-10.21664035968824,-80.25193393276274
-5.79164422125,-185.33261508,4.235766572797709,-1.8562952578725,22.000001,0.904573538203436,0.3392999999999997,1,32,283.43680842089464,723.001465,mp-1175963,Li9Mn2Co5O16,https://materialsproject.org/materials/mp-1175963,20.287829667698272,-72.51794801496393,-8.0566684768169,-77.1507526699814
-5.760593534375,-184.33899309999998,4.12223525378456,-1.8252445709975,22.0000001,0.8803282032171728,0.0,2,32,291.24299917319547,723.001465,mp-1175856,Li9Mn2Co5O16,https://materialsproject.org/materials/mp-1175856,13.466896863915473,-82.77740246200202,-15.658836183051474,-87.53160724560647
-5.7591430265625,-184.29257685,4.126583344985328,-1.823794063184999,22.000000699999998,0.8812567883544768,0.0,2,32,290.9361227536196,723.001465,mp-1175854,Li9Mn2Co5O16,https://materialsproject.org/materials/mp-1175854,13.446646775356514,-82.86769269724594,-16.47868931475288,-87.8803593129348
-5.7936092759375,-185.39549683,4.251990417442574,-1.85826031256,20.000000399999998,0.8254892864685863,0.5705,10,32,282.3553302671356,723.001465,mp-1100734,Li9Mn2Co5O16,https://materialsproject.org/materials/mp-1100734,21.961849080832238,-75.1210737827671,-10.214780065129592,-80.08847313975579
-5.787537613214285,-162.05105317,4.078288731485854,-1.8470244183721425,9.00000005,0.4120781052611586,0.16649999999999965,2,28,254.53083334594442,625.12847,mp-1174490,Li4MnCo2O7,https://materialsproject.org/materials/mp-1174490,14.073516147663293,-83.96463724831294,-17.360144101833733,-87.75893196897361
-5.775523318214287,-161.71465291,4.0648900669610715,-1.8350101233721443,9.00001035,0.4107247485839766,0.1528999999999998,2,28,255.36981624364554,625.12847,mp-1174482,Li4MnCo2O7,https://materialsproject.org/materials/mp-1174482,14.073454080580113,-84.04509308249618,-16.33326268932347,-87.52595924529005
-5.431762764,-81.47644146,4.500570570927931,-1.5079308320000004,8.0000002,0.6575107936082885,0.0,12,15,141.79618253815875,384.311185,mp-777820,Li3Co3NiO8,https://materialsproject.org/materials/mp-777820,7.235124742244098,-69.10733943414,-5.8893444889203135,-70.23221585156655
-6.8228145353125,-218.33006513,3.913257759999781,-2.5689128546875004,8.99999965,0.3648605089132321,3.1804999999999994,2,32,287.4703518518025,677.4580771999998,mp-768808,Li4AlCr3O8,https://materialsproject.org/materials/mp-768808,16.767754480768527,-70.06941475415273,-11.027720177061193,-70.83809483530746
-5.7918808453125,-185.34018705,4.237602360189453,-1.8565318819349992,16.0,0.6581567567675691,0.1471,1,32,283.3140197127932,723.001465,mp-1175953,Li9Mn2Co5O16,https://materialsproject.org/materials/mp-1175953,19.470711964626886,-80.00979538645774,-11.25073214454456,-86.65238495838535
-5.5028495521875,-176.09118567,4.2682469735651,-1.707650886874999,24.0000016,0.9835052087351536,0.0,12,32,284.3885021693419,730.991765,mp-1175436,Li9Co7O16,https://materialsproject.org/materials/mp-1175436,19.725471340041835,-72.17757198875337,-9.400473800644855,-77.13689582196855
-5.7827490765625,-185.04797045,4.180264781983767,-1.8474001131849995,21.9999999,0.8927207508748198,0.07989999999999986,1,32,287.2000270853551,723.001465,mp-1176025,Li9Mn2Co5O16,https://materialsproject.org/materials/mp-1176025,17.369124665325064,-78.34443578005784,-13.280822910917676,-85.17346409078706
-5.7594946125,-184.30382759999998,4.13658743427475,-1.8241456491224997,21.9099523,0.8797773973109628,0.0,1,32,290.2325111424085,723.001465,mp-1176186,Li9Mn2Co5O16,https://materialsproject.org/materials/mp-1176186,12.764894627606832,-83.79402301447578,-15.759115475054731,-86.60399925859406
-5.804577130625,-185.74646818,4.244655301799401,-1.8692281672474989,21.999999300000002,0.9064717099294829,0.6020999999999996,1,32,282.8432636451645,723.001465,mp-1175705,Li9Mn2Co5O16,https://materialsproject.org/materials/mp-1175705,21.924739496144554,-75.04278474779014,-9.04023810171203,-77.45361540028384
-5.8045545075,-185.74574424,4.221418777129934,-1.8692055441224988,21.999999399999997,0.9015094142049282,0.6885000000000003,1,32,284.40015596508545,723.001465,mp-1175622,Li9Mn2Co5O16,https://materialsproject.org/materials/mp-1175622,14.033496973810193,-74.52315575821024,-9.714129080056113,-78.2154758909355
-4.776737854375,-152.85561134,4.835585661632649,-1.0314275780468742,4.00000035,0.15038349132717838,0.0,1,32,309.98258357855144,902.6872,mp-1177872,Li2Ni5O9,https://materialsproject.org/materials/mp-1177872,23.576952910420427,-73.10803248726087,-9.357072869295424,-76.1671875181286
-5.795693582857143,-162.27942032,4.124577828533422,-1.8551803880150013,10.000000199999999,0.4630613892354778,0.17029999999999967,1,28,251.67429797768384,625.12847,mp-1174718,Li4MnCo2O7,https://materialsproject.org/materials/mp-1174718,14.920465922595794,-80.16044031489358,-14.174882750856035,-86.68959982813276
-4.858542402666667,-72.87813604,4.629835969718492,-1.226722323333334,3.9136476000000004,0.3273759671233041,0.0,2,15,139.3196422698741,388.4444,mp-861850,Li3CuNi3O8,https://materialsproject.org/materials/mp-861850,22.50858992769032,-72.59383391833873,-4.575727328400073,-72.82366104874042
-6.58796761625,-210.81496372,4.301277739219728,-2.241072738125,8.99999945,0.3664699273474543,0.8225000000000002,2,32,286.2078678664879,741.36139,mp-768691,Li4Cr3CoO8,https://materialsproject.org/materials/mp-768691,17.779178347976288,-69.85519184254942,-10.896866471454864,-71.1597276602064
-5.7683455121875,-184.58705639,4.154590805717998,-1.8329965488099988,23.9946557,0.9676803851594288,0.04400000000000004,1,32,288.9748268246625,723.001465,mp-1176172,Li9Mn2Co5O16,https://materialsproject.org/materials/mp-1176172,15.196666041247811,-78.1012759084268,-13.689853103441221,-87.90111212548295
-5.7431097678125,-183.77951257,4.13673864112325,-1.8077608044349995,23.6220954,0.948561867574945,0.0,8,32,290.2219025090988,723.001465,mp-1100621,Li9Mn2Co5O16,https://materialsproject.org/materials/mp-1100621,17.331706512404992,-77.31837836960084,-14.06467069858472,-81.77906110262391
-6.2585709975,-100.13713596,3.812203882844974,-2.1469221158050003,10.0000014,0.816909983793528,0.4735999999999998,12,16,142.66034979778505,327.514335,mp-1174554,Li5Mn3O8,https://materialsproject.org/materials/mp-1174554,19.025709558126024,-77.05209228540659,-14.785221966607358,-78.69349394771764
-5.7613330184375,-184.36265659,4.1441347637127945,-1.8259840550599995,24.0000685,0.965462724639492,0.14559999999999995,1,32,289.7039375075927,723.001465,mp-1176160,Li9Mn2Co5O16,https://materialsproject.org/materials/mp-1176160,10.997266617148338,-80.21323501682977,-14.386414224610212,-85.69468055331835