energy_per_atom,energy,density,formation_energy_per_atom,total_magnetization_uB,total_magnetization_T,band_gap,sgr,num_sites,cell_volume,weight,mp_id,formula,URL,tsne_cry_lin1_0,tsne_cry_lin1_1,tsne_cry_lin2_0,tsne_cry_lin2_1
-4.246535734285714,-29.72575014,2.87887521518072,-1.9311474333899503,4.999999400000001,0.27475427301910593,1.3453,139,7,212.0815673949777,367.685645,mp-22978,Rb2MnCl4,https://materialsproject.org/materials/mp-22978,17.758962221805405,-8.114611642838343,6.682393829820845,-2.711370505838251
-5.045404947,-50.45404947,9.389033068588397,-0.2951832469999999,0.0,0.0,0.0,72,10,186.40035814946697,1053.94639,mp-12465,Co(TePd)2,https://materialsproject.org/materials/mp-12465,52.096984489603145,28.01555330482222,-8.604250342815693,-0.5045126942092143
-5.853644392307693,-76.09737709999999,6.407814861695387,-0.2134259046153849,14.151995900000001,0.4969140537929975,0.0,12,13,331.90503593264117,1280.7804999999996,mp-1213754,Cr5Te8,https://materialsproject.org/materials/mp-1213754,54.02442790938862,33.87074550525123,-8.604250342815693,-0.5045126942092143
-5.780562228571428,-40.463935600000006,6.633940237241958,-0.7060169135714288,4.3474373,0.2469057138182171,0.0,115,7,205.2010668580318,819.7889849999999,mp-1223237,La2MnSb4,https://materialsproject.org/materials/mp-1223237,2.8733564548567836,33.485775088415025,-8.604250342815693,-0.5045126942092143
-5.576529498999999,-111.53058998,7.495277928716082,-0.6383485901562509,0.0,0.0,0.3151999999999999,62,20,551.3903368711783,2488.84472,mp-12027,TaTlSe3,https://materialsproject.org/materials/mp-12027,51.16100614033464,23.94686205616453,4.901667313346991,-6.153298337556392
-5.613430260526316,-106.65517495,2.691591077849756,-0.8529136372274443,6.054281,0.17289022499224202,0.0,5,19,408.1027885089716,661.499548,mp-1216601,V3(PS3)4,https://materialsproject.org/materials/mp-1216601,22.953001086734208,-0.682195116682664,-6.721389217990103,1.4752323083480532
-6.29390242,-25.17560968,9.647958815030108,-0.41266976874999983,4.1862894,0.7334271138749112,0.0,225,4,66.51961306219299,386.488045,mp-20481,MnSnPd2,https://materialsproject.org/materials/mp-20481,44.865076096018846,37.73031307236045,-8.604250342815693,-0.5045126942092143
-4.1646624885714285,-29.15263742,5.282203394379414,-0.2742872809523814,5.0000007,0.233163503547028,0.3612000000000002,82,7,249.9118907298927,794.9740449999998,mp-1221979,Mn(InTe2)2,https://materialsproject.org/materials/mp-1221979,57.476249041350094,17.535883575777614,-6.283339935020572,-1.9412302737268277
-5.5566926133333325,-66.68031136,8.568222698858373,-0.9058142908333338,0.0,0.0,0.0,62,12,286.34018878365674,1477.4879999999996,mp-22695,NdSnPd,https://materialsproject.org/materials/mp-22695,3.8939714805816097,49.0576578083846,-8.604250342815693,-0.5045126942092143
-3.9966473471428574,-55.95306286,5.977870652254678,-0.6900832274553578,8.15e-06,2.3029009791722012e-07,0.8384999999999998,15,14,412.4390442983925,1484.7632,mp-28011,Tl2Sn2S3,https://materialsproject.org/materials/mp-28011,71.68605496138213,22.69236995125864,7.138936289463023,-4.6369691887811015
-3.7667072875,-30.133658299999997,6.735782534688448,-0.20469506375,0.0225618,0.0009916890669543939,0.0,166,8,265.1402413793368,1075.5104,mp-1218987,Sn3BiTe4,https://materialsproject.org/materials/mp-1218987,66.91484756039587,24.55577090676682,3.7623911170036752,-5.694439639151758
-5.207339862173913,-239.53763366,7.529359568337238,-1.3481368601417396,2.9999597999999996,0.026266528216709197,0.08360000000000056,36,46,1331.0371867887234,6035.3038000000015,mp-570277,Tb8CrTe13Cl,https://materialsproject.org/materials/mp-570277,-9.957689164238698,24.54421093896878,-8.604250342815693,-0.5045126942092143
-3.932931789,-39.32931789,6.090138540051983,-0.2609821973593746,0.0,0.0,0.2982000000000005,160,10,309.97114266262423,1136.84,mp-1219030,Sn4GeTe4Se,https://materialsproject.org/materials/mp-1219030,67.18525808498316,25.806729674033342,2.89687425741936,-4.942923800918399
-6.099252658571428,-85.38953722,5.099355016200714,-0.7833700647678573,9.994150900000001,0.38647350727205604,0.0,12,14,301.37248671315916,925.4858,mp-973666,KV5Se8,https://materialsproject.org/materials/mp-973666,49.87653740540741,26.35595272922322,-8.604250342815693,-0.5045126942092143
-5.5318511271428585,-38.72295789,7.0133287832043445,-0.7500565150000013,0.831942,0.04970867215366996,0.0,115,7,195.0465690380957,823.7841350000001,mp-1223367,La2CoSb4,https://materialsproject.org/materials/mp-1223367,2.7948006345464695,33.66003854715482,-8.604250342815693,-0.5045126942092143
-6.510192418333332,-39.06115451,10.884045106133666,-0.01973129666666651,0.0,0.0,0.38010000000000055,58,6,132.35130901728814,867.5,mp-2695,Sb2Os,https://materialsproject.org/materials/mp-2695,34.816503704209126,29.04004746922825,2.9291077081539516,-4.963688813764891
-4.780562360208333,-229.46699329,7.164335923403742,-0.4509218254166676,0.0,0.0,0.2357,135,48,944.2563413727247,4073.96,mp-1209912,Pd3Se2S,https://materialsproject.org/materials/mp-1209912,51.05411849557675,24.62733726071053,5.32043728920662,-6.846391301114726
-6.503229043793104,-188.59364227,7.540525728248046,-0.4512053229310351,0.00018419999999999998,2.9466616138713492e-06,0.0,174,29,728.5121308127302,3308.18146,mp-1220809,Nb12TlTe15As,https://materialsproject.org/materials/mp-1220809,56.577691555787275,31.816989041314287,-8.604250342815693,-0.5045126942092143
-6.087471804285713,-42.61230263,6.3746541176776965,-0.5482165558630966,3.9232116,0.36920728204506265,0.0,8,7,123.83656641224412,475.39699999999993,mp-1217350,Ti(FeSe2)2,https://materialsproject.org/materials/mp-1217350,21.60903648641345,15.440631798622869,-8.604250342815693,-0.5045126942092143
-2.9177645075,-128.38163833,6.644791801918927,-0.16113172386363575,0.0,0.0,0.8003999999999998,92,44,1599.8529300825644,6401.95104,mp-28320,Pt3I8,https://materialsproject.org/materials/mp-28320,9.977407441270897,-6.130287868632719,6.260770778393455,-5.743383870819784
-3.0801263131666667,-184.80757879,4.5837082078100275,-0.3366177705000003,4.210000000000001e-05,2.2483850801946234e-07,1.4391,14,60,2182.1712448042613,6023.607999999998,mp-1198778,Te6RuBr8,https://materialsproject.org/materials/mp-1198778,65.89738934965769,17.821640122190434,8.7043463693543,-6.414074828015453
-6.8678074275,-27.47122971,5.520958379281776,-0.3047057917968745,0.34284255,0.05072029820559748,0.0,129,4,78.77535081307137,261.9122,mp-604915,CrSe,https://materialsproject.org/materials/mp-604915,62.3960627478542,33.04821466743924,-8.604250342815693,-0.5045126942092143
-4.295493131875,-68.72789011,3.4172400979951334,-1.6232278775958626,1.0021652,0.0226974551303941,0.0,15,16,514.564213763574,1058.9269038000002,mp-30974,CsWCl6,https://materialsproject.org/materials/mp-30974,14.572734974825938,-6.1209016055252805,-5.631350709881648,-2.6555103138382714
-3.7502869546428568,-105.00803473,2.729932045258641,-1.7276493566042368,3.000005825,0.038660917707411584,0.7333000000000001,62,28,904.3308921739293,1486.7231800000002,mp-23076,Rb2CoCl4,https://materialsproject.org/materials/mp-23076,20.847243558267426,-1.6365380140750896,5.476795221275801,-6.3725695091768815
-5.590821232666666,-83.86231849,3.9715868551939866,-0.8341456735000008,2.9999999,0.12602423226595194,0.0,160,15,277.4243692950341,663.5285,mp-1208142,V3(CuS2)4,https://materialsproject.org/materials/mp-1208142,17.901805293098647,3.7747898845873142,2.393339145630202,-4.7052571637839
-3.662964715,-36.62964715,6.584208265673684,-0.14948727749999974,4.7799999999999996e-05,1.648542856021856e-06,0.005899999999999572,8,10,337.91314195654,1339.8604,mp-1227414,Bi(SbTe2)3,https://materialsproject.org/materials/mp-1227414,67.04917053560119,25.64392267079534,2.993662523958853,-5.013073281050801
-5.478581565,-43.82865252,7.74871993130037,-0.8887250843750003,0.00012869999999999998,7.158718041597191e-06,0.0,129,8,209.517699609495,977.69094,mp-1078519,LaSb2Pd,https://materialsproject.org/materials/mp-1078519,4.448251517126637,34.830034538179156,-8.604250342815693,-0.5045126942092143
-3.751328010862069,-217.57702463,5.831222075610657,-0.05635411974137961,8.82e-05,5.460454137138145e-07,0.0,1,58,1882.423122920848,6610.4,mp-1120824,Ge13Sb13Te32,https://materialsproject.org/materials/mp-1120824,67.28050139635451,25.996552783815943,-8.604250342815693,-0.5045126942092143
-7.260918945,-261.39308202,6.475002565993214,-0.429580270555556,0.012139375,0.0001470488840962564,0.0,55,36,962.0818506571277,3751.48208,mp-1198610,Nb4FeTe4,https://materialsproject.org/materials/mp-1198610,58.09462040170308,32.89512488483062,-8.604250342815693,-0.5045126942092143
-6.2820857725,-25.12834309,9.17654430027304,-0.2508244887500002,4.0257358,0.7653477249758166,0.0,216,4,61.300483740112846,338.76144500000004,mp-1221332,MnNiSnPd,https://materialsproject.org/materials/mp-1221332,46.49428767595904,38.92870664484422,-8.604250342815693,-0.5045126942092143
-6.839736515,-27.35894606,4.984250874847049,-0.5553841392968755,0.0100476,0.0013528399085778616,0.0,129,4,86.55523869920744,259.803,mp-604914,VSe,https://materialsproject.org/materials/mp-604914,62.0494424071419,32.19366127708163,3.6472319190773086,-5.605698459875214
-6.464010962000001,-129.28021924,5.532588002359054,-0.5156297711562502,6.000000099999999,0.17086627451022374,0.0,2,20,409.2345900394798,1363.4888,mp-1226456,Cr2Se3,https://materialsproject.org/materials/mp-1226456,23.937914943671277,17.10367112116419,-8.604250342815693,-0.5045126942092143
-3.4338418535,-68.67683707,5.340963064661585,-0.32499454950000023,0.0,0.0,1.1518000000000002,167,20,689.1035947195044,2216.4349999999995,mp-1205332,Te6RhBr3,https://materialsproject.org/materials/mp-1205332,65.66108693262447,18.058800425951624,8.530818086817177,-6.421254535412708
-7.275975168666665,-109.13962753,6.8412730567079105,-0.4275246679166666,3.6574481,0.13944684034028262,0.0,148,15,305.6658505539645,1259.3161,mp-1103734,Cr(Mo3Se4)2,https://materialsproject.org/materials/mp-1103734,63.5842538275996,33.736636621024296,-6.1126272680327585,0.6231095543312617
-5.85127581625,-46.81020653,9.76022122799705,-0.8805060618749998,1.1900000000000001e-05,8.867359291775921e-07,0.0,166,8,156.39759958986096,919.26485,mp-1215927,YEr(SnPd2)2,https://materialsproject.org/materials/mp-1215927,29.099332048186998,41.30771356518692,-8.604250342815693,-0.5045126942092143
-4.3321167825,-17.32846713,8.280667421204184,-0.4060960648750003,3.2200000000000003e-05,5.278184819485447e-06,0.0,225,4,71.09657931853266,354.53976928,mp-977110,NaSnPd2,https://materialsproject.org/materials/mp-977110,38.23955361704968,32.846175970531114,-8.604250342815693,-0.5045126942092143
-6.0465797016666665,-36.27947821,5.144194370193394,-0.8908579785069447,1.1143129999999999,0.09702257692970884,0.0,10,6,133.84797940703677,414.6485,mp-1216764,TiVSe4,https://materialsproject.org/materials/mp-1216764,47.508876161324366,25.89227795287806,-8.604250342815693,-0.5045126942092143
-5.63490531,-22.53962124,10.53509062187184,-0.8694823337500006,1.49e-05,2.2054185717224016e-06,0.0,225,4,78.735876870541,499.53032,mp-977574,HoSbPd2,https://materialsproject.org/materials/mp-977574,28.67460103331553,41.47581967291366,-8.604250342815693,-0.5045126942092143
-4.256289832592594,-229.83965096,5.7091087505167755,-0.08963124611111084,0.0,0.0,1.0131,218,54,1272.4822714987504,4374.92856,mp-27626,Ge19(AsI)4,https://materialsproject.org/materials/mp-27626,39.577950289762285,12.325674473981048,6.567671236429366,-5.448554155026083
-6.084679992000001,-212.96379972,6.141481517266699,-0.4076429503392855,33.0153551,0.5933195248692062,0.0,12,35,648.4922047850654,2398.43978,mp-1226285,Cr10Co4CuSe20,https://materialsproject.org/materials/mp-1226285,23.844666868182742,17.02065093407367,-8.604250342815693,-0.5045126942092143
-2.9653707775,-35.58444933,5.6380989502878895,-0.1561950224999992,0.0,0.0,1.6308000000000002,156,12,336.5500783967624,1142.70282,mp-570136,CuI,https://materialsproject.org/materials/mp-570136,16.588943728249067,-11.52900993014616,7.505223258491106,-1.7167224585309036
-5.268306223,-52.68306223,4.014944331250188,-0.2607978545848212,4.9898210999999995,0.21779120683836048,0.0,148,10,267.0066397402531,645.583614,mp-8695,MnPSe3,https://materialsproject.org/materials/mp-8695,25.861106939579454,-0.7302147032162076,3.773581576142435,-5.322693859477172
-4.949591793571429,-69.29428511,5.192388455459074,-0.6092188259970241,2.9970072,0.10907905759809723,0.0,44,14,320.2018499400478,1001.2486,mp-1226317,CrAgSn(SeS)2,https://materialsproject.org/materials/mp-1226317,14.933035472040944,2.216404000287321,-5.943464806407057,-0.6160982721614119
-4.567531705,-109.62076092,7.563651336034213,-0.5807721117135412,0.0,0.0,1.0387,186,24,570.842332840748,2600.15107712,mp-28987,NaPt2Se3,https://materialsproject.org/materials/mp-28987,65.02039619694757,15.803618310770894,7.139101334266565,-6.234434750766635
-8.5461942975,-34.18477719,6.010284479160987,1.2539914125000011,18.978556899999997,2.599579477776565,0.0,225,4,85.08196548446517,307.9523,mp-1183881,EuCr3,https://materialsproject.org/materials/mp-1183881,22.155302306756052,17.31026458118517,-8.604250342815693,-0.5045126942092143
-6.124834975,-85.74768965,4.933717304648492,-1.5281600800000013,9.0000005,0.7524466650300115,1.0363000000000002,216,14,139.39405097354802,414.1612,mp-757153,LiFe5O8,https://materialsproject.org/materials/mp-757153,-25.682132804123746,-33.103713161973374,7.201270258522552,-4.032840781808951
-4.698897047,-46.98897047,9.022159833203688,-0.2800133109999997,5.5e-07,2.5992377798483043e-08,0.0,68,10,246.6005870875697,1339.848,mp-20662,Sn4Pt,https://materialsproject.org/materials/mp-20662,33.64981590707057,35.40652173922272,-8.604250342815693,-0.5045126942092143
-5.189372078584906,-550.07344033,4.856887634014759,-0.5616636658254723,0.2105458,0.0008031054826248339,0.0,13,106,3055.2828288144533,8936.35442,mp-1204878,Nb10Se40I3,https://materialsproject.org/materials/mp-1204878,51.484999492731426,24.68121531038238,-6.343295466385121,-3.4626007837301933
-5.5102663825,-66.12319659,12.117006274691846,-0.20877073083333408,5.2125e-05,2.0956581242216285e-06,0.5087999999999999,198,12,289.8698596152464,2115.1896,mp-1227372,BiTeIr,https://materialsproject.org/materials/mp-1227372,50.03964805487952,20.944585485890645,5.834042625872238,-6.0046304928838925
-4.551873285714286,-63.726226000000004,7.660510580988192,-0.9992733971428568,0.00030935,8.591981826371176e-06,0.0,63,14,419.59876199063035,1935.72128,mp-1105026,Ho2Te5,https://materialsproject.org/materials/mp-1105026,-9.865636426038076,24.24932668422507,-8.604250342815693,-0.5045126942092143
-1.993116555,-7.97246622,7.195911826429522,0.12073910874999982,0.00021180000000000003,1.8139009027857723e-05,0.0,225,4,136.07859806659243,589.69381,mp-1008490,BiI3,https://materialsproject.org/materials/mp-1008490,58.469609260025116,26.67637707062809,-8.604250342815693,-0.5045126942092143
-5.604182793928572,-156.91711823,5.106999925600861,-0.3328624552678566,8.798452099999999,0.1581978953797114,0.0,62,28,648.1611555295957,1993.4243600000002,mp-640047,Mn2GeSe4,https://materialsproject.org/materials/mp-640047,26.599758284233875,0.21807063312608213,-8.604250342815693,-0.5045126942092143
-4.977554810357144,-139.37153469,7.230928377119367,-0.6819220510714287,0.001127425,1.5726707624583907e-05,0.0,11,28,835.4631045384331,3638.08,mp-1208933,Sm2Sb5,https://materialsproject.org/materials/mp-1208933,3.4787013283036243,33.32817984858322,-8.604250342815693,-0.5045126942092143
-3.912023606,-39.12023606,9.133918480702956,1.3573578199999994,0.0,0.0,0.0,167,10,179.79576928004406,988.98,mp-685077,Fe2Te3,https://materialsproject.org/materials/mp-685077,21.52299748089323,16.09935903471839,-1.798183688579533,-2.4258951269538924
-5.6320752075,-22.52830083,9.608791382749873,-0.8245520793749996,6.29e-05,8.844404004314553e-06,0.0,225,4,82.88186223021998,479.6,mp-862957,PmSbPd2,https://materialsproject.org/materials/mp-862957,28.684957904896542,41.42711307661777,-8.604250342815693,-0.5045126942092143
-3.834038905,-38.34038905,4.449902962591626,-0.9116754982413788,4.99999945,0.13732351102941776,1.0158,194,10,424.32877674224363,1137.1138138,mp-540609,CsMnI3,https://materialsproject.org/materials/mp-540609,16.920643977088115,-8.031123928047249,5.512011286081672,-6.445208685349487
-4.120222685416667,-197.7706889,3.8601294243861335,-1.2343794168542246,2.999999825,0.019779069230832048,2.0634,62,48,1767.6358715463675,4109.0893228,mp-1196088,Cs3CoI4NO3,https://materialsproject.org/materials/mp-1196088,-10.180005645312503,-45.85019735816058,7.3403822344316785,-1.581395905213688
-4.950716263636363,-108.9157578,6.73338892248388,-0.7351449309090906,0.00010180000000000001,1.765244107431595e-06,0.0,8,22,672.0791695901754,2725.2418199999997,mp-1223161,La6ZnSb15,https://materialsproject.org/materials/mp-1223161,2.9421586556982784,33.09249361045849,-8.604250342815693,-0.5045126942092143
-5.649936031428572,-79.09910444,3.3705362477990017,-1.298972276845239,5.9999995,0.24779720006670336,0.0,166,14,282.183910026034,572.7725,mp-1247291,Mg2V3InS8,https://materialsproject.org/materials/mp-1247291,22.788886683146664,10.903594298355438,-8.604250342815693,-0.5045126942092143
-5.120227973636363,-56.32250771,2.2478094644294933,-1.005677236429383,2.0000005,0.08381456413031546,0.07159999999999966,5,11,278.09170892915614,376.44232400000004,mp-10518,KVP2S7,https://materialsproject.org/materials/mp-10518,24.23117588072579,-1.3082313976177398,-11.322805529746573,-0.29863763625290785
-3.9327433285714286,-110.1168132,4.205807771156312,-1.1418869499014777,3.99978375,0.04507146926365884,1.0076,194,28,1034.2183128322465,2619.4647114,mp-23015,Cs3Mo2Br9,https://materialsproject.org/materials/mp-23015,10.572247346417509,-7.604028369332527,5.839273775452894,-4.392925652492307
-7.2384762175,-202.67733409,6.168872343123224,-1.7617359891071434,13.041857425,0.22016154640187333,0.0,62,28,690.3596639351425,2564.6736,mp-1193935,Eu2BiS4,https://materialsproject.org/materials/mp-1193935,-15.104880222363787,12.702315444104295,-8.604250342815693,-0.5045126942092143
-4.969414233414634,-407.49196714,8.100227415457194,-0.3593594714939027,0.00011659999999999999,7.776793185201671e-07,0.0,12,82,1747.3319916314858,8523.6096,mp-1221008,Nd9Ni24Sn49,https://materialsproject.org/materials/mp-1221008,2.254441514135368,54.72154556316902,-8.604250342815693,-0.5045126942092143
-6.242550241153847,-162.30630627,2.8897979167851315,-2.0476622694940394,5.9999991999999995,0.2589192756892608,0.09379999999999987,166,26,270.06247072939186,469.98350928,mp-644318,NaV3H6(SO7)2,https://materialsproject.org/materials/mp-644318,-17.591627906455653,-48.74707718942348,6.824753187074907,-1.7617449999604249
-6.709402162999999,-134.18804326,6.014467136487287,-1.9582602816875003,3.0000081,0.08677770006282971,0.3826000000000001,62,20,402.8948530589077,1459.2838799999995,mp-1211273,LaCrSe2O,https://materialsproject.org/materials/mp-1211273,20.284568979454406,2.45121246150536,2.510778429737273,-2.8421178230792963
-5.034414583125,-80.55063333,2.9210630040395213,-1.17913131453125,5.0000024000000005,0.16229720599116293,1.1917,7,16,359.03484275463575,631.5800899999998,mp-1105291,Li2MnSnS4,https://materialsproject.org/materials/mp-1105291,24.879589836079226,0.3173214674113057,5.686005067155256,-5.670691884039918
-6.235606505833334,-74.82727807,6.608689459736124,-0.6423365315625004,7.2000000000000005e-06,3.0286691447168717e-07,0.05100000000000016,12,12,277.0499594146783,1102.61614,mp-1220676,Nb3IrSe8,https://materialsproject.org/materials/mp-1220676,48.75749131587028,24.77582767499032,-8.604250342815693,-0.5045126942092143
-5.4648481111764715,-92.90241789,7.893992272764213,-0.21180097294117672,0.0021533,6.538198407698188e-05,0.09890000000000043,204,17,383.8167046935414,1824.616,mp-1181682,Ce(FeSb3)4,https://materialsproject.org/materials/mp-1181682,43.94104027216196,23.52071282516904,-8.604250342815693,-0.5045126942092143