energy_per_atom,energy,density,formation_energy_per_atom,total_magnetization_uB,total_magnetization_T,band_gap,sgr,num_sites,cell_volume,weight,mp_id,formula,URL,tsne_xrd_lin1_0,tsne_xrd_lin1_1,tsne_xrd_lin2_0,tsne_xrd_lin2_1
-5.6262560850000005,-67.51507302,4.83584754467417,-1.237779445,4.9999996,0.3924555363450297,0.0,166,12,148.47623183978692,432.39478499999996,mp-753013,Co3TeO8,https://materialsproject.org/materials/mp-753013,1.1685108373657067,-67.92966030523449,-13.237406132128232,-64.99701294873987
-5.77522033875,-184.80705084,4.139740605005302,-1.839871375372499,23.9999999,0.964436256936222,0.17189999999999994,1,32,290.0114459244376,723.001465,mp-1176021,Li9Mn2Co5O16,https://materialsproject.org/materials/mp-1176021,14.188489750347074,-80.5415374070574,-15.889033527727294,-85.4310930550334
-5.772192859375,-184.7101715,4.1599022171242455,-1.8368438959974995,24.0000003,0.9691333281895012,0.2926000000000002,1,32,288.60586041362615,723.001465,mp-1176120,Li9Mn2Co5O16,https://materialsproject.org/materials/mp-1176120,12.91757097577384,-78.11569386261591,-13.802116494754438,-85.42111142523184
-5.79959894125,-185.58716612,4.200997886635238,-1.8642499778724997,22.0000002,0.8971484426260453,0.7692999999999999,1,32,285.7826142757915,723.001465,mp-1175812,Li9Mn2Co5O16,https://materialsproject.org/materials/mp-1175812,15.55149694317261,-76.14786689195964,-11.117401702569422,-83.81541590593666
-6.9190736759375,-221.41035763,3.948918264715004,-2.4654154253125,8.999999800000001,0.3458737418732737,0.0,2,32,303.25106512611234,721.1596000000002,mp-769615,Li4V3CrO8,https://materialsproject.org/materials/mp-769615,2.4815452952051213,-65.5592991330291,-11.578856233520376,-65.53403731884904
-6.2028503341666665,-148.86840802,3.965103906343853,-2.068584433285,15.9999981,0.8574595535489097,0.4062000000000001,3,24,217.46216885272133,519.265175,mp-1175274,Li7Mn4CoO12,https://materialsproject.org/materials/mp-1175274,12.714662521181527,-79.21446397069772,-18.18038181858585,-83.54793638755167
-5.864970044583332,-140.75928107,4.102258965793325,-1.9175712077883336,16.0000004,0.8736757979010507,0.3466,2,24,213.42589719270143,527.2554749999998,mp-1174530,Li7Mn2(CoO4)3,https://materialsproject.org/materials/mp-1174530,21.70381665357232,-75.1334139185481,-11.983206792233661,-79.12931528857035
-5.629518826666668,-84.4427824,4.78991504459593,-1.7371429846666662,8.0000002,0.5933886042536053,0.7909000000000002,12,15,157.11882540879455,453.21778499999994,mp-772004,Li3Co3TeO8,https://materialsproject.org/materials/mp-772004,2.3231885745827765,-60.98595031759443,-10.468679935009828,-61.250725765991106
-4.652028970625,-74.43246353,4.601646324276262,-0.7618160354687502,0.9999998999999999,0.07014622895790885,0.0,2,16,166.13955989203953,460.40199999999993,mp-1222991,Li(NiO2)5,https://materialsproject.org/materials/mp-1222991,25.117333778779805,-72.71917656695422,-4.65106604722805,-71.84957519851062
-5.50336343875,-132.08072253,4.230212372184627,-1.742831666041667,14.0000001,0.7765426242900993,0.7355999999999998,2,24,210.10682849559888,535.245775,mp-1174494,Li7Co5O12,https://materialsproject.org/materials/mp-1174494,21.72751619599903,-73.01918146790494,-9.909363702369856,-79.75736547274607
-5.98570658625,-95.77130538,3.931191287863772,-2.0142080026199998,7.9999999000000015,0.6658042093283572,0.5960000000000001,10,16,140.02993028404128,331.5094850000001,mp-1174334,Li5Mn2CoO8,https://materialsproject.org/materials/mp-1174334,19.574104031186877,-71.7669252968947,-12.46327672008018,-75.46440884081949
-5.827661519642858,-163.17452255,4.1253959285729085,-1.8871483248007144,10.0,0.4631532270793337,0.7044999999999999,1,28,251.62438888854948,625.12847,mp-1174645,Li4MnCo2O7,https://materialsproject.org/materials/mp-1174645,16.144344703846265,-75.75321592136382,-10.90244060496648,-83.23674473723564
-5.7854134865625,-185.13323157,4.194198495799342,-1.850064523184999,21.997013600000002,0.8955747968380094,0.018299999999999983,2,32,286.24590844046,723.001465,mp-1175721,Li9Mn2Co5O16,https://materialsproject.org/materials/mp-1175721,16.221836887385813,-76.27081144022273,-9.539787727351207,-81.73850669214181
-5.792994153125,-185.3758129,4.212725471987548,-1.8576451897474997,22.0000002,0.8996529392286406,0.2561,12,32,284.98703905414186,723.001465,mp-1176308,Li9Mn2Co5O16,https://materialsproject.org/materials/mp-1176308,16.560915458708642,-71.8313588348108,-8.506836485377606,-79.10603791272385
-6.316910335833334,-75.80292403,4.195328910149508,-2.1926539810416674,4.999999900000001,0.5307187927687368,0.0,12,12,109.79509957316236,277.3958,mp-755724,Li3V2NiO6,https://materialsproject.org/materials/mp-755724,12.908205773892355,-71.19303578564754,-14.17560590061468,-68.0981710730033
-5.7913465471875,-185.32308951,4.189014102989644,-1.855997583809999,24.0,0.9759155183996588,0.4072,1,32,286.60017108867237,723.001465,mp-1175616,Li9Mn2Co5O16,https://materialsproject.org/materials/mp-1175616,17.623483908264497,-75.75963915751059,-11.124519854507703,-82.61911147163461
-5.7495893978125,-183.98686073,4.195519252038165,-1.814240434434999,19.9972674,0.8144145649788646,0.0,10,32,286.155797766024,723.001465,mp-1100690,Li9Mn2Co5O16,https://materialsproject.org/materials/mp-1100690,20.582955171213246,-81.30678290939362,-11.325464631588332,-88.46013996784191
-5.79743547875,-185.51793532,4.222170188814649,-1.862086515372499,22.0000016,0.9016699728644988,0.8255999999999997,2,32,284.3495418044121,723.001465,mp-1175576,Li9Mn2Co5O16,https://materialsproject.org/materials/mp-1175576,19.583142971610435,-82.51033661493997,-11.41107166226285,-88.19740035986031
-5.7605688003125,-184.33820161,4.1041024173055485,-1.8252198369349992,26.0000003,1.0358114386942618,0.0,6,32,292.52977546254823,723.001465,mp-1100584,Li9Mn2Co5O16,https://materialsproject.org/materials/mp-1100584,6.172017671061777,-72.51863039507414,-23.22685678043631,-74.8205890239133
-5.780369203571429,-161.85033769999998,4.062085099668745,-1.839856008729286,10.99999995,0.5016499340342739,0.08509999999999973,2,28,255.54615523321252,625.12847,mp-1174459,Li4MnCo2O7,https://materialsproject.org/materials/mp-1174459,13.6177551194735,-82.49924197571593,-14.190828849290082,-88.03662957480705
-5.83472703875,-140.03344893,4.1158119738058705,-1.8873282019549995,12.000000199999999,0.6574216749071871,0.3682000000000003,1,24,212.72310442346264,527.2554749999998,mp-1175078,Li7Mn2(CoO4)3,https://materialsproject.org/materials/mp-1175078,19.029193829260482,-79.13402096902652,-12.033433073846851,-85.97944512375958
-5.7644443209375,-184.46221827,4.158114368888119,-1.8290953575599989,21.999999300000002,0.8879903723749993,0.0,6,32,288.72995115108563,723.001465,mp-1100582,Li9Mn2Co5O16,https://materialsproject.org/materials/mp-1100582,16.55323434624155,-76.99497446445001,-13.25706867181443,-84.0968747393189
-5.7779457075,-184.89426264,4.167778953448998,-1.8425967441224989,25.6310449,1.0369555690898056,0.0,6,32,288.0604206747033,723.001465,mp-1100612,Li9Mn2Co5O16,https://materialsproject.org/materials/mp-1100612,1.6797325254127244,-72.36243301552037,-20.941113215694553,-74.53634238149729
-5.824603687142857,-163.08890324,4.1294716240080165,-1.884090492300716,10.9999999,0.5099718759050189,0.7581000000000002,2,28,251.37604128708097,625.12847,mp-1174423,Li4MnCo2O7,https://materialsproject.org/materials/mp-1174423,16.474347758654414,-74.91773568069425,-11.18211895005137,-79.18512243272701
-5.8254486225,-93.20717796,4.3632594287801965,-1.7860989813099994,15.999998999999999,1.2644194692093251,0.3969,10,16,147.4708585620655,387.49683,mp-1174024,Li4MnCo3O8,https://materialsproject.org/materials/mp-1174024,2.0167385340315285,-70.27693337895481,-11.04653233950991,-64.08499671284804
-5.7958728475,-185.46793112,4.172033997942791,-1.8605238841224996,25.9999998,1.052956289873246,0.7213000000000003,1,32,287.76662874791765,723.001465,mp-1175783,Li9Mn2Co5O16,https://materialsproject.org/materials/mp-1175783,1.6938676956475591,-72.85508462862245,-21.200223912237345,-76.29201022546779
-5.7965748128125,-185.49039401,4.251021742108662,-1.861225849434999,16.000000099999998,0.6602409717593385,0.43510000000000026,1,32,282.41967024477407,723.001465,mp-1175786,Li9Mn2Co5O16,https://materialsproject.org/materials/mp-1175786,19.574936501768587,-80.0312425653159,-11.475264669427636,-87.51701910310891
-6.416368353214287,-179.65831389,3.909392147018812,-2.155511619937857,10.9999225,0.4954552887556269,0.8073999999999999,2,28,258.73941043218065,609.14787,mp-1174220,Li4Mn3O7,https://materialsproject.org/materials/mp-1174220,11.969367962237339,-82.6666306515216,-18.354402985445567,-86.11847783448476
-5.7867222128125,-185.17511081,4.18095140485177,-1.8513732494349997,24.869936499999998,1.0093434194198612,0.0,1,32,287.1528612402655,723.001465,mp-1175930,Li9Mn2Co5O16,https://materialsproject.org/materials/mp-1175930,12.948476601403131,-72.24304672796931,-12.159879445158431,-81.23333746100799
-5.7812573135714285,-161.87520478,4.048645607375918,-1.8407441187292848,11.00000025,0.4999902285220199,0.2165000000000004,2,28,256.39444152862484,625.12847,mp-1174561,Li4MnCo2O7,https://materialsproject.org/materials/mp-1174561,10.759666806769443,-81.51563555007131,-16.073954256159055,-87.75804130749044
-5.091570599285714,-71.28198839,4.395256655958667,-1.2203658035714289,6.0000002,0.4951328680303619,0.0,12,14,141.2234886452404,373.8024,mp-753978,Li2FeNi3O8,https://materialsproject.org/materials/mp-753978,13.223164088126493,-74.94502829532725,-5.6027776150158966,-70.13332935118426
-5.7875392178125,-185.20125497,4.1871675235631205,-1.8521902544349995,21.9999991,0.8941948404459259,0.5392999999999999,1,32,286.726564402671,723.001465,mp-1175997,Li9Mn2Co5O16,https://materialsproject.org/materials/mp-1175997,19.612859191409168,-82.4880524794718,-12.927430445099723,-83.04919797486734
-5.7902847334375,-185.28911147,4.199483122617035,-1.8549357700599989,20.0000001,0.8152954108752769,0.4725000000000002,1,32,285.8856967763025,723.001465,mp-1175905,Li9Mn2Co5O16,https://materialsproject.org/materials/mp-1175905,17.54606809841414,-78.17426165607492,-10.635431184250372,-83.52400654016493
-5.8054466965625,-185.77429429,4.245320696911668,-1.8700977331849995,22.0000001,0.9066138420318908,0.4769999999999999,1,32,282.79893188824815,723.001465,mp-1175578,Li9Mn2Co5O16,https://materialsproject.org/materials/mp-1175578,19.18741291625683,-73.54577713687809,-9.158606821650547,-77.67416885000245
-6.307506468666668,-94.61259703,4.493357110211009,-1.95719741,5.0000004,0.4253769159746416,0.0743999999999998,12,15,136.9851685320369,370.67679,mp-763114,Li3Cr2(CoO4)2,https://materialsproject.org/materials/mp-763114,24.09490362887012,-68.6631060238394,-15.541625863864304,-72.02454564848591
-6.831622250754718,-362.07597929,3.944880095161708,-1.9472994459320765,47.000057500000004,0.944510240987218,0.0,2,53,579.9214139240257,1377.697475,mp-761797,Li6Mn15O32,https://materialsproject.org/materials/mp-761797,17.001797064374113,-68.06017051081244,-15.436015028240027,-68.49078221088368
-5.801197002142858,-162.43351606,4.134035864131386,-1.8606838073007137,7.99999995,0.3712985754615167,0.1513,1,28,251.09850605240848,625.12847,mp-1174721,Li4MnCo2O7,https://materialsproject.org/materials/mp-1174721,15.083201451305472,-82.82511117306142,-16.231874297956733,-87.32653676745704
-5.7571650096875,-184.22928031,4.113022938200155,-1.8218160463099995,24.0000172,0.9582125270793428,0.0,2,32,291.8953228923785,723.001465,mp-1175706,Li9Mn2Co5O16,https://materialsproject.org/materials/mp-1175706,5.433961972932366,-72.10849669255668,-23.305202434414763,-77.35899163221457
-5.9252874735,-118.50574947,4.050551475280018,-1.968248737971,5.00000015,0.3310306372067589,0.6381000000000001,2,20,176.026986814858,429.38248,mp-1173955,Li3MnCoO5,https://materialsproject.org/materials/mp-1173955,21.949463661493827,-80.45789653655291,-10.333706352997622,-87.10564449062065
-6.183489015,-148.40373636,3.9855997502548983,-2.049223114118333,16.000000099999998,0.8618919176864114,0.08250000000000003,2,24,216.34387525861976,519.265175,mp-1175191,Li7Mn4CoO12,https://materialsproject.org/materials/mp-1175191,17.572840407221978,-75.89251694887395,-11.69822203910846,-82.58165610883142
-6.8231592925,-109.17054868,3.910454869995792,-2.569257611875,8.999999699999998,0.7291983556306676,3.1845000000000003,2,16,143.83820074046068,338.7290386,mp-755500,Li4AlCr3O8,https://materialsproject.org/materials/mp-755500,16.387525213761776,-69.6503461885319,-11.493222362355352,-70.83833304320048
-5.863419384166666,-140.72206522,4.097570514737476,-1.916020547371667,14.0000003,0.7635926157360674,0.4028999999999998,3,24,213.67009967059403,527.2554749999998,mp-1175081,Li7Mn2(CoO4)3,https://materialsproject.org/materials/mp-1175081,17.912721571417638,-78.8795388645883,-9.511699540947204,-88.7063033763652
-5.41181828625,-86.58909258,4.002839081355831,-1.72062029875,10.0000001,0.8274789774857233,0.0,12,16,140.83819898979138,339.49978500000003,mp-1174174,Li5Co3O8,https://materialsproject.org/materials/mp-1174174,16.16159756886591,-79.05148114623796,-14.524874336898556,-76.24804512967226
-5.796994654375,-185.50382894,4.153704140702383,-1.8616456909974997,23.9999991,0.9676893125871592,0.7233999999999998,1,32,289.0365124576925,723.001465,mp-1175728,Li9Mn2Co5O16,https://materialsproject.org/materials/mp-1175728,1.8319529386724305,-73.26185170130152,-21.429464790959848,-76.85842315086613
-6.395025670625,-204.64082146,4.220706812125462,-2.14948940875,10.0000001,0.3998200787320316,0.0,2,32,291.48273208437735,740.8818,mp-768769,Li4Cr3NiO8,https://materialsproject.org/materials/mp-768769,15.044952659331086,-68.7568195618408,-10.778722319593722,-70.06634419254513
-5.8016373403125,-185.65239489,4.221337029929981,-1.866288376935,19.999999399999997,0.8195381401265737,0.5175000000000001,1,32,284.40566344204154,723.001465,mp-1176082,Li9Mn2Co5O16,https://materialsproject.org/materials/mp-1176082,16.34282495143985,-75.16201114862605,-10.324380733586557,-82.61682304506121
-6.4316922771875,-205.81415287,3.9376594996810175,-2.1459675686474995,26.0000172,1.02204241694676,0.0,2,32,296.4709482818365,703.025715,mp-1100538,Li9Mn7O16,https://materialsproject.org/materials/mp-1100538,10.767242360856995,-82.41726486870337,-18.670623673561245,-86.32607505740152
-7.2078969314285715,-100.91055704,3.928082919559799,-2.3743908435714283,3.99999975,0.3171018766128015,1.2555,74,14,147.0071911105198,347.7524,mp-849267,LiVCrO4,https://materialsproject.org/materials/mp-849267,10.987693965873673,-69.84147399435417,-15.827661036222155,-68.22189844219612
-5.82873286,-139.88958864,4.028983044099898,-1.8813340232050009,18.0000002,0.9653286337544872,0.2774000000000001,1,24,217.3075167375996,527.2554749999998,mp-1175085,Li7Mn2(CoO4)3,https://materialsproject.org/materials/mp-1175085,10.886129684395874,-80.50275255671677,-14.653771309567034,-85.36498214478966
-6.4393319115625,-206.05862117,3.932891208693116,-2.1536072030225,25.9999815,1.0208033776551428,0.9342,2,32,296.8303937065516,703.025715,mp-1100540,Li9Mn7O16,https://materialsproject.org/materials/mp-1100540,11.612708141837704,-83.25988096037108,-19.24827333714041,-86.37761866371183
-5.8125127220833335,-139.50030533,4.013913645193064,-1.8651138852883344,18.0000001,0.9617180591689468,0.012199999999999987,1,24,218.12335233961716,527.2554749999998,mp-1175062,Li7Mn2(CoO4)3,https://materialsproject.org/materials/mp-1175062,18.472605524649232,-83.64097903054326,-17.603708673309548,-87.29322082263121
-6.36113015875,-101.77808254,4.173562154763662,-2.041479921430001,13.999999599999999,1.0805478235364256,0.4840999999999998,10,16,150.994614583766,379.50653000000005,mp-1174173,Li4Mn3CoO8,https://materialsproject.org/materials/mp-1174173,5.6401202882848605,-77.30159239063448,-29.8144699722086,-76.50528103599808
-5.857450629000001,-58.57450629,4.360248723342268,-1.5109222942499998,3.0000002,0.3318425784715829,0.3428,12,10,105.35777780392941,276.64879,mp-763429,LiFe(CoO3)2,https://materialsproject.org/materials/mp-763429,7.944173354507179,-67.76800709481046,-5.581569262636322,-69.52697449415814
-6.609335400625,-105.74936641,4.228694155714121,-2.231763239375,7.9999996,0.6458890709803797,2.3441,12,16,144.34756323920485,367.5925,mp-755721,Li4Cr3FeO8,https://materialsproject.org/materials/mp-755721,15.791728813544172,-69.45319065171999,-11.22714698598737,-70.73821107502663
-5.84839848875,-140.36156373,4.064097723444503,-1.9009996519550008,18.0000008,0.9737420065183882,0.3193999999999999,12,24,215.4299330059403,527.2554749999998,mp-1174495,Li7Mn2(CoO4)3,https://materialsproject.org/materials/mp-1174495,16.479005073724856,-71.44853451432495,-12.505073363615208,-78.05776923228538
-5.534127850499999,-110.68255701,4.528651477233521,-1.7752217602470004,12.9999835,0.8391773722985775,0.5467,1,20,180.53710068019203,492.3639782,mp-752861,Li5Co5O9F,https://materialsproject.org/materials/mp-752861,13.28788505645408,-76.55756931587739,-12.664097712284422,-84.58703416419795
-5.777369566785715,-161.76634787,4.0723942191466005,-1.8368563719435715,10.41232135,0.4760542361851052,0.0,8,28,254.89924933347922,625.12847,mp-1174479,Li4MnCo2O7,https://materialsproject.org/materials/mp-1174479,3.7780223426207735,-73.4866688518442,-22.745100645200385,-77.54388114164175
-5.7550289575,-184.16092664,4.16982402096375,-1.8196799941225,21.9999915,0.8904907233963114,0.0,6,32,287.9191430079132,723.001465,mp-1100566,Li9Mn2Co5O16,https://materialsproject.org/materials/mp-1100566,17.13216720685083,-76.51620828326854,-13.059651301869252,-80.82596371558421
-5.88058617875,-141.13406829,4.124956898969259,-1.933187341954999,14.000000199999997,0.7686961321239887,0.7626,5,24,212.25150267873585,527.2554749999998,mp-1174906,Li7Mn2(CoO4)3,https://materialsproject.org/materials/mp-1174906,16.786913032705723,-72.98476790485181,-11.112397918355088,-78.32741736689127
-6.2289189108333325,-149.49405386,4.027775242331411,-2.0946530099516667,14.0000068,0.7621362425771367,0.7261000000000002,1,24,214.07850322373667,519.265175,mp-1175187,Li7Mn4CoO12,https://materialsproject.org/materials/mp-1175187,16.605138346498588,-76.23591892939844,-9.705708021387432,-84.09238609294432
-5.830637255,-139.93529412,4.05725493469975,-1.883238418205,17.9999995,0.9721024307439696,0.20489999999999986,1,24,215.79326770996602,527.2554749999998,mp-1175036,Li7Mn2(CoO4)3,https://materialsproject.org/materials/mp-1175036,15.089244231475398,-79.62765628301747,-14.463443506213544,-84.68929830522683
-6.2211703766666675,-149.30808904,4.021911773837445,-2.0869044757849995,13.999998499999998,0.7610263049989859,0.5617000000000001,10,24,214.39060419200092,519.265175,mp-1175275,Li7Mn4CoO12,https://materialsproject.org/materials/mp-1175275,18.193657043995408,-78.81963801240731,-12.122019749121598,-85.8889691912871
-5.7863264705,-115.72652941,4.4373114962699285,-1.825060436471,13.999999599999999,0.9066213434446084,0.9829,1,20,179.96146167738897,480.89508499999994,mp-1222667,Li5Mn2Co(NiO5)2,https://materialsproject.org/materials/mp-1222667,16.15410615394719,-72.09973212535056,-7.553553550929661,-77.29338806522064
-5.7992340934375,-185.57549099,4.237686885884088,-1.863885130059999,18.0000001,0.7404411244540493,0.3971999999999998,1,32,283.30836867840554,723.001465,mp-1175613,Li9Mn2Co5O16,https://materialsproject.org/materials/mp-1175613,19.51973063839624,-79.92851717686328,-10.156696891667774,-87.56307410483474
-5.901640914375,-94.42625463,4.423574504744701,-1.85320972625,14.996028200000001,1.2106527677899948,0.3300000000000001,166,16,144.35574643996287,384.554885,mp-756706,Li4CrCo3O8,https://materialsproject.org/materials/mp-756706,15.868508277526546,-69.17881875213662,-10.743882600582523,-70.19423280663072
-5.7576365309375,-184.24436899,4.101998048607077,-1.8222875675599992,23.9999997,0.9556433575107054,0.0,2,32,292.67984635374813,723.001465,mp-1175501,Li9Mn2Co5O16,https://materialsproject.org/materials/mp-1175501,13.601276681063144,-82.53733045311418,-14.133688429287748,-87.8183884197082