energy_per_atom,energy,density,formation_energy_per_atom,total_magnetization_uB,total_magnetization_T,band_gap,sgr,num_sites,cell_volume,weight,mp_id,formula,URL,tsne_xrd_lin1_0,tsne_xrd_lin1_1,tsne_xrd_lin2_0,tsne_xrd_lin2_1
-7.097087325,-42.58252395,11.050568286132908,-0.12506430979166674,1.9287322,0.2819853258474445,0.0,191,6,79.71184287753341,530.467,mp-1025137,NpNi5,https://materialsproject.org/materials/mp-1025137,-54.3202771224052,-17.702585152413896,-54.99633726894864,-5.931458905036273
-7.885552041666667,-47.31331225,4.666968500017132,-0.3946249416666679,4.85e-06,7.454900920757171e-07,0.0,140,6,75.81886700805909,213.09,mp-1025149,Ti2B,https://materialsproject.org/materials/mp-1025149,-60.43564555798006,-38.60542710640211,-68.28191045809778,-29.409887848168243
-9.17608984,-73.40871872,18.005066538592622,0.3809438000000007,0.00015889999999999999,1.364781893259429e-05,0.0,194,8,135.686947599892,1471.24064,mp-1184920,HoOs3,https://materialsproject.org/materials/mp-1184920,-49.81050775561882,-34.08101395107137,-62.0807058165561,-23.91924822341898
-7.883612061666668,-189.20668948,10.418979135369296,-0.5897108156944443,6.6e-06,3.078262649278585e-07,0.0,55,24,249.87090532031124,1567.8039999999999,mp-1190368,DyReB4,https://materialsproject.org/materials/mp-1190368,-37.55398957384321,-11.68656476866842,-38.38323385504517,-11.13244436148397
-6.286335881666666,-37.71801529,8.180360768602853,-0.20309449458333265,3.7106004,0.4959723608783325,0.0,187,6,87.18949041858812,429.52407,mp-1222931,LaFeNi4,https://materialsproject.org/materials/mp-1222931,-51.971448473662356,-15.698120110512948,-54.549916607313996,-14.598115197684185
-4.074616556363636,-44.82078212,2.7194591631448066,0.19855457545454608,0.0006095,3.902741574868479e-05,0.0,12,11,182.00417174981686,298.06761580000006,mp-1207111,Mg2(AlSi2)3,https://materialsproject.org/materials/mp-1207111,-61.79234445035174,-26.067676276145182,-61.664832175697356,-21.68202552932064
-4.85129322375,-38.81034579,5.66975180480251,-1.1442428668750004,4.9999997,0.8054384454057587,0.0,65,8,72.34608764822987,247.0188,mp-755956,LiNi3O4,https://materialsproject.org/materials/mp-755956,-9.676317283597577,-64.17535638461445,-26.05475612880052,-62.835322423971576
-7.4270427255555544,-66.84338453,14.20845886184134,-0.6334114672222219,2.1498916666666665,0.14211644904724902,0.0,189,9,176.29892180172396,1508.5077299999996,mp-1080077,UGaPt,https://materialsproject.org/materials/mp-1080077,-42.46298206438117,11.29819406790211,-40.78360536736731,18.14013318075506
-9.25402836625,-148.06445386,13.208237339156636,-0.9293567374999993,0.0,0.0,0.0,55,16,264.01128263852473,2099.995,mp-17045,Hf3Rh5,https://materialsproject.org/materials/mp-17045,-62.671481752966,-26.128298175117468,-64.46448782926345,-17.04732549337587
-9.337695279166667,-112.05234335,7.292885186798258,-0.07259931500000033,5.3700000000000004e-05,3.8085850735120164e-06,0.0,160,12,164.31910176798652,721.6694786,mp-1220664,Nb3AlCr8,https://materialsproject.org/materials/mp-1220664,-75.91652791326142,-22.229813556334868,-69.63054357289941,-7.921450715930415
-7.252585631666666,-87.03102758,7.712685718305728,0.05859137166666765,14.9557549,0.869976443550354,0.0,115,12,200.34489165687265,930.53951,mp-1221837,Mn7CoSb4,https://materialsproject.org/materials/mp-1221837,-51.81418480666688,-29.95751273594372,-54.583081338172505,-25.41966989436585
-8.34010352625,-133.44165642,9.261615403231893,-0.7868445687499985,2.15e-05,1.0617269608173352e-06,0.0,55,16,235.99513044026523,1316.257,mp-17413,Ti3Rh5,https://materialsproject.org/materials/mp-17413,-58.17449238718459,-31.54136881036419,-62.6212517969973,-20.40837676103389
-6.558050115,-39.34830069,8.447439092730116,-0.007237838749999763,6.533975099999999,0.8692469552786672,0.0,187,6,87.60153668100052,445.64363,mp-1219008,SmMnCo3Cu,https://materialsproject.org/materials/mp-1219008,-51.009987993126074,-16.593768197565026,-53.80667654953987,-16.05954765334038
-7.005607725454545,-77.06168498,9.585004502011957,-0.892003837142857,1.8000000000000001e-06,1.3242565259614105e-07,0.0,174,11,158.4082553444689,914.368048,mp-1103449,Yb(P2Rh3)2,https://materialsproject.org/materials/mp-1103449,-63.36670265129274,-27.619268506543477,-67.29641352309997,-16.481267449006413
-8.205821354166668,-98.46985625,6.757350681977093,-0.3207237141666669,4.58948895,0.3035495457236334,0.0,194,12,176.20254172590154,717.0336480000001,mp-1219434,Sc2Fe3Ru,https://materialsproject.org/materials/mp-1219434,-74.50988779596217,-23.57340105427364,-65.65517330620297,-10.821787109045255
-4.327731814285714,-60.588245400000005,9.659319621639463,-0.6000069053571424,0.0,0.0,0.0,146,14,209.7410252441256,1220.0590000000002,mp-30662,Zn3Ga4Pd7,https://materialsproject.org/materials/mp-30662,-50.36660736403701,-35.07224546127088,-60.68911461254975,-17.822370052873897
-6.6645358675,-159.94886082,6.8949483503659215,-0.4101332058333327,0.0030789000000000003,0.0001284674498256113,0.0,107,24,279.30577027053783,1159.7432,mp-1226793,CeNi2B3,https://materialsproject.org/materials/mp-1226793,-51.47817341217018,-3.5503449314353976,-40.848684748757904,14.86697599093151
-9.163712341111113,-82.47341107,10.76849763726401,-0.9485243094444434,2.9333333333333333e-06,2.402000259010341e-07,0.0,189,9,142.31995412132025,922.9365,mp-1078884,HfSiRu,https://materialsproject.org/materials/mp-1078884,-50.57905302517312,-11.105626152655203,-57.455163871598685,3.076787261848505
-6.744224426666666,-40.46534656,4.085709278057475,0.10410419444444467,9.66e-05,1.0506586038357937e-05,0.0,189,6,107.15018683701885,263.64,mp-1094343,MgTi5,https://materialsproject.org/materials/mp-1094343,-47.97126611682091,-32.9225853296263,-57.69466913186328,-28.8286407854174
-5.8867249785,-117.73449957,3.880343160551748,-1.9296862429710004,6.9999997,0.4439685155417216,0.0,12,20,183.748277312318,429.38248,mp-1174278,Li3MnCoO5,https://materialsproject.org/materials/mp-1174278,3.6009529376760723,-76.36318448052822,-23.93988999327068,-76.82814064534209
-5.82026742952381,-122.22561602,8.861316623436231,-0.5331201178571431,0.0001246,4.971653664738649e-06,0.0,174,21,292.07514613495744,1558.6326399999996,mp-1191795,Ho2Ni12As7,https://materialsproject.org/materials/mp-1191795,-51.589549822472115,-1.120518945117806,-55.630385138784554,18.365411014297603
-9.704281488636363,-213.49419275,7.989688147949161,-0.0883507948295452,18.492010699999998,0.8072635412507897,0.0,166,22,266.9600192011101,1284.478865,mp-1193010,Gd2Mn17C3,https://materialsproject.org/materials/mp-1193010,-52.29617412359499,-23.756489029176613,-55.45066559623812,-11.32008176187292
-7.108850138888888,-255.91860499999999,8.458696272905394,-0.8480983679365091,1.223937975,0.03273848081903243,0.0,62,36,435.6907248412483,2219.385044,mp-1195740,ErCo5P3,https://materialsproject.org/materials/mp-1195740,-64.72134277902926,-29.01486829656409,-65.07056072349474,-15.367786545442481
-7.453082764090909,-163.96782081,7.585177319412747,-0.03927832390272877,38.1165511,1.6440714225995134,0.0,166,22,270.19066770445846,1234.20412,mp-1191073,Pr2Fe17H3,https://materialsproject.org/materials/mp-1191073,-51.87902544471545,-23.15139418625751,-56.79220862797847,-10.94795467206422
-7.0773395316666665,-84.92807438,4.50437254061324,-0.963812274218751,0.0041026000000000005,0.00014162507249942046,1.4184,156,12,337.59535152999865,915.76,mp-1026927,Mo3W(SeS)4,https://materialsproject.org/materials/mp-1026927,-7.3435641527977085,-82.00581577860606,-21.892686749168032,-50.717833375829905
-9.126448759375,-146.02318015,5.787075740414018,-0.4512243855650002,0.15924829999999998,0.011982221092186987,0.0,33,16,154.88697703384491,539.79018,mp-1245441,MnCrN2,https://materialsproject.org/materials/mp-1245441,-50.93149354400561,4.614457977049538,-40.079072320237216,14.066752397250836
-7.539132984473683,-286.48705341,8.56765499857657,-0.06991420078947379,30.01970395,0.6863481347482377,0.0,194,38,509.7290377494748,2629.97884,mp-1203778,Tm2Ga2Fe15,https://materialsproject.org/materials/mp-1203778,-54.51977735591782,-22.65405889576913,-55.948584840177105,-9.409592152200275
-1.4368051116666667,-17.24166134,5.055190465166183,-0.05347557499999992,3.5475e-05,2.028392882012727e-06,0.0,63,12,203.82044892423417,620.4920000000002,mp-1094483,MgZn2,https://materialsproject.org/materials/mp-1094483,-49.655438735704564,-33.75223662306294,-56.989815831341886,-26.635230668297364
-7.104007222857144,-149.18415168,8.153937444917439,-0.7992748269047625,4.9717933,0.2277934522285264,0.0,174,21,254.3602574487096,1249.014674,mp-1191588,Dy2Co12P7,https://materialsproject.org/materials/mp-1191588,-63.80846301093748,-30.159294425262672,-65.89544112097393,-17.38757540945476
-8.0805336103125,-258.57707553,8.533155342476906,0.015381407968749984,43.188102799999996,1.2233094633532549,0.0,12,32,411.4387753165152,2114.29596,mp-1198423,Ho3Fe29,https://materialsproject.org/materials/mp-1198423,-55.527734279158594,-23.52618923088573,-52.02960120393739,-9.783536414462024
-10.3611499375,-497.335197,15.81922333330009,-0.815822472499999,5.816666666666667e-05,7.326301145827095e-07,0.0,178,48,925.2664986660112,8814.606000000002,mp-1212499,Hf5Ir3,https://materialsproject.org/materials/mp-1212499,-54.92027448606985,-8.39457913139545,-49.11906603098917,12.177444681765193
-7.165305371785713,-1003.14275205,4.299358222313018,-0.2879787904285706,6.894464200000001,0.02683330995208532,0.02079999999999949,200,140,2994.3578523248766,7752.793967999999,mp-1210377,Sc57Ru13,https://materialsproject.org/materials/mp-1210377,-53.77171801012211,3.0978502798288514,-40.871976101286776,14.899885310698973
-4.602691417857144,-257.75071940000004,7.990395056194693,-0.3944851264285713,7.5e-08,1.1555347342170712e-09,0.0,230,56,756.4072563636004,3639.7776,mp-30655,Ga4Ni3,https://materialsproject.org/materials/mp-30655,-50.98265550594211,-52.20084433279143,-70.10093678341713,-43.748012702482825
-5.6900415375,-45.5203323,13.294575380148599,-0.822301528333333,5e-08,3.49462561086998e-09,0.0,194,8,166.74267962081404,1334.9720000000002,mp-1025525,DyInPt2,https://materialsproject.org/materials/mp-1025525,-76.90243864366619,1.3474244595484122,-56.39127994342466,5.351470297800705
-6.5191240125,-26.07649605,6.064618440064665,-0.2347716367968751,2.40943805,0.3947329878791426,0.0,194,4,71.13605389567095,259.803,mp-569668,VSe,https://materialsproject.org/materials/mp-569668,-45.65441664476297,-27.181591773047362,-54.19892538581004,-24.73123419060421
-6.435954212083334,-154.46290109,8.758991925287381,-0.5043071865277776,5e-08,2.407375739490901e-09,0.0,55,24,242.04914466372898,1276.7579999999996,mp-13344,YbB4Rh,https://materialsproject.org/materials/mp-13344,-37.68738864281461,-11.726139352422953,-38.25643173078217,-11.142438651589458
-4.252539055,-17.01015622,2.377160709911444,-0.5387330749999997,1.1e-06,1.346163119053086e-07,0.0,63,4,95.2297018717397,136.327,mp-1563,CaSi,https://materialsproject.org/materials/mp-1563,-23.12164515836103,45.135764846301356,-39.76131500657998,21.250102053158468
-11.236758321666667,-202.26164979,15.300434667438392,-0.12189220722222335,0.16949175,0.00890925393837587,0.0,83,18,221.7096792365736,2042.86342,mp-1189752,U(WC)4,https://materialsproject.org/materials/mp-1189752,-66.69221996481161,14.060858659674304,-53.849572167560204,22.339934474458364
-8.497324025357143,-237.92507271,7.127525411872251,-0.8260278842685713,5.5799999999999994e-05,1.4060677009774088e-06,0.0,227,28,462.49324542252543,1985.158,mp-1194181,Zr4Ni2N,https://materialsproject.org/materials/mp-1194181,-69.60212070902726,-3.106527299588198,-65.20256596364784,4.941798097525563
-6.741299740833332,-161.79119378,6.421595741653117,-0.531723336527777,2.75e-06,1.2586132302647039e-07,0.0,139,24,254.63484217307064,984.7176,mp-1191368,NdNiB4,https://materialsproject.org/materials/mp-1191368,-33.38586770624025,-11.697095519601605,-39.015742009020414,-10.942718777917912
-6.396914134210527,-243.08273709999997,8.006258492406692,-0.3949298178947375,0.0,0.0,0.0,36,38,384.99043218127696,1856.2243,mp-10124,Tb(Ni2B)6,https://materialsproject.org/materials/mp-10124,-69.457940675044,-26.042407333976442,-43.91345311562274,0.11185016249307632
-7.150408160588236,-121.55693873,10.745555165067136,-0.6385207282352939,0.0003948,1.615334053102089e-05,0.07859999999999978,229,17,284.83425848484745,1843.1980000000005,mp-505680,Lu4Ge6Ru7,https://materialsproject.org/materials/mp-505680,-44.30906621646404,-46.34197877261856,-60.103119793258685,-16.298646386200584
-1.8408799617475728,-189.61063606,8.34097222528693,-0.04899045529126194,0.0075271999999999995,5.508584261415436e-05,0.0,216,103,1592.4686306508625,7999.051090000001,mp-1197200,Zn89(Cr2Au5)2,https://materialsproject.org/materials/mp-1197200,-58.32849574030715,-31.697721742929467,-50.08970597861004,-26.45814434419593
-8.406632811666666,-100.87959374,15.710648121266685,-0.5271147610416674,1.873333333333333e-05,9.62215463103242e-07,0.0,166,12,226.89250842894984,2146.6694100000004,mp-1102848,LaIr3,https://materialsproject.org/materials/mp-1102848,-71.65593552681477,-8.136841310973269,-72.93674061358693,-11.479106088574936
-2.37924208875,-19.03393671,3.075538503942012,0.05870272500000029,4e-07,3.220788853741451e-08,0.0,38,8,144.73553283720128,268.0694,mp-1099282,Mg6CuNi,https://materialsproject.org/materials/mp-1099282,-48.334473348481815,-32.57904065971032,-57.215054139339856,-27.91693370852252
-5.9579707325,-47.66376586,7.458289728076919,-0.4848940724999995,3.35e-06,2.922057565698257e-07,0.0,129,8,133.60830890662373,600.1,mp-1095201,ZrCuGe2,https://materialsproject.org/materials/mp-1095201,-62.80385290465529,-30.21686423786741,-66.005499481193,-18.35011340664661
-8.224148659999999,-106.91393258,8.030744500334832,0.0590746317307684,19.0052708,1.3182520178074997,0.0,71,13,168.01692994304273,812.56809,mp-1220585,Nd(MnFe5)2,https://materialsproject.org/materials/mp-1220585,-54.322752317776136,-24.83171946813002,-51.902576616776436,-10.355752910763824
-4.704562177142857,-32.93193524,9.905246828705074,-0.32555703622767895,2.1000000000000002e-06,2.158067550757121e-07,0.0,123,7,113.40486544913401,676.4689999999999,mp-1025222,ZnPd5Se,https://materialsproject.org/materials/mp-1025222,-55.40877204945317,-35.94911180358222,-60.5466659100768,-29.22507186110352
-8.06569331736842,-306.49634606,8.326320441450386,-0.01167141546052694,76.35544940000001,1.7491766852967776,0.0,187,38,508.72582542713565,2550.867,mp-1219139,SmEr3Fe34,https://materialsproject.org/materials/mp-1219139,-54.46697239918764,-22.65889152814796,-54.67921880830945,-9.517800972509498
-5.334543274166666,-64.01451929,8.629098266849379,-0.2298440900000003,0.00027269999999999996,1.852644669512348e-05,0.0,47,12,171.54198620902062,891.429,mp-1226995,Ce2(CuNi)5,https://materialsproject.org/materials/mp-1226995,-52.5100246504617,-16.554635850028387,-54.802786244650726,-15.502155727209844
-5.8973422275,-70.76810673,8.467190300481176,-0.2729390785416672,2.3075718999999997,0.158208747452229,0.0,47,12,169.98170343304713,866.7471199999999,mp-1222862,LaPrNi10,https://materialsproject.org/materials/mp-1222862,-52.61975055023799,-16.739414052003227,-54.59338147786546,-15.04312921344599
-4.7247687521428565,-66.14676253,3.541846709840573,-1.593031110607144,1.495e-05,5.042557925870858e-07,0.0,11,14,345.5156508086676,736.9676,mp-12376,KYbSiS4,https://materialsproject.org/materials/mp-12376,43.17723386894369,-43.991427941567785,2.374820008712172,-45.54748379918226
-6.8938306084210526,-261.96556312,7.968730415882767,-0.3941650363157901,7.03413685,0.212315886632196,0.0,36,38,386.1052875942348,1852.8736,mp-1204079,Gd(Ni2B)6,https://materialsproject.org/materials/mp-1204079,-69.4751043320768,-26.04242815699548,-43.89015568283593,0.13584385417852962
-6.074994807692307,-157.949865,8.755750596562171,-0.4510427,7.5e-07,2.8377621195198368e-08,0.0,129,26,308.0085014630724,1624.0784199999998,mp-542391,Tm(SiNi5)2,https://materialsproject.org/materials/mp-542391,-57.61238995798245,-23.010276289264677,-58.868658963906974,-14.317182387287072
-5.9973551855172405,-173.92330038,9.609132730380711,-0.8158452092241382,2.1e-05,5.153665201422961e-07,0.0,225,29,474.8763271548576,2747.9930000000004,mp-1208981,Sm3(Si3Pd10)2,https://materialsproject.org/materials/mp-1208981,-69.61807735994057,-2.5270013316673903,-59.07846571257539,-17.031660831278355
-8.225549368888887,-74.02994432,11.121272311730067,-0.5466144072222221,0.27732209999999996,0.02350406769874509,0.0,189,9,137.5051228445378,920.925,mp-22191,HfFeGe,https://materialsproject.org/materials/mp-22191,-50.735500566098786,-10.530784881371169,-56.97552664954584,2.553435798320437
-6.938270389444443,-249.77773402,8.89143610996092,-0.6744421649999998,8.15e-06,2.514528212513043e-07,0.0,55,36,377.7274298363786,2022.55968,mp-1208020,Tm2B6Rh,https://materialsproject.org/materials/mp-1208020,-35.68246987688113,-10.542231318571668,-37.744980517093246,-12.214291147847852
-5.889644399655173,-170.79968759,10.221445911435382,-0.73598440320197,2.9199999999999998e-05,7.425290997517725e-07,0.0,225,29,458.2967744597551,2821.045202,mp-1208086,Tm3(P3Pd10)2,https://materialsproject.org/materials/mp-1208086,-69.40648803839794,-2.678486680418047,-59.013727974581926,-17.3396116038412
-6.869783021000002,-68.69783021,8.738525333542485,-0.6040469096666683,0.0,0.0,0.0,63,10,157.71854221687127,829.9879999999998,mp-30840,Ti2Pd3,https://materialsproject.org/materials/mp-30840,-55.35757239408793,-32.423565892322394,-59.61290915671313,-30.006740308294038
-5.573614545000001,-66.88337454,12.472244243780706,-0.7336108883333333,1.5e-07,6.7400030130418254e-09,0.0,62,12,259.36334338447364,1948.068,mp-1102313,YbSbIr,https://materialsproject.org/materials/mp-1102313,-50.862327944397364,16.721773287572876,-41.55337624488654,19.529465777771648
-6.691569409038461,-347.96160927,4.6606821004556815,-3.1220922933692314,2.999999975,0.035569790546199805,0.03139999999999965,33,52,982.9181867381767,2758.7844000000005,mp-1229323,Ce3SiCl5O4,https://materialsproject.org/materials/mp-1229323,2.9153015803406888,-6.64261008566195,12.93535381151016,-1.3810226337478193
-9.346764171666667,-112.16117006,13.594479915108467,-0.4307151538888891,0.0,0.0,0.0,62,12,123.89924685724554,1014.3367800000001,mp-22759,CoBW,https://materialsproject.org/materials/mp-22759,-56.58690844629982,-21.220702212544328,-56.08478147893115,-8.096262282903885
-7.143043889375,-114.28870223,4.3127956291356035,-2.3553901425599997,8.0000005,0.5941907815347545,0.8022999999999998,12,16,156.90671566242858,407.522245,mp-755305,Li3MnV4O8,https://materialsproject.org/materials/mp-755305,-6.084769745037472,-61.12730680674852,-23.523988848046397,-64.07590223898923
-7.482148608666666,-112.23222913,6.107653958153246,-1.3424382594999995,7.240000000000001e-05,3.0391229021559355e-06,0.0,147,15,277.6308549202691,1021.15828,mp-1220614,Nb6PbS8,https://materialsproject.org/materials/mp-1220614,-39.15100474185473,-14.963670770360222,-41.03084464584384,-10.90429826656343
-7.666547140689657,-222.32986708,8.154009848257308,0.018770261206895088,52.1491525,1.3648297261065336,0.0,225,29,445.2933501110266,2186.5950000000007,mp-1193555,Sm6Fe23,https://materialsproject.org/materials/mp-1193555,-56.96487515064798,-16.93075843014181,-50.49457352213711,-14.491868752121704
-9.317459207777778,-167.71426574,13.492218687247671,-0.44812021796296303,6.05e-06,2.5271260502172096e-07,0.0,193,18,279.00108848122545,2266.9408,mp-1189895,Ta5Ge3B,https://materialsproject.org/materials/mp-1189895,-53.62415338227429,-19.777580946761347,-47.27364020260264,-15.560300194376445
-9.217878135,-73.74302508,18.531295974263895,0.3141846262500003,2.745e-05,2.4134336528649246e-06,0.0,194,8,132.5514283879375,1479.24842,mp-1187673,TmOs3,https://materialsproject.org/materials/mp-1187673,-49.91999786549801,-34.87077119021153,-60.73792591651228,-27.807073140050893
-7.209338848571428,-100.93074388,6.4506348061894325,0.0519311318371436,0.07832595,0.006564288686260121,0.0,176,14,139.0578230635879,540.1928,mp-1245402,Cr(NiN)3,https://materialsproject.org/materials/mp-1245402,-48.09536806849929,-25.079891659213466,-58.42114619220241,-19.997266688173102