energy_per_atom,energy,density,formation_energy_per_atom,total_magnetization_uB,total_magnetization_T,band_gap,sgr,num_sites,cell_volume,weight,mp_id,formula,URL,tsne_xrd_lin1_0,tsne_xrd_lin1_1,tsne_xrd_lin2_0,tsne_xrd_lin2_1
-0.89751143,-1.79502286,1.7686368518622713,0.058449831724137875,1.4400000000000001e-05,8.185214361221469e-07,0.0,65,2,205.02643586211002,218.37325189999999,mp-1225895,CsRb,https://materialsproject.org/materials/mp-1225895,7.698567924176655,-25.51816740738192,17.381873883130087,-18.62816940757026
-7.870663821319443,-1133.37559027,5.947444828097176,-2.9177948820083324,36.999650225,0.20483559069099114,0.4192,1,144,2105.084955351791,7539.646060000001,mp-1099861,La7SmMn5Fe3O20,https://materialsproject.org/materials/mp-1099861,-17.412344548772055,43.3448230371862,6.39291483819435,60.94757183211737
-4.0513261822222235,-72.92387128,5.759796902252724,-1.3035640757499998,0.0,0.0,0.7370999999999999,140,18,709.9901728942108,2462.6938,mp-23571,KBa4Bi3O,https://materialsproject.org/materials/mp-23571,8.416195193827525,-23.6006320041609,22.531452653323807,-18.37593576017343
-6.312147095952381,-265.11017803,4.740201747140096,-2.6098664118601187,0.99980625,0.014646710350498169,0.0,176,42,795.523808328312,2270.9152,mp-1214545,Ba5As3SO12,https://materialsproject.org/materials/mp-1214545,1.1855431181264702,-13.93047140663599,20.30291680906548,-12.40103206052476
-5.6103833875,-134.64920130000002,3.5006028299923333,-1.5006766349633331,1.4e-06,2.649340651743785e-08,1.8486,58,24,615.8396682904727,1298.2592000000002,mp-607436,ReCl3O2,https://materialsproject.org/materials/mp-607436,41.15595061990538,-40.308535868968,31.122451756023093,-53.52320587481349
-7.461460143888888,-134.30628259,5.9168661022307,-3.367025728749999,1.93642495,0.06332818688236441,0.0,55,18,356.3535118480578,1269.7659999999996,mp-769656,Ba2Ce2O5,https://materialsproject.org/materials/mp-769656,-17.64125709127704,-51.38541112113807,-24.231581633234853,-5.297162158226507
-7.0963877985714285,-99.34942918,2.7475455872153804,-2.5675553883004083,5.00000815,0.30734652744667096,3.2618,9,14,189.59192195049974,313.7008140000001,mp-753207,LiMnPO4,https://materialsproject.org/materials/mp-753207,33.6193283695658,-11.965554120842526,52.6697980815094,-19.9292481380805
-4.7432827146428584,-265.62383202,2.456676202209216,-1.1805225131697614,1.000004175,0.021999863006993033,0.29179999999999995,19,56,529.7357271986493,783.71488,mp-769295,AgH8O5,https://materialsproject.org/materials/mp-769295,29.473525160302906,-38.65811589791782,3.8942644532652575,-46.2841477580167
-8.407942916538461,-218.60651583,5.8269498648015485,-3.1821481647435896,1e-07,5.0703260655419575e-09,4.458400000000001,15,26,229.84842832418542,806.55452,mp-1194365,Th(BO2)4,https://materialsproject.org/materials/mp-1194365,24.674929487267512,-19.30048711388518,13.466207576294954,-20.165320946808237
-5.915466923142858,-414.08268462,5.127885578694267,-2.117115487294643,5e-07,3.962169117957572e-09,2.4336,146,70,1470.6672564455246,4541.545386,mp-1226139,Dy9Al5S21,https://materialsproject.org/materials/mp-1226139,7.80972674122071,-5.824537867848483,11.980484541795347,-11.451953392109985
-6.308213268333334,-302.79423688,2.3889015667934648,-2.565774314645001,1.02875e-05,1.8555724938296173e-07,4.7723,64,48,646.1142948948914,929.5195199999999,mp-707195,KSiHO3,https://materialsproject.org/materials/mp-707195,6.843112105200564,29.773023967815966,30.386779845817674,-4.65875196118563
-5.9591384837499985,-572.07729444,8.077302585220211,-1.700559683385416,6.8575e-05,4.948761886079936e-07,1.9015000000000004,11,96,1614.9039096551353,7855.3212,mp-705013,CrBi8O15,https://materialsproject.org/materials/mp-705013,7.814102534084573,21.53407145791181,1.1318935787398872,26.19928702066509
-6.995464230769231,-181.88207,4.0027331658799215,-2.6065810272527465,2.0,0.07246506616236699,3.0515,14,26,321.646426057138,775.3294480000002,mp-753190,Li2P2WO8,https://materialsproject.org/materials/mp-753190,35.64731250798761,-34.16675998153306,7.228960230201918,-42.10989865702263
-6.60011999,-39.60071994,4.900236635451411,-0.8628143329166656,9.000000000000001e-07,6.793039059216113e-08,0.0,12,6,154.40303233754798,455.64204000000007,mp-23062,YCI,https://materialsproject.org/materials/mp-23062,-12.895905402820818,18.09796672458905,-2.168327695186055,8.811713089183007
-7.2803219499999985,-145.606439,6.337325568556483,-3.0963743282,0.99999975,0.03520583370416547,0.0,58,20,331.02644172475937,1263.33815856,mp-1214646,Ba2NaUO6,https://materialsproject.org/materials/mp-1214646,-19.936997940915173,7.557332190591341,-18.33859319017375,45.613627563042186
-7.023710144117647,-716.4184347,6.393414914248522,-2.98928039194853,0.0,0.0,2.2816,87,102,1551.2491276659748,5972.6264,mp-560146,Ba17Y16Zn8Pt4O57,https://materialsproject.org/materials/mp-560146,-2.8296569892114407,34.94447054178582,-2.2203948088832632,45.47315884516088
-6.7419570828125,-431.48525329999995,6.363688081867995,-2.28680185703125,0.9999163000000001,0.010883838239126834,1.5591,61,64,1070.6782911791154,4103.1632,mvc-7871,CaBiWO5,https://materialsproject.org/materials/mvc-7871,10.412412577154956,-24.20761040313953,41.446803142272245,-5.2981807227527495
-6.04595656625,-48.36765253,5.768695401580279,-2.2161863825,0.0,0.0,3.2021,11,8,147.46434355902184,512.2896,mp-1025511,NdBrO2,https://materialsproject.org/materials/mp-1025511,3.142701726908741,-1.0187573540485684,4.419963939733873,11.038214301304626
-7.365660698571429,-103.11924978,7.02410953450896,-3.1728548457142858,0.0,0.0,1.6581,65,14,209.81582382596267,887.5246490000002,mp-560605,LiLa4AuO8,https://materialsproject.org/materials/mp-560605,-25.62578073935834,28.170652873989898,-20.02046890312246,54.0888012127495
-3.726349722,-37.26349722,5.2266380416235085,-0.2054655436666664,0.0,0.0,0.4898999999999996,162,10,334.0392727649003,1051.407,mp-567931,InSiTe3,https://materialsproject.org/materials/mp-567931,-18.590495724975465,-36.35253371963915,-12.17476330869122,-29.028050252287425
-5.60294261875,-89.6470819,3.032462694060144,-0.9807325888658333,0.0,0.0,2.2521,43,16,244.0805784809174,445.73793856,mp-558460,NaAg(NO2)2,https://materialsproject.org/materials/mp-558460,25.35591531865951,-20.68285033717504,-3.2664033211521497,-35.47978983341332
-2.5802903442857144,-36.12406482,4.7329165792242005,-0.32539656228238106,1.013185,0.01984097482150712,0.0,87,14,595.1181190848856,1696.22294,mp-1104568,Ba9In4H,https://materialsproject.org/materials/mp-1104568,8.576702204023364,-24.976688503433852,22.110770636254255,-17.744965877047782
-7.08037440142857,-346.93834567,3.1981242167612645,-2.372134445765306,0.9995166999999999,0.01811812381834368,0.0,8,49,642.9160369939444,1238.2276464000001,mp-759073,Na5V12O32,https://materialsproject.org/materials/mp-759073,34.3052302488512,-36.218821460766016,37.678094254662646,-50.60042692782872
-6.644802571948053,-1023.29959608,7.822459484416893,-1.810841684793636,70.00000849999999,0.3887570753427144,0.0,220,154,2098.4431792516248,9885.33624,mp-1198549,Mn16Bi16O45,https://materialsproject.org/materials/mp-1198549,-31.533652656923426,36.83565834951685,-19.436101241038013,62.6462669723312
-6.9673322010000005,-278.69328804,5.568882347427201,-2.660657801375001,0.0,0.0,3.2056000000000004,217,40,726.0780345623874,2435.018420000001,mp-1211710,La3Sb5O12,https://materialsproject.org/materials/mp-1211710,-12.00991679715217,-27.807753214768272,-1.2714488353763822,-28.147170827093
-7.552736037948718,-883.67011644,2.596508717393353,-3.1546680184508555,17.9999995,0.1288825608205211,1.1825,1,117,1627.6302918217725,2545.0508176000008,mp-1223304,Mg2Al16Fe6Si20O73,https://materialsproject.org/materials/mp-1223304,58.70285892738948,-37.42705527442431,69.6951243353828,-28.337724914313068
-5.808204985,-58.08204985,3.9425247433479114,-0.7302574669999992,1.1e-06,5.891986311290842e-08,0.0,127,10,217.57469506080903,516.5754000000002,mp-1205496,Y2MgSi2,https://materialsproject.org/materials/mp-1205496,-40.85062089442365,31.852542695084065,-6.096512205079045,27.817848106400746
-4.840994913333334,-43.56895422,3.8331555859424022,-1.4841892958055558,0.0,0.0,0.23839999999999995,12,9,205.19348681032184,473.6646,mp-1206020,K2Ce(CuS2)2,https://materialsproject.org/materials/mp-1206020,34.617249020564664,-33.09003218212138,2.7112696145994186,-49.02705834573906
-8.5494519,-51.2967114,4.462402352418219,-2.813451020833334,1.9869835999999998,0.2993992865464984,0.0,119,6,77.34298850046697,207.84548,mp-754611,NbVO4,https://materialsproject.org/materials/mp-754611,1.795735879410708,-39.06155499456924,1.6087382712695917,-34.10923625090185
-5.930479604375,-379.55069468,6.6277295699508025,-2.0852293454687496,0.000160475,2.1447611187268644e-06,1.3773,61,64,871.978715040612,3480.339200000001,mvc-7403,MgBiSbO5,https://materialsproject.org/materials/mvc-7403,4.5198648447446175,30.226015566154302,34.9099112835471,-6.295752313633863
-7.021134941111112,-63.19021447,7.210698203917624,-3.00962112875,1.9999978999999999,0.17549190180532814,2.1603000000000003,71,9,132.81584410338698,576.7374,mp-19199,BaSm2NiO5,https://materialsproject.org/materials/mp-19199,-13.542853004875651,36.64183213102872,-11.483306233652087,54.024485031160296
-6.644396516333332,-797.32758196,5.033990526819059,-2.6877649806874992,2.5e-08,1.173607055603692e-10,2.8838000000000004,61,120,2482.5312520307216,7525.8928,mp-558333,Nd4Ga2S5O4,https://materialsproject.org/materials/mp-558333,16.462906528351663,-16.382792906931822,26.84433537197808,-11.263544796359403
-5.205551605714286,-36.43886124,3.170696602937047,-1.7309563591457138,9.000000300000002,0.904027476580223,1.2116999999999998,25,7,116.02145860214802,221.5358,mp-755254,LiFe2(ClO)2,https://materialsproject.org/materials/mp-755254,37.76781469247617,-56.30199573689339,35.76263350289562,-56.97931529162344
-6.000825553333333,-72.00990664,5.298224466103276,-1.5337461245887216,2.0000046,0.07694827211179925,0.0,63,12,302.90716755735,966.4754199999999,mp-13352,RbUCuS3,https://materialsproject.org/materials/mp-13352,21.671364325264463,-3.60995915502275,15.21900463873282,-24.004540184721183
-3.9953487158749996,-639.25579454,5.834210698398678,-1.2216200651551727,0.811291525,0.0015180039256154874,0.5342000000000002,205,160,6228.471364423636,21883.3844876,mp-647152,CsEr13(CoI12)2,https://materialsproject.org/materials/mp-647152,-26.86513962805143,-40.16634385080759,-34.30725676868527,-19.480831103872124
-6.490996277500002,-181.74789577,4.892741376678932,-2.4713969182142863,0.0,0.0,2.8302,33,28,418.13245979728566,1232.018,mp-757349,LiSiBiO4,https://materialsproject.org/materials/mp-757349,24.42359491367796,-11.257961484949567,42.277375545196364,-29.71777211746758
-3.79642468,-34.16782212,6.961718052075588,-0.15708490999999944,0.0001664,6.768119450086615e-06,0.5821000000000005,164,9,286.5251407655217,1201.2408,mp-1206551,Ge2Bi2Te5,https://materialsproject.org/materials/mp-1206551,-22.377886059932294,-36.248003472922825,-32.639917188174586,-22.74223470122602
-6.592275816250001,-158.21461959,5.061604875666177,-2.018062277083334,0.99999985,0.03661632538065672,1.5034999999999998,14,24,318.2750563661547,970.1564,mp-30525,VTeO4,https://materialsproject.org/materials/mp-30525,20.33199469148667,-13.00098483134726,43.467454038815795,-1.1293274555116095
-5.9150877614583335,-283.92421255,4.290522066834484,-2.0303374462656247,0.0,0.0,3.3969,14,48,735.925598829362,1901.494,mp-1211681,KSm(SeO4)2,https://materialsproject.org/materials/mp-1211681,10.096012243469088,-15.075344332766232,24.95757805596385,-6.141181686123478
-3.74019199,-26.18134393,5.817817217769977,-0.10489210928571477,0.0002998,1.4809679285633044e-05,0.42079999999999984,160,7,235.9192627623501,826.56,mp-1224348,Ge(SbTe2)2,https://materialsproject.org/materials/mp-1224348,-25.13944742127155,-36.5945627838197,-33.44163369933168,-22.20625938339428
-6.9388293123333336,-208.16487937,7.515282310317193,-2.5077784447500004,0.00575585,0.00014063870777562154,0.0,194,30,476.96007580044943,2158.6301399999998,mp-1182400,Ba3LaIr2O9,https://materialsproject.org/materials/mp-1182400,-20.29585964793017,16.511381961657925,-18.819930972715515,47.37575669334117
-8.002458902222221,-288.08852048,3.6560234158969753,-2.9548575378227286,0.0,0.0,2.251,5,36,557.8714749598342,1228.27053528,mp-677731,Rb2NaNb6(PO8)3,https://materialsproject.org/materials/mp-677731,28.838103689405074,-18.870356853746184,53.173350095921954,-34.758211236841866
-6.504766971666666,-117.08580549,3.2048264744519734,-2.2661941627499997,1.99999945,0.08648314174889155,1.0528000000000002,46,18,269.5105966786007,520.1532,mp-1099837,K2V2O5,https://materialsproject.org/materials/mp-1099837,-8.877379458425061,34.448912521720345,-3.015223837298308,30.27732026864429
-6.4754124029166675,-155.40989767,4.6713480310322355,-2.0966703336197914,5.000065900000001,0.09722468365405554,1.4778000000000002,173,24,599.3446280885513,1686.0472899999997,mp-1192341,Pr4MnS7,https://materialsproject.org/materials/mp-1192341,8.285018494129332,-20.438654512561463,21.347839876129946,-6.420705187908487
-3.816338276666667,-68.69408898,4.00727226657523,-1.2476903793888892,0.0,0.0,0.0,159,18,724.6108412161908,1748.65682656,mp-36235,Na(ScI3)2,https://materialsproject.org/materials/mp-36235,-7.275237566159518,-33.53190399958791,-5.558616736103351,-31.82517647473097
-4.43855680075,-177.54227203,3.470872701143962,-0.8905575841875006,0.0,0.0,0.9516,43,40,1001.2130700098593,2092.744,mp-1194838,Ga2SnGeS6,https://materialsproject.org/materials/mp-1194838,25.26283371828139,-0.4214031446808959,51.35304204638054,-2.748964929159423
-7.302850107,-73.02850107,3.037967388947925,-1.9832691000960003,3.9999998999999997,0.4688633204128898,0.0,148,10,99.42398113757574,181.896845,mp-769558,LiMn(CO3)2,https://materialsproject.org/materials/mp-769558,-4.96804676443533,-5.159045408271181,0.767860290941976,-24.85127178523221
-3.83665349,-7.67330698,8.129664298458957,-1.9429038380950003,1.2e-06,3.065029067893009e-07,2.2093,225,2,45.62722707450618,223.38170319999998,mp-2175,TlF,https://materialsproject.org/materials/mp-2175,-12.11467195794664,-28.165049395885404,-1.2319671131092171,-28.057554404039717
-5.97924321,-287.00367408,5.616798443567503,-2.138956225830834,19.99126835,0.3261037413805174,0.0,40,48,714.4338033358164,2416.5831564,mp-1228627,Ba5Co5O13F,https://materialsproject.org/materials/mp-1228627,-7.5625508313484655,30.7528102580742,1.872788835526535,27.759032119046324
-5.460309686875,-174.72990998,2.6623462257377577,-3.1708220232437503,2.000000875,0.05845802286657952,2.1904,62,32,398.7158408628174,639.262064,mp-777901,Li2VF5,https://materialsproject.org/materials/mp-777901,10.376067323159061,-33.95885278304858,36.42300042219104,-45.02008036859424
-8.941978218333334,-107.30373862,4.200279939691423,-3.4919923063888896,0.0,0.0,2.5301,60,12,126.29660952605455,319.4632,mp-1439,TiO2,https://materialsproject.org/materials/mp-1439,-22.33527859701685,31.24270441845377,-21.38423266618656,56.161948488299934
-4.619133286818182,-101.62093231,3.7543760103347887,-3.0176610549422263,0.0,0.0,4.3466,127,22,408.708419679438,924.0644448,mp-1209273,Rb3GeF7,https://materialsproject.org/materials/mp-1209273,9.724102344190396,-19.462454305167448,9.772474002228314,-11.052011553924912
-4.599667323695653,-211.58469689,4.011335993354464,-2.777535254550435,1.0,0.008979293215472962,0.0,148,46,1297.882193275258,3135.272,mp-1196927,Ba4Sm3Cl16,https://materialsproject.org/materials/mp-1196927,5.0593214373736135,-26.09329263650197,17.644254074116713,-20.493664538234157
-5.404488941911764,-367.50524805,3.3938738561768576,-1.6976161992621703,0.003165025,2.794080522188964e-05,0.19710000000000005,62,68,1320.1268203921925,2698.1262076,mp-654335,CsK5Ru2O9,https://materialsproject.org/materials/mp-654335,7.061147813895537,21.028004353545764,54.97846417389442,32.5657798421353
-5.271620364166666,-63.25944437,2.782308107750724,-0.976873352604167,2.0031643,0.08168690699454599,0.0,12,12,285.786392963047,478.84800000000007,mp-675423,Sr3Cr2O7,https://materialsproject.org/materials/mp-675423,25.664720464649054,-4.039906417756583,36.92318522984554,-8.589470854727372
-5.94911339375,-190.37162859999998,5.4050281403851415,-2.03880119421875,0.0,0.0,2.8587,19,32,477.057939933853,1552.816,mvc-5538,MgBiAsO5,https://materialsproject.org/materials/mvc-5538,28.45689063070956,-21.04518290709239,39.077173635742284,-6.6132904065078675
-3.8640280357692314,-100.46472893,6.10376312630165,-0.6478545182746186,0.0,0.0,0.9019000000000004,11,26,900.1931810057847,3308.9050075999994,mp-1229208,Cs2Bi4Se7,https://materialsproject.org/materials/mp-1229208,-0.4148829386080165,-11.759312820934284,0.2238085048871509,-0.3870378271804277
-8.407901977222222,-302.68447118,9.024397426167763,-0.8900266548809523,2.8999999999999997e-05,6.137571733751346e-07,0.0,189,36,550.6540584213453,2992.5951440000003,mp-1203369,Ce5P12Ru19,https://materialsproject.org/materials/mp-1203369,-50.97991786254895,2.493962853693876,-40.66887846703733,34.316739614900285
-3.986382448125,-63.78211917,4.478852088717447,-0.04865774812500012,1.625e-07,4.292656783746565e-09,0.02210000000000001,205,16,441.1686330739173,1189.9323087999999,mp-15621,AlSb,https://materialsproject.org/materials/mp-15621,-20.460513635562478,-35.74082266967016,-33.93067188113335,-22.154193110275603
-3.84999492375,-30.79995939,3.3507235168666654,-1.1994770704917244,0.0,0.0,2.3566000000000003,63,8,198.58459646242613,400.71450380000005,mp-552131,CsClO2,https://materialsproject.org/materials/mp-552131,6.792119838261184,-21.995420072662274,16.837195939055455,-17.811062840675646
-7.660571161973684,-582.20340831,7.543578731268847,-3.3197869717105264,4.048887025,0.04628482055520965,0.008800000000000141,1,76,1019.4701217398464,4631.2992,mp-532178,Yb4Zr3O12,https://materialsproject.org/materials/mp-532178,15.023574707138089,58.87790231671664,-2.485387739070944,39.594301179413954
-7.03344155,-84.40129859999999,5.536390342152328,-2.875269822604167,8.5e-07,4.3693456217166694e-08,1.9004000000000003,14,12,226.7148427773905,755.8882,mp-33690,PrSO,https://materialsproject.org/materials/mp-33690,7.202288825615902,4.469528807915408,11.197132830502198,10.419582272620172
-7.016686527894738,-266.63408806,2.7811480078976927,-2.5845535984736854,0.0,0.0,3.0368,125,38,670.5992438773645,1123.1508,mp-19075,K2SrV4O12,https://materialsproject.org/materials/mp-19075,64.95748129216537,-27.974056052492074,66.9901691288711,-33.15175459977145
-8.086395402962964,-436.66535176,5.534934052470299,-3.67269605050926,9.5e-07,1.5139410733273632e-08,4.7998,11,54,731.2940859447654,2437.5606,mp-1195598,BaEr4Si5O17,https://materialsproject.org/materials/mp-1195598,11.96682852184382,25.587682442820512,38.042582591013925,-4.751818634655387
-8.383680665,-117.37152931,4.541805605133685,-2.7302144718942856,6.9999999000000015,0.3163680410431249,2.4135,12,14,257.8593336214741,705.2812,mp-559032,GdMoClO4,https://materialsproject.org/materials/mp-559032,18.94235703050275,-3.502031372963124,37.589936913018185,-16.777253086538874
-5.687149402,-113.74298804,3.0200886008750216,-2.973783723714,3.00000005,0.13838006288959406,2.3648,15,20,252.65341097782814,459.51083839999995,mp-756643,LiVF3,https://materialsproject.org/materials/mp-756643,34.74991593918204,-34.64363381725324,5.796926629312733,-41.151559753563596
-3.75635418,-15.02541672,0.7586165458597769,3.20238112125,7.0000003,0.1416039431888072,0.027099999999999902,71,4,576.1030029747468,263.192409,mp-1097375,MnBe2Os,https://materialsproject.org/materials/mp-1097375,43.397791158164615,-39.952279305462326,25.70860749046914,-65.89895496770382
-5.606476861749999,-672.77722341,4.969130780753407,-1.863810158,0.9861690333333332,0.0057050801806214895,0.0,213,120,2014.4989075170638,6028.3488,mp-557970,SrCu(TeO3)2,https://materialsproject.org/materials/mp-557970,5.635337800980553,25.00745248304345,35.71464121565988,-6.295275539600016