energy_per_atom,energy,density,formation_energy_per_atom,total_magnetization_uB,total_magnetization_T,band_gap,sgr,num_sites,cell_volume,weight,mp_id,formula,URL,tsne_xrd_lin1_0,tsne_xrd_lin1_1,tsne_xrd_lin2_0,tsne_xrd_lin2_1
-5.5229442678125,-176.73421657,4.297059543112557,-1.7277456024999998,21.9999998,0.907632212903808,0.6200000000000001,2,32,282.4816252887586,730.991765,mp-1175430,Li9Co7O16,https://materialsproject.org/materials/mp-1175430,20.263532799056517,-72.53700840106066,-9.052534959662145,-77.72784662044619
-5.74834957125,-91.97359314,4.0035625010573455,-1.917001285685001,7.9999999000000015,0.6699870479510988,0.835,3,16,139.155700547029,335.504635,mp-1174000,Li5Mn(CoO4)2,https://materialsproject.org/materials/mp-1174000,20.771449792615837,-72.71954051809993,-11.309133531152384,-78.08110786398494
-6.051624562307693,-78.67111931,3.7015643355754198,-1.6039276863015384,5.0,0.4180818188878441,0.0029000000000000137,12,13,139.3754074688195,310.686485,mp-1222848,Li2Mn2CoO8,https://materialsproject.org/materials/mp-1222848,19.96546760391402,-73.58537346916033,-7.542944892847875,-76.8963785461571
-4.9115452523076915,-63.85008828,2.731887085548648,-2.8750305769600004,3.0000006,0.2450863863814778,1.0421,139,13,142.65256355650516,234.6892706,mp-765258,Li4MnF8,https://materialsproject.org/materials/mp-765258,20.40984039876163,-80.44202597874714,-11.789084566551715,-87.33958052386927
-5.38897195975,-215.55887839,4.8340422565208625,-1.3940355830000002,3.000000025,0.08508331856372821,0.0,164,40,410.91714802877226,1196.2325544000003,mp-1261478,Al(NiO2)3,https://materialsproject.org/materials/mp-1261478,23.876396742767483,-68.93642260813566,-15.443918029202006,-72.09064200061458
-6.9022608625,-82.82713035,3.9674503205093634,-2.443883892708333,7.000000599999999,0.7200324383003469,1.8928,12,12,113.29831277174752,270.6985,mp-757208,Li3V2CrO6,https://materialsproject.org/materials/mp-757208,2.381868555756657,-66.61344306573949,-11.89569321351112,-64.45996368867995
-5.328112180833333,-63.93734617,4.596347913734013,-1.564057659374999,4.9999574,0.5497664467349815,0.0,164,12,105.99014862711056,293.37919,mp-1222507,Li3Co2NiO6,https://materialsproject.org/materials/mp-1222507,19.849176284072907,-69.6219079452205,-10.050118363201074,-74.14594461074294
-5.49935492,-175.97935744,4.202436697141663,-1.7041562546874998,26.0000013,1.0490360248306971,0.4165000000000001,2,32,288.84203408146834,730.991765,mp-1175517,Li9Co7O16,https://materialsproject.org/materials/mp-1175517,14.57286879849967,-79.28504323039363,-13.95934525403671,-86.69001445785597
-6.903950739375,-220.92642366,4.054988985249519,-2.4219801737500006,10.9999991,0.4315650692782715,1.5101,2,32,297.04605663263,725.3779999999998,mp-769605,Li4VCr3O8,https://materialsproject.org/materials/mp-769605,14.11365279154126,-68.40755404281204,-11.282763813930128,-69.67503938803432
-6.157339646428571,-86.20275505,4.08904567762804,-2.178310066428572,1.0,0.0909788449772586,0.3386000000000005,74,14,128.09642478394605,315.435,mp-761324,LiSiNiO4,https://materialsproject.org/materials/mp-761324,26.76569957342978,-69.6522165034376,3.35576009117137,-39.7569027386315
-5.1246629546666655,-76.86994432,4.451820392632245,-1.3843403020000002,1.0000003,0.08206041671825959,0.0,166,15,142.0181463225001,380.7434,mp-756498,Li3FeNi3O8,https://materialsproject.org/materials/mp-756498,19.179207279432614,-73.81153849353335,-7.925235129142872,-76.92725786582152
-5.8684027225,-140.84166534,4.090589635598119,-1.9210038857049991,17.999999399999997,0.9800892893962996,0.8898999999999999,1,24,214.0347427353772,527.2554749999998,mp-1174927,Li7Mn2(CoO4)3,https://materialsproject.org/materials/mp-1174927,18.1993125864655,-73.73328228927097,-11.319996738625006,-79.16343378068552
-5.77381710875,-184.76214748,4.1471208947917475,-1.8384681453725,21.759444199999997,0.8759587468943343,0.0,1,32,289.495336419408,723.001465,mp-1176276,Li9Mn2Co5O16,https://materialsproject.org/materials/mp-1176276,10.89055881773629,-81.14085310494738,-14.731201996135594,-86.02571564740163
-7.034248638333334,-506.46590196,4.0844829726955085,-1.723838807819999,3.0001609125,0.04121875391964284,0.0,156,72,848.256346383985,2086.48428,mp-705430,MnO2,https://materialsproject.org/materials/mp-705430,19.586033721759225,-68.94916981587173,-16.010586327360404,-70.10013722586476
-5.7779472903125,-184.89431329,4.188859011013422,-1.842598326935,20.000000600000003,0.813232846554095,0.0,12,32,286.61078242383616,723.001465,mp-1176323,Li9Mn2Co5O16,https://materialsproject.org/materials/mp-1176323,18.28066701910631,-77.24428213385544,-14.309309506006755,-82.26049272631795
-5.75945086375,-184.30242764,4.135726823163966,-1.824101900372499,24.0000002,0.9635011773632473,0.0,8,32,290.2929061671478,723.001465,mp-1100653,Li9Mn2Co5O16,https://materialsproject.org/materials/mp-1100653,16.591036684887964,-76.72050534659415,-14.893418112970846,-81.9992269627598
-5.492427048571429,-153.78795736,4.2434456512994565,-1.7120856229464287,8.9999999,0.4233546133530664,0.339,2,28,247.7511251310215,633.11877,mp-1174269,Li4Co3O7,https://materialsproject.org/materials/mp-1174269,19.37477244233783,-79.98953578064805,-13.759783809241133,-87.49147390531509
-5.7707566503125,-184.66421281,4.147154034008058,-1.835407686935,24.0000002,0.9661633771586,0.1623000000000001,1,32,289.4930231104506,723.001465,mp-1176078,Li9Mn2Co5O16,https://materialsproject.org/materials/mp-1176078,14.37738432443702,-79.82428526222662,-14.361186457549046,-85.02871567228864
-5.794015681875,-185.40850182,4.189472283271438,-1.8586667184974992,24.000000600000003,0.9760222851592124,0.5445000000000002,2,32,286.5688271536199,723.001465,mp-1175601,Li9Mn2Co5O16,https://materialsproject.org/materials/mp-1175601,17.786386965934753,-75.22368107155431,-11.909378422616975,-81.31282664073184
-5.7781797953125,-184.90175345,4.163816536979079,-1.8428308319349995,21.9999991,0.8892080966375475,0.0,8,32,288.33454787148935,723.001465,mp-1100760,Li9Mn2Co5O16,https://materialsproject.org/materials/mp-1100760,16.69204130051832,-76.54287596607814,-13.737223464504215,-82.96250741821385
-5.8487017408333335,-140.36884178,4.061476220516863,-1.901302904038333,17.9942704,0.9728041084097668,0.0,2,24,215.56898348153425,527.2554749999998,mp-1174872,Li7Mn2(CoO4)3,https://materialsproject.org/materials/mp-1174872,16.328792375836105,-75.33750657181903,-9.890761855212011,-81.44093872028212
-5.870243612083333,-140.88584669,4.154644926102975,-1.9228447752883335,14.0000009,0.7742286096431485,0.5569000000000002,2,24,210.7348078750216,527.2554749999998,mp-1174535,Li7Mn2(CoO4)3,https://materialsproject.org/materials/mp-1174535,19.36347875719014,-75.14579658327612,-9.650143993823207,-83.41453188597536
-5.8020138325,-162.45638731,4.1341550560896465,-1.8615006376578582,8.00000035,0.3713092992568733,0.22280000000000036,1,28,251.0912666232514,625.12847,mp-1174701,Li4MnCo2O7,https://materialsproject.org/materials/mp-1174701,15.216951308064127,-82.75713795428351,-14.460119079330315,-88.37179121405437
-5.75906102625,-184.28995284,4.112352938444453,-1.8237120628725,21.999999600000002,0.8782177552079947,0.0,2,32,291.9428795583445,723.001465,mp-1175747,Li9Mn2Co5O16,https://materialsproject.org/materials/mp-1175747,10.792406034602893,-81.94240533064689,-16.524671872513906,-87.16954891173084
-5.093607816666666,-61.1232938,4.6179368459157315,-1.464698116875,4.0,0.4422441842974169,0.0,164,12,105.40841631257841,293.13939500000004,mp-1222524,Li3Co(NiO3)2,https://materialsproject.org/materials/mp-1222524,20.50323414848655,-69.89042380052115,-10.395183767005989,-73.96310015358131
-6.210686194166668,-149.05646866,3.9605377751065673,-2.076420293285,15.999999800000003,0.8564722119509351,0.4608999999999997,1,24,217.71288248266504,519.265175,mp-1175202,Li7Mn4CoO12,https://materialsproject.org/materials/mp-1175202,14.54409246768592,-81.29133816368228,-13.409432812469044,-86.95382539513783
-5.7538214753125,-184.12228721,4.138170905032388,-1.8184725119349991,24.0002826,0.964081919544645,0.0,1,32,290.12145369580793,723.001465,mp-1176311,Li9Mn2Co5O16,https://materialsproject.org/materials/mp-1176311,15.524640689434648,-76.09343526667891,-11.548668309342158,-82.68271161903381
-5.7936482978125,-185.39674553,4.180640942671019,-1.8582993344349996,24.0000014,0.97396487825024,0.3867999999999996,12,32,287.1741857464195,723.001465,mp-1176242,Li9Mn2Co5O16,https://materialsproject.org/materials/mp-1176242,18.23853837120201,-76.59382597331769,-13.451808176034644,-81.5769237894587
-5.797371008571429,-162.32638824,4.138475982595936,-1.8568578137292864,9.6509789,0.4484054309793984,0.0,8,28,250.82910564563247,625.12847,mp-1174800,Li4MnCo2O7,https://materialsproject.org/materials/mp-1174800,16.660540673705487,-76.21808419006392,-9.200465094664668,-81.09118174100911
-5.7876252978125,-185.20400953,4.234007426598815,-1.8522763344349995,20.0000012,0.8219980682348428,0.2697000000000003,2,32,283.5545707991625,723.001465,mp-1175836,Li9Mn2Co5O16,https://materialsproject.org/materials/mp-1175836,18.770033019725656,-78.37074610454434,-9.591212801498298,-83.0599761744968
-5.7766859565625,-184.85395061,4.167430739378996,-1.8413369931849992,22.0000005,0.8899799879604404,0.3521000000000001,1,32,288.08448986691377,723.001465,mp-1176049,Li9Mn2Co5O16,https://materialsproject.org/materials/mp-1176049,15.019136137080894,-80.03100850022997,-13.661681035424266,-86.8362802271303
-5.7856032959375,-185.13930547,4.286159872440451,-1.85025433256,16.0000002,0.665698401151695,0.0,2,32,280.1043811569522,723.001465,mp-1175681,Li9Mn2Co5O16,https://materialsproject.org/materials/mp-1175681,22.087384679260115,-72.09686170609862,-10.086675947329317,-83.97849968166204
-5.7732622690625,-184.74439261,4.1455681516840865,-1.8379133056849997,21.9999999,0.8853110762562526,0.22319999999999984,1,32,289.6037683331718,723.001465,mp-1176189,Li9Mn2Co5O16,https://materialsproject.org/materials/mp-1176189,13.97510534417552,-81.31467609142534,-13.888361077752235,-87.1141192810184
-6.3161483106666685,-94.74222466,4.239723921133321,-1.943835424858667,12.0000005,0.95901218034576,0.3934000000000002,2,15,145.8258674538711,372.325735,mp-757987,Li3Mn3NiO8,https://materialsproject.org/materials/mp-757987,10.962208629807987,-80.01995728067519,-6.084598270584736,-69.69416787606286
-5.793995684375,-185.4078619,4.205239297865458,-1.8586467209974995,23.9999995,0.9796954851364464,0.6301999999999999,1,32,285.4943734638581,723.001465,mp-1175545,Li9Mn2Co5O16,https://materialsproject.org/materials/mp-1175545,17.57814800523228,-75.96313430877825,-11.538614283604414,-81.3038579580262
-5.74290306625,-183.77289812,4.131394053947722,-1.8075541028724995,25.7850308,1.0340783232384407,0.0,8,32,290.5973487236096,723.001465,mp-1100618,Li9Mn2Co5O16,https://materialsproject.org/materials/mp-1100618,16.68996463048597,-76.76538923032393,-13.90994929732641,-81.72012749767369
-6.222555886666666,-149.34134128,3.964193110499265,-2.0882899857849995,15.999998199999999,0.8572625979653681,0.4219,2,24,217.51213201905185,519.265175,mp-1175125,Li7Mn4CoO12,https://materialsproject.org/materials/mp-1175125,2.6532873246389306,-75.58181246180719,-17.454004044626316,-83.91372289404892
-5.780083105,-184.96265936,4.182482873180166,-1.8447341416224996,21.8136267,0.8856277327920525,0.0,12,32,287.04771663460133,723.001465,mp-1176309,Li9Mn2Co5O16,https://materialsproject.org/materials/mp-1176309,16.602382211589948,-76.85551489687458,-10.147378409879744,-81.43879039499336
-5.7927343928125,-185.36750057,4.190148930931215,-1.8573854294349996,22.000000399999998,0.8948315908203034,0.5404,1,32,286.5225504867388,723.001465,mp-1175889,Li9Mn2Co5O16,https://materialsproject.org/materials/mp-1175889,15.58599317308797,-76.32354962449261,-12.869955367024223,-82.45844159346872
-5.7951718178125,-185.44549817,4.185977892252823,-1.8598228544349995,26.0,1.0564755193740911,0.7608000000000001,1,32,286.8080504752894,723.001465,mp-1175865,Li9Mn2Co5O16,https://materialsproject.org/materials/mp-1175865,13.792346158472133,-74.93215509257502,-10.850377377537237,-80.27794160706044
-6.21113298375,-198.75625548,3.7823667519278814,-2.3274084340625,24.9999998,1.014963126685456,1.6542000000000003,10,32,287.05635635714214,653.8554,mp-767668,Li9Fe5(SiO8)2,https://materialsproject.org/materials/mp-767668,13.2073985703849,-72.1439448881157,-13.990265265588505,-79.74845821680043
-5.817824186666668,-139.62778048,4.062556912456366,-1.870425349871668,17.9999998,0.9733727801226189,0.0,6,24,215.5116393832544,527.2554749999998,mp-1175128,Li7Mn2(CoO4)3,https://materialsproject.org/materials/mp-1175128,15.662357791187256,-75.29361974833587,-10.183583901997556,-81.18095172254506
-6.086634423125,-97.38615077,4.258969701903595,-1.9071344838699995,5.99999975,0.4676455963020954,0.2410999999999999,15,16,149.52431130490396,383.50167999999996,mp-1173949,Li2MnCoO4,https://materialsproject.org/materials/mp-1173949,5.7536087529451345,-77.08741938970938,-30.21442039598197,-76.5692914200408
-5.831319363333333,-139.95166472,4.0599938450232536,-1.8839205265383336,17.9999995,0.9727586629566156,0.1783999999999999,1,24,215.64769152654446,527.2554749999998,mp-1175045,Li7Mn2(CoO4)3,https://materialsproject.org/materials/mp-1175045,15.153246587811765,-79.81003837590896,-14.650794664738585,-84.61013290660716
-5.797145055625,-185.50864178,4.167746529536723,-1.8617960922474996,25.9999987,1.0518741552373756,0.7088000000000001,2,32,288.0626617048964,723.001465,mp-1175526,Li9Mn2Co5O16,https://materialsproject.org/materials/mp-1175526,1.6334765811877612,-72.84693198837095,-21.241353476281386,-76.26293827866806
-5.4354057095,-108.70811419,4.113836706472075,-1.702607450875,6.99999985,0.4620847815442166,0.0,12,20,176.54433757196122,437.37278,mp-1174044,Li3Co2O5,https://materialsproject.org/materials/mp-1174044,19.276360157564906,-72.35668621007903,-11.700352668158331,-76.54372262508684
-5.74913135,-183.9722032,4.116430919174847,-1.8137823866224991,26.0001681,1.0389296653280593,0.0,2,32,291.65366361847083,723.001465,mp-1175811,Li9Mn2Co5O16,https://materialsproject.org/materials/mp-1175811,12.977138250293589,-78.19003147688466,-13.635861938511267,-85.37136289052485
-5.4569291812500005,-130.96630035,4.148348299233613,-1.696397408541667,17.9998044,0.9790797943465508,0.4415,10,24,214.25310539781742,535.245775,mp-1174242,Li7Co5O12,https://materialsproject.org/materials/mp-1174242,19.76975724293677,-72.93058960305534,-11.975840581918435,-80.02859127270949
-5.7977253175,-162.33630889,4.128510161989088,-1.8572121226578568,9.00000135,0.41715263505212347,0.22049999999999992,2,28,251.43458262685797,625.12847,mp-1174468,Li4MnCo2O7,https://materialsproject.org/materials/mp-1174468,10.990328107991584,-79.91818589218016,-12.916186898344758,-82.37083214389301
-6.206484200416668,-148.95562081,3.9742370972154584,-2.072218299535,15.999979000000002,0.8594335935622315,0.6396999999999999,1,24,216.9624192286044,519.265175,mp-1175239,Li7Mn4CoO12,https://materialsproject.org/materials/mp-1175239,14.917303391496038,-80.03659827167695,-15.922593952541995,-84.67463683588754
-5.834209194583334,-140.02102067,4.063311872603235,-1.8868103577883333,16.0001817,0.8653908732119205,0.0,1,24,215.47159749033008,527.2554749999998,mp-1175043,Li7Mn2(CoO4)3,https://materialsproject.org/materials/mp-1175043,14.997725383559258,-80.08069432490396,-14.479364993448872,-84.98270432995432
-5.7923258065625,-185.35442581,4.1770682809093325,-1.856976843185,24.0004852,0.9731521711503444,0.4873000000000003,5,32,287.4198068766866,723.001465,mp-1175696,Li9Mn2Co5O16,https://materialsproject.org/materials/mp-1175696,13.094692916645545,-76.20431561837354,-14.618479842069336,-80.9540431787955
-5.8240963754166675,-139.77831301,4.0694782888508465,-1.8766975386216664,14.0000005,0.7583575693158281,0.0,12,24,215.14509677811265,527.2554749999998,mp-1174509,Li7Mn2(CoO4)3,https://materialsproject.org/materials/mp-1174509,1.8438791606244307,-73.96513119908046,-22.979079378518733,-77.94285230900313
-6.907034929574468,-324.63064169,3.9780517332908936,-1.6427525305191493,41.000001,0.8567605090431818,0.0,12,47,557.7015540347805,1336.051475,mp-776603,Mn15O32,https://materialsproject.org/materials/mp-776603,21.155074614384485,-68.63439576647596,-15.502287600524047,-69.93251584024456
-5.662773399545454,-249.16202958,4.351485825895471,-1.303049944204547,12.9999999,0.31702993887128583,1.0465,2,44,477.88180957691725,1252.301735,mp-769527,Li2MgCo13O28,https://materialsproject.org/materials/mp-769527,8.912536296966177,-67.4322005304835,-4.099768781734457,-69.6592604216263
-7.262213799285715,-101.67099319,3.7987561664474434,-2.6282721366666677,4.99999965,0.3816274904041041,1.5982,74,14,152.6889997420614,349.3012,mp-752855,LiTiFeO4,https://materialsproject.org/materials/mp-752855,3.46660678947167,-64.68704091138012,-9.768397799624307,-65.26750395511232
-5.936616052857143,-83.11262474,4.341177915384733,-1.6828362492857152,6.0000002,0.4921596568424236,0.6701000000000001,74,14,142.07664117532298,371.43359,mp-850214,LiFeCoO4,https://materialsproject.org/materials/mp-850214,18.75318419226497,-70.0642702688219,-9.629090890523702,-77.62637937641574
-6.1064415625,-97.70306500000001,4.263523277325198,-1.926941623244999,5.9999997,0.4681455864469514,0.4072,2,16,149.3646146914221,383.50167999999996,mp-1173916,Li2MnCoO4,https://materialsproject.org/materials/mp-1173916,5.540451006470642,-77.24459290249648,-29.87235596348405,-76.54707412878801
-5.787012877857142,-162.03636058,4.055825228097453,-1.846499683015,9.0000006,0.4098083748945148,0.0,2,28,255.94057215759446,625.12847,mp-1174471,Li4MnCo2O7,https://materialsproject.org/materials/mp-1174471,13.511255679984947,-84.22575953513106,-16.58813707279323,-87.25576400391321
-5.0010203025,-20.00408121,4.74568147088532,-1.3859964768749995,2.0001403000000004,0.6500154613456073,0.0,166,4,35.860323325468386,102.4858,mp-25372,LiCuO2,https://materialsproject.org/materials/mp-25372,18.83271708893208,-69.59184111572526,-10.486481083623127,-74.10350603908431
-7.379066193888888,-132.82319149,3.93406555618784,-2.0453936831370365,14.999998300000001,0.8048844476620934,1.4181000000000004,12,18,217.18763765935554,514.550025,mp-757064,TiMn5O12,https://materialsproject.org/materials/mp-757064,9.32630893802568,-64.99158817570172,-3.7059836779434874,-68.01561138932584
-5.7784567521875,-184.91061607,4.167326407443047,-1.8431077888099996,20.0,0.8090524427449873,0.17810000000000015,2,32,288.0917022639296,723.001465,mp-1175677,Li9Mn2Co5O16,https://materialsproject.org/materials/mp-1175677,14.907144358019798,-80.23353084875886,-12.971281230478912,-86.89397469337116
-5.82532633875,-139.80783213,4.074649568236663,-1.877927501955001,13.9999995,0.7593211960683761,0.0,12,24,214.8720486581955,527.2554749999998,mp-1174525,Li7Mn2(CoO4)3,https://materialsproject.org/materials/mp-1174525,15.077892554182606,-78.26368062113076,-12.40834484586683,-83.83691681647977
-6.89873309,-110.37972944,4.0363854791890486,-2.4167625243750006,10.9999993,0.8591702798546063,1.8919,12,16,149.20756379283173,362.689,mp-1177300,Li4VCr3O8,https://materialsproject.org/materials/mp-1177300,1.8672342087932667,-67.40839092271807,-11.557350880369848,-65.75001457203518
-5.4814010146875,-175.40483247,4.2731930133802924,-1.6862023493749998,21.870253100000003,0.8972679832577232,0.0,10,32,284.05933453045736,730.991765,mp-1175396,Li9Co7O16,https://materialsproject.org/materials/mp-1175396,13.331864215230473,-72.13153111856273,-12.550530658963494,-78.91771498080695
-5.760983193125,-184.35146218,4.143607980656351,-1.8256342297474992,23.9999998,0.9653372362491603,0.0,8,32,289.74076800081895,723.001465,mp-1100625,Li9Mn2Co5O16,https://materialsproject.org/materials/mp-1100625,16.281796468642952,-77.5028088537507,-14.566576244269573,-82.25385536345
-6.2292700791666675,-74.75124095,4.260124324510143,-2.0672639710416667,7.0000000999999985,0.7487883441008849,0.0,12,12,108.9472815863346,279.505,mp-756842,Li3Cr2NiO6,https://materialsproject.org/materials/mp-756842,15.77834801799458,-69.26865644099816,-11.077528626577136,-70.14398384412546