energy_per_atom,energy,density,formation_energy_per_atom,total_magnetization_uB,total_magnetization_T,band_gap,sgr,num_sites,cell_volume,weight,mp_id,formula,URL,tsne_cry_lin1_0,tsne_cry_lin1_1,tsne_cry_lin2_0,tsne_cry_lin2_1
-4.898759388999999,-48.98759389,5.598935124362283,-0.16142029800000018,2.99470705,0.11595160409165392,0.0,148,10,300.99204067892026,1014.8722,mp-541449,CrGeTe3,https://materialsproject.org/materials/mp-541449,55.15068448572681,34.32360969629749,-8.604250342815693,-0.5045126942092143
-5.078542263,-50.78542263,5.007806383718786,-0.18068898000000005,2.9999999,0.11389304220270445,0.5246000000000004,148,10,306.97391584331933,925.7632,mp-3779,CrSiTe3,https://materialsproject.org/materials/mp-3779,54.993438033093824,34.25885115235617,-8.604250342815693,-0.5045126942092143
-5.247159277,-104.94318554,5.607828762857309,-0.4006496141562501,3.0000006,0.07188318383180327,0.4882,62,20,486.3752472612325,1642.5444,mp-15236,CrSbSe3,https://materialsproject.org/materials/mp-15236,28.6827325521816,8.19289499679499,2.379191898431729,-4.739741388364795
-4.62082882,-18.48331528,7.238625997443554,0.2425404212500002,0.0334833,0.003966516769377609,0.0,166,4,98.37763702692659,428.848045,mp-1221681,MnSnTe2,https://materialsproject.org/materials/mp-1221681,67.38634807957996,27.152781065757257,-8.604250342815693,-0.5045126942092143
-5.628117488571428,-78.79364484,6.011691886214162,-0.3268153175862066,15.0008188,0.44769997860440064,0.0,12,14,390.4858661856384,1413.6859519000002,mp-866025,CsCr5Te8,https://materialsproject.org/materials/mp-866025,54.25787704743981,33.94228849808196,-8.604250342815693,-0.5045126942092143
-3.605561200833333,-43.26673441,6.395161611882495,-0.3256890941666661,0.0,0.0,0.0,131,12,374.864129664982,1443.6978800000002,mp-29748,TePdI,https://materialsproject.org/materials/mp-29748,52.45035120857155,30.567994874877968,-8.604250342815693,-0.5045126942092143
-4.8066023541666665,-57.67922825,5.831130505353848,-0.5166142400000003,1.5e-07,4.5521062381343124e-09,0.4017000000000008,36,12,384.02217005383835,1348.5279999999998,mp-13542,ZrGeTe4,https://materialsproject.org/materials/mp-13542,56.972166414101544,28.00891592897984,-0.7517164275544642,-1.2362443279844255
-4.84966933,-58.19603196,6.152763655587009,-0.766072767369792,5.000317900000001,0.19359707037766205,0.8815999999999997,12,12,301.0067692466153,1115.314645,mp-1095372,MnBi4S7,https://materialsproject.org/materials/mp-1095372,27.112389693357102,0.4342125228281412,5.635628263202465,-6.145677370496282
-6.368136858571428,-44.57695801,5.928016036966747,-0.3432881924553572,9.9999996,0.7310427425988515,0.0,12,7,159.41700296438196,569.1083,mp-1226346,Cr3(TeSe)2,https://materialsproject.org/materials/mp-1226346,54.0582415330765,34.1096728518189,-8.604250342815693,-0.5045126942092143
-4.71737797725,-188.69511909,4.733128907389943,-0.3384561606874996,4.9905827875,0.04999082627821416,0.14869999999999986,55,40,1163.4249599049474,3316.17636,mp-655834,MnSbSe2Br,https://materialsproject.org/materials/mp-655834,26.981217102933968,0.40463640108739,4.423278220575072,-6.184006705037646
-4.802495170714286,-67.23493239,6.868342706427287,-0.38624705991071395,5.00080435,0.1528118141871332,0.6391,12,14,381.38214718417663,1577.47769,mp-1104183,Mn(BiSe2)2,https://materialsproject.org/materials/mp-1104183,27.167673205817838,0.4334033729457555,5.340319938441179,-5.802981260438313
-3.5981390386250003,-287.85112309,5.146436902363118,-0.17073788262500006,0.0,0.0,1.0182999999999995,14,80,3206.5840098899243,9938.02728,mp-1201330,Te6MoI3,https://materialsproject.org/materials/mp-1201330,65.68596399705417,18.1526496741048,6.231866108348028,-6.246256602521679
-6.511634226666667,-39.06980536,5.896663619491602,-1.2100754251736106,1e-07,7.632689236378247e-09,0.0,10,6,152.68622122089187,542.197,mp-1224218,HfTiSe4,https://materialsproject.org/materials/mp-1224218,28.65716608535448,8.338004947169193,-8.604250342815693,-0.5045126942092143
-4.71718088875,-188.68723555,4.697254154496873,-0.3382590721874997,4.985583825,0.049562225561318916,0.18320000000000025,6,40,1172.3104878268853,3316.17636,mp-639335,MnSbSe2Br,https://materialsproject.org/materials/mp-639335,26.97274443801079,0.4025348823636846,4.453185428957031,-6.19049744440296
-2.5591490665,-102.36596266,6.212422799834665,-0.13253589449999978,5.69375e-05,4.415975282190217e-07,0.6923999999999997,61,40,1502.6200795637405,5621.6150400000015,mp-669496,PtI4,https://materialsproject.org/materials/mp-669496,9.931364766351836,-5.922218831182673,5.8286287951285685,-5.6219592143179
-4.432039138333333,-53.18446966,5.638733095568307,-0.2552027450000001,0.0,0.0,0.855,2,12,404.181199447572,1372.4879999999996,mp-29190,Te4MoBr,https://materialsproject.org/materials/mp-29190,56.5412132093729,27.565710614968122,-8.604250342815693,-0.5045126942092143
-5.87521489,-35.25128934,6.898917801888858,0.08858387666666682,2.75150755,0.2254077656420301,0.0,58,6,142.25883974561648,591.0322,mp-22498,CrSb2,https://materialsproject.org/materials/mp-22498,43.40504203225938,23.958674823215144,-8.604250342815693,-0.5045126942092143
-5.627770765714287,-78.78879072,5.8394912417295615,-0.31781556502463004,15.0046892,0.4500914032103087,0.0,12,14,388.51135254236254,1366.2483,mp-975531,RbCr5Te8,https://materialsproject.org/materials/mp-975531,54.25434081536753,33.93709870135295,-8.604250342815693,-0.5045126942092143
-6.206136925,-62.06136925,7.43308566859408,-0.257630245,1.83721545,0.07734302430545377,0.0,11,10,276.83204849719885,1239.1857599999996,mp-8848,TaFeTe3,https://materialsproject.org/materials/mp-8848,55.422630559036286,32.432496296858126,-8.604250342815693,-0.5045126942092143
-4.0893440902631575,-155.39507543,4.259826915983641,-0.6106929424954629,10.99999975,0.08924546871737266,0.20310000000000009,15,38,1436.4282178920962,3684.9092,mp-1194713,Rb7(FeTe2)4,https://materialsproject.org/materials/mp-1194713,26.80600924063981,16.50275501770393,-8.604250342815693,-0.5045126942092143
-4.524818043333333,-13.57445413,4.836945949152192,-0.4857101033333334,3.0002864,0.3342088480214614,1.0135000000000003,164,3,104.62180235151827,304.75043999999997,mp-1018138,VI2,https://materialsproject.org/materials/mp-1018138,10.117722995072233,-5.946434697085387,6.718117434107528,-4.725957636916567
-5.884681073076924,-76.50085395,5.322312917841542,-0.5819133145192311,9.9234798,0.4080822779745783,0.0,160,13,283.39597821396234,908.3328,mp-1216415,VCr3GaSe8,https://materialsproject.org/materials/mp-1216415,50.34363976549992,25.770147169866448,-8.604250342815693,-0.5045126942092143
-4.795359495714286,-67.13503294,5.3637383823296725,-0.31365387491071417,5.00044235,0.15321286006212065,0.5008999999999997,12,14,380.3563161390149,1228.59609,mp-1210700,Mn(SbSe2)2,https://materialsproject.org/materials/mp-1210700,27.241073716601797,0.37854299236651456,4.352358901353644,-5.753858386812937
-4.709921414,-47.09921414,5.496406388815925,-0.3529907054374995,5.00000005,0.20895573400245765,0.5335000000000001,12,10,278.8644433409822,923.0450300000001,mp-570268,MnSbSe2I,https://materialsproject.org/materials/mp-570268,27.12986448387917,0.3931952093253344,5.193496473090759,-6.271050591611191
-4.3668280184375,-279.47699318,4.284751450759972,-0.8409245485625005,0.0,0.0,0.0,14,64,2245.2785344017843,5793.576799999999,mp-30280,K4(TiTe3)3,https://materialsproject.org/materials/mp-30280,56.41252937108866,27.190521561309858,-4.943414035846184,-1.4990510182279129
-5.5502841258333335,-66.60340951,5.703730611711813,-0.938683869224139,6.95637835,0.1848747626186414,0.0019000000000000128,125,12,438.51352518333084,1506.2356,mp-19914,RbGdTe4,https://materialsproject.org/materials/mp-19914,57.489297861526104,26.925308123902216,-8.604250342815693,-0.5045126942092143
-3.92020924,-31.36167392,5.783382357845977,-0.03762857250000007,1.75e-07,8.868240526482056e-09,0.21940000000000026,62,8,229.9736152969433,800.96,mp-1080459,GeTe,https://materialsproject.org/materials/mp-1080459,57.169853799637636,27.937892407420858,3.908513653996773,-5.386051006112611
-5.2013503635000005,-104.02700727,4.803450208076665,-0.57417621465625,2.99999975,0.07050723149597285,0.0,62,20,495.8667453303682,1434.3964,mp-8829,CrGaSe3,https://materialsproject.org/materials/mp-8829,25.51535307162693,2.9740513319281945,-6.081373778871969,-3.487921458201698
-4.011216236666667,-48.13459484,5.426823923136742,-0.9526681429741384,0.0,0.0,0.16469999999999985,125,12,452.92835521968885,1480.2196,mp-11011,RbNdTe4,https://materialsproject.org/materials/mp-11011,57.504078962477635,26.804350906786308,-4.5727244920723775,-1.5876899316583308
-3.734503646,-149.38014584,5.064016803439258,-0.2741158280000001,0.00011855,9.564853707334094e-07,1.0895,2,40,1444.4438159337274,4405.008,mp-622262,Te6MoBr3,https://materialsproject.org/materials/mp-622262,65.18303703486936,18.628666577562218,5.338443106350229,-6.845197770135582
-4.3246148658,-216.23074329,5.3945122505982495,-0.3266208317999997,0.00107775,6.692531448540014e-06,0.9773,15,50,1876.744010125829,6096.8868,mp-651961,Nb4Te17I4,https://materialsproject.org/materials/mp-651961,56.686207532002534,27.762034564555954,-1.2586563498674086,-1.853072571246843
-5.1474285680000005,-25.73714284,5.472823075859786,-0.2844633036000005,5.7997575999999995,0.5487014025249581,0.0,139,5,123.18312004400411,405.9883,mp-1068789,K(FeTe)2,https://materialsproject.org/materials/mp-1068789,54.89776998476698,35.076324725340555,-8.604250342815693,-0.5045126942092143
-5.549823902499999,-66.59788683,5.798784732703211,-0.9584140485344824,6.99856165,0.17789047769147295,0.07350000000000012,125,12,458.49385443390617,1601.1109038,mp-1104966,CsGdTe4,https://materialsproject.org/materials/mp-1104966,57.50408203837982,26.937001297883302,-8.604250342815693,-0.5045126942092143
-5.945825175714285,-41.62077623,6.317572082445719,-0.5171653061904757,4.0147406000000005,0.2704732246502322,0.0,8,7,172.98587339996425,658.1301,mp-1217137,Ti2CrTe4,https://materialsproject.org/materials/mp-1217137,54.80511073804934,33.260143986329844,-8.604250342815693,-0.5045126942092143
-5.630910195,-78.83274273,5.701988176923027,-0.3142548620000006,15.014676099999999,0.4552359638340254,0.0,12,14,384.3765029781362,1319.8788,mp-1103869,KCr5Te8,https://materialsproject.org/materials/mp-1103869,54.252332187386045,33.93899025262791,-8.604250342815693,-0.5045126942092143
-4.828255031818182,-106.22161070000001,8.899859430241607,-0.2641649140340909,0.0,0.0,0.0,18,22,395.84144371219145,2121.56,mp-2503,Pd7Se4,https://materialsproject.org/materials/mp-2503,54.36642776981236,31.19751512726207,-8.604250342815693,-0.5045126942092143
-6.249336966875,-99.98939147,7.089604214701297,-0.3723460243750001,0.10093245,0.003084498161356661,0.0,64,16,381.34997928991453,1628.1583,mp-5603,NbCoTe2,https://materialsproject.org/materials/mp-5603,52.756653926011545,27.966086663734302,-8.604250342815693,-0.5045126942092143
-4.3688034675,-209.70256644,5.575840798340046,-0.33516031249999995,0.0,0.0,0.4868999999999999,14,48,1739.7105372413982,5841.6868,mp-505088,NbTe4I,https://materialsproject.org/materials/mp-505088,56.63952929532396,27.95406906964777,-3.4520428900499645,-1.8133301923775595
-5.836094853333332,-17.50828456,7.466116540202633,-0.009492740000000074,4.4439945,0.8058641279270314,0.0,216,3,64.26716112196584,288.958045,mp-622980,MnTePd,https://materialsproject.org/materials/mp-622980,51.070748365962544,31.275381224778037,-8.604250342815693,-0.5045126942092143
-5.88412727,-76.49365451,5.357710844536593,-0.6242440129807698,8.9332856,0.3702357491928899,0.0,44,13,281.1967489393758,907.2782,mp-1216693,V2Cr2GaSe8,https://materialsproject.org/materials/mp-1216693,50.33545333232102,25.728620043662985,-8.604250342815693,-0.5045126942092143
-4.837046982,-96.74093964,5.256188329715172,-0.4581251654374995,5.000002725,0.1112402285151269,0.6263000000000001,62,20,523.8244868599953,1658.08818,mp-567478,MnSbSe2Br,https://materialsproject.org/materials/mp-567478,27.056829502476862,0.3949653834143741,5.101893978785416,-6.234165317395139
-5.194733667142857,-72.72627134,4.11283682010232,-0.7273599751785714,5.000034599999999,0.1691109858318225,0.0,12,14,344.57091481560326,853.4360899999998,mp-10412,Mn(SbS2)2,https://materialsproject.org/materials/mp-10412,26.96603280631309,0.6062390064247917,4.9972278938017265,-6.105714967436395
-5.1730820871428564,-144.84629844,4.3684638097400095,-0.7057083951785715,5.000008425,0.08981043819537814,0.0,62,28,648.8156969185449,1706.8721799999996,mp-5807,Mn(SbS2)2,https://materialsproject.org/materials/mp-5807,26.97030404092561,0.5983928246294459,4.972326554691682,-5.899295395660435
-4.988119309166667,-59.85743171,6.8358114197866175,-0.4636802199999999,0.0,0.0,0.34670000000000023,36,12,369.97811012483226,1523.06,mp-567817,HfGeTe4,https://materialsproject.org/materials/mp-567817,56.99925533527185,27.989565776830773,-0.6995125072445009,-1.3104224193478116
-4.028828983333333,-48.3459478,5.296707768170185,-0.954647247583333,0.0,0.0,0.14970000000000014,125,12,434.9807096000235,1387.4806,mp-11010,KNdTe4,https://materialsproject.org/materials/mp-11010,57.5082423157962,26.752725920413297,2.8527155510899562,-4.883233322267503
-5.62128147,-78.69794058,6.542885380508333,-0.21486793357142836,15.0127615,0.4641772802907017,0.0,8,14,376.92429673942223,1485.1637999999996,mp-1216689,TlCr5Te8,https://materialsproject.org/materials/mp-1216689,54.28848001001227,33.90555832204892,-8.604250342815693,-0.5045126942092143
-5.568662321666667,-66.82394786,5.5750947828455795,-0.9414284230000002,6.9508981,0.19240960407418875,0.0054999999999996154,125,12,421.009216637793,1413.4966,mp-542281,KGdTe4,https://materialsproject.org/materials/mp-542281,57.53014505069115,26.83860829106656,-8.604250342815693,-0.5045126942092143
-3.08507480875,-24.68059847,5.923699174569057,-0.24540591874999995,0.0,0.0,0.5268000000000002,2,8,273.49768306583474,975.6578800000001,mp-573321,TePdI2,https://materialsproject.org/materials/mp-573321,9.541361747843355,-5.684569597235407,5.858233494311796,-5.6382020179490056
-5.059316995,-20.23726798,6.15117779151386,-0.04261056374999938,4.986606,0.5623991455532849,0.0,123,4,103.33271268053291,382.778045,mp-1221610,MnGeTe2,https://materialsproject.org/materials/mp-1221610,67.4273151083678,27.179395217199332,-8.604250342815693,-0.5045126942092143
-6.2506627925,-100.01060468,7.1820746590132405,-0.37367185,0.004687175,0.00014510848019853024,0.0,14,16,376.4400328332827,1628.1583,mp-571471,NbCoTe2,https://materialsproject.org/materials/mp-571471,52.77471368329554,27.97641726072679,-8.604250342815693,-0.5045126942092143
-4.947830750769231,-64.32179976,4.261653524801186,-0.37039287411538496,19.0029729,0.539082168381432,0.0,12,13,410.81284085638566,1054.32148784,mp-29770,Na3(Mn2Te3)2,https://materialsproject.org/materials/mp-29770,26.94882951608621,16.624557384847108,-6.000906576985158,-2.789516695939555
-4.33800005,-17.3520002,7.944262391741872,0.05533362583333279,0.7865366,0.10468315625221444,0.0,164,4,87.56278288270443,418.9132,mp-1224997,FeAgTe2,https://materialsproject.org/materials/mp-1224997,52.45054514183051,28.75856126092483,-8.604250342815693,-0.5045126942092143
-6.03980017,-42.27860119,6.278854510105875,-0.3626293709523815,7.813689999999999,0.5199204907456879,0.0,12,7,175.14456728200642,662.2592,mp-1025207,Ti(CrTe2)2,https://materialsproject.org/materials/mp-1025207,54.31480347778911,33.79786960301261,-8.604250342815693,-0.5045126942092143
-5.863170055714287,-41.04219039,7.043866529822253,-0.3933732920535716,3.6674862999999998,0.3160553549453124,0.0,12,7,135.23302872077855,573.6470999999998,mp-1077996,Cr(RhSe2)2,https://materialsproject.org/materials/mp-1077996,22.408454476577724,15.301105775394975,-11.336478014865738,-0.33417416866111105
-4.327401508529412,-294.26330258,4.756958888946178,-0.7424533525659234,0.9846372999999999,0.004223277668073662,0.1229,14,68,2717.0903202564764,7783.6694228,mp-1203892,Cs3Ti3Te11,https://materialsproject.org/materials/mp-1203892,65.18079585026018,18.56069943283949,4.971308821124715,-5.629343826669216
-4.291117013,-42.91117013,3.431188899915796,-0.7581673801999997,5.000000099999999,0.1550268223152367,0.8461000000000003,72,10,375.8725371388708,776.66929,mp-8719,K2MnTe2,https://materialsproject.org/materials/mp-8719,26.76738697399564,16.518485968113357,-8.604250342815693,-0.5045126942092143
-4.891624691666667,-176.0984889,5.903702119759164,-0.3805326516666672,0.0,0.0,0.6360999999999999,14,36,1213.1966156806736,4313.26892,mp-28745,Nb2Te6I,https://materialsproject.org/materials/mp-28745,56.67094698799628,28.15499015011852,-4.32071885893613,-1.5720613938859422
-5.148590767777779,-92.67463382,4.590070760824854,-0.4999031669348655,14.999999800000003,0.2567484296747572,0.2490999999999999,72,18,680.8648040380571,1882.0500776000001,mp-5927,Cs2Mn3Te4,https://materialsproject.org/materials/mp-5927,26.71280723150128,16.513142598490884,-8.604250342815693,-0.5045126942092143
-4.904191851666667,-58.85030222,10.205881118414156,-0.5013113600000002,2.7225e-05,1.1044862509344722e-06,0.05900000000000016,198,12,287.2665125206358,1765.576,mp-1218898,SnTePt,https://materialsproject.org/materials/mp-1218898,51.89187885209715,30.332141910629677,-1.7992133537427286,-2.3993977329091742
-6.9937450466666675,-20.98123514,6.538054923123723,-1.3493361690625,8.400000000000001e-06,1.1457432060211865e-06,0.5594000000000001,164,3,85.44160993060359,336.41,mp-985831,HfSe2,https://materialsproject.org/materials/mp-985831,51.099090592659856,8.046681010894378,4.850690120199987,-5.478191620175984
-4.5564019500000015,-50.12042145,7.809783679688794,-0.2361946572727276,0.0002465,1.4322817088549633e-05,0.0,164,11,200.5699680918612,943.313,mp-1224878,Ga2Ni5Te4,https://materialsproject.org/materials/mp-1224878,52.62260623009696,28.624654239360154,-8.604250342815693,-0.5045126942092143
-4.712391794,-47.12391794,6.415721156432452,-0.4012813424374997,5.00000045,0.2051374435450936,0.7008000000000001,12,10,284.05506132925245,1097.48583,mp-569109,MnBiSe2I,https://materialsproject.org/materials/mp-569109,27.0523021832163,0.4278401226401653,5.589438153066384,-5.738846331148764
-4.8931613828,-122.32903457,5.014071139525331,-0.5302286423562498,12.000695599999998,0.23322407227747585,0.0,8,25,599.6674462993635,1810.7224,mp-676814,Cr4(Ga2Se5)3,https://materialsproject.org/materials/mp-676814,25.560873944121944,2.9035634323730863,4.1894710577143615,-5.5566433762814915
-4.5544577025,-18.21783081,4.821190994668097,-0.469590309051724,4.0000002,0.3054895230956009,0.0,119,4,152.59528689782096,443.0434969,mp-1207341,CsMnTe2,https://materialsproject.org/materials/mp-1207341,26.70600875770268,16.5406780610647,-8.604250342815693,-0.5045126942092143
-4.691067254285714,-65.67494156,9.39742257438398,-0.3610794624553567,1.5e-07,5.5259506767225976e-09,0.0,12,14,316.34551557755594,1790.2816,mp-1103697,Bi2Pd3Se2,https://materialsproject.org/materials/mp-1103697,26.679549271773414,39.32396434416866,-8.604250342815693,-0.5045126942092143
-6.34559717875,-50.76477743,6.518475242994889,-0.17348474708333314,10.240005400000001,0.6558749913119194,0.0,12,8,181.95187769586215,714.2552999999998,mp-1216975,TiCr3Te4,https://materialsproject.org/materials/mp-1216975,54.01632016240926,33.926681486948056,-8.604250342815693,-0.5045126942092143
-6.096668126666668,-36.58000876,8.717016293516073,-0.25643094000000016,0.0,0.0,0.06229999999999869,58,6,131.28463422036276,689.1800000000002,mp-20928,Sb2Ru,https://materialsproject.org/materials/mp-20928,34.88404295268883,29.122803545748283,-8.604250342815693,-0.5045126942092143
-6.064701072857143,-42.45290751,6.2268831883454006,-0.13901934428571394,9.999023900000001,0.6557364102012669,0.0,164,7,177.7074909676066,666.3883,mp-570122,Cr3Te4,https://materialsproject.org/materials/mp-570122,54.177886800934886,33.92306233784929,-8.604250342815693,-0.5045126942092143
-4.89518388375,-156.64588428,5.937552946774981,-0.1291965712499996,3.004877525,0.03599871353284476,0.17140000000000022,14,32,972.785799081624,3478.3688,mp-540922,CrTe3,https://materialsproject.org/materials/mp-540922,54.1695941013909,33.7697573007757,-8.604250342815693,-0.5045126942092143