energy_per_atom,energy,density,formation_energy_per_atom,total_magnetization_uB,total_magnetization_T,band_gap,sgr,num_sites,cell_volume,weight,mp_id,formula,URL,tsne_xrd_lin1_0,tsne_xrd_lin1_1,tsne_xrd_lin2_0,tsne_xrd_lin2_1
-7.077947376111112,-254.80610554,8.617727476518237,-0.9002163765476191,7.2512746,0.18773552047221803,0.0,189,36,450.1376386282882,2336.086899,mp-1216929,Tm5Co19P12,https://materialsproject.org/materials/mp-1216929,-63.971940064739286,-29.147461143715038,-65.6481566911942,-16.854712999712973
-5.07058340375,-81.12933446,7.79159073247066,-0.7444293774999995,8.25e-07,2.9645581296799023e-08,0.0,71,16,324.3182631875018,1521.7679999999998,mp-1105802,CaGe2Pt,https://materialsproject.org/materials/mp-1105802,-20.808066229210436,-0.1554929698008377,3.9670104396049233,5.466364689408157
-3.8898328525,-31.11866282,14.56212347121851,-0.06851969249999977,3e-07,2.8260176756351475e-08,0.0,123,8,123.71541274886513,1084.924276,mp-1225771,Cu3PdAu4,https://materialsproject.org/materials/mp-1225771,-57.7675439485749,-37.42670234476916,-67.19214883139452,-29.92894813448892
-7.265242173928571,-203.42678087,5.926011003393709,-0.9775980104166664,0.943998,0.029337873850068075,0.0,227,28,374.99015413965583,1338.2376,mp-22432,Ti4Cu2O,https://materialsproject.org/materials/mp-22432,-60.07421700076941,-34.9734076688036,-70.42869457521621,-22.403629271375493
-5.171210871333333,-77.56816307,8.968294001472572,-0.5839935003333333,0.0009862666666666667,4.3547465383403704e-05,0.0,221,15,263.9422413027588,1425.50796,mp-1104547,HoGa3Ru,https://materialsproject.org/materials/mp-1104547,-38.9989291638619,-59.04480190080135,-56.58772496574847,-33.20612701676009
-9.7044817475,-38.81792699,7.954194325128283,0.2895485950000012,0.8335087999999999,0.14069559962632927,0.0,139,4,69.04100461917149,330.71524,mp-999441,Nb3Cr,https://materialsproject.org/materials/mp-999441,-80.41160969929798,-4.302120223999451,-77.71303789988359,-8.274666729589445
-5.7027034742857134,-79.83784864,5.606065146757648,-1.9301691072098217,10.0000004,0.5320024938765384,0.5070000000000006,139,14,219.06034977021812,739.559,mp-557020,Sr3Fe2Cu2Se2O5,https://materialsproject.org/materials/mp-557020,-28.787196635233112,44.654815899127904,-41.78622307385968,26.376477760247784
-6.9132886266666675,-82.95946352,4.064991725607931,-0.974534957552084,0.000167025,5.75589130716393e-06,1.3908,156,12,338.17875716556597,827.8599999999999,mp-1027580,MoSeS,https://materialsproject.org/materials/mp-1027580,-7.383119481149759,-81.92852904372805,-21.980691465886235,-50.585494347018205
-9.46096767875,-75.68774143,6.873149316683059,-0.7455811114732143,8.5e-07,8.960294809084347e-08,0.0,194,8,110.5538965819812,457.59444400000007,mp-9987,Nb2PC,https://materialsproject.org/materials/mp-9987,-43.94617246147626,-20.275035811504267,-58.44578997112653,-8.797734464614377
-7.4275576417647065,-126.26847991,9.469880179896158,-0.6435327458823528,5.3e-06,2.657406436576149e-07,0.0,191,17,232.43167640606575,1325.5335,mp-1225103,Er2(B2Rh3)3,https://materialsproject.org/materials/mp-1225103,-47.52733576447008,-0.4242059100973591,-58.35314543798192,17.895439133676852
-5.89296486724138,-170.89598115,9.761663600103427,-0.7146665082881778,2.45e-05,6.069773147751763e-07,0.0,225,29,470.4040496694187,2765.322572,mp-1208970,Sm3(P3Pd10)2,https://materialsproject.org/materials/mp-1208970,-69.56667571182524,-2.56856046944652,-58.97868112181406,-17.176386867249654
-9.59820208,-28.79460624,11.437131068325552,0.6466036016666669,2.4110015,0.5639441230082309,0.0,216,3,49.82402777398654,343.168045,mp-631280,MnTcOs,https://materialsproject.org/materials/mp-631280,-38.22465537994253,-30.20285928901879,-60.1633950311079,-41.12336544323576
-4.0091402745,-80.18280549,6.587846256876418,-0.7275385825,0.0,0.0,0.6059000000000001,62,20,523.9027152615265,2078.476,mp-30133,Ba(CuTe)2,https://materialsproject.org/materials/mp-30133,9.139824453774072,-16.420991839867206,4.964140693645122,4.688640770160883
-8.09960865861111,-291.58591171,9.551504625368082,-0.4989811537962968,0.00036645,1.0126522387111549e-05,0.0,142,36,421.7274077564783,2425.7974,mp-1199943,Tb(BRu)4,https://materialsproject.org/materials/mp-1199943,-58.180103752624,-12.00703641687384,-57.87355103726821,-1.3922694442850514
-6.575305446923077,-256.43691243,7.470696099827973,-0.8958594084065941,0.10775410000000002,0.0023372572197788303,0.0,174,39,537.2850066659355,2417.222906,mp-1214139,Ce6Ni20P13,https://materialsproject.org/materials/mp-1214139,-51.450056917635976,-0.27770613324862986,-55.83287005637149,19.831538013463227
-6.512986102307693,-169.33763866,2.301462861216444,-2.7937761231410265,0.0,0.0,4.7265,58,26,267.6247701092519,370.9208,mp-557467,Li4Ca(BO3)2,https://materialsproject.org/materials/mp-557467,-9.727560265378248,2.2224423810304508,-13.490331578994667,25.15582174720709
-5.83752916857143,-122.58811254,8.651749066242543,-0.5372116357142858,0.0,0.0,0.0,174,21,293.55696263515273,1529.4920000000002,mp-1191854,Sm2Ni12As7,https://materialsproject.org/materials/mp-1191854,-51.555904908883925,-1.1017954178252691,-55.67138698936107,18.35495069518908
-7.396506725,-29.586026899999997,9.11674339029924,-0.3837744683333337,1.95e-06,5.485916578197707e-07,0.0,194,4,41.425030772081854,227.433,mp-567164,BRh,https://materialsproject.org/materials/mp-567164,-64.0091571461556,12.406122523147333,-57.44921690002599,20.02454912132239
-5.814913550416668,-139.55792521,4.026270636877409,-1.867514713621668,16.7223692,0.8962063368707575,0.0,8,24,217.45391188364414,527.2554749999998,mp-1175008,Li7Mn2(CoO4)3,https://materialsproject.org/materials/mp-1175008,-1.3762199873197511,-76.65452254474802,-20.06707290193385,-76.98685329885059
-4.784970353333333,-28.70982212,6.895236381555437,-0.1466236645833329,2.8e-06,2.6384224725371057e-07,0.0,71,6,123.67762063438164,513.56,mp-1072419,SmGe5,https://materialsproject.org/materials/mp-1072419,-45.05846221464782,11.150947831004546,-40.22786758497777,27.225050859228396
-6.477222293,-129.54444586,8.875177138397257,-0.4684453647187503,0.00012255,3.77970492466932e-06,0.0,62,20,377.8616760677796,2019.57872,mp-622009,TaNi2TeSe,https://materialsproject.org/materials/mp-622009,32.597328550437496,-52.87717584487844,-67.37078404471434,-18.333926280365816
-8.180725346666668,-73.62652812,9.043472706410961,-0.08038287111111073,3.5000000000000004e-06,2.850222672010742e-07,0.0,87,9,143.1089125229062,779.3864,mp-569319,Mo5As4,https://materialsproject.org/materials/mp-569319,-48.93268212518746,-32.83317594572929,-60.68156318029457,-30.167622872820807
-6.4702928,-32.351464,6.39089174007853,-0.967140933857143,1e-07,1.4570338831662217e-08,0.0,139,5,79.98485764267001,307.836524,mp-8580,Ca(PRh)2,https://materialsproject.org/materials/mp-8580,-27.606071608308486,5.604139084818857,-50.45031329416489,14.819940170471616
-10.73718854625,-85.89750837,19.155585932017672,-0.034858037499999384,0.00010859999999999998,1.1668294953718092e-05,0.0,194,8,108.46755582714252,1251.25609,mp-1186060,MnOs3,https://materialsproject.org/materials/mp-1186060,-57.11082741006982,-47.2222727555886,-68.07007020377796,-35.544874591047524
-3.75224508,-18.761225399999997,7.473251952739908,-0.035703665999999856,2e-07,2.3528317666298132e-08,0.0,99,5,99.06415696905458,445.838,mp-1225676,Cu3Te2,https://materialsproject.org/materials/mp-1225676,-52.124846616193686,-30.13083238410512,-52.987167566646725,-25.278548247032443
-9.392860574285717,-263.00009608,8.345694297408054,-0.2645721541071424,0.9144631999999999,0.026700774181429583,0.0,227,28,399.1349948322589,2006.01044,mp-1193683,Nb4Co2C,https://materialsproject.org/materials/mp-1193683,-67.88086840619985,-15.219321307789686,-62.60773956418657,-3.9245452598402193
-5.9600341978125,-381.44218866,3.55530866732312,-2.945972567265625,0.000221,4.137568749181701e-06,0.0,123,64,622.478675489094,1332.7623,mp-1098218,Mg30CuSiO32,https://materialsproject.org/materials/mp-1098218,-31.05576380104753,-68.45429475138367,-50.604501907508904,-64.61104816621398
-7.415701329230768,-96.40411728,9.181796150531731,-0.5026528192307685,0.0,0.0,0.0,87,13,215.19455979919644,1189.8983,mp-7221,Nb5(AsPd)4,https://materialsproject.org/materials/mp-7221,-62.10681808422726,-28.907710422548536,-67.59966241782436,-16.354930582665734
-5.038167085,-10.07633417,3.383003017903431,0.5823523249999996,3.9117241000000003,1.217217363602712,0.0,123,2,37.452214696357295,76.30109999999998,mp-1185858,MgCr,https://materialsproject.org/materials/mp-1185858,-75.59460348070823,8.16003453841299,-66.64704913620518,9.2659678521719
-6.3782669525,-51.02613562,3.97057745489244,-2.7073933125,2.7000000000000004e-06,4.809381546558416e-07,4.264899999999999,121,8,65.42623948900075,156.44314599999998,mp-1227338,Be3ZnO4,https://materialsproject.org/materials/mp-1227338,-4.342404109355373,-22.560924419428588,1.6020589000908818,-20.14163562687176
-6.793846894166666,-81.52616273,5.516226662418166,-2.512056506850834,5.89771,0.43010125084178297,0.0,107,12,159.80491620345668,530.863845,mp-1218426,Sr3MnRuO7,https://materialsproject.org/materials/mp-1218426,-27.509461667605038,44.94562424503809,-15.14342333579539,64.47434043774143
-3.9175522383333337,-23.50531343,8.432224673399075,-0.5660376375000004,0.9933036,0.10703737034997067,0.0,191,6,108.14937302147476,549.183,mp-13118,CeZn3Pd2,https://materialsproject.org/materials/mp-13118,-70.85212888512159,-8.833809258477052,-53.99123535133544,-18.5302691964943
-6.632468673636364,-72.95715541,8.182898537639453,-0.5813729854545461,5e-07,5.030560066513248e-08,0.0,65,11,115.83267686372434,570.8068400000001,mp-1095435,Ho2(NiB2)3,https://materialsproject.org/materials/mp-1095435,-37.95200623260888,-14.798710979903927,-39.68090353581078,-8.06349765592289
-7.881652592777778,-283.73949334,7.272403429952718,-1.018941001269842,0.5,0.012482704121861957,0.0,189,36,466.8084999366843,2044.408264,mp-18133,Zr2Co4P3,https://materialsproject.org/materials/mp-18133,-63.38940186792154,-27.76378941801964,-66.48762110580395,-16.99407935318842
-8.952212385000003,-214.85309724,8.084904077743111,-0.6082900444444448,6.94984305,0.32691791394534353,0.0,55,24,247.75002411573246,1206.256,mp-1192291,GdB4Ru,https://materialsproject.org/materials/mp-1192291,-37.65451905671864,-11.657703797786274,-37.99496110851649,-10.432251735164302
-6.932322304375,-110.91715687,4.410438552295329,-2.1975169425,16.9999997,1.2752041074313587,1.0851999999999995,12,16,155.36265644279194,412.6476,mp-770828,Li3Cr4FeO8,https://materialsproject.org/materials/mp-770828,-6.216188385295918,-60.46516441565546,-24.5857036385904,-63.38449615917878
-5.7913754129166675,-416.97902973,9.183058236051084,-0.6149687262499997,1.09e-05,1.1939990621387534e-07,0.0,174,72,1063.8978710197568,5883.532920000001,mp-1208263,TmNi3Ge2,https://materialsproject.org/materials/mp-1208263,-55.820225098588345,-6.4414112964893535,-43.616585671611205,0.33608884882069523
-5.715271165555556,-308.62464294,5.634141050729459,-1.56850879958014,0.9999998999999999,0.007227827994883335,0.30490000000000017,15,54,1612.3880667059684,5470.766767600001,mp-1203665,Cs2BaTa6(Br5O)3,https://materialsproject.org/materials/mp-1203665,32.70198700896093,-23.081994937975143,2.59311759777218,-44.90905768711505
-6.2767768550000005,-37.66066113,8.758509709207019,-0.06750706541666672,5.154881400000001,0.7047149255884859,0.0,187,6,85.24769314385688,449.63878,mp-1219087,SmCo4Cu,https://materialsproject.org/materials/mp-1219087,-52.30115962770106,-16.880294780271413,-54.070186007749996,-14.973830789204507
-5.478344352000001,-54.78344352,7.381617137583731,-0.5960262184999998,5e-08,3.077421315818236e-09,0.0,65,10,189.34789189664573,841.7108000000002,mp-1079171,NdNiGe3,https://materialsproject.org/materials/mp-1079171,-46.094329152730175,13.762783372016113,-42.91363618030254,29.299019529632783
-1.868953798,-9.34476899,8.324010111011678,-0.3099236113333335,9.940000000000002e-05,8.082751638742308e-06,0.0,139,5,143.31926677542762,718.4359999999998,mp-1068325,Sr(InHg)2,https://materialsproject.org/materials/mp-1068325,-33.67623012588313,-8.835759297979237,0.4563734844409053,12.869956869253953
-9.325678661666666,-111.90814394,16.308697060008694,-0.30539648166666683,6.6e-06,3.501324802877106e-07,0.0,194,12,219.67921238181032,2157.5414,mp-1095666,TbOs2,https://materialsproject.org/materials/mp-1095666,-67.43542196250786,-11.39559752932338,-63.64328402320565,0.2370594208661829
-4.8572353470000005,-97.14470694,4.145591825866149,-2.94414719250138,4.0000001,0.12712656841599346,0.0,166,20,366.6917217737201,915.45827456,mp-554858,Cs2NaMnF6,https://materialsproject.org/materials/mp-554858,1.83593911572686,-7.864965608386483,11.843825417007654,-14.794854780547615
-3.236569478269231,-168.30161287,14.485530744724347,-0.12349040006410278,3e-07,3.4161382772728264e-09,0.0,215,52,1023.442012001637,8927.884484,mp-680545,In4Au9,https://materialsproject.org/materials/mp-680545,-80.31787392743475,2.592689545060168,-84.71060227731749,8.157470784045579
-8.254018849000001,-165.08037698,5.759003488710746,-0.3329718479519997,7.355386099999999,0.4186931549820153,0.0,59,20,204.7326186650156,710.04405,mp-1246257,MgMn5N4,https://materialsproject.org/materials/mp-1246257,-63.537096506508725,-33.119556718748456,-67.43244452378505,-19.90313364952496
-7.05183277,-112.82932432,5.514829390281423,-0.919305443749999,0.0,0.0,0.0,62,16,245.74017549730598,816.1296480000002,mp-22307,ScSi2Rh,https://materialsproject.org/materials/mp-22307,-42.9823623353838,-10.261448743052556,-41.995585834608576,-3.4538276510050587
-6.613375495,-26.45350198,8.370432575160986,0.25978511000000104,6.8e-06,1.4553389832695781e-06,0.0,139,4,54.45304589819167,274.4865,mp-978508,Si3Os,https://materialsproject.org/materials/mp-978508,-23.037583588817938,-32.99391559566589,-36.57870913837503,-17.65466753951774
-6.6391697090909085,-73.0308668,8.757489159261807,-0.5975636509090908,1e-06,1.0401800214736668e-07,0.0,65,11,112.03892145562351,590.8802000000002,mp-8771,Lu2(NiB2)3,https://materialsproject.org/materials/mp-8771,-37.95747295360131,-14.821927087714712,-39.68676642732873,-8.087373880875724
-7.0854722289285705,-198.39322241,6.557885718068256,-2.7778187259821427,4.5e-07,1.3370075999365158e-08,3.5565,167,28,392.2437799082724,1549.0692,mp-756585,Sr3W2O9,https://materialsproject.org/materials/mp-756585,-14.616306978910986,12.600805249978327,-16.083866725500613,24.496633922221125
-6.83462378,-27.33849512,8.222032955895479,0.4626285108928565,6e-07,1.250988912871736e-07,0.0,225,4,55.89529045052976,276.76128600000004,mp-1186361,P3W,https://materialsproject.org/materials/mp-1186361,-19.904158030128496,-41.18349654320022,-24.241821555236307,-39.11388610539712
-7.143236433125,-114.29178293,4.236759790755,-2.3465011393750004,13.0000014,0.9554343382863784,0.5800999999999998,12,16,158.56961832740387,404.5803,mp-755134,Li3V4CrO8,https://materialsproject.org/materials/mp-755134,-5.844597016023991,-60.983887573228884,-23.547877392318128,-64.306441648184
-6.164684677241381,-357.55171128,7.744775899441281,-0.3751786306896561,0.0001943,3.9538926255496975e-06,0.0,166,58,572.6975919062896,2671.069093,mp-1228559,Al5Ni41B12,https://materialsproject.org/materials/mp-1228559,-75.29067399417603,-33.90707242753253,-73.13934521869241,-18.74503404670078
-8.234569611904764,-172.92596185,8.215056964796759,-0.07252702416666677,36.1672829,1.59433213123424,0.0,12,21,264.3714250667411,1307.9044,mp-1225775,Er2Fe17C2,https://materialsproject.org/materials/mp-1225775,-52.640709594961116,-24.346908607860765,-54.901333457781924,-11.39796685037956
-8.556660244,-85.56660244,9.510397889988488,-0.7761657674999995,0.32445999999999997,0.02063018718310853,0.0,83,10,183.28858689177247,1049.7479119999998,mp-1224366,Hf5ScSi4,https://materialsproject.org/materials/mp-1224366,-43.96794663663773,1.6113521183911148,-56.957558005864286,23.843808577025772
-8.263922308095239,-173.54236847,7.837240884317873,-0.03165358630952498,28.973189,1.2545733678270383,0.0,8,21,269.13963737206063,1270.2575000000004,mp-1219238,Sm2Cr(Fe8C)2,https://materialsproject.org/materials/mp-1219238,-51.14132177000851,-25.537834270775072,-50.63310867255989,-10.393081220239262
-5.7785143525,-46.22811482,4.658978082943519,-0.34550168874999976,0.6293147,0.05866877457176173,0.0,123,8,125.00813813919314,350.7356116,mp-1220329,NbAl6Mo,https://materialsproject.org/materials/mp-1220329,-59.88829951056079,-43.210397568469716,-65.228573489432,-30.48525659218143
-6.277813424444443,-56.50032082,7.316373894761507,-0.16958084111111146,0.2045960333333333,0.017846522009698468,0.0,180,9,133.60448738301443,588.6645000000002,mp-1084800,VGe2,https://materialsproject.org/materials/mp-1084800,-67.0303077899827,-34.50871581647339,-65.76261585320843,-10.970718271561253
-5.927633646206896,-171.90137574,4.6081530137920215,-0.5096207020689655,2.9156758,0.08334188574186567,0.0,225,29,407.71185252790207,1131.4389826,mp-1192877,Ti6Al16Co7,https://materialsproject.org/materials/mp-1192877,-57.26575587212224,-32.93323904878511,-61.52577231758569,-18.10595605508864
-2.8266803835802468,-228.96111107,3.4079990119328545,-0.0730607582304524,0.0,0.0,0.0,204,81,1535.5030342910136,3151.3819896,mp-31506,Mg32Al36Ag13,https://materialsproject.org/materials/mp-31506,-38.533549282714205,-9.537497535540783,-27.415679153565574,-28.456990177904693
-4.3470308454545465,-47.8173393,6.304311929604657,-0.4662417736363642,1.2e-05,7.516284512633189e-07,0.0,123,11,186.06104789628688,706.389224,mp-1208973,Sc2Ga8Ni,https://materialsproject.org/materials/mp-1208973,-50.90909602724392,-32.690396971610454,-55.38410165464379,-29.12222352760097
-9.621545352,-48.10772676,14.430351001111871,0.3461749802499995,1.9e-06,3.286477569470752e-07,0.0,166,5,67.37524477134721,585.5017,mp-1219505,Rh2W2C,https://materialsproject.org/materials/mp-1219505,-49.63908290137192,-41.88782830538575,-65.45558079483506,-23.050346430704163
-6.532047283181819,-143.70504023,4.0614286625897815,-2.678807685909091,11.9999994,0.522837864670601,0.5871,155,22,267.48018789034177,654.2162969999998,mp-1227024,Ca6Sc(CoO4)3,https://materialsproject.org/materials/mp-1227024,-14.990327288198,5.0273762916099285,-16.703258919433438,20.680175713141683
-5.137285445,-92.47113801,10.529280927751373,-0.5556638561111116,0.0,0.0,0.0,12,18,273.15997905682565,1732.075,mp-31485,Ga5Pd13,https://materialsproject.org/materials/mp-31485,-57.973182888125066,-31.574028373528076,-62.47323475699064,-20.5746562661375
-6.956137381666667,-41.73682429,8.309263563064839,-0.5199343820138888,2.8999999999999998e-06,5.28569037220621e-07,0.0,139,6,63.940158163892924,319.95371,mp-6754,TmNi2B2C,https://materialsproject.org/materials/mp-6754,-39.979795359160384,-17.813513439034587,-42.83652851959679,-21.077909614195853
-8.058410218289474,-612.43917659,8.05670495002904,-0.35742491881578825,4.726365775,0.04374923256398421,0.0,62,76,1259.024893753315,6108.6140399999995,mp-567194,Mn2Nb9Ge8,https://materialsproject.org/materials/mp-567194,-59.232507825054576,-5.9720664456067105,-50.75392939864054,-5.073500341736309
-3.2571383425,-26.05710674,14.27243709596328,-0.40083838000000016,2.0300000000000002e-05,1.6526194784550443e-06,0.0,194,8,143.15304761149662,1230.409414,mp-864935,MgAu3,https://materialsproject.org/materials/mp-864935,-48.37845745706739,-32.86053358418868,-57.31898098113695,-27.157700911087108
-6.01429667265625,-384.91498705,3.635654079290884,-2.96588525,3.0000012000000003,0.056423129474495175,1.0079000000000002,123,64,619.6431964724802,1356.6729,mp-1037287,Mg30CrCuO32,https://materialsproject.org/materials/mp-1037287,-31.54537117678009,-68.7667033198624,-51.38480012600557,-64.81835806316893
-2.68770552875,-21.50164423,7.982944217783407,-0.16511660874999956,4.65e-06,3.74410462620375e-07,0.0,194,8,144.73794565764769,695.8192,mp-864934,MgAg3,https://materialsproject.org/materials/mp-864934,-48.26413972162449,-32.75779729617377,-57.72852526299612,-27.7983729714882