energy_per_atom,energy,density,formation_energy_per_atom,total_magnetization_uB,total_magnetization_T,band_gap,sgr,num_sites,cell_volume,weight,mp_id,formula,URL,tsne_xrd_lin1_0,tsne_xrd_lin1_1,tsne_xrd_lin2_0,tsne_xrd_lin2_1
-5.684820185,-22.73928074,4.931482516987247,-1.7856208418750017,0.0,0.0,0.6652,166,4,32.95599824178493,97.87299499999999,mp-22526,LiCoO2,https://materialsproject.org/materials/mp-22526,25.730800407691213,-70.604869523823,-11.392010356516506,-73.55761627892656
-5.662314154285713,-317.08959264,4.805378197637887,-1.8279658715178573,1.0,0.025251171844674087,0.0,2,56,461.5257004406209,1335.593735,mp-769537,Li14MgCo13O28,https://materialsproject.org/materials/mp-769537,25.605365586597838,-70.01816011432693,-6.629869292081119,-73.74765844651598
-5.5848110053125,-178.71395217,4.600337139228684,-1.7896123399999997,2.0,0.08833554823093523,0.5794999999999999,2,32,263.85900140886713,730.991765,mp-1175469,Li9Co7O16,https://materialsproject.org/materials/mp-1175469,25.49317571643505,-70.73103617241927,-6.15006415284724,-73.67967230519923
-5.5822807825,-178.63298504,4.606278337079943,-1.7870821171874995,2.0,0.08844963094997424,0.3640999999999997,2,32,263.51867492021654,730.991765,mp-1175381,Li9Co7O16,https://materialsproject.org/materials/mp-1175381,25.449949195700345,-70.87643907452845,-5.9528551956903915,-73.56955096535737
-5.482923534096386,-455.08265333,4.889874609199031,-1.5606817338855423,0.001056,1.769199993663173e-05,0.0,2,83,695.6077573989653,2048.391895,mp-532301,Li20(CoO2)21,https://materialsproject.org/materials/mp-532301,25.5145899054905,-70.01198409806057,-6.515021700599399,-73.65901792442385
-5.705891076666666,-85.58836615,4.809031245153899,-1.6739432873333338,0.9999709000000001,0.08776459947138968,0.0,166,15,132.78389817153786,384.55098,mp-850808,Li3(CoO2)4,https://materialsproject.org/materials/mp-850808,25.78043093159809,-71.33157543659432,-6.782516973180028,-73.7713386047315
-6.029520428333334,-72.35424514,4.456399210959118,-1.2676030608333342,4.9999982,0.4382970250077219,0.3745999999999999,166,12,132.94706457214778,356.790885,mp-754623,CrCo3O8,https://materialsproject.org/materials/mp-754623,25.58228394162768,-70.12158904819248,-6.3006658223993055,-73.53791028057344
-5.036975062857144,-70.51765088,4.771493832347615,-1.2008300192857146,1.0000003,0.08885206670922045,0.0,166,14,131.16260206888072,376.890595,mp-752703,Li2CoNi3O8,https://materialsproject.org/materials/mp-752703,25.891736031558004,-69.71627635964829,-6.695899291713077,-73.8178487136219
-5.6225713807272735,-309.24142594,4.746108945298579,-1.7476774011818184,3.0000002,0.0762059696574716,0.0,2,55,458.78553616782403,1311.2887349999999,mp-777836,Li14Co13O28,https://materialsproject.org/materials/mp-777836,25.689753235078587,-70.63900899425862,-6.117958698318079,-73.64435844769248
-4.810205378928573,-269.37150122,4.749224943387376,-1.0898987539285727,0.9999987875,0.022123389474876437,0.7825000000000002,212,56,526.775097244508,1506.6032,mp-774941,Li(NiO2)2,https://materialsproject.org/materials/mp-774941,25.773065996126533,-69.75970599966503,-6.694779986940915,-73.76034038113053
-6.03357253,-72.40287036,4.474281838819422,-1.2837638917466652,5.999998000000001,0.5237483955612634,0.7133000000000002,166,12,133.50755041892913,359.73283,mp-773602,MnCo3O8,https://materialsproject.org/materials/mp-773602,25.072329023824512,-69.96184320258844,-7.425029682717711,-72.77717676642408
-5.48005367375,-87.68085878,4.855366257937684,-1.6822129468749996,1.0000002000000001,0.08709508429927923,0.0,166,16,133.80855185037223,391.252185,mp-867537,Li4Co3NiO8,https://materialsproject.org/materials/mp-867537,24.916887398058172,-70.25502156513086,-6.657713125490103,-73.90291003282171
-5.553550925833334,-133.28522222,4.506932456176835,-1.7930191531250006,1.9999999,0.11819146413278216,0.7486999999999999,12,24,197.20652883635827,535.245775,mp-1174196,Li7Co5O12,https://materialsproject.org/materials/mp-1174196,25.629963925034662,-70.60141536213584,-6.3063762383998245,-74.16270682133322
-5.602707979375,-89.64332767,4.426974164279542,-1.9304873475000008,0.9999199000000001,0.08705586972927461,0.0,166,16,133.8580766375684,356.863785,mp-754576,Li4MgCo3O8,https://materialsproject.org/materials/mp-754576,24.761680778435828,-69.78647202122876,-14.64321308572574,-72.3134964530222
-5.850491372857142,-81.90687922,4.603686670561479,-1.6317713214285712,3.0000002,0.2588083558247272,0.0,166,14,135.0891339542742,374.521785,mp-867710,Li2FeCo3O8,https://materialsproject.org/materials/mp-867710,24.271357590036448,-69.34440706565952,-15.017889185592663,-72.13839502777539
-5.69321682,-62.62538502,4.82132445227102,-1.6129968684090903,0.9982821,0.11782939184399376,0.0,12,11,98.73635153859064,286.67798500000004,mp-758539,Li2(CoO2)3,https://materialsproject.org/materials/mp-758539,25.565838891329104,-72.00743933679631,-5.2373090606947805,-72.24690185636618
-5.973895771333332,-89.60843657,4.690390695279786,-1.7924543307306664,3.0000002999999995,0.2595017406091793,0.08630000000000004,166,15,134.72818229205276,380.55583,mp-774219,Li3MnCo3O8,https://materialsproject.org/materials/mp-774219,23.627463244305567,-72.41383298797007,-10.53188195633956,-71.96193250454887
-5.176187558947369,-196.69512724,4.684537242051493,-1.428250683552632,0.92632895,0.03161181922604693,0.0,10,38,341.50193972709206,963.40918,mp-778996,Li4Co2Ni3O10,https://materialsproject.org/materials/mp-778996,23.11917687820869,-71.15157825608856,-8.3435323576574,-75.46304726499025
-5.71471844263158,-217.15930082,4.800465324539613,-1.6978009438157895,3.0000001,0.1050911980862924,0.0947,2,38,332.68433626931744,961.759755,mp-764865,Li8FeCo9O20,https://materialsproject.org/materials/mp-764865,25.24343924740896,-72.32856188331313,-4.77045107394181,-72.22828561558414
-5.558993895833333,-133.4158535,4.5074588957594806,-1.798462123125,1.9939798,0.1178494658893731,0.6214,12,24,197.18349649704328,535.245775,mp-771155,Li7Co5O12,https://materialsproject.org/materials/mp-771155,25.61418920216617,-70.78474071794729,-6.3341816067501595,-74.4810013545848
-5.3627947675,-64.35353721,4.630337997114856,-0.9349980150000002,3.0000033,0.26820845510888125,1.1472,166,12,130.35470027184505,363.488185,mp-752738,Co3NiO8,https://materialsproject.org/materials/mp-752738,25.743052202147574,-72.15704132453689,-4.881389051438334,-72.05601772813127
-5.648955319583332,-135.57492767,3.9916313397328143,-2.0753638772916663,2.9999999,0.17774363549046576,0.0,12,24,196.7001128102164,472.831,mp-756986,Li7Si2(NiO4)3,https://materialsproject.org/materials/mp-756986,25.635250248657478,-71.909277244143,-5.544656962819053,-73.71049976163906
-5.583560195,-178.67392624,4.610821642195161,-1.7883615296874993,3e-07,1.3280530705625423e-08,0.10980000000000034,2,32,263.2590149644369,730.991765,mp-1175409,Li9Co7O16,https://materialsproject.org/materials/mp-1175409,25.48724213258903,-70.70899623616722,-6.023374288617574,-73.70451569284579
-6.1754748557142864,-86.45664798,4.598148300819519,-1.8374423421428572,0.0,0.0,0.2413000000000003,166,14,133.48103453534895,369.618285,mp-754294,Li2VCo3O8,https://materialsproject.org/materials/mp-754294,24.622518777488352,-69.4244015591535,-14.852693651995207,-72.26159014992966
-6.077088647142857,-85.07924106,4.5783316741174325,-1.7228776678571427,0.9999998999999999,0.08668515439140599,0.0,166,14,134.4412856961884,370.672885,mp-761748,Li2CrCo3O8,https://materialsproject.org/materials/mp-761748,24.62541426347508,-69.48109674354887,-14.656392238863747,-72.13655802389249
-5.5962426475,-44.76994118,4.72953379174407,-1.6356887381249994,1.0000001,0.17229002254653425,0.0,166,8,67.64214065163578,192.657795,mp-1222775,Li2FeCoO4,https://materialsproject.org/materials/mp-1222775,23.85722926030127,-69.45321213407735,-11.346887840577658,-74.16046791848807
-6.611106175,-26.4444247,3.2951600178770812,-3.083879621875,0.0,0.0,6.1195,166,4,33.21992125434992,65.92133860000001,mp-8001,LiAlO2,https://materialsproject.org/materials/mp-8001,25.88123821428607,-71.36214151900992,-11.381217901200774,-73.40958523405796
-5.568578685,-178.19451792,4.543354132044165,-1.7733800196875,3.9999997000000005,0.1744827110772237,0.2925,10,32,267.1683360845282,730.991765,mp-1175506,Li9Co7O16,https://materialsproject.org/materials/mp-1175506,25.280295639523946,-70.8607299387185,-9.574088006569417,-75.5832966821492
-4.868820472083333,-116.85169133,4.435763066898929,-1.4461507535416664,3.0001201,0.17488638514998972,0.5345,5,24,199.92176029524572,534.0468,mp-755638,Li7Ni5O12,https://materialsproject.org/materials/mp-755638,25.28554999619768,-70.5192913256917,-6.528692911844707,-74.8704634309293
-6.387468618333332,-38.32481171,4.342674997336344,-1.4507929159933326,4.0,0.6854026573772583,1.1515,10,6,68.01295353685842,177.86883999999998,mp-752945,MnCoO4,https://materialsproject.org/materials/mp-752945,24.361086888880855,-70.49907430348489,-7.32520508069875,-71.23763742137275
-6.45105055875,-309.65042682,4.325629492973771,-1.4626526139899998,8.999999825,0.19432624366536602,1.1403,212,48,539.7448071614705,1406.01094,mp-775810,Mn3NiO8,https://materialsproject.org/materials/mp-775810,24.058126079229172,-69.54500837671617,-8.489435005902642,-72.7906466035652
-4.807945034038462,-250.01314177,4.9465464425357455,-1.1593829877884618,9.000016699999998,0.2246427718718973,0.0,2,52,466.9047514946561,1390.8532,mp-759153,Li9Ni15O28,https://materialsproject.org/materials/mp-759153,25.021066030126942,-71.84985675560159,-5.5000795372976805,-74.21017797256991
-7.2455687328571425,-405.75184904,3.527796851053026,-2.8669670425000007,3.000000925,0.0670186456585733,2.9845999999999995,212,56,521.6787769153686,1108.3008,mp-766402,Li2VSi3O8,https://materialsproject.org/materials/mp-766402,26.064540957062768,-69.6304977770508,-6.744198912320128,-73.75631023522875
-4.789888063636363,-210.75507480000002,4.899231978403995,-1.1131810777272728,7.0000004,0.20131368293119775,0.0,12,44,405.23056794616656,1195.5868,mp-758593,Li7Ni13O24,https://materialsproject.org/materials/mp-758593,23.26625822979421,-71.23814288118975,-9.801433946738824,-75.54950466604598
-4.769368051428573,-66.77115272,4.6981984382051225,-1.0490614264285725,1.00000045,0.08754291314330984,0.0,74,14,133.12408278909848,376.6508,mp-752531,Li(NiO2)2,https://materialsproject.org/materials/mp-752531,24.81429600283742,-69.48773679768857,-14.77022143846899,-72.48656004318825
-5.1883226475,-207.5329059,4.814492123255096,-1.5323839833750001,2.4682498,0.08533829245227413,0.0,10,40,337.07193122178484,977.29118,mp-769553,Li5Co2Ni3O10,https://materialsproject.org/materials/mp-769553,24.91284738419169,-70.31468767192558,-7.389019712415617,-74.31457312211042
-5.9854093446666665,-89.78114017,4.621340732415859,-1.7942809206666672,2.0004574,0.17182156869151494,0.0,166,15,135.6841302980005,377.613885,mp-849768,Li3CrCo3O8,https://materialsproject.org/materials/mp-849768,23.549663687817002,-72.46978078622107,-10.161852841474007,-73.65705700914506
-5.5265517059375,-176.84965459,4.452348259950796,-1.7313530406249995,14.000160500000002,0.5984639495446511,0.0,12,32,272.62924929291586,730.991765,mp-1175418,Li9Co7O16,https://materialsproject.org/materials/mp-1175418,23.05841480446248,-71.20239656071745,-9.922772481593332,-75.61757639570729
-6.448902061666666,-77.38682474,4.3331376368016405,-1.460504116906667,8.9999999,0.7786541761188324,0.8303999999999998,166,12,134.70239421360756,351.5027350000001,mp-757044,Mn3NiO8,https://materialsproject.org/materials/mp-757044,24.622831790454697,-69.96758241029677,-7.772982888071492,-72.68748896621159
-4.8584825658333335,-233.20716316,4.9347934407072875,-1.3291701079166671,11.000001199999998,0.31141464904006705,0.0,12,48,411.652845741822,1223.3508,mp-758517,Li11Ni13O24,https://materialsproject.org/materials/mp-758517,22.96776794748623,-71.03315630197784,-10.54965173957788,-75.19807247655463
-4.7829860771428585,-66.96180508,4.633670527544228,-1.0626794521428582,1.00000045,0.08634054560762443,0.0,227,14,134.97795195609362,376.6508,mp-25388,Li(NiO2)2,https://materialsproject.org/materials/mp-25388,24.06591516553591,-69.51512557121302,-8.898903723263809,-73.29254010173214
-5.46349639125,-174.83188452,4.17177119451064,-1.9098615899999996,4.9999998,0.21911848847413085,0.6026000000000002,2,32,265.9306475585921,668.0974,mp-867679,Li9Si2Ni5O16,https://materialsproject.org/materials/mp-867679,25.36323319799656,-70.78815976447163,-6.250455314292102,-74.4558864876769
-5.8076559755,-232.30623902,4.712431091440831,-1.859372979375,7.998760300000001,0.27374700140434943,1.665,6,40,340.5263625104969,966.37717,mp-769566,Li5Fe2Co3O10,https://materialsproject.org/materials/mp-769566,23.20662737729123,-70.90610611587854,-8.52698462048445,-75.42352075503801
-5.797088849250001,-231.88355397,4.699120572903617,-1.861076766375001,14.9998445,0.5102692344477499,0.0,10,40,342.5822048051051,969.465365,mp-760848,Li10Fe3Co7O20,https://materialsproject.org/materials/mp-760848,22.81913011820737,-71.26501788799176,-9.511380478299095,-75.7778231445574
-5.619281881333333,-84.28922822,4.725846294093653,-1.5873340920000003,4.9999557999999995,0.4312411266876777,0.0,166,15,135.12117733459328,384.55098,mp-759191,Li3(CoO2)4,https://materialsproject.org/materials/mp-759191,24.49559246825676,-69.387770489962,-14.97180956395293,-72.25556130029183
-5.486293195714286,-76.80810474,4.7416163134811224,-1.418471315,0.9999299,0.08817728356460414,0.0,12,14,132.15702901622328,377.370185,mp-755696,Li2Co3NiO8,https://materialsproject.org/materials/mp-755696,25.301146051075012,-72.59019372447106,-5.025873648523223,-72.10301228932705
-4.85309625625,-116.47431015,4.4144998586126265,-1.4304265377083336,3.0000002999999995,0.17404110231792752,0.0,2,24,200.88471831229685,534.0468,mp-756913,Li7Ni5O12,https://materialsproject.org/materials/mp-756913,25.202690019818917,-70.91938448637464,-6.663566566429044,-75.16859397140067
-4.57552803,-13.72658409,4.6270864528279745,-0.5531657425000004,0.0,0.0,1.5217999999999998,166,3,32.54703370226544,90.6922,mp-25210,NiO2,https://materialsproject.org/materials/mp-25210,25.660479251061176,-72.27920610621733,-4.703262754137942,-72.00284556033759
-4.953358391,-198.13433564,4.802057567195493,-1.4190500663750008,9.000000300000002,0.3105947038678827,0.4141000000000004,1,40,337.69599140966733,976.571795,mp-759912,Li10CoNi9O20,https://materialsproject.org/materials/mp-759912,25.065526473502523,-71.07309338579985,-6.733410305450622,-75.23633062848019
-5.88734854625,-282.59273022,5.0189053420064,-1.612863827500001,0.0,0.0,1.7038000000000002,212,48,535.470052082036,1618.4344,mp-543103,NiGe3O8,https://materialsproject.org/materials/mp-543103,24.730849866199762,-69.66747972912576,-8.970908612671792,-73.33953881249033
-5.706853708333332,-68.4822445,4.826838048392,-1.7667513210416659,1.0000001,0.11660010537898526,0.5348000000000002,12,12,99.94901719931528,290.53078999999997,mp-761602,Li3Fe(CoO3)2,https://materialsproject.org/materials/mp-761602,25.203639089339838,-70.92359933963426,-5.896159537459741,-73.98881846723718
-5.5218579603125,-176.69945473,4.415249049010975,-1.726659295,13.449327599999998,0.5701270286329039,0.0,12,32,274.920021549613,730.991765,mp-1175571,Li9Co7O16,https://materialsproject.org/materials/mp-1175571,22.542003816494212,-71.09237072310663,-8.743058476941489,-75.73561309575733
-5.138717466666667,-61.6646096,4.715701978565588,-1.5098077668750003,2.0,0.22580341010346824,0.0,12,12,103.22310692490903,293.13939500000004,mp-754316,Li3Co(NiO3)2,https://materialsproject.org/materials/mp-754316,24.598912693307604,-71.92815451421708,-5.932642212207131,-74.52530688286265
-5.77868607,-80.90160498,4.495743051059748,-1.4547867621428574,3.0000002,0.2591506585623482,0.0,227,14,134.91069960017327,365.2572,mp-25386,Li(FeO2)2,https://materialsproject.org/materials/mp-25386,24.01789239044435,-69.50984648151406,-8.833374989848611,-73.2026619085703
-5.6442515957142865,-79.01952234,4.55360795281485,-1.460591296428571,3.00000015,0.2538994654036416,0.0,227,14,137.70094399453328,377.60998,mp-25383,Li(CoO2)2,https://materialsproject.org/materials/mp-25383,23.295194853015094,-69.4528720588191,-9.010851359140354,-73.47730661670779
-4.924454080625,-78.79126529,4.887797096908515,-1.3700597287500005,0.99999995,0.08570835597673047,0.0,15,16,135.9734888978677,400.23800000000006,mp-772597,Li2CuNiO4,https://materialsproject.org/materials/mp-772597,25.13434946718504,-70.76841922385367,-5.720804546222626,-74.32826661118953
-5.11368290525,-204.54731621,4.765143914908316,-1.4982876876250004,0.9610359,0.032894748110491395,0.21409999999999973,2,40,340.4791120374349,977.051385,mp-769555,Li10Co3Ni7O20,https://materialsproject.org/materials/mp-769555,24.557712259534327,-72.25156827925406,-4.1251934999886135,-73.45626179880149
-4.839470818260869,-111.30782882,4.692582555242919,-1.2767584519565225,5.0000002,0.2844710597841223,0.20279999999999987,1,23,204.83744897576318,578.8581999999999,mp-690572,Li5(NiO2)6,https://materialsproject.org/materials/mp-690572,24.553215223084287,-72.24759696169586,-4.435587829295135,-72.80352652344565
-5.685944774615384,-73.91728207,4.76400758728272,-1.3272315792307685,2.9998463,0.27059112132198243,0.0,166,13,129.20011165600428,370.66898,mp-758972,Li(CoO2)4,https://materialsproject.org/materials/mp-758972,26.11713068491761,-69.77809949494538,-6.563733537758751,-73.83445833391986
-5.8064333921875,-185.80586855,4.281215119349542,-1.87108442881,14.000000199999997,0.5818141135921989,0.4655,1,32,280.42789842153513,723.001465,mp-1175746,Li9Mn2Co5O16,https://materialsproject.org/materials/mp-1175746,22.00678734765284,-80.15875251513077,-9.826391466009543,-86.25718799084439
-5.9967802,-71.96136240000001,4.623458207281955,-1.2469715617466657,5.9999597,0.5412071585585768,1.0111,166,12,129.1999151725553,359.73283,mp-753551,MnCo3O8,https://materialsproject.org/materials/mp-753551,26.088934745957424,-70.00117482913987,-6.437331756952772,-73.8532748596286
-5.506153073571428,-77.08614303,4.886088896021452,-1.4383311928571427,0.9986313,0.09074595811955803,0.0,166,14,128.24939088496092,377.370185,mp-753237,Li2Co3NiO8,https://materialsproject.org/materials/mp-753237,26.53665227255392,-69.65620673694882,-5.730950230321323,-74.61839341038568
-5.691337476666668,-34.14802486,4.5465316228036565,-1.1283959025000003,2e-07,3.509068400351823e-08,1.2248,166,6,66.42255688940827,181.86399,mp-25234,CoO2,https://materialsproject.org/materials/mp-25234,25.281497976233148,-71.4323506880232,-5.335758959531692,-71.790048749565
-5.83310991875,-186.6595174,4.616835517027526,-1.8878946509375003,14.9996934,0.6281619831330761,0.0,10,32,278.2839508692508,773.719375,mp-765504,Li8Fe3Co5O16,https://materialsproject.org/materials/mp-765504,22.354733715750648,-71.49771066746867,-10.215564590291029,-72.10244664847585
-5.40179758,-43.21438064,4.573780531377044,-1.6439609031250004,8.2e-06,1.3679550112186264e-06,0.0,10,8,69.85853361497468,192.418,mp-755008,Li2FeNiO4,https://materialsproject.org/materials/mp-755008,21.934197750148634,-69.20724639811748,-8.626352097424501,-73.70632303167827
-5.289158121875,-84.62652995,4.318810542392833,-1.787027825000001,3.0002609000000002,0.2534391680046361,0.0,166,16,137.96302733498015,358.82093860000003,mp-1222534,Li4AlNi3O8,https://materialsproject.org/materials/mp-1222534,22.034549413900017,-70.96949877855887,-10.69353491807046,-74.42002001769502
-4.831001051333334,-72.46501577,4.623207406478524,-1.2315166913333333,2.9999999,0.25376027702800225,0.0,12,15,137.77646194961613,383.5918,mvc-16810,Li3(NiO2)4,https://materialsproject.org/materials/mvc-16810,22.65739349586428,-71.80548786953155,-4.509089188933812,-73.10607748195024
-6.360570840833333,-76.32685009,4.411528092940414,-1.4238951384933325,3.99999995,0.3481348526028886,1.1610999999999998,74,12,133.90287745970062,355.73767999999995,mp-753606,MnCoO4,https://materialsproject.org/materials/mp-753606,24.100547567211887,-69.84100284727282,-14.436070959855499,-72.20606641439247