energy_per_atom,energy,density,formation_energy_per_atom,total_magnetization_uB,total_magnetization_T,band_gap,sgr,num_sites,cell_volume,weight,mp_id,formula,URL,tsne_xrd_lin1_0,tsne_xrd_lin1_1,tsne_xrd_lin2_0,tsne_xrd_lin2_1
-4.6008704602702695,-170.23220703,4.527960646552558,-1.0862845331486497,2.0949554,0.06234409912347419,0.0,2,37,391.61277924426537,1067.85038496,mp-760203,Na7(NiO2)10,https://materialsproject.org/materials/mp-760203,9.403651525664221,-53.66984561869462,-4.240816338929869,-59.53537340812298
-5.7674115328125,-184.55716905,4.161492560302075,-1.8320625694349992,25.0298274,1.0111047185377768,0.0,8,32,288.4955676870286,723.001465,mp-1100656,Li9Mn2Co5O16,https://materialsproject.org/materials/mp-1100656,6.511100299688394,-71.77331603952963,-21.474522130978006,-74.7816168701198
-5.802953870714285,-162.48270838,4.113684786657487,-1.8624406758721437,10.908546300000001,0.5037985910913257,0.0,12,28,252.34073179776155,625.12847,mp-1174600,Li4MnCo2O7,https://materialsproject.org/materials/mp-1174600,1.8580125374326182,-72.79552742082375,-22.08657614257236,-73.74297287421224
-5.827868601666666,-139.86884644,4.021471938402311,-1.8804697648716664,17.875874,0.9568846025333028,0.0,1,24,217.71339293221118,527.2554749999998,mp-1175048,Li7Mn2(CoO4)3,https://materialsproject.org/materials/mp-1175048,14.53647258549259,-79.31023594531527,-13.29013759699317,-85.96172266549705
-6.4084725625,-179.43723175,3.893008279930223,-2.147615829223571,11.00000005,0.4933823640969129,0.6337999999999999,2,28,259.8283246615583,609.14787,mp-1174275,Li4Mn3O7,https://materialsproject.org/materials/mp-1174275,3.3765069724703896,-78.49146659023513,-28.850187821655574,-77.41144972747144
-6.7080575803333335,-201.24172741,4.129980386668666,-2.1658454516666668,7.000000200000001,0.28129152021289205,0.0,2,30,290.0139175080328,721.303,mp-768696,Li3Cr3FeO8,https://materialsproject.org/materials/mp-768696,1.574178249440897,-72.44504623963783,-6.830053459783317,-68.12928375197289
-5.8446217408333325,-140.27092178,4.075398527837072,-1.8972229040383333,15.4372494,0.8374275487020303,0.0,8,24,214.83256037684023,527.2554749999998,mp-1175114,Li7Mn2(CoO4)3,https://materialsproject.org/materials/mp-1175114,16.564627378231616,-74.66370935920139,-11.712097585261832,-78.57624735879526
-5.8400338538888885,-210.24121874,4.475782229851868,-1.6786840562499998,11.0059236,0.3671221419172973,0.0,10,36,349.37622080320534,941.701365,mp-759810,Li6Fe3Co7O20,https://materialsproject.org/materials/mp-759810,7.736254706503672,-67.68501350486207,-5.3000778991046,-68.80915697416657
-5.7712066532142865,-161.59378629,4.0244592465913485,-1.830693458372144,11.000005300000002,0.4970035457025824,0.0,12,28,257.9353313938215,625.12847,mp-1174640,Li4MnCo2O7,https://materialsproject.org/materials/mp-1174640,3.881426082767341,-76.48212418091963,-27.263894238754826,-77.704305488374
-6.854717619285713,-95.96604667,4.008774998788286,-2.0303702431314283,6.99999995,0.5445958760993924,0.6113,15,14,149.79631026498262,361.62937999999997,mp-757975,LiMn2O4,https://materialsproject.org/materials/mp-757975,16.916945890452865,-82.96648019728367,-27.936968929781624,-78.18514949686289
-5.7984857550000015,-162.35760114,4.10168020458248,-1.8579725601578585,9.9999999,0.4604906867351021,0.0,8,28,253.0792693908067,625.12847,mp-1174817,Li4MnCo2O7,https://materialsproject.org/materials/mp-1174817,1.3230443608750884,-72.46987059391058,-19.867362926500963,-74.98076655676023
-7.058088681666668,-84.69706418,4.043097693552172,-2.7153671696527777,2.0000002,0.20903750870620935,0.2887000000000004,12,12,111.5021510741913,271.486595,mp-754180,Li3Ti2CoO6,https://materialsproject.org/materials/mp-754180,3.5263989602187564,-65.04229167191964,-8.414042500904985,-63.00746943276837
-5.8072393571428575,-162.602702,4.12070236112795,-1.8667261623007152,9.8458206,0.455493541602376,0.0,1,28,251.91099440783813,625.12847,mp-1174760,Li4MnCo2O7,https://materialsproject.org/materials/mp-1174760,5.5607172935110105,-71.94313854197226,-23.14979885863785,-76.37682522669456
-7.1055588699999985,-42.63335322,4.1300308887366715,-1.7951490394866656,0.0,0.0,1.3807999999999998,164,6,69.90844815743614,173.87368999999998,mp-25223,MnO2,https://materialsproject.org/materials/mp-25223,23.039813608485517,-77.57065815861938,-4.9494908236712085,-74.54421699565971
-5.8489045270833335,-140.37370865,4.076202443317387,-1.9015056902883327,17.999356699999996,0.9766073028028692,0.3813000000000004,12,24,214.79019073907958,527.2554749999998,mp-1174527,Li7Mn2(CoO4)3,https://materialsproject.org/materials/mp-1174527,16.651805912385836,-71.26683127861683,-12.167124621695766,-78.36324973980298
-6.794552762142858,-95.12373867,4.002449127238789,-2.0641806707142853,6.0000002,0.4764940372067638,0.0,12,14,146.74767259643374,353.7105,mp-755927,Li2Cr3FeO8,https://materialsproject.org/materials/mp-755927,6.6466323819368665,-66.46805027605,-7.6268987176230345,-66.41473044280279
-5.936106545,-71.23327854,4.365220549190906,-1.850040137788333,7.999999400000001,0.8462334390553325,0.4181000000000004,2,12,110.17351345996916,289.623835,mp-1173931,Li3Mn(CoO3)2,https://materialsproject.org/materials/mp-1173931,0.563799593634316,-80.66504735743369,-27.408124569968127,-79.01515581021583
-6.2091870883333335,-149.02049012,3.961429364361475,-2.0749211874516664,16.0000006,0.8566650622928289,0.2864,1,24,217.66388237466802,519.265175,mp-1175222,Li7Mn4CoO12,https://materialsproject.org/materials/mp-1175222,16.116960678128574,-75.63555267604723,-10.681823686759945,-83.0566120569001
-5.7977755290625,-185.52881693,4.172288889647766,-1.8624265656849996,24.000000699999998,0.9720190701932996,0.8418999999999999,1,32,287.74904863096583,723.001465,mp-1175909,Li9Mn2Co5O16,https://materialsproject.org/materials/mp-1175909,16.183702980716774,-75.5541022107815,-10.01781484096606,-81.46691868787366
-7.5692780174999985,-423.87956898,3.7527501510849057,-2.7324201458333337,4.9999997,0.09610374141236616,1.093,96,56,606.3272824785267,1370.2748,mp-1177856,Li2TiV3O8,https://materialsproject.org/materials/mp-1177856,2.943481286360206,-66.11728683088909,-8.643171829976357,-66.20079604838493
-6.193353472916668,-148.64048335,3.9527192961924715,-2.059087572035,16.0000006,0.8547814969419733,0.4068000000000001,2,24,218.1435185722698,519.265175,mp-1175183,Li7Mn4CoO12,https://materialsproject.org/materials/mp-1175183,13.443760384156757,-81.79107512686677,-13.442588222750091,-88.28630000691982
-6.027494080535715,-337.53966851,4.854939267671066,-2.091082514464285,2.000002475,0.040709612909019775,3.0433,212,56,572.5467948079029,1673.9624,mp-21650,Li2NiGe3O8,https://materialsproject.org/materials/mp-21650,17.63069933410663,-69.04653801763736,-10.247561444091076,-73.29786613512881
-6.198334951875,-595.04015538,3.712038183025338,-2.1981958479425003,45.0055817,0.6302779050712726,1.2242000000000002,1,96,832.1693653519652,1860.2660850000002,mp-777837,Li32Mn13Cr3O48,https://materialsproject.org/materials/mp-777837,-11.665545296465414,-68.77552070798049,3.1441085072730286,-81.20347262600282
-5.716661536428572,-160.06652302,4.009611440977819,-1.7761483415864296,10.6010198,0.4772094035185103,0.0,8,28,258.89047972122717,625.12847,mp-1174549,Li4MnCo2O7,https://materialsproject.org/materials/mp-1174549,6.520896041993713,-79.80949103621694,-25.167183956124592,-74.43839846865677
-5.797861541875,-185.53156934,4.1684507026765365,-1.8625125784974996,26.0000003,1.0520519422856391,0.8406000000000002,1,32,288.013999503176,723.001465,mp-1175670,Li9Mn2Co5O16,https://materialsproject.org/materials/mp-1175670,12.668994882484784,-72.50631383408749,-12.044890814834313,-81.6916783590662
-5.715236803846153,-74.29807845,4.509065383791409,-1.356523608461539,2.9999618999999997,0.2561205147958725,0.0,166,13,136.5050758455475,370.66898,mp-780322,Li(CoO2)4,https://materialsproject.org/materials/mp-780322,8.576149939219066,-66.73599173533891,-4.576883012026657,-68.61436706335091
-9.10665980125,-72.85327841,13.11604774506927,0.07642662687499957,3.9775e-05,3.4529918252188277e-06,0.0,62,8,134.24312879720924,1060.3419999999999,mp-20765,NpSi,https://materialsproject.org/materials/mp-20765,23.96398278546613,-77.22037322509105,-61.11535120892882,-29.965445820419784
-4.77820441090909,-105.12049704,4.401481647644958,-1.140276602954546,2.0000001,0.10802495447108283,0.3897000000000004,41,22,215.76617018399395,571.9172,mp-773252,Li2(NiO2)3,https://materialsproject.org/materials/mp-773252,8.425851244315544,-58.88244312694121,-2.920718323336186,-64.98012749899398
-5.8144701075,-139.54728258,4.0006413087777615,-1.8670712707050008,18.0000003,0.9585380697630034,0.06899999999999995,1,24,218.8469879492214,527.2554749999998,mp-1175042,Li7Mn2(CoO4)3,https://materialsproject.org/materials/mp-1175042,13.702119491774946,-83.13937092514027,-16.89156547771316,-86.57343238344505
-6.501077003125,-104.01723205,4.0470579084386715,-2.3435249972916665,13.9999995,1.0713545186902758,0.6328000000000005,12,16,152.2902999356941,371.1612,mp-769962,Li4TiFe3O8,https://materialsproject.org/materials/mp-769962,2.9383623037984004,-65.66658159109971,-11.00910846636849,-65.20682712783123
-5.80489947125,-139.31758731,4.044789209129175,-1.8575006344549996,14.0000179,0.7537576336921076,0.0,12,24,216.45832576767108,527.2554749999998,mp-1174500,Li7Mn2(CoO4)3,https://materialsproject.org/materials/mp-1174500,18.001493482814478,-76.97074797264108,-14.026527101119411,-82.13193883902765
-7.53878282,-30.15513128,3.9045927575999793,-2.9743002235416665,0.033494699999999995,0.01057368642724504,0.0,166,4,36.91705877825622,86.8068,mp-25417,LiTiO2,https://materialsproject.org/materials/mp-25417,4.485291948225568,-67.78054867299655,-24.06437832789758,-72.37535455136633
-5.7558652678125,-184.18768857,4.094853633887422,-1.8205163044349997,25.999995300000002,1.0334769912666233,0.0034000000000000696,1,32,293.190493714897,723.001465,mp-1176144,Li9Mn2Co5O16,https://materialsproject.org/materials/mp-1176144,2.067332172938437,-77.19315879075937,-26.71307988068778,-77.7827727748805
-5.7556447990625,-184.18063357,4.118628587472629,-1.8202958356849992,26.000001899999997,1.0394776814485005,0.0,1,32,291.4980394836761,723.001465,mp-1176152,Li9Mn2Co5O16,https://materialsproject.org/materials/mp-1176152,12.616863664058352,-83.59243666298639,-15.269468220086539,-87.06984633219541
-6.651843811249999,-266.07375245,2.702684681387121,-1.233154630201999,0.0,0.0,3.3129,206,40,270.5830542865263,440.399568,mp-18337,Be3N2,https://materialsproject.org/materials/mp-18337,-78.82517406418657,3.9777139110247854,-63.41095119123806,-27.35225712487032
-6.912540025714287,-96.77556036,4.004573142137917,-2.077813738777142,12.999999800000001,1.0186189458122117,0.0,2,14,148.7335772963263,358.68743500000005,mp-755722,Li2Mn3CrO8,https://materialsproject.org/materials/mp-755722,5.693853029179849,-64.75650439773645,-7.20535226935842,-65.96214441197158
-6.506185792666668,-97.59278689,4.114187204172113,-2.335651982888889,2.9999995,0.2393305761713392,0.0,12,15,146.0832504143428,361.939,mp-752816,Li3Ti2(NiO4)2,https://materialsproject.org/materials/mp-752816,15.952556725427431,-67.06211528260204,-17.368845970218228,-68.43605569731862
-6.129080559,-122.58161118,3.9409452789450596,-2.059921585018999,11.999999800000001,0.7802350033766633,0.4539,1,20,179.2392988454409,425.38732999999996,mp-1174775,Li6Mn3CoO10,https://materialsproject.org/materials/mp-1174775,17.31738519383751,-79.41345297513067,-11.182616506735993,-86.1445556954537
-6.1857070610000005,-61.85707061,4.29238147472483,-1.6494914272500003,5.0000004,0.5521441779039193,0.0,12,10,105.53462457149048,272.79989,mp-756072,LiCr(CoO3)2,https://materialsproject.org/materials/mp-756072,8.067053614602067,-67.8048886944706,-6.0289737736861415,-68.4434965010105
-6.303919787000001,-126.07839574,3.8435580380908845,-2.122640574567,6.99999985,0.4480983442509887,0.4721000000000002,2,20,182.0547937890046,421.39218000000005,mp-1173972,Li3Mn2O5,https://materialsproject.org/materials/mp-1173972,13.907478425048984,-81.08292735331138,-17.07267910556935,-84.9515545736961
-7.641907541333333,-114.62861312,3.8056416609925665,-2.933652416,3.9982932,0.3110142460639271,0.0,166,15,149.82068674406437,343.3607,mp-1177610,Li3Ti3VO8,https://materialsproject.org/materials/mp-1177610,3.707125100150188,-66.1048150676252,-11.925954435347409,-65.99387386951679
-7.317965978333333,-87.81559174,3.810869529749272,-2.788377402232778,4.0000002,0.3999470829939095,0.0,12,12,116.5560730486978,267.491445,mp-756623,Li3Ti2MnO6,https://materialsproject.org/materials/mp-756623,3.197263905644752,-63.66604341100946,-10.495503516370091,-64.85625216367896
-5.435430618181819,-119.5794736,4.264142338105375,-1.5094244843181823,15.9999995,0.8499330960124543,0.0,2,22,219.3878923043966,563.372,mp-758854,Li4Fe3(NiO4)3,https://materialsproject.org/materials/mp-758854,7.003678328960773,-71.57225627660227,-6.036603990549801,-69.15140346794145
-6.1530008645833325,-147.67202075,3.886805163424017,-2.0187349637016663,18.0000216,0.9455944990929772,0.0,1,24,221.8428912552792,519.265175,mp-1175297,Li7Mn4CoO12,https://materialsproject.org/materials/mp-1175297,3.977443648806485,-76.32895215695184,-22.81300169713659,-77.236516278897
-5.1230455571428575,-71.7226378,4.37822656028322,-1.2518407614285718,5.999999400000001,0.4932143340708738,0.0,12,14,141.77280912697745,373.8024,mp-752523,Li2FeNi3O8,https://materialsproject.org/materials/mp-752523,7.895899444906153,-67.19740885447008,-6.028440993778127,-68.92713406146585
-5.866909078333332,-140.80581788,4.086618904188418,-1.9195102415383345,17.9999999,0.9791379448676614,0.5476000000000001,1,24,214.24270792510305,527.2554749999998,mp-1174932,Li7Mn2(CoO4)3,https://materialsproject.org/materials/mp-1174932,14.222106438243983,-74.12116195223709,-10.376579408042096,-78.5000121882142
-5.793218115384616,-150.623671,4.11527500039748,-1.3778699357692317,23.0000657,0.9074060351221642,0.0,10,26,295.3961568096047,732.073375,mp-752817,Li2Fe3Co5O16,https://materialsproject.org/materials/mp-752817,7.051127568670402,-65.44596121709131,-6.587656447991705,-65.70484600643506
-5.733391276428571,-160.53495574,3.5645697024501235,-1.6822675557142848,11.0302917,0.4361342752116615,0.0,186,28,294.74347979103845,632.7064,mp-756955,Li3Fe3O8,https://materialsproject.org/materials/mp-756955,10.73454767898723,-63.77435895244371,-0.6901781168663598,-68.86380096870607
-4.619562391428572,-64.67387348,3.870051242814169,-2.023227846228572,4.0000003,0.3196408849565873,0.29559999999999986,8,14,145.83948668766038,339.893416,mp-758736,Li3Ni3O3F5,https://materialsproject.org/materials/mp-758736,3.1876617927106965,-75.49008904892406,-24.556397385033932,-76.38990978912689
-5.6982308571875,-182.34338743,4.076093135674111,-1.7628818938099995,23.6404518,0.9353820482387374,0.0,8,32,294.5399230705117,723.001465,mp-1100629,Li9Mn2Co5O16,https://materialsproject.org/materials/mp-1100629,6.440932985911742,-79.57836927330004,-25.095709064383758,-74.94772884959087
-7.76481181,-163.06104801,3.623388473292149,-2.8922452230952382,2.0000001,0.09987335396722807,1.4800999999999995,1,21,233.37686965208027,509.2413,mp-769573,LiTiVO4,https://materialsproject.org/materials/mp-769573,5.80098162776932,-63.90528102839035,-6.762542067049319,-65.24005252253653
-5.865003424166668,-140.76008218,4.075843814685856,-1.9176045873716667,16.0,0.868050027456746,0.8073000000000001,1,24,214.80908987154712,527.2554749999998,mp-1174956,Li7Mn2(CoO4)3,https://materialsproject.org/materials/mp-1174956,13.54883065090508,-75.48820288062035,-10.903358942307213,-81.80913207163509
-5.6929697375,-91.08751579999999,3.929965945679644,-1.861621451935001,9.999999800000001,0.8220885342901385,0.0,6,16,141.76167229411016,335.504635,mp-1174032,Li5Mn(CoO4)2,https://materialsproject.org/materials/mp-1174032,19.098945344412808,-72.24974836996113,-11.825468000265829,-76.26712444157603
-5.7982985415625,-185.54555333,4.172730142578199,-1.862949578184999,24.000001100000002,0.9721218851886312,0.7922000000000002,1,32,287.71862008500216,723.001465,mp-1176199,Li9Mn2Co5O16,https://materialsproject.org/materials/mp-1176199,1.7991353250390667,-73.17331556303853,-21.532000020570745,-76.94221307361151
-5.7797443559375,-184.95181939,4.146565434400723,-1.8443953925599992,24.0000256,0.966027273357854,0.0,2,32,289.5341162711458,723.001465,mp-1175454,Li9Mn2Co5O16,https://materialsproject.org/materials/mp-1175454,12.608364116522413,-72.83266239732826,-12.80394149906966,-81.91586451533291
-6.8227119528125,-218.32678249,3.9161672541659684,-2.5688102721875,8.99999955,0.36513177743452413,3.2141,2,32,287.2567773905037,677.4580771999998,mp-768851,Li4AlCr3O8,https://materialsproject.org/materials/mp-768851,16.684955012859568,-70.25478488017735,-12.318888331344864,-69.98261589006475
-6.42221452625,-205.51086484,3.9283476824710526,-2.13648981771,25.999493100000002,1.019604927367301,0.5337000000000001,2,32,297.1737076864544,703.025715,mp-1100508,Li9Mn7O16,https://materialsproject.org/materials/mp-1100508,3.4818103221838386,-78.73072346232999,-29.024926285640955,-77.30016498605468
-5.439232166875,-87.02771467,4.0513712640261765,-1.7480341793749998,8.0000003,0.670009375850817,0.0,10,16,139.15107017465968,339.49978500000003,mp-1173996,Li5Co3O8,https://materialsproject.org/materials/mp-1173996,21.192014347071648,-72.8473979980395,-11.163429122111923,-78.09774197349617
-6.2314949539999995,-62.31494954,4.247776397722549,-1.647743104442,6.999999799999999,0.7686119936038257,0.6650999999999998,2,10,106.13736417851658,271.50689,mp-762633,LiMn2NiO6,https://materialsproject.org/materials/mp-762633,7.863382476561183,-68.11264962958913,-5.772467243787393,-69.47072916776754
-5.255229099999999,-31.531374600000003,4.198666128138904,-0.42749875246,0.0,0.0,1.452,186,6,74.0263811272334,187.1754,mp-1246087,LiGeN,https://materialsproject.org/materials/mp-1246087,22.217983954622106,-78.53737904011335,-11.623278602747948,-74.58005991646759
-3.060540318333333,-18.36324191,6.175693028757454,-0.20708873388888865,0.0,0.0,0.0,129,6,136.55665532228272,507.8664,mp-1018797,MgAgSb,https://materialsproject.org/materials/mp-1018797,-45.01492463806196,-12.32008358017186,-27.172195851234875,-27.970623654402107
-5.8132535332142865,-162.77109893,4.169395964394737,-1.8727403383721424,9.00000005,0.4212837545872674,0.4770000000000003,2,28,248.96897255983228,625.12847,mp-1174415,Li4MnCo2O7,https://materialsproject.org/materials/mp-1174415,12.861638493772636,-77.34541501703045,-14.060893255202215,-83.83203445828595
-5.811261425833332,-139.47027422,3.9719801049808883,-1.863862589038333,17.9058446,0.9466928879160562,0.0,1,24,220.42615449994972,527.2554749999998,mp-1175052,Li7Mn2(CoO4)3,https://materialsproject.org/materials/mp-1175052,12.825680556609278,-82.4394669982743,-17.339624060876133,-87.16249020083158
-6.6079564500000005,-92.51139029999999,4.11452905792245,-2.2758111288095244,0.99999975,0.08134342524511554,0.0,74,14,143.26986875615117,354.99800000000005,mp-773607,LiTiNiO4,https://materialsproject.org/materials/mp-773607,19.02951992423813,-75.73664910679564,-14.570057544301564,-71.12411369987795
-6.922229936363636,-152.28905859999998,4.0354757650646516,-2.210630763540001,18.9999988,0.9954818879340022,0.5867,10,22,222.4321902564203,540.559235,mp-754877,Li4Mn3Cr3O12,https://materialsproject.org/materials/mp-754877,4.314180440272159,-65.46405968982097,-8.066383836890207,-66.51366331605035
-6.88227153,-55.05817224,3.868460376061485,-2.4427694368750004,2.00000015,0.30206275367234303,1.7012000000000005,186,8,77.1632086705803,179.7626,mp-1176519,LiVO2,https://materialsproject.org/materials/mp-1176519,5.661610276282926,-58.165120270175315,-7.93222116950873,-62.61534449166304
-4.752880288333333,-28.51728173,3.980214118605317,-2.33482550634,0.3060421,0.019797996316990082,0.0,136,6,180.15128396955032,431.81199999999995,mp-863657,PmCl2,https://materialsproject.org/materials/mp-863657,-11.505734921316908,-5.109284701837541,-2.82637733479064,-50.76849402568801