energy_per_atom,energy,density,formation_energy_per_atom,total_magnetization_uB,total_magnetization_T,band_gap,sgr,num_sites,cell_volume,weight,mp_id,formula,URL,tsne_cry_lin1_0,tsne_cry_lin1_1,tsne_cry_lin2_0,tsne_cry_lin2_1
-6.839476676428572,-95.75267347,5.813266581128167,-1.2449043377678577,7.00002565,0.2062320385848529,0.16590000000000016,4,14,395.56779293103966,1384.8159999999998,mp-629088,Eu2GeSe4,https://materialsproject.org/materials/mp-629088,-14.877262657424026,11.702739214037809,2.4377007233454173,-4.7346176354602765
-5.003764871428571,-280.21083280000005,2.160344730354623,-1.1275590478990227,0.00425325,3.411767163275548e-05,1.2263,15,56,1452.8438964838654,1890.1354199999998,mp-1211873,K3Ti2P5S18,https://materialsproject.org/materials/mp-1211873,63.367427015187396,0.35786080663077835,8.483148340019804,-5.560602036765438
-3.424575494,-68.49150988,5.589970239986744,-0.1970259550000001,2.45e-06,3.5904235114405134e-08,0.9847999999999996,167,20,795.2392970297733,2677.06082,mp-1188875,Te6IrI3,https://materialsproject.org/materials/mp-1188875,65.71655510344938,18.119246165628415,8.993304225339841,-6.414696409154294
-5.727706827857142,-80.18789559,3.3923763768203186,-1.4589374091785725,6.014195,0.1826566883845845,0.006799999999999917,4,14,383.724344860727,783.9245999999998,mp-21903,KEuGeS4,https://materialsproject.org/materials/mp-21903,-15.895366945982088,11.58934320331326,-8.604250342815693,-0.5045126942092143
-6.814850397916668,-163.55640955,4.684029793978211,-2.6350182997675007,5.00000135,0.1400386118201518,2.2105,113,24,416.10195101491786,1173.73569,mp-1192147,Ba2MnGe2O7,https://materialsproject.org/materials/mp-1192147,-8.594184329861427,-35.247119974646104,8.525136018819476,-0.6377991839205007
-6.320237775333334,-189.60713326,4.19400456024254,-1.9407679026965003,12.000001199999998,0.3056498517279649,2.5517,59,30,457.54575199356725,1155.6181,mvc-1473,YFe3Se2ClO8,https://materialsproject.org/materials/mvc-1473,-18.90653262130368,-39.290901351708115,6.199493955305548,0.4869987655830224
-7.1442371675,-371.50033271,3.761809770312044,-2.3895138724450553,11.999999225,0.22156308808457711,3.2492,14,52,631.1916368733392,1429.910896,mp-562456,Fe3(PO4)2,https://materialsproject.org/materials/mp-562456,-0.8532357449169234,-95.1764881043543,8.593803758946335,-0.7872863298010963
-4.506003142222221,-40.55402828,4.468848151524201,-1.0143181496599625,4e-07,2.028501811644431e-08,1.2128,69,9,229.8063468449589,618.4556,mp-11695,Rb2Pd3S4,https://materialsproject.org/materials/mp-11695,65.30439727294838,16.10077225547036,8.354410378779816,-6.337208817128115
-6.7387316915,-134.77463383,5.03587680303259,-1.7797206834375003,2.999999775,0.09064380686900576,0.0,62,20,385.70965742910863,1169.7324,mp-15931,NdCrS3,https://materialsproject.org/materials/mp-15931,17.30271280639666,6.95683692693436,-8.604250342815693,-0.5045126942092143
-5.7893833925,-324.20546998,4.620057694499794,-2.0155326051870746,0.0,0.0,1.8884,1,56,771.3102113943833,2145.988496,mp-1216213,ZnAgPO4,https://materialsproject.org/materials/mp-1216213,3.6881530534079663,-17.615166804224923,7.287688135299593,-1.902374889741239
-5.899176051444446,-530.92584463,3.361876587484442,-0.8784333930272599,0.0,0.0,1.7469,14,90,1364.2361437641725,2761.9908,mp-553936,K2Ag4Pd3(NO2)12,https://materialsproject.org/materials/mp-553936,4.927926747801275,-16.740790493496426,7.431830874523702,-1.307444787384842
-4.5809906775,-36.64792542,7.985071870136054,-0.6214000693750004,0.010068299999999999,0.0004795225502101747,0.0,38,8,244.69468703428888,1176.66891,mp-1215772,YbUTe6,https://materialsproject.org/materials/mp-1215772,-11.609655031460235,21.284501953777188,-8.604250342815693,-0.5045126942092143
-3.775390096,-18.87695048,4.02979489121685,-0.8998282126375002,4e-07,3.302663202687259e-08,0.8054000000000001,71,5,141.14748077342185,342.5366,mp-1069706,K2PdSe2,https://materialsproject.org/materials/mp-1069706,65.8579755025545,13.405008630496738,6.575424095372983,-5.910938424000447
-7.396289146666668,-66.56660232,11.500860950634925,-0.802885311666667,6e-07,4.4863110933078814e-08,0.0,189,9,155.861658233337,1079.4948,mp-1205740,HfAsPd,https://materialsproject.org/materials/mp-1205740,33.61423500299954,48.605445823234774,-8.604250342815693,-0.5045126942092143
-4.53586141,-834.59849944,3.2178787406814653,-1.2072515879076082,0.0001078125,2.5304271111276643e-07,0.7490000000000001,61,184,4965.382534696538,9622.176,mp-867030,Ca4Sn5S14,https://materialsproject.org/materials/mp-867030,43.01226208771133,0.7664889731641044,4.103163594900658,-5.855514631898117
-6.263629395714285,-87.69081154,3.5000495032021384,-1.1778576080357144,11.9259257,0.5413301221482689,0.0,216,14,256.7481558738506,541.1684,mp-1211167,LiCr4GaS8,https://materialsproject.org/materials/mp-1211167,16.175974291512713,7.549401849192938,-8.604250342815693,-0.5045126942092143
-8.3117285545,-166.23457109,7.190607321098152,-3.3009311960000005,8.0000007,0.4180994640626817,1.4955999999999996,6,20,222.99126009964317,965.6157119999999,mp-1222459,Lu3ScV4O12,https://materialsproject.org/materials/mp-1222459,-13.629976861149439,-28.966770554315325,8.13198611160775,-1.8791885804845463
-6.239186269166668,-74.87023523,5.651332597653313,-2.2806190523750005,0.0,0.0,0.6054999999999997,12,12,196.5286407755974,668.8483,mp-560569,KPrPdO3,https://materialsproject.org/materials/mp-560569,-10.383243932508279,-23.298030545338545,7.028024939702168,-3.377070196346583
-3.916608975,-86.16539745,1.916187715848098,-1.6768809282799997,3.0000005,0.05087358284637203,0.3253,15,22,687.2368366562714,793.0405444,mp-540759,Al2CoCl8,https://materialsproject.org/materials/mp-540759,21.46849612364686,-2.1422009615106576,5.057387322510451,-6.273138356473213
-1.648121254,-8.24060627,0.8432796834186276,0.8590448361999996,3.9080703000000003,0.07370604724463373,0.0,123,5,617.9262911868165,313.80453856,mp-1210706,Na2MgSb2,https://materialsproject.org/materials/mp-1210706,-9.163067532307725,36.10525752084885,-8.604250342815693,-0.5045126942092143
-8.340303437500001,-166.80606875,5.977328773861108,-0.7432380124280001,0.0,0.0,1.9849,15,20,350.97714050083516,1263.3884,mp-989623,SrReN3,https://materialsproject.org/materials/mp-989623,34.511013384173275,-8.276212229038112,6.693040706416358,-0.7709599609801316
-8.2886452325,-99.46374279,3.4256835093994265,-3.2506276852777773,5.15e-06,4.4236381453319254e-07,1.6400999999999994,63,12,135.6766344960138,279.9002,mp-1095481,TiSiO4,https://materialsproject.org/materials/mp-1095481,0.7617754834608558,-43.84785550850462,8.202495083517201,1.0116621267397703
-6.936225856666668,-208.0867757,7.72850740525728,-0.6432665490624998,0.313371,0.00555431774174971,0.0,156,30,657.5147662854706,3060.21576,mp-1217957,TaMo2(WSe5)2,https://materialsproject.org/materials/mp-1217957,47.983682138389504,25.20744274488009,-8.604250342815693,-0.5045126942092143
-7.243086526842105,-137.61864401,7.9452610672352115,-2.5061736797368424,1.4400000000000001e-05,6.854108880820441e-07,1.3864999999999998,139,19,244.84369251042833,1171.5154,mp-23335,Ti3(BiO3)4,https://materialsproject.org/materials/mp-23335,8.563552243061794,-38.38458930674703,8.444840018226877,-0.5386745796383591
-7.5127839025,-540.92044098,4.7827143949355095,-1.0966792711996531,1e-07,7.892252075157683e-10,0.0,167,72,1476.646293298589,4253.0632,mp-553922,K2Mo15S19,https://materialsproject.org/materials/mp-553922,67.50619452048439,33.61470740864836,-8.604250342815693,-0.5045126942092143
-4.1263758,-148.54952880000002,5.645199683226907,-0.789335805073037,0.160843825,0.0018254508792267816,0.0,58,36,1026.8610216508503,3490.936,mp-1179754,RbBi3S5,https://materialsproject.org/materials/mp-1179754,72.4538057195563,20.976977322986574,7.475731942204478,-6.963635814151112
-6.256849416153847,-81.33904241,4.590541349854072,-2.1410611433561546,2.0,0.12707189827356072,2.4246000000000003,2,13,183.4247371904493,507.0756064,mp-554413,V2Te2O7F2,https://materialsproject.org/materials/mp-554413,-12.467519616866904,-45.18214750247359,-4.7609351330614205,-2.6428792252984388
-7.5694502668421055,-287.63911014,6.44595851843126,-3.1901858370418426,20.0000002,0.3775745715017799,1.8662,87,38,617.3119573570332,2396.3105800000003,mp-19460,Ba5Nd8Mn4O21,https://materialsproject.org/materials/mp-19460,-27.13075162271225,-27.30782759367239,7.96975477979821,-0.8199418562537686
-4.74953559,-56.99442708,4.2765245887559935,-0.7138759160416667,0.0,0.0,0.6040999999999999,61,12,264.89260369657507,682.2,mp-13682,PdS2,https://materialsproject.org/materials/mp-13682,35.77515399331363,7.862516178349256,6.8519774888620315,-6.5584972370921975
-4.4516733770000005,-44.51673377,4.979098177180012,-0.1203635645848216,1.26e-05,6.741765813757093e-07,0.0,12,10,217.80824221839816,653.0943239999998,mp-1079754,NiPSe3,https://materialsproject.org/materials/mp-1079754,17.463235641597894,5.309004585720516,-8.604250342815693,-0.5045126942092143
-4.220588498,-337.64707984,3.5570458233494984,-1.9124491933233752,0.0,0.0,2.0709999999999997,14,80,1599.95854328207,3427.2761536,mp-662789,Te3As2(SF4)3,https://materialsproject.org/materials/mp-662789,47.581720320484116,-18.538235593228503,9.724025957519565,-3.1888816574425447
-5.504401809107144,-308.24650131,3.691947286195034,-1.3685568792857146,5.000000125,0.036869468172192096,1.1553999999999998,43,56,1580.4493042160434,3513.88036,mp-540651,BaMnSnS4,https://materialsproject.org/materials/mp-540651,24.96775672085597,0.7140769237900916,3.026151798303135,-4.986408533613015
-4.63771661,-18.55086644,4.882518194057132,-1.3287951200862071,0.9999996999999999,0.07127254245480141,0.1255999999999995,166,4,163.51403885627997,480.7838,mp-4240,RbCeTe2,https://materialsproject.org/materials/mp-4240,61.725760487922976,18.721100050214037,7.86918954074656,-4.555036335578227
-4.6726747330769225,-242.97908612,2.522494220843176,-1.7881552877753846,13.99999955,0.14465978012362055,0.0,39,52,1127.8663733076264,1713.321,mp-532443,Li5V5Cl16,https://materialsproject.org/materials/mp-532443,10.15358594079999,-9.780021316731276,7.143219970457543,-5.134326159189209
-3.776558113571429,-211.48725436,4.875131721106082,-0.5993056727678575,0.0,0.0,0.6358000000000001,54,56,1909.6545162741918,5606.5031199999985,mp-555275,NbTe7Br5O,https://materialsproject.org/materials/mp-555275,66.46043055412068,19.221350979223498,8.536305386385989,-7.6542151332793535
-3.3781823818181818,-74.32001240000001,2.5320262988379856,-1.3899640550981816,1.9999997,0.03688609503676895,0.5238,15,22,631.8946482588045,963.5268,mp-580999,Ga2NiCl8,https://materialsproject.org/materials/mp-580999,21.68448275996234,-2.2457835693782,5.146409532255713,-5.700756037111268
-5.9355891115,-118.71178223,8.449290741715638,-0.7414907065000002,1e-06,2.5125116723411528e-08,0.0,72,20,463.8412191614004,2360.15488,mp-30755,La2Sn5Rh3,https://materialsproject.org/materials/mp-30755,1.6547223204647468,48.92513008856681,-8.604250342815693,-0.5045126942092143
-5.712262870000001,-159.94336036,4.581147277931548,-1.6412484549107147,6.315e-05,9.799919299375678e-07,1.6065,62,28,750.9798477973485,2071.8268,mp-1232199,Y2MgSe4,https://materialsproject.org/materials/mp-1232199,52.34008586820722,6.7015348078002654,8.284330220799802,-6.169120122146971
-6.985629875555556,-62.87066888,6.861310168692849,-2.9632835154166663,2.0000022,0.1706085686245768,2.0531,71,9,136.61772894508803,564.5014,mp-18763,BaNd2NiO5,https://materialsproject.org/materials/mp-18763,-22.51156437151045,-32.56372479058568,8.792120179147203,-1.0098428743276875
-7.982800972564102,-311.32923793,6.449572576007975,-2.629613159198718,0.0,0.0,0.6094999999999997,5,39,614.4236946219149,2386.43604,mp-1173563,Nb8Pb6O25,https://materialsproject.org/materials/mp-1173563,7.0996505720122425,-36.426641732933824,-5.169179865472496,-3.534599052125816
-6.5377510598000015,-326.88755299,3.139257748303082,-1.729269045333334,5e-08,5.985147597143265e-10,0.0,58,50,973.5820698993477,1840.5620000000001,mp-36982,Mg(TiS2)8,https://materialsproject.org/materials/mp-36982,20.10299757407634,14.421768178815164,-8.604250342815693,-0.5045126942092143
-5.209202477230769,-338.59816102,7.996756401103251,-1.503557905403846,0.0008964,7.972174029599057e-06,1.4649000000000003,1,65,1310.3958372378759,6310.551,mp-766249,Bi24Br10O31,https://materialsproject.org/materials/mp-766249,9.11233375117488,-35.986106160759604,8.144625823020018,-1.0797364648063166
-8.5941264335,-171.88252867,5.2979691099648765,-3.2853594207500008,1.99999945,0.09897072063650066,1.5634000000000006,62,20,235.50523817028437,751.3822,mp-18883,YVO3,https://materialsproject.org/materials/mp-18883,-13.678257701905837,-28.995118588735515,7.40491136505622,-2.132015143131437
-3.5756051036363634,-157.32662456,6.841122168404096,-0.3626177787460815,0.0005372,3.7177112633386237e-06,0.3834,8,44,1683.9832769037796,6937.708207600001,mp-672338,Cs(Bi2Te3)2,https://materialsproject.org/materials/mp-672338,66.53299660952997,23.80913120522929,7.0403384019590005,-7.5730109540701696
-8.330760088833332,-499.84560533,6.901911939532522,-3.2898515930833336,6.000017125,0.10504292719020628,1.5885999999999996,6,60,665.6763104535497,2766.836048,mp-1223087,Lu2ScV3O9,https://materialsproject.org/materials/mp-1223087,-13.628071639018168,-28.965523226564088,8.115980698700506,-1.8800647648605997
-8.101548915555558,-145.82788048,1.3838349637783431,0.5581462685255553,1e-07,4.183349204537324e-09,5.8845,161,18,278.58216473823217,232.1606,mp-651723,C5N4,https://materialsproject.org/materials/mp-651723,9.552586706871514,-20.753116752670454,7.460396366791388,-1.318470381272038
-6.97092616125,-501.90668361,2.9944702049726213,-2.4331490437708334,3.000000066666667,0.0338094077129895,2.4932,147,72,1034.0966452714385,1864.79903136,mp-557315,Na2V3O7,https://materialsproject.org/materials/mp-557315,-24.035391596792437,-54.79134373552257,7.681536306755754,2.3707380210302422
-4.65536839,-18.62147356,4.588854617035097,-0.21712945699999955,3.3e-06,3.6415924688054926e-07,0.0,119,4,105.60877989200705,291.847,mp-1223477,KAs2Rh,https://materialsproject.org/materials/mp-1223477,28.88752817330993,13.304024064749438,-8.604250342815693,-0.5045126942092143
-6.4814321293478265,-596.2917559,4.925059013587005,-1.9168188447010883,79.92314485,0.8946464009937112,0.895,194,92,1041.114686063682,3087.8836,mp-1208968,SrZn2Fe16O27,https://materialsproject.org/materials/mp-1208968,-27.870132307881928,-35.125531737590634,6.756227838587285,-3.1175238515711965
-6.824255293333334,-20.47276588,9.544908714006224,0.2396008299999993,0.0216517,0.00403809105836755,0.0,216,3,62.48752457257328,359.183195,mp-571185,HfCoSb,https://materialsproject.org/materials/mp-571185,31.899185908708674,48.78882698190291,-8.604250342815693,-0.5045126942092143
-4.859503881428573,-68.03305434,6.366255391375263,-0.5206516828571434,0.00014885,3.763524337024415e-06,0.0,14,14,460.9263514865527,1767.12188,mp-675535,La2SnSb4,https://materialsproject.org/materials/mp-675535,2.4228148815719552,33.20835943648244,-8.604250342815693,-0.5045126942092143
-6.253298864444443,-112.55937956,7.110943714543604,-0.20403041222222226,1.98458345,0.08075727987905289,0.0,10,18,286.39478827777015,1226.4314,mp-1226104,Cr(FeAs3)2,https://materialsproject.org/materials/mp-1226104,18.48678490423413,19.5222113118438,-8.604250342815693,-0.5045126942092143
-6.840811397142858,-95.77135956,3.891726408821023,-2.278287165,3.9999998,0.3073631831091831,1.9984,74,14,151.6650637459938,355.4502,mp-772649,LiVFeO4,https://materialsproject.org/materials/mp-772649,-11.980269142297082,-39.98541209348951,9.198754153526584,0.11071236807404032
-8.2461422725,-164.92284545,7.262333657358536,-3.305359151750001,1.999999975,0.0988284651020162,1.5234000000000003,62,20,235.84429070822688,1031.4602,mp-554811,TbVO3,https://materialsproject.org/materials/mp-554811,-13.655807368992276,-28.99946663157968,7.973422719928143,-1.815491211956478
-7.48549543,-74.85495429999999,5.54427986634351,-2.8465561985333343,0.0,0.0,2.3546,35,10,126.90040068696507,423.70056928,mp-1220903,NaTi2BiO6,https://materialsproject.org/materials/mp-1220903,7.137644796127268,-40.03124173209525,9.16853698728883,0.21935982097206053
-9.22800384625,-221.47209231,5.624004939202487,-3.6091495912500013,1.0,0.04174577645883186,1.9248000000000005,8,24,279.16751731884784,945.4999,mp-753417,Zr7VO16,https://materialsproject.org/materials/mp-753417,-2.8751877961396373,-41.06693875387256,7.757648831817306,0.6312984302830857
-5.175272626470588,-87.97963465,7.506791406049869,-0.17224136294117648,1.9260947,0.05726208988592984,0.0,204,17,392.00162684595733,1772.12,mp-1188542,Sr(FeSb3)4,https://materialsproject.org/materials/mp-1188542,43.94307001283498,23.524683790083337,-8.604250342815693,-0.5045126942092143
-4.1983060775,-67.17289724,5.673368474840172,-0.8672002853071126,0.0,0.0,0.8320000000000003,36,16,434.74569778914514,1485.3445038,mp-558907,CsCu(BiS2)2,https://materialsproject.org/materials/mp-558907,72.16081785341586,19.65663338150247,6.861023907064397,-7.2746872783523395
-5.7438120275,-91.90099244,2.851899094458598,-0.9688326075390624,3.99999935,0.13869560032395792,0.0,59,16,336.10476039768287,577.2444,mvc-14055,MgCr2S5,https://materialsproject.org/materials/mvc-14055,18.31681538811263,4.442636944617316,-5.554237605165374,-3.951228991016437
-6.2767194633,-627.67194633,6.151065081140209,-2.1829065722625,0.0,0.0,1.5540000000000005,142,100,2710.9278850074584,10041.9764,mp-558535,La10Se14O,https://materialsproject.org/materials/mp-558535,48.63720655704774,0.2731735022414909,7.411560735177133,-3.5904203035659368
-5.1378114254545455,-56.51592568,2.2761459461370706,-0.9725790046112014,3.0000002,0.12695105345442326,1.2502999999999995,5,11,275.39902739793985,377.49692400000004,mp-7147,KCrP2S7,https://materialsproject.org/materials/mp-7147,23.959892525747158,-1.7664248800343934,7.664588337113752,-4.592385582943691
-2.9186293051470584,-198.46679275,5.629996991800658,-0.13078442411764676,1.2e-06,6.9596075522831514e-09,0.02129999999999921,60,68,2009.4348168358695,6812.9153856,mp-1210474,Na5(Sn5Hg)2,https://materialsproject.org/materials/mp-1210474,33.590321172541465,14.007420308187447,-8.604250342815693,-0.5045126942092143
-4.13623559,-16.54494236,2.9087304711691977,-0.386787161796875,5e-08,2.581850338098061e-09,0.8548999999999999,129,4,225.69210539803683,395.34,mp-8936,SnSe,https://materialsproject.org/materials/mp-8936,70.76834416814813,23.86684696778177,4.688029533392894,-6.4955664946613085
-5.284905943333333,-63.41887132,10.271490461961287,-0.4570292366666671,0.0,0.0,0.017000000000000348,36,12,216.3722450375164,1338.4,mp-542106,SbPd2,https://materialsproject.org/materials/mp-542106,46.11717800700496,37.018581319770455,-8.604250342815693,-0.5045126942092143
-7.34272802375,-117.48364838,2.6237370446338906,0.09556301662250012,0.0,0.0,0.8346999999999999,62,16,285.2162900075515,450.6564,mp-1246426,GeCN2,https://materialsproject.org/materials/mp-1246426,34.93789080499175,-14.470098042914332,5.4750928972697785,-4.465709790960354
-5.186548288333333,-31.11928973,7.1952612720422495,-1.1749293141666666,0.00257115,0.00016493583647140395,0.0,129,6,181.67276003212302,787.204,mp-1018814,NdSbTe,https://materialsproject.org/materials/mp-1018814,2.8346838499000606,32.28065666472979,-8.604250342815693,-0.5045126942092143
-7.117814795,-341.65511016,4.24873853463514,-2.715137877604167,6.000047625,0.10565085876917324,2.7397,15,48,661.8492691381283,1693.4407600000002,mp-19203,BaCo2Si2O7,https://materialsproject.org/materials/mp-19203,-4.228276774732883,-79.59363518479033,9.2419014101374,0.1879951545159086
-4.418351677380953,-185.57077045,2.104266721107092,-0.873022632746072,2.99999465,0.052268531408427917,0.7568,14,42,668.8944767787211,847.63583,mp-1181555,CoH8Se2(ClO4)2,https://materialsproject.org/materials/mp-1181555,-2.078868058325884,-23.50507412789031,7.258170637174339,-1.8364261061438287