energy_per_atom,energy,density,formation_energy_per_atom,total_magnetization_uB,total_magnetization_T,band_gap,sgr,num_sites,cell_volume,weight,mp_id,formula,URL,tsne_xrd_lin1_0,tsne_xrd_lin1_1,tsne_xrd_lin2_0,tsne_xrd_lin2_1
-5.311527311428572,-74.36138236,3.1274864233072583,-2.7356927739028567,4.99999995,0.384480253171839,2.3327,12,14,151.5560885100957,285.4432192,mp-752830,Li2FeOF3,https://materialsproject.org/materials/mp-752830,-5.705754742984109,-65.78541758506775,-21.362274680091165,-59.618905554397756
-7.053122304181818,-387.92172673,4.069035809223805,-2.1598985056290902,49.0023375,0.9841470655790098,0.0,1,55,580.2754844326498,1421.92485,mp-769505,Li7Mn10Cr6O32,https://materialsproject.org/materials/mp-769505,17.170237441022866,-66.80403889725491,-15.485966673280403,-69.05271660250062
-10.085812665,-40.34325066,9.267235384458571,-0.18445350750000067,0.000103,1.7638969684250078e-05,0.0,225,4,68.05208541434611,379.78914,mp-977434,Nb3Ru,https://materialsproject.org/materials/mp-977434,-41.337808299454345,-62.70791538114152,-50.861560081709044,-38.37457876182261
-9.0012131575,-36.00485263,8.160733817237768,-0.36033437750000097,0.2555385,0.04312470290629805,0.0,225,4,69.05699124127348,339.381195,mp-864896,Zr2CoTc,https://materialsproject.org/materials/mp-864896,-45.05757415720255,-64.17586125158768,-50.63659799967887,-37.82909710177064
-5.290892816875,-84.65428507,3.9098508671293395,-1.5996948293750002,9.995517699999999,0.8078938804120462,0.0,166,16,144.187762199232,339.49978500000003,mp-1174225,Li5Co3O8,https://materialsproject.org/materials/mp-1174225,3.5373527531201168,-71.67849195153322,-23.34589778894092,-72.80565820471288
-5.79317469857143,-162.20889156,4.108273412094462,-1.8526615037292868,9.66357035,0.44571372767845896,0.0,8,28,252.67311235774213,625.12847,mp-1174882,Li4MnCo2O7,https://materialsproject.org/materials/mp-1174882,6.384170957977724,-72.26535555341181,-22.493909525452203,-74.24076138093899
-8.311046010714287,-116.35464415,5.176566357483698,-2.73391576,2.205e-05,1.5600408406298613e-06,0.0,58,14,164.72141083895573,513.5027200000001,mp-758673,LiNb2O4,https://materialsproject.org/materials/mp-758673,7.4146627047408575,-56.30361588589116,-4.8872191431218655,-62.40765669025185
-6.763036384545455,-74.39340023,3.061763547502128,-2.3759163387121216,4.0000003,0.4587932027797209,0.0,148,11,101.6062624817045,187.3454,mp-1177982,Li2Fe(BO3)2,https://materialsproject.org/materials/mp-1177982,2.219855778235151,-24.882709279095696,4.09122452414626,-35.99673879963329
-7.5454466825,-30.18178673,6.770563113592293,-0.6598383829166661,1.9999997999999999,0.49032832051200503,0.0,225,4,47.53575561364249,193.81888999999998,mp-3657,TiCo2Si,https://materialsproject.org/materials/mp-3657,-50.57089461171229,-51.95492876169767,-69.9132472937802,-43.69137259018794
-7.437750393333333,-89.25300472,4.923349400946152,-2.5455926618750007,2.0,0.19545153542658056,0.4953000000000003,12,12,119.25273185625522,353.57366,mp-773121,Li3Nb2VO6,https://materialsproject.org/materials/mp-773121,5.977176945540696,-56.93771005913146,-7.665666639299436,-62.687250924792004
-6.100238051,-61.00238051,3.8490073536830662,-1.6555424102500012,13.000002499999999,1.298367269968821,0.0,12,10,116.68722300899972,270.4724,mp-758249,Li(FeO2)3,https://materialsproject.org/materials/mp-758249,7.050232486567007,-58.561496140028495,-5.247801847212223,-63.40008252200576
-7.132305099999999,-42.79383060000001,10.06742888064526,-0.6397860016666664,0.0,0.0,0.0,227,6,114.37674128057897,693.4373,mp-2529,PrRh2,https://materialsproject.org/materials/mp-2529,-73.38027726806453,-6.694567300701479,-76.24251947849373,-9.570641138932686
-9.294995767272725,-204.48990688,6.365409098234266,-0.28570775368454543,1.4764297,0.06842568855279199,0.0,167,22,251.4612234066996,963.93612,mp-1246375,Ta2(CN2)3,https://materialsproject.org/materials/mp-1246375,21.431194044394342,-30.007547005016125,8.217662284667599,-10.511630080733902
-5.53338453,-44.26707624,4.938073556945995,-2.1823293007812508,8e-07,5.81657282863477e-08,1.9887,141,8,160.28771740207108,476.66,mp-35591,LiErS2,https://materialsproject.org/materials/mp-35591,-10.571763666610238,-4.923464665663982,-2.346298637155092,-50.02696353296442
-4.364127802222224,-39.27715022,2.01598280376658,-1.0470653196555555,4.0000003,0.3327347358149737,0.11470000000000002,12,9,140.10037897690506,170.08931919999995,mp-1237804,Si(NF3)2,https://materialsproject.org/materials/mp-1237804,26.724095787313576,-48.69961008145008,-1.240586498937959,-74.78015162834721
-5.06249228375,-80.99987654,3.7746597517377998,-1.0757912682812505,5.5e-07,2.8018925672305257e-08,0.5267,13,16,228.76450367415075,520.0167799999998,mp-1176780,LiCoS2,https://materialsproject.org/materials/mp-1176780,9.084256033931153,-51.402742178206736,-8.74317893161489,-55.230540287628386
-5.17494100875,-165.59811228,2.324589739662603,-1.6904648873887504,2.99999885,0.09019030681543877,3.1924,167,32,387.64898524017167,542.67008,mp-504994,K3Cr(HO)6,https://materialsproject.org/materials/mp-504994,25.738999619123557,-23.463532423619043,6.836201836397178,-37.5416997361228
-7.1908421525,-57.52673722,3.797436634724352,-2.678700586578333,5.000000099999999,0.7375095342657678,0.3950000000000005,10,8,79.00958878615221,180.684645,mp-754914,Li2TiMnO4,https://materialsproject.org/materials/mp-754914,5.2152847618477685,-74.47622878660269,-11.54695830720336,-63.22175765357832
-5.699434333636364,-125.38755534,4.756763050776742,-1.6192143820454548,1.0000002000000001,0.05822581864843104,1.0537,9,22,200.1529110949937,573.3559700000001,mp-758725,Li2(CoO2)3,https://materialsproject.org/materials/mp-758725,9.644775740836396,-65.66887377935896,-2.9504512107038465,-69.60067524865715
-8.02479725375,-64.19837803,5.136860478509841,0.034928751249999834,2.1600000000000003e-05,1.658080193872113e-06,0.0,194,8,151.81883241692287,469.65,mp-1183046,ZrTi3,https://materialsproject.org/materials/mp-1183046,-70.2690599031491,2.029828570223336,-56.77869010102511,-29.548355354561764
-4.4462242759375,-142.27917683,2.730740858576429,-0.19251722607000052,5.02264295,0.06230735552498948,0.0,128,32,939.4429562215026,1544.90512,mp-1197445,TaN2Cl5,https://materialsproject.org/materials/mp-1197445,36.281894753410064,-38.19002631219392,24.43784384181625,-63.2364167652217
-5.824798344166666,-139.79516026,4.034259414954879,-1.877399507371667,16.000058499999998,0.8591967600097019,0.0,6,24,217.02330223130585,527.2554749999998,mp-1175107,Li7Mn2(CoO4)3,https://materialsproject.org/materials/mp-1175107,-2.398122394796424,-75.75926320964851,-19.214857771872843,-75.40921134333831
-6.731288238333334,-40.38772943,13.426304655951128,-0.2607191916666665,0.00011095,1.107364160100282e-05,0.0,227,6,116.76542668659272,944.108,mp-318,SrIr2,https://materialsproject.org/materials/mp-318,-73.81625200460869,-6.2043217680687865,-76.17072546566925,-10.623069966702143
-6.444083952352941,-438.19770876,3.9748105774444897,-2.2117823505882357,12.99999975,0.242068042055388,2.3596,1,68,625.8688170621639,1498.1339999999998,mp-759913,Li5Cr3FeO8,https://materialsproject.org/materials/mp-759913,-5.451886796392543,-61.228056746952646,-22.059988503981124,-64.00264393188077
-5.410707885,-43.28566308,4.28049861113192,-1.57631795937,4.999999900000001,0.6717446597585873,0.0,166,8,86.74475018280498,223.60858356,mp-1221327,Na2MnNiO4,https://materialsproject.org/materials/mp-1221327,-3.642793539366525,-56.51629969580731,-25.65988489318128,-67.71659132913632
-5.7549998375,-184.15999480000002,4.089779869884391,-1.819650874122499,24.0000001,0.9527969016959201,0.1256999999999997,1,32,293.5542246296085,723.001465,mp-1176095,Li9Mn2Co5O16,https://materialsproject.org/materials/mp-1176095,0.25758109645573857,-80.24571450459253,-27.253423231007805,-78.80566445819869
-6.9606004825,-111.36960772,4.198122735156948,-2.3361286933050005,13.999999300000002,0.9976019148723596,0.0,12,16,163.54910333032572,413.47971500000006,mp-1177385,Li4Mn3NbO8,https://materialsproject.org/materials/mp-1177385,1.3553936166201863,-59.93010650455369,-11.352622407840053,-61.567717267638244
-3.50129882,-49.01818348,1.060873929338959,-0.11897210615714215,0.0,0.0,3.204,4,14,128.45559678047212,82.0668412,mp-23719,BeAlH5,https://materialsproject.org/materials/mp-23719,30.91778734985655,-35.78864957987975,10.403749169937925,-41.81932138201425
-6.0575651824999985,-145.38156438,3.371568608621127,-2.8074936307308325,15.000000400000001,0.5749164628539271,2.405,2,24,304.0632640475225,617.3719083999999,mp-761162,Li2Mn3OF6,https://materialsproject.org/materials/mp-761162,20.01840596097935,-82.13237483692346,-22.119138001921453,-78.1827350328397
-6.068806456944443,-218.47703245,4.080861359655623,-1.8256505709722228,39.0046695,1.210079948201969,0.0,6,36,375.64703510764605,923.172195,mp-765392,Li6Fe9CoO20,https://materialsproject.org/materials/mp-765392,5.10554048661569,-65.25290725360476,-7.858739939516589,-65.66799956525956
-4.759785956,-23.79892978,4.821487991553194,-0.5556923498571436,0.0,0.0,0.0,139,5,78.90895798489295,229.11752400000003,mp-7422,Ca(CuP)2,https://materialsproject.org/materials/mp-7422,-48.271460388548476,-1.0853810720390284,-49.276587276957045,13.818471177660143
-6.4242256815625,-205.57522181,3.887954568217376,-2.1385009730224995,26.0013008,1.0091910334901817,1.0465999999999998,12,32,300.26113355966135,703.025715,mp-1100487,Li9Mn7O16,https://materialsproject.org/materials/mp-1100487,3.397696031535023,-78.96851974156455,-29.18673702044315,-78.08529363595963
-6.198268858229167,-595.03381039,3.7091998119010814,-2.198129754296667,45.0118328,0.6298834458785311,1.0171,1,96,832.8061618625029,1860.2660850000002,mp-778110,Li32Mn13Cr3O48,https://materialsproject.org/materials/mp-778110,-12.036425590984587,-69.0471659467167,3.2062148985294563,-80.91847772146323
-6.663284775,-26.6531391,9.86386435490346,-0.6242517362499997,9.000000000000001e-07,1.5216728961591713e-07,0.0,225,4,68.92846893559036,409.44599999999997,mp-977537,ZrCdRh2,https://materialsproject.org/materials/mp-977537,-44.78421762895897,-63.82302456734982,-49.20835707578375,-37.87976173609411
-6.896885656507938,-869.00759272,4.029350180640373,-2.072538280353652,7.000000094444443,0.06082122725717599,0.3479000000000001,1,126,1341.2826111455106,3254.66442,mp-1097058,LiMn2O4,https://materialsproject.org/materials/mp-1097058,7.0627387588072414,-64.23493811810464,-6.219546466546527,-66.23893827149925
-10.061026453,-100.61026453,4.568257254370276,-3.3727903095833343,7.0,0.5193667831289429,2.2427,194,10,157.07291274279356,432.1184,mp-561949,GdBO3,https://materialsproject.org/materials/mp-561949,20.364556942340965,-46.7417906873939,3.3846979352225217,-41.53985666168639
-6.54636684375,-52.37093475,6.745172794952249,-0.4933335142383344,2.47e-05,2.8777033547395814e-06,0.0,123,8,100.02955982524263,406.32388,mp-1079768,Ti2HPd,https://materialsproject.org/materials/mp-1079768,-49.60011167946925,-41.376221565685924,-64.5127329987088,-25.910656527460976
-4.685198218,-46.85198218,2.921056841092297,-2.3908315431640004,1.0,0.08137381659570335,0.0,225,10,143.21639638044266,251.93218848,mp-1111547,NaLi2RuF6,https://materialsproject.org/materials/mp-1111547,1.278370058498583,-38.443780754192865,4.3165648117955815,-34.28066427821743
-10.389647702222222,-93.50682932,14.537945351877381,-0.4814371997222209,0.00025830000000000004,2.222660913627645e-05,0.0,189,9,135.43428564814656,1185.72114,mp-1079158,TaReSi,https://materialsproject.org/materials/mp-1079158,-50.994271511350355,-7.694959834530951,-55.88173427078691,-19.472222411299256
-6.80167039452381,-285.67015657,4.0659301696577685,-2.060731029752381,21.99999835,0.5776974020965348,0.2536999999999998,15,42,443.8126341517857,1086.70205,mp-774685,Li3Mn5FeO12,https://materialsproject.org/materials/mp-774685,10.751395237434236,-69.69283987565711,-16.23862964630161,-66.17741840534217
-5.629375713,-56.29375713,4.260028511411262,-1.388888143700001,1.9999999,0.2021592246210712,0.1956,12,10,115.29589324158638,295.78575428,mp-1221438,Na(CoO2)3,https://materialsproject.org/materials/mp-1221438,9.725027305590038,-53.485301691575756,-3.4490193582862667,-59.71852657083549
-5.842919616153847,-151.91591002,2.9326172577936154,-1.8495389757825011,14.999962699999998,0.6164635163815736,1.8258,166,26,283.56996358496025,500.80254,mp-1192851,KFe3H6(SO7)2,https://materialsproject.org/materials/mp-1192851,-7.297351190091837,-7.102217477396714,1.717882116189703,-65.48955762755939
-6.989768263666665,-209.69304791,4.3030699775966745,-1.350753259041667,5.9e-06,1.0671536736068409e-07,0.0,2,30,644.321280605311,1669.6744199999998,mp-1173506,Nb9IrS20,https://materialsproject.org/materials/mp-1173506,5.021955170889736,-52.46056782776034,-8.345387537463003,-54.428787555036784
-7.377552210370371,-398.38781936,3.740502678557613,-2.4692483685185183,10.99999935,0.21098210379730148,1.0549999999999995,1,54,607.6093783109493,1368.6908,mp-1177934,Li3V8O16,https://materialsproject.org/materials/mp-1177934,-0.93657881502074,-66.34245067884025,-16.71597240763338,-65.3202827972291
-2.3609377275,-9.44375091,3.8520546162773903,-0.043435922500000064,2e-07,2.875170306042433e-08,0.0,164,4,81.06695278584097,188.056,mp-1094858,MgGa,https://materialsproject.org/materials/mp-1094858,-73.52053428153509,4.022006264303582,-68.10117261234805,15.219009247157473
-6.369771547575757,-210.20246107,4.056798813009885,-1.996453611526667,13.000079266666667,0.4462017760186329,0.8668,2,33,339.5409296080816,829.519335,mp-759297,Li2Mn(FeO3)2,https://materialsproject.org/materials/mp-759297,4.727030790233932,-65.17878720740936,-8.780732656836479,-65.49308264776221
-4.5245955979999986,-45.24595598,3.4165999737382107,-2.9386021139473333,0.0,0.0,4.8635,225,10,136.92616538515392,281.72895776,mp-1113913,Na2LiInF6,https://materialsproject.org/materials/mp-1113913,-13.116087946168197,-19.561627994138817,-27.411568955416474,-12.344437019811645
-6.01135048625,-96.18160778,3.9457373150700894,-2.03985190262,8.0000005,0.6682678399343039,0.4962999999999997,2,16,139.51370758268934,331.5094850000001,mp-1174006,Li5Mn2CoO8,https://materialsproject.org/materials/mp-1174006,21.270045962187787,-72.91834955536244,-10.712306654248184,-77.98252968345466
-5.87247935642857,-164.42942198,3.6813008531495015,-0.9929360907414286,13.0000005,0.4379009781279326,0.0,148,28,345.9751300807711,767.00307,mp-1192587,Mn3NiO10,https://materialsproject.org/materials/mp-1192587,32.311923699126766,-41.14542128883161,33.57217075299921,-62.97127810417322
-6.7857287425,-27.14291497,8.996425769182233,-0.8411609345833329,1.31e-05,2.262462397238746e-06,0.0,225,4,67.47880040210084,365.584912,mp-867842,ScInRh2,https://materialsproject.org/materials/mp-867842,-40.91821146316088,-61.816890165752156,-48.0369235678463,-39.34878723886658
-10.9919827,-32.975948100000004,11.755434201539785,-0.0483362433333312,2.3e-06,5.131385968742989e-07,0.0,42,3,52.23608034975672,369.79426,mp-1217902,TaNbMo,https://materialsproject.org/materials/mp-1217902,-44.838591921421106,-65.44303522325406,-53.401083435687,-37.28784960240017
-8.01057875125,-64.08463001,4.1348144704589975,-0.9777460584745832,0.004451699999999999,0.00047590782366832763,0.0,164,8,109.01354751453042,271.4484772,mp-1217141,Ti4Al2CN,https://materialsproject.org/materials/mp-1217141,-45.705726516786406,-32.798867064868034,-59.60126476656916,-33.300052598004584
-9.117344300000001,-36.469377200000004,12.899985528031829,-0.3691094799999988,7e-07,1.1615847080945449e-07,0.0,225,4,70.23030936911914,545.5878799999999,mp-865364,DyTaRu2,https://materialsproject.org/materials/mp-865364,-47.35360465542457,-65.03202277599641,-50.50849191595054,-36.66126417712522
-6.146057477916668,-147.50537947,3.336385202987933,-2.6316356185316665,2.00000005,0.10108537841878146,1.7042000000000002,8,24,230.57865036880568,463.28281280000004,mp-762922,Li2VO2F,https://materialsproject.org/materials/mp-762922,12.056542834068015,-61.94469138183454,-0.5758773026518261,-75.3963594593736
-4.428558214000001,-88.57116428,3.6721184875310833,-2.6590506808140004,2.9215348999999997,0.12563176957019642,0.0,229,20,271.01231699892287,599.3170384,mp-1147665,K4MgCu3F12,https://materialsproject.org/materials/mp-1147665,-29.246229645264922,31.30467255571129,-17.700811410971397,26.52184387009517
-4.535187828571429,-63.4926296,6.285342573175581,0.0931044697542853,1.565e-05,1.8177951465980912e-06,0.0,12,14,100.33370043477413,379.77528,mp-1104418,H6W,https://materialsproject.org/materials/mp-1104418,9.221819400444724,-50.99302521132533,-1.7307208553649542,-52.38686016047672
-7.0305667825,-337.46720556,3.3179298426320387,-2.9651804113194458,0.0,0.0,2.338,15,48,439.4053371209838,877.9775999999998,mp-676365,Li2TiO3,https://materialsproject.org/materials/mp-676365,15.181989414512751,-72.35339819420649,-15.57634292362161,-77.16513767076991
-2.3948851133333333,-14.36931068,3.943562680455381,-0.077383308333333,0.0007444,7.303734811456602e-05,0.0,166,6,118.77876238175331,282.08399999999995,mp-1094617,MgGa,https://materialsproject.org/materials/mp-1094617,-41.745281144337476,-25.663232498166824,-65.55174000163316,15.191412408533425
-5.065951290625,-81.05522065,5.280261444024862,-1.3641850568749998,2.0000001,0.16748502216295996,0.0,12,16,139.16546333228212,442.52499500000005,mp-756787,Li3Co(NiO2)4,https://materialsproject.org/materials/mp-756787,-9.643165640581783,-64.75368692350035,-27.08106968283696,-62.5356760135784
-5.14718058625,-82.35488938,4.963757985650498,-1.6287193978125003,4.0,0.3092833291226721,0.0,166,16,150.72347812108944,450.5494,mp-755496,Li4Ni3SnO8,https://materialsproject.org/materials/mp-755496,2.6779713242447105,-66.34229070797178,-12.68482955480466,-64.29631978980903
-8.296530545,-49.77918327,4.905544583315106,-2.037529413273809,0.0,0.0,0.0,164,6,69.92566442053398,206.573562,mp-15800,Ti3PO2,https://materialsproject.org/materials/mp-15800,-15.56635269640092,-61.928430593182284,-44.05038782368496,-52.68208841103453
-6.8679089596428575,-192.30145087,5.137689061927801,-2.329052768928572,5.000000099999999,0.17993130253776676,1.3721,1,28,323.8476252122627,1001.9809,mp-771515,Li6V3W3O16,https://materialsproject.org/materials/mp-771515,5.91424599477686,-59.67952270298245,-7.566925045129914,-59.66200806183246
-6.75103778,-94.51452892,4.07436456214771,-2.0557254407142858,6.9999993,0.5610001303290981,0.0,166,14,145.41608965797627,356.798695,mp-756414,Li2Cr3CoO8,https://materialsproject.org/materials/mp-756414,-2.1781384655004628,-75.22407292325325,-18.422974286583678,-73.53400294604184
-5.841675710833332,-140.20021706,4.05960812579038,-1.894276874038334,17.5912263,0.9505773625237935,0.0,8,24,215.66818105646198,527.2554749999998,mp-1175166,Li7Mn2(CoO4)3,https://materialsproject.org/materials/mp-1175166,4.526245668646294,-70.49215631739841,-21.5049708332381,-73.84383462935074
-6.09059439625,-97.44951034,4.2546378203548025,-1.9110944569949997,8.00003875,0.6228963028284807,0.0018000000000002456,2,16,149.67655025745094,383.50167999999996,mp-1173915,Li2MnCoO4,https://materialsproject.org/materials/mp-1173915,4.776470212279816,-77.09801308336701,-27.81432119401404,-76.00481850041899
-8.6330715175,-34.53228607,10.893703261843696,-0.32726171875,3.6000000000000003e-06,5.98371011689761e-07,0.0,225,4,70.11474881234257,459.9767,mp-866112,HoNbRu2,https://materialsproject.org/materials/mp-866112,-46.7892731330864,-64.56019241491323,-50.04654715349832,-36.42296826839013
-6.48266481375,-155.58395553,3.1301274848223803,-2.5315625783854165,0.0,0.0,5.3604,118,24,364.25140612729837,686.6164,mp-1211135,LiNd(SO4)2,https://materialsproject.org/materials/mp-1211135,25.11927460742186,-26.144275117762824,8.831130240577282,-37.077987269828355
-5.97928602375,-95.66857638,3.821295178774818,-2.0077874401200004,9.999999699999998,0.8089896243553429,0.13790000000000013,8,16,144.05703203207938,331.5094850000001,mp-1174420,Li5Mn2CoO8,https://materialsproject.org/materials/mp-1174420,13.142571851333187,-72.04256171989941,-15.423346130530431,-78.74992258220864