energy_per_atom,energy,density,formation_energy_per_atom,total_magnetization_uB,total_magnetization_T,band_gap,sgr,num_sites,cell_volume,weight,mp_id,formula,URL,tsne_xrd_lin1_0,tsne_xrd_lin1_1,tsne_xrd_lin2_0,tsne_xrd_lin2_1
-4.457304806111111,-160.46297302,4.630912024883501,-0.8029693094444441,0.0,0.0,0.7976000000000001,14,36,1015.2413731264737,2831.3056,mp-17504,Sr3(GeAs2)2,https://materialsproject.org/materials/mp-17504,0.08112661090582854,-14.737400870181165,20.08588092530033,-14.255251861257024
-5.229672184166667,-62.75606621,4.9015132168108515,-0.5157471794980246,5.31131505,0.18973892386540167,0.0,63,12,326.22937012165755,962.9509037999999,mp-662563,CsFe2Se3,https://materialsproject.org/materials/mp-662563,8.895285638716919,24.215771218053398,34.29932976707483,-4.436354923758283
-7.794107000882354,-264.99963803,6.504730913511978,-2.7287997323529423,9.53e-05,2.1215717199178955e-06,4.0006,15,34,523.495087343981,2050.6562,mp-1209767,Pr2(WO4)3,https://materialsproject.org/materials/mp-1209767,11.193956946541876,21.181467891930808,39.86291713841972,-4.654386178664661
-7.54265575,-30.170623,8.712098118969902,-0.3435020406249993,4e-07,9.78400338094518e-08,0.0,38,4,47.64538326001214,249.9738,mp-11723,ErNiC2,https://materialsproject.org/materials/mp-11723,-35.794628878139356,28.722563058917185,-55.606093094319355,33.64219718643515
-4.46783359,-125.09934052,2.762522969199094,-1.2000015790757144,2.5e-08,4.058126794120788e-10,0.0,62,28,717.9460723999263,1194.3968,mp-1210729,Nd(ClO)3,https://materialsproject.org/materials/mp-1210729,37.61303662879588,-35.389657147047856,11.73372789965974,-40.275069799750476
-7.5445229625,-30.17809185,8.355254306456787,-0.3358610768750001,0.0,0.0,0.0,38,4,48.734453034077475,245.2148,mp-4587,DyNiC2,https://materialsproject.org/materials/mp-4587,-36.13862445259976,28.741846751580592,-40.15739472928761,35.61234003762093
-7.0239810319230775,-730.49402732,7.1389229695583865,-2.3823581879807696,0.00056795,4.364000824288878e-06,3.12,88,104,1516.710549350972,6520.581279999999,mp-1194639,ThTe2WO9,https://materialsproject.org/materials/mp-1194639,8.801872430365233,21.1411824924016,31.60193197299219,-6.2241599272134165
-5.09499448875,-326.07964728,5.539612428334991,0.13692567350827556,0.0006451,5.5452541876102474e-06,1.0892000000000004,61,64,1355.7606072550825,4522.8616304,mp-1247319,CsSbN2,https://materialsproject.org/materials/mp-1247319,-20.662366899385734,11.709488316253445,-13.917081212826586,30.06383083806373
-5.611527966145832,-538.70668475,5.2081333047674345,-1.8083270761979169,0.0,0.0,1.7825999999999995,19,96,1497.658197488703,4697.272,mp-559685,V2Cd4(TeO5)3,https://materialsproject.org/materials/mp-559685,6.648791038342445,27.70583297179645,32.21502063594105,-4.758183899004799
-5.598906493333334,-134.37375584,2.6445259885303014,-0.4675545624599996,0.0,0.0,0.08819999999999982,141,24,260.6463585901089,415.09778,mp-1245419,Li3MnN2,https://materialsproject.org/materials/mp-1245419,29.597084132137198,-37.0533041235675,6.905166465112089,-37.4113907824673
-5.497695167884616,-285.88014873,7.7070672381552425,-1.597299337596154,0.0,0.0,2.7623,64,52,1065.9087874436957,4947.2072,mp-558302,Bi5BrO7,https://materialsproject.org/materials/mp-558302,-10.047530291525748,-24.779821676085337,21.82958011052464,-18.70511104258411
-4.5492821414,-227.46410707,3.6926499447003054,-3.079545269982966,0.0,0.0,5.7765,87,50,885.3165141815338,1968.7365960000002,mp-1198971,KRb2GaF6,https://materialsproject.org/materials/mp-1198971,-3.24163935528948,-13.24727268240366,-0.5054495601048505,7.2802763570144275
-8.2452969745,-329.81187898,6.395581480708652,-3.803409630750002,0.0,0.0,3.708,206,40,698.9098095933284,2691.8576,mp-1045,Nd2O3,https://materialsproject.org/materials/mp-1045,-12.241139294025311,-24.75945168127459,21.21108473753211,-18.424863169761775
-7.4431798844615376,-483.80669249,3.5575175338189142,-2.6750719659230766,0.0,0.0,4.5986,146,65,872.3216450180097,1868.8507,mp-1228574,Ba6Ca6Mg(CO3)13,https://materialsproject.org/materials/mp-1228574,3.86851889572406,24.610863954798194,19.98845112523975,-18.31490708597828
-4.240700675,-144.18382295,4.6942964355362,-2.5565929695133884,6.00000135,0.11010213212335808,4.9551,64,34,635.0867419170639,1795.3720792,mp-17733,Cs4Ni3F10,https://materialsproject.org/materials/mp-17733,11.560533346230152,-18.85830889068752,16.734669535492724,-14.10823210393738
-3.424575494,-68.49150988,5.589970239986744,-0.1970259550000001,2.45e-06,3.5904235114405134e-08,0.9847999999999996,167,20,795.2392970297733,2677.06082,mp-1188875,Te6IrI3,https://materialsproject.org/materials/mp-1188875,-5.8265572269305,-7.558189619050855,2.094503802220192,-38.392420834218505
-4.969202601538461,-64.59963382,3.5804104591705865,-1.5969012352478442,1.0000001,0.04633473652559151,0.0,5,13,251.5189857943709,542.3186,mp-1219666,Rb3(SeO4)2,https://materialsproject.org/materials/mp-1219666,9.078543490990457,-18.99600403577116,16.303954958163022,-13.802432217737973
-3.682953805666666,-110.48861417,4.221621858582889,-0.9887862970689658,2.0000000666666664,0.019212442265905832,0.0,185,30,1213.1789389118617,3084.28926,mp-27812,RbTiI3,https://materialsproject.org/materials/mp-27812,-18.280587589780193,-35.37338042023908,-20.42975075016618,-6.942434911243902
-3.0215704125,-12.08628165,6.533482234837287,0.042409328333333114,0.0001514,1.4148520040858914e-05,0.0,123,4,124.70741826495829,490.6682,mp-1229041,AgTe3,https://materialsproject.org/materials/mp-1229041,-20.27773397957261,-49.861868173338735,-31.87061168018774,-23.4443548180254
-7.425576093636362,-81.68133703,6.064816106035012,-3.1455283546164776,4e-07,1.9878282656419943e-08,1.4729,38,11,234.50848293065928,856.4994800000001,mp-4412,La4Se3O4,https://materialsproject.org/materials/mp-4412,3.2259988892371685,26.19151552566936,-6.190138633947517,29.859962654569888
-8.002560755681818,-352.11267325,4.860382737047526,-4.210963873782273,0.0,0.0,2.7161000000000004,39,44,607.6704676815464,1778.6459575999997,mp-27129,Y7(O2F3)3,https://materialsproject.org/materials/mp-27129,-11.132640241288922,-24.389486182149163,28.486545750037816,-5.033465944302035
-5.7837799140625,-370.1619145,5.604345977516693,-1.0602924790625003,0.0,0.0,0.1368999999999998,20,64,1947.1343500032026,6571.6097599999985,mp-569686,La3C2I3,https://materialsproject.org/materials/mp-569686,0.0391435479985366,-14.205768830137176,-0.5879539046138145,-1.0788496001175687
-8.173720655,-32.69488262,4.712229075974274,0.04482648874999917,22.0323174,1.4691275510519546,0.0,139,4,174.77451422467652,495.97,mp-1183620,CaEu3,https://materialsproject.org/materials/mp-1183620,29.84958435051746,63.03240986452859,-9.671637345054645,32.79173653749863
-7.628378972857143,-427.18922248,5.608519664553063,-3.3573401025000007,0.0,0.0,4.055999999999999,84,56,992.9656210294667,3353.77072,mp-1211567,La4AsBrO8,https://materialsproject.org/materials/mp-1211567,-19.8262148539838,13.805133683019998,-16.51225666032538,38.28790337060045
-6.785904409166666,-162.86170582,4.256405213109373,-2.6461623610175,5.0000002,0.15320672501418034,2.3398000000000003,113,24,380.3379139409063,974.90769,mp-22458,Sr2MnGe2O7,https://materialsproject.org/materials/mp-22458,18.77496507642764,59.823025158003006,33.76782230629995,-6.248094008378499
-6.31114897175,-252.44595887,7.0527756608713865,-1.9054604435,0.0,0.0,2.4006,62,40,725.4696147351385,3081.2732,mp-631621,VBi(PbO3)2,https://materialsproject.org/materials/mp-631621,8.552748442646267,-23.893576945654928,34.395233627528896,-4.4537695387426695
-7.942759549642857,-222.39726739,8.38433586941165,-2.8549599616964287,0.0,0.0,2.3040000000000003,41,28,400.6488707451904,2022.9423199999999,mp-559951,SrTa2Bi2O9,https://materialsproject.org/materials/mp-559951,21.008209769891508,58.80146896027375,33.10642657901694,-4.392893215829104
-5.704626591282053,-222.48043706,8.282481730641402,-1.6155544831810902,0.0,0.0,1.0964,2,39,669.9863668293435,3341.7762,mp-675169,Bi14SO24,https://materialsproject.org/materials/mp-675169,1.3298381002797224,-17.537933142983952,28.065721100320182,-5.9408123561473865
-5.273239974,-26.36619987,5.1875110504073065,-1.6130207954285711,5.7100000000000006e-05,3.6951209661188383e-06,0.0,164,5,180.08804166758014,562.593642,mp-571647,La2PI2,https://materialsproject.org/materials/mp-571647,-20.41918730038972,-35.842550805719625,-34.114478059320376,-22.151692269135165
-7.4881098811363636,-329.47683477,3.1307222883966213,-2.9150265008820355,2.000000175,0.04194949993848842,0.13999999999999968,14,44,555.6235859487718,1047.553296,mvc-1027,CaTiP2O7,https://materialsproject.org/materials/mvc-1027,3.2795077077346195,27.636572617343198,31.43913783283729,-1.3235105451908726
-6.120320421060606,-403.94114779,4.018809115061357,-2.1438858875852267,0.0039348,4.396641321677982e-05,2.7408,43,66,1042.987378592137,2524.2208,mp-1204879,Sr4V2(Se2O7)3,https://materialsproject.org/materials/mp-1204879,-18.43891656457986,6.960438633606754,31.502149601444877,-5.050181303951773
-6.26006710375,-150.24161049,4.883774511952943,-2.5973660292708343,0.0,0.0,3.1017,113,24,406.2040108850582,1194.6776,mp-1190949,Ba2ZnGe2O7,https://materialsproject.org/materials/mp-1190949,6.030317018749907,27.49669199576484,33.04034489373636,-6.400498423077173
-6.266579007916667,-150.39789619,4.4373362194688895,-2.408429196354168,0.9999995999999999,0.031389523245611554,0.0,113,24,371.27228788233003,992.1236,mp-17265,Sr2CuGe2O7,https://materialsproject.org/materials/mp-17265,18.73579027012006,59.866880140729215,33.795138450220186,-6.283705685115672
-6.72351253515625,-430.30480225,4.355279215342368,-1.7688089960416675,0.9999999875,0.012486181872570707,1.4042,19,64,933.3569497722278,2448.0184,mp-1179220,TlB2O5,https://materialsproject.org/materials/mp-1179220,38.336942447099474,-34.99266319474429,24.224463392641532,-51.21228409945444
-6.863204940277778,-247.07537785,6.657081607287044,-2.229486036111112,2.375e-05,5.2550464016464e-07,2.9331,15,36,526.7014164928718,2111.539824,mp-1209046,ScBi3(MoO6)2,https://materialsproject.org/materials/mp-1209046,10.748549056699849,21.81748708528836,39.89860048407451,-4.535425489355232
-7.421164399583334,-178.10794559,4.720738818166138,-2.380346396034483,0.0,0.0,4.2592,62,24,539.042062948535,1532.4402076,mp-17621,CsReO4,https://materialsproject.org/materials/mp-17621,8.009166468211866,-25.837662604904157,-1.389002436485519,-31.48362301245725
-6.785402600384615,-352.84093522,5.060397659512757,-2.413258496538461,2.75e-06,3.9217050228836415e-08,4.7881,88,52,817.2128688295293,2490.4094328,mp-540937,Na5La(WO4)4,https://materialsproject.org/materials/mp-540937,29.39311314488739,-20.470298440330826,39.108045649731494,-6.9283879297989515
-4.542770307307691,-118.11202799,5.032244302349231,-1.0545570166987184,0.0,0.0,3.059,148,26,422.06134793760725,1279.0520199999999,mp-23559,In(IO3)3,https://materialsproject.org/materials/mp-23559,21.60291246205422,-16.091298653942772,21.50047314634964,-19.549623878465212
-3.2974279114814813,-89.03055361,7.504254059957483,-0.5646556195023154,0.0,0.0,0.7668000000000004,146,27,877.9237328790946,3967.4844,mp-556516,Tl2S,https://materialsproject.org/materials/mp-556516,-11.133474997991703,-19.82039769751384,-20.45968198728072,-6.883702954379778
-5.582030434500001,-111.64060869,3.5957268399145472,-2.5925155856973787,6.999999925,0.11288146620577508,1.0936999999999997,62,20,722.691290925927,1564.9138076,mp-1213256,CsEuCl3,https://materialsproject.org/materials/mp-1213256,1.3748154072182273,-29.37676975096948,15.25857375980745,-14.836475079917294
-3.700341715833333,-44.40410059,3.599969241545483,-1.9638672560711108,0.0,0.0,1.0323,15,12,176.02123703712132,381.6056256,mp-758054,LiAgF4,https://materialsproject.org/materials/mp-758054,28.528077277740664,-21.669771315242357,21.823716897786344,-56.58415812657879
-7.431929699166666,-89.18315639,3.5102686763795146,-2.211010182063332,0.0,0.0,2.8159,39,12,157.9143055984644,333.8203,mp-1216049,YNO4,https://materialsproject.org/materials/mp-1216049,21.098558132556214,59.09409865387142,33.39504183276093,-4.3109808166928705
-6.881670453333334,-82.58004544,3.4689473536773963,-2.4451168450287355,0.0,0.0,3.8815,164,12,206.94801653137142,432.3245386,mp-1209248,RbAl(MoO4)2,https://materialsproject.org/materials/mp-1209248,5.258580194618706,-34.113380220151825,49.15610445601318,-7.962268167805799
-7.157124903181818,-157.45674787,3.7028608700747037,-0.5670392884681816,0.0,0.0,1.7525,2,22,330.8875937556166,737.8512000000002,mp-1247168,Sr3C3N5,https://materialsproject.org/materials/mp-1247168,7.936551990694004,28.88156083102015,30.003847352841568,-6.131874111451089
-5.512918030625,-88.20668849,5.786553853690955,-1.8937389525,0.792292375,0.034542750938195574,0.0,55,16,267.3043230857827,931.4872,mp-754008,BaCuO2,https://materialsproject.org/materials/mp-754008,-20.265828169915107,21.355222095674765,-19.50838729141711,51.76314138342161
-6.595322815476191,-277.00355825,4.586607686205151,-2.5860038604319056,5.99999905,0.09089428256622896,1.7671,176,42,769.2934647792297,2124.8806764,mp-1214575,Ba5Mn3O12F,https://materialsproject.org/materials/mp-1214575,1.3074334476677711,-13.923935835862215,20.568597757100047,-12.971176095264303
-5.845705806666667,-17.53711742,1.9688921026698163,-1.5412651223958338,0.0001484,6.880427594659564e-06,0.9778000000000002,166,3,251.35984478497085,298.036,mp-1080274,CeSe2,https://materialsproject.org/materials/mp-1080274,-5.826746547615242,-7.4190598488591135,2.0282915680600806,-45.0108895103425
-3.5410437218055564,-254.95514797,3.1971269563015223,-0.8816715048472226,0.0,0.0,1.9803,62,72,1996.2619059012204,3843.51261696,mp-28292,Na4GeSe4,https://materialsproject.org/materials/mp-28292,31.734834904546037,-23.24774569945722,13.159747761528854,-40.85140728656797
-6.69000217625,-107.04003482,3.120731033046374,0.2991750319650004,0.0,0.0,1.9548,88,16,224.68662437649948,422.2644,mp-504768,CuN3,https://materialsproject.org/materials/mp-504768,-5.845856940866454,-7.657957409419535,1.6616640795454751,-38.15731039602989
-7.142026342222222,-257.11294832,3.670133080024533,-2.5435772355747126,0.0,0.0,4.1953000000000005,167,36,619.5562316459302,1369.3467999999998,mp-1194730,RbZr2(AsO4)3,https://materialsproject.org/materials/mp-1194730,65.06376758880171,-27.94414809774106,66.70860638344547,-17.732851572920946
-7.422054353043477,-170.70725012,3.9336543338110785,-2.3803789440760865,11.999999699999998,0.6513840389055372,2.8028000000000004,217,23,214.69481200287373,508.59098,mp-19343,Co4B6O13,https://materialsproject.org/materials/mp-19343,-21.034819250263954,7.507517160517651,-17.941065407024954,43.12968711281711
-6.03527029,-120.7054058,4.168986960455438,-1.838946022394,6.9999999000000015,0.3998913208384277,0.0,3,20,204.00155740182316,512.170935,mp-756939,Li4Mn3TeO12,https://materialsproject.org/materials/mp-756939,7.2723823136307715,-25.117969105461306,21.151564739810148,-20.690976709774255
-4.2233728825,-84.46745765,5.783593471071313,-1.229023741,1.003368,0.014883551934263172,0.0,148,20,785.653566726548,2736.4010900000007,mp-1188900,Tb7RuI12,https://materialsproject.org/materials/mp-1188900,-24.540851887969986,-38.055247750438866,-34.164270956500594,-23.790163063844
-5.685757072708332,-272.91633949,6.944771482551365,-1.8819340291071427,9.355e-05,1.1685653598452605e-06,2.4559,61,48,932.971143023893,3901.908496,mp-1194829,Tl2PO3,https://materialsproject.org/materials/mp-1194829,5.230273340809491,25.129336039021226,-5.246748181813522,29.37049429966142
-5.62166431375,-224.86657255,6.238196397588272,-1.9360068709375,9.429999999999999e-05,1.7316755203783103e-06,0.16110000000000024,2,40,634.6329292755092,2384.1444,mp-683904,Yb2Te5O13,https://materialsproject.org/materials/mp-683904,1.8572334747958392,-17.072153727381693,28.414709045505763,-6.3549617944618575
-6.532873584375,-104.52597735,3.2577750480282672,-2.436155922451608,9.0000006,0.5870680209622444,0.023600000000000062,1,16,178.6617328832864,350.5125272,mp-1222971,Li2Fe2P2O9F,https://materialsproject.org/materials/mp-1222971,48.43416891410797,-10.42935188714334,66.67241133815398,-21.21106406571222
-6.7701938250000016,-352.05007889999996,5.169141677395889,-2.4042611042307698,5e-08,7.252517088104473e-10,4.7864,88,52,803.4496596826091,2501.0824928,mp-19461,Na5Nd(WO4)4,https://materialsproject.org/materials/mp-19461,29.458884015450202,-20.493663258172926,39.154572567590364,-6.960590308151022
-7.134922354090909,-313.93658358,4.9559759608897735,-2.5392602470454544,19.9999992,0.4130585521176727,2.6189,1,44,564.2814679250158,1684.13107,mp-1216291,Y3HoFe4(Ge2O7)4,https://materialsproject.org/materials/mp-1216291,7.840104276520014,25.844801287371453,32.44623387373497,-2.3340178539140246
-3.933031233333333,-11.799093699999998,5.062750310291856,-0.10038145000000044,4.0000003,0.4589847536677698,0.0,164,3,101.56385852459226,309.6539400000001,mp-571122,FeI2,https://materialsproject.org/materials/mp-571122,-19.0999227873898,-35.26175355262913,20.21121060880009,-15.604532415834493
-6.1597387941666675,-147.83373106,4.94682292431742,-2.526878758854167,0.0,0.0,2.8895,113,24,432.58190957480764,1288.6816,mp-1214739,Ba2CdGe2O7,https://materialsproject.org/materials/mp-1214739,5.973326388997799,27.27646558394175,32.00228070303673,-6.747424973234621
-6.364376217321428,-356.40506817,8.026151033759305,-1.9967722730357147,0.0,0.0,1.4704000000000002,33,56,940.7148468946757,4546.90872,mp-1198841,NbBi4BrO8,https://materialsproject.org/materials/mp-1198841,20.86972602131576,58.90653157344239,33.08525958769979,-4.506398741997971
-5.304496543125,-339.48777876,7.90817792608772,-1.5293224617187509,0.0004457375,5.489119746005543e-06,0.22639999999999996,61,64,946.3545954410994,4506.9344,mvc-7459,ZnBi2O5,https://materialsproject.org/materials/mvc-7459,6.868982468468148,29.180985701176876,32.44393032246621,-4.717070800739407
-4.977347562777777,-89.59225613,4.1665563274354,-3.0588935287052106,1.00000045,0.04333118683933596,0.0,74,18,268.9533997787778,674.8468194,mp-1225941,CsAlCuF6,https://materialsproject.org/materials/mp-1225941,-6.747351893001485,-10.25181779594696,0.6408910309662491,7.703531203231704
-7.276750328333333,-174.64200788,5.311939851305307,-2.8693000084375004,6.9990609,0.2239086147965458,1.2257000000000002,5,24,364.28928449138107,1165.3341,mp-1183410,Ba5V5O14,https://materialsproject.org/materials/mp-1183410,-8.60459103695073,34.084252851800535,-2.401735784919541,45.36296522588832
-5.492303745,-21.96921498,3.4112838394513796,-2.2508630134062506,0.0,0.0,2.7097,166,4,117.86547145019868,242.13377000000003,mp-15781,KLaS2,https://materialsproject.org/materials/mp-15781,-24.292182140650567,-36.96492391689685,-32.07795500177373,-21.69679314292737
-5.922933476710527,-450.14294423,3.1538093000388883,-2.0385705700361845,6.0,0.06856219101184959,2.7186,198,76,1019.8680585232922,1937.00316,mp-21807,K2Co2(SO4)3,https://materialsproject.org/materials/mp-21807,5.0534143952159205,28.36311939657209,69.27607356874846,-23.02939837157094
-4.884482875,-19.5379315,5.306349821711932,-1.7287338793830818,0.0,0.0,1.9451000000000005,166,4,125.89759709148755,402.31315,mp-10782,RbTbSe2,https://materialsproject.org/materials/mp-10782,-23.245256565364162,-35.9755424524831,-33.110566955481055,-22.874039747485337
-7.42954546,-267.46363656,5.281864188443764,-3.32513872362611,6e-07,8.802077121035512e-09,3.5216000000000003,194,36,794.4078161761432,2526.86272,mp-559378,Ba5Ta2Cl2O9,https://materialsproject.org/materials/mp-559378,-18.874120932185427,17.01028677883404,-18.308414829007496,47.49959102225122
-6.714236557272727,-73.85660213,4.424159543795243,-2.513262682775975,0.0,0.0,3.8072,5,11,146.32962218298945,389.864724,mp-759568,LiBiP2O7,https://materialsproject.org/materials/mp-759568,33.6216870827272,-22.95071932491122,45.60686692015366,-32.85563981691355
-3.902437786666667,-70.24388016,5.98100167348445,-0.641944876857778,0.0,0.0,1.7632,64,18,264.19007150389467,951.5712800000001,mp-643253,Ba2H6Pt,https://materialsproject.org/materials/mp-643253,-0.7860383014369313,-17.047271153957464,-1.6058966772256988,-26.913743403329995