energy_per_atom,energy,density,formation_energy_per_atom,total_magnetization_uB,total_magnetization_T,band_gap,sgr,num_sites,cell_volume,weight,mp_id,formula,URL,tsne_xrd_lin1_0,tsne_xrd_lin1_1,tsne_xrd_lin2_0,tsne_xrd_lin2_1
-8.506867382777777,-306.24722578,5.149235310278397,-2.805578454166668,4.000000075,0.1070283867141912,2.2202,60,36,435.55043101581805,1350.61664,mp-22366,Nb2FeO6,https://materialsproject.org/materials/mp-22366,14.795178864201688,56.394304045770426,-4.9848622959012445,36.20714864798825
-5.674680605,-215.63786299,2.480008389305579,-1.6742559810242104,0.0,0.0,3.3378,36,38,516.3628338509591,771.1858192000001,mp-769129,Li3SbN3(O3F)3,https://materialsproject.org/materials/mp-769129,40.62361522159697,-39.11086442990876,17.118017386973545,-56.447310604385564
-5.704902676666666,-68.45883212,5.422103333170377,-1.4495930306998328,2.0000125,0.0721318475061955,0.0,63,12,323.134316210701,1055.11982,mp-13350,RbUAgS3,https://materialsproject.org/materials/mp-13350,30.687564979046332,-27.88255442488937,44.305882406925924,-29.47789614199351
-2.44325519125,-19.54604153,3.5475544418562306,0.3033656362500001,2.29237425,0.07081638447482763,0.0,194,8,377.24995692125776,805.952,mp-1187237,Sr3Ce,https://materialsproject.org/materials/mp-1187237,-11.405110266993654,-19.109923072501907,-20.094553952726656,-6.5284199529688
-3.966391031666667,-23.79834619,5.009821634105002,-0.8424400379166664,0.013152,0.0011317747025266867,0.0,164,6,135.42824340084675,408.585,mp-1018769,Li3NdSb2,https://materialsproject.org/materials/mp-1018769,-2.1624226942024505,-29.863413206539857,-9.000777184066342,-24.485387775765773
-6.028321990833334,-72.33986389,6.0443086055241535,-2.176221403541668,1.05e-06,4.992196030090955e-08,0.5519999999999996,14,12,245.11793882750888,892.2214,mp-1103226,TbS2,https://materialsproject.org/materials/mp-1103226,-3.9294026412688976,-22.825628382617804,10.906235762370887,-12.633719949455607
-4.459941764,-89.19883528,4.6812839575300735,-0.5535980632514879,0.0,0.0,1.7753,163,20,576.4249629098283,1625.0198679999999,mp-13385,TmAg(PSe3)2,https://materialsproject.org/materials/mp-13385,-18.450436223113453,20.555256497338792,-15.018898400044296,30.231327243480724
-6.985612932463767,-482.00729234,3.9405566130844867,-2.947714975688405,1.9999997999999999,0.026538091330770702,0.04179999999999984,146,69,878.2895093619957,2084.2325600000004,mp-1228104,Ca9Nb2Ga10(SiO7)6,https://materialsproject.org/materials/mp-1228104,20.484485513030666,8.33122475981073,55.53022976294368,-5.820535001272887
-3.4705960728571426,-97.17669004,4.415353295021047,-0.9255167127586204,6.0003887,0.05652195914051,1.0042,194,28,1237.1991281564815,3289.6975714,mp-621938,Cs3Cr2I9,https://materialsproject.org/materials/mp-621938,6.1803228083317565,-14.341750902256491,-1.9512849977203264,-19.032921407532307
-4.325268132,-43.25268132,7.117010848055463,-0.7437306881250002,0.0,0.0,0.6522000000000006,160,10,280.7699618879697,1203.37,mp-1218922,SnTe(PbS)4,https://materialsproject.org/materials/mp-1218922,-27.167161804584627,-39.09630171472513,-28.25460525874853,-23.59737159720449
-4.691540701111111,-42.22386631,3.2003698508161733,-1.7020302723933338,1e-07,5.0789394984959574e-09,1.7286,139,9,229.45862568378396,442.2374,mp-23097,K2Os(Cl2O)2,https://materialsproject.org/materials/mp-23097,36.32381374890265,-35.01959611378038,2.4740687551228837,-49.08361992878695
-4.8910429760000005,-48.91042976,7.012112406868208,0.3040351780000002,0.31530375,0.011748621433139334,0.0,227,10,312.76608463748,1320.74639,mp-1211328,Sm4Co,https://materialsproject.org/materials/mp-1211328,21.49186450431485,65.87124688465619,-8.756660931666643,39.298153572603205
-2.5561359627777778,-46.01044733,2.9379206045316915,-0.2760129026816089,0.0,0.0,3.2911,140,18,369.47946892696854,653.7041999999999,mp-643651,Rb3ZnH5,https://materialsproject.org/materials/mp-643651,-8.590575771208576,-32.467694215438534,16.311693947890724,-17.837970699238795
-2.535716982,-25.35716982,1.2601088055218372,1.4699527480480004,3.9999997000000005,0.09356760287238053,0.0,215,10,498.2093605369004,378.0688,mp-1245768,Mg2CdN2,https://materialsproject.org/materials/mp-1245768,35.967364111405445,-36.96846226791397,5.646404442541251,-61.102815634471504
-5.568960655833332,-133.65505574,3.88144826063654,-1.8086177763437492,0.0,0.0,1.4488,15,24,366.3716625186645,856.3801380000001,mp-561454,KAu(SO4)2,https://materialsproject.org/materials/mp-561454,40.583443156172,-39.91528716385418,42.102846791450595,-30.757299695011568
-2.7047834580769234,-70.32436991,2.7146472899104896,-0.4431329272307693,0.0,0.0,0.31909999999999994,227,26,1123.73018589192,1837.0728,mp-18633,K8SnSb4,https://materialsproject.org/materials/mp-18633,-17.852462853473803,27.86403033547427,-13.369217517283989,16.179406476281866
-4.17738087625,-33.41904701,4.297735414978712,-0.9255080253645842,0.0,0.0,1.0631,82,8,187.69957748149056,485.7959386,mp-1228935,AlIn(AgS2)2,https://materialsproject.org/materials/mp-1228935,-9.531563661068297,-29.900991288090356,-16.681432837388,-38.34323340271472
-5.890631811568627,-300.42222239,3.4386093954059715,-1.7899142314645105,29.9998831,0.6403516109316274,1.2239,166,51,545.9821992295247,1130.60848,mp-743742,Fe6H12Pb(SO7)4,https://materialsproject.org/materials/mp-743742,6.2458268858509465,9.037139475202897,17.26734538355496,-23.43869038754741
-8.806491059285715,-123.29087483,6.401892093225572,-3.932032931339285,1.0,0.056632267471123876,0.0,44,14,205.78488718471252,793.36445,mp-773102,Ce4YO9,https://materialsproject.org/materials/mp-773102,26.2005480317224,62.36982121321911,-9.483934079024829,34.79960175978057
-5.682239740454545,-250.01854858,2.6985294072048105,-3.449023579393636,3.0000007,0.04695059797752197,0.0,128,44,744.6593649832297,1210.1402896,mp-8447,K5Ti3F14,https://materialsproject.org/materials/mp-8447,-9.154947280004668,-28.3866742549292,4.870723327129711,-31.636121369619858
-5.360190962,-53.60190962,3.189621969645116,-2.5770600415319995,0.0,0.0,2.6928,42,10,157.28562580794662,302.11977888,mp-1224007,K2NaMo(OF)3,https://materialsproject.org/materials/mp-1224007,-4.301048239349015,-1.7980304285147108,6.685622602093764,-38.43123175049377
-6.565706271630435,-604.04497699,4.336349539503883,-2.2567903392391315,6.05e-06,4.9526297707325154e-08,2.8395000000000006,161,92,1423.6293673847103,3717.681068,mp-765193,LiSn10(PO4)7,https://materialsproject.org/materials/mp-765193,9.758163316305788,21.340142887017876,34.59466761431965,0.35112423865957243
-7.512407692499999,-180.29778462,1.6118161936428337,-0.27595801793999897,0.000322,8.661090679626618e-06,4.5005000000000015,14,24,433.2720895754433,420.5592,mp-637235,KC2N3,https://materialsproject.org/materials/mp-637235,31.049654803166398,-16.762899742528166,27.33459665965186,-26.499526673538362
-4.336885747361111,-312.25577381,4.0937880592464815,-1.058336419638889,0.0,0.0,1.5705,14,72,1261.9894682813099,3111.22912,mp-1181385,K(IO3)2,https://materialsproject.org/materials/mp-1181385,17.152070766641902,-11.910618504348989,29.798851979870463,-21.883162171318165
-9.047522717166666,-542.85136303,5.985940602437422,-3.26775817575,11.72593655,0.15283177398463668,0.0,14,60,894.151919524027,3223.2547088,mp-582606,Eu4Al2O9,https://materialsproject.org/materials/mp-582606,10.244445177962028,24.12787056514836,-1.2375921224917144,39.054857540240924
-7.2043222700000005,-36.02161135,5.8191127258449615,-0.5750732592500001,9.090699800000001,0.4991388569233667,0.0,123,5,212.2527685985406,743.80834,mp-1209808,Np2I2O,https://materialsproject.org/materials/mp-1209808,5.790749372047727,-23.4396523720591,16.090614799053554,-18.711296475298017
-2.5313578957142857,-70.87802108,2.3973303117851463,0.7768592080614292,9.98748765,0.07125668417767031,0.13880000000000026,194,28,1633.4583812238993,2358.2338,mp-1192736,Bi2(Br3N)3,https://materialsproject.org/materials/mp-1192736,36.521504147125135,-52.699272334180726,34.32619654752734,-64.95945429314273
-3.76585738625,-30.12685909,7.289780498935068,-0.3439138562499999,1.29e-05,4.928185632393618e-07,1.0051999999999994,62,8,305.0563570045578,1339.1999999999996,mp-1079574,TePb,https://materialsproject.org/materials/mp-1079574,-6.0605266903504775,-30.111385371909513,-7.8910040560025845,-26.213513802233106
-7.000093497916668,-168.00224395,2.3635830904752937,-2.440539651150795,0.0,0.0,5.7155,11,24,252.4594690133379,359.34652400000004,mp-756641,Li2BPCO7,https://materialsproject.org/materials/mp-756641,67.4938815387003,-34.258692377117946,66.08089423230258,-41.75878401291335
-5.540740291785713,-155.14072817,2.6724831621121226,-1.7400647892085712,0.9999998,0.02378622751932148,0.4381,62,28,489.95001129456864,788.5289799999999,mp-504636,K2MnO4,https://materialsproject.org/materials/mp-504636,6.609664724275997,33.134904273563464,13.115833836766225,10.376284881791353
-5.73506456890625,-367.04413241,6.224624185829318,-1.5123712157449996,1.99999985,0.02668171662186384,0.8861999999999997,61,64,873.5617774274034,3274.59556,mvc-7842,MnZnBiO5,https://materialsproject.org/materials/mvc-7842,4.5453870872997655,30.12421526825715,35.66059431991922,-6.3305930356307965
-5.172682654375,-82.76292247,4.013259150453264,-1.1463867732421882,0.0,0.0,0.00550000000000006,15,16,249.46860486643746,602.9259999999998,mp-3199,CuSe2O5,https://materialsproject.org/materials/mp-3199,58.19516935211899,-17.634074523418978,69.24638117498972,-15.70967698266493
-5.3577368268055565,-385.75705153,4.184544493090336,-1.652801037083334,4.0000004125,0.03939184491556137,0.0,61,72,1183.3988480982566,2982.1552,mp-1199346,Ba(GaO3)2,https://materialsproject.org/materials/mp-1199346,1.0425958660099337,-13.157427599150797,27.61252786209973,-12.292062080932892
-3.337984661666667,-20.02790797,3.730129988772332,-1.6707970925000002,0.0,0.0,3.2691,8,6,304.95109793951536,685.02288,mp-766325,BaCaI4,https://materialsproject.org/materials/mp-766325,17.880592508805172,6.5361437777685785,46.61435192880373,30.191447997070092
-7.128675583660715,-798.41166537,2.4732739376610096,-2.9576104606692857,0.0,0.0,4.9784,62,112,1317.335507826902,1962.09273024,mp-556001,NaBeSi3HO8,https://materialsproject.org/materials/mp-556001,61.75578038294813,-20.486444826478802,68.37589161526503,-30.230281592597088
-1.556653645,-6.22661458,0.5522134048867512,0.6352157287500004,1.0,0.013392028334365293,0.02329999999999988,71,4,870.224022947606,289.3936,mp-1095984,Li2HgAs,https://materialsproject.org/materials/mp-1095984,42.61013718795371,-34.51242732626905,25.652002618758672,-68.94570174613516
-5.897590722166668,-353.85544333,4.585505482939876,-2.396447909416666,0.0,0.0,3.4711,5,60,1143.823551225946,3158.6184,mp-561385,SrTeO3,https://materialsproject.org/materials/mp-561385,12.338475781130473,-21.21766779649365,28.152219244693484,-7.8146247868453385
-6.45877446,-142.09303812,3.8833901580424097,-2.0403126805032468,1.95089855,0.08831339763753296,0.0,15,22,257.44562744271644,602.070648,mp-3638,Cu2P2O7,https://materialsproject.org/materials/mp-3638,5.433165809367673,34.567407263221966,61.21991801130533,10.62332466699964
-7.611226599583333,-1096.01663034,6.039944605750702,-2.8489401104166663,31.999973675,0.179846484904493,0.8537999999999997,1,144,2073.600527286916,7542.38956,mp-1076459,La7SmCrFe7O20,https://materialsproject.org/materials/mp-1076459,-17.787835235476336,44.062978741301855,-10.328830587565596,62.20395957794153
-8.5828012215,-171.65602443,6.9377907099290566,-0.8344739529279991,0.0005034,1.687222416933779e-05,1.4274999999999998,14,20,347.7108973675287,1452.7484000000004,mp-989622,BaWN3,https://materialsproject.org/materials/mp-989622,7.961067672515062,17.90534686726036,28.750482177219897,-9.838811055496905
-5.515974510535713,-308.89457259,5.9290324735903095,-1.7324960259226192,0.0,0.0,3.0178,62,56,847.411477636928,3025.7224,mp-28091,In2(TeO3)3,https://materialsproject.org/materials/mp-28091,9.803757147075462,18.56918550112684,35.25944687021871,1.039919845935909
-2.437908945,-9.75163578,2.924901065023858,1.5058060971249998,3.8883592000000005,0.26299317668574873,0.0,225,4,172.30557289296382,303.5019,mp-1066388,K3Re,https://materialsproject.org/materials/mp-1066388,-18.441274163217173,-49.23260330416443,-21.682267785199016,-8.444696723550267
-7.542625832222222,-271.53452996,5.841482843234234,-0.8410819333333327,20.961954925,0.2646678915779925,0.0,14,36,923.0132865717814,3246.9976,mp-1199837,Eu3(SiAs2)2,https://materialsproject.org/materials/mp-1199837,-25.432033295210672,-37.597741592519114,-34.945160105470855,-23.280659014868327
-6.5543352965,-131.08670593,3.1415766232428544,-2.396420067839287,6.9990505,0.3060575016298093,0.038899999999999935,8,20,266.51001017474096,504.2107398,mp-1214480,BaAl3(PO7)2,https://materialsproject.org/materials/mp-1214480,25.79189029173677,-23.28406560930172,19.638883110871998,-24.655194259875213
-4.9905664265909095,-219.58492277,3.5231454237432565,-1.244096302088181,5.999999725,0.09111829957817424,1.6087,62,44,767.4022205660158,1628.1879295999997,mp-1198401,ThN3F7,https://materialsproject.org/materials/mp-1198401,39.04798905591705,-37.8777781530987,25.775800549074987,-63.65187235654585
-7.879044099999999,-283.6455876,4.824911766813356,-3.8037600324899983,4.2833333333333335e-06,1.0331313547288693e-07,4.5981000000000005,190,36,483.17422446472,1403.9254392,mp-541995,LaSiO3F,https://materialsproject.org/materials/mp-541995,-16.860120861039796,14.805590673402307,-14.619830010009235,25.93287697892871
-5.083758275714286,-71.17261586,8.045884348765522,-2.5544574762157137,0.0,0.0,3.9118,15,14,210.49226611893206,1019.9076256000001,mp-753309,Bi2OF4,https://materialsproject.org/materials/mp-753309,9.049398685410113,19.95610624126045,29.17283051657129,3.0288142958656628
-6.60647753875,-52.85182031,6.3476903740591695,-1.7649316940624995,3.8591218,0.2953912548144861,0.0,129,8,152.2538487154684,582.016,mp-622621,NdFeAsO,https://materialsproject.org/materials/mp-622621,-17.684136712802385,23.09594911097482,-21.56892941321005,44.7927720554323
-7.63602989,-519.25003252,4.978909547355936,-3.539986568125,5.9e-06,6.487348234219888e-08,2.4773,194,68,1059.893498477665,3177.9522984000005,mp-559325,Ba7Sc6Al2O19,https://materialsproject.org/materials/mp-559325,-7.836160544181364,31.446722723133856,-15.425143827270993,50.10738295855875
-8.795004490588235,-149.51507634,6.2362201500915075,-3.903085177426471,0.00021989999999999998,1.052691127702503e-05,1.8325,115,17,243.4454681003181,914.2691,mp-760491,Ce4Y2O11,https://materialsproject.org/materials/mp-760491,26.279670309027534,64.98378692392507,-11.96722458390934,35.33990683954229
-6.86450413953125,-439.32826493,5.719380981445172,-2.548031238958334,0.0007534375,1.0467614287735845e-05,0.0,61,64,838.8357829885895,2889.1952,mvc-7422,MgTiBiO5,https://materialsproject.org/materials/mvc-7422,4.402838771265297,30.184598063707096,35.792176764653284,-6.701132993840246
-3.7015842539999997,-37.01584254,3.768297025787184,-1.7780035171913795,0.0,0.0,3.1082,225,10,358.3364312459696,813.18058508,mp-1112534,Cs2NaScBr6,https://materialsproject.org/materials/mp-1112534,-24.952794464285752,-21.983950719313754,-20.747754030373308,-12.22783008918916
-3.5836525244444437,-32.25287272,4.368216915482732,-1.0187020004444445,1.9999967,0.058649547417236415,0.23039999999999994,146,9,397.4129744069545,1045.43526856,mp-1221281,Na2UI6,https://materialsproject.org/materials/mp-1221281,-2.2996928757521373,-29.9063325435433,-8.331881971464911,-24.386607196349715
-6.56477191468254,-827.16126125,4.706009389744552,-3.8195100023268256,0.0,0.0,3.3536,15,126,2140.629840949551,6066.5987903999985,mp-558153,Ba4Nb2(OF4)3,https://materialsproject.org/materials/mp-558153,16.383935685617658,-18.913354695217656,16.991906480300585,-12.983572901880255
-7.612609763181819,-334.95482958,3.3037314891737632,-2.7236263855681826,3.0000004000000002,0.057034731084866515,0.0,62,44,612.9984014000513,1219.5932,mp-19347,CaV3O7,https://materialsproject.org/materials/mp-19347,28.04414450219271,-27.09533999528111,53.27731979733224,-10.677232438267245
-5.1978985709375,-166.33275427,3.7394976680089735,-1.24519318009375,0.0,0.0,2.2944000000000004,15,32,940.7864376791093,2118.63052,mp-573202,K3Ta2Ag3S8,https://materialsproject.org/materials/mp-573202,34.266554265876266,-46.27856189896615,4.151837839179393,-53.380893808774545
-3.547864455,-14.19145782,4.657234516854049,0.4246627748749998,0.012805100000000002,0.0009182291641489989,0.0,139,4,162.52093774151643,455.81471,mp-973250,KLa3,https://materialsproject.org/materials/mp-973250,26.29152493393713,64.27754741998872,-13.304531910998234,32.997537724761656
-5.795558994285713,-81.13782592,3.1265073655407054,-1.7232186898928572,4.0000001,0.1865787325197943,0.4942,164,14,249.8476628395988,470.41986928,mp-12047,K3Na(RuO4)2,https://materialsproject.org/materials/mp-12047,19.581192453480853,-1.0073557082534066,17.304905759484154,-23.35646473895484
-5.294753073076923,-68.83178995,4.55393997155366,-1.0809872288509614,13.0764934,0.4213303195474544,0.0,12,13,361.69792206085265,991.93730784,mp-1210456,Na3Eu2(GeSe3)2,https://materialsproject.org/materials/mp-1210456,-23.893299355296477,-37.307080274646175,-3.3372975932180853,-21.081688899662137
-6.06211199875,-193.98758396,5.011387168645483,-1.7001988330887503,5.00000005,0.11268895387893685,2.0445,60,32,517.0899404044716,1560.54018,mp-16994,MnTe2O5,https://materialsproject.org/materials/mp-16994,9.357054409100924,-22.77069471911324,31.332220194383375,-9.081976560347094
-7.71691470171875,-493.88254091,6.364086509173231,-0.3755811898699566,0.00017624375,1.6416800119328394e-06,0.0,57,64,1251.130587769405,4795.0112,mp-1080850,RbReN2,https://materialsproject.org/materials/mp-1080850,-7.261188864545285,38.548433564921396,-5.916545171435693,34.49669399524727
-10.256245328250001,-410.24981313,8.048746306872259,-3.9902322645,7.0000000625,0.1326874846720265,3.234,5,40,614.8164940946797,2980.0576,mp-766236,GdErO3,https://materialsproject.org/materials/mp-766236,18.593992519511165,59.92899966229592,-5.864313009198737,37.12433601788521
-3.5735390042857142,-25.01477303,3.2033766070236687,-1.6745530827200004,0.0,0.0,1.8332,123,7,215.17216115139442,415.0926,mp-22934,K2PtCl4,https://materialsproject.org/materials/mp-22934,28.203723577376746,-23.23886361904186,47.62181713020228,-30.10703389101387
-6.562031876071429,-183.73689253,5.6039183987862975,-2.5424325167857136,0.0,0.0,3.3688,62,28,365.0684826934319,1232.018,mp-753327,LiSiBiO4,https://materialsproject.org/materials/mp-753327,10.766584595895221,-22.390807600809218,17.698801393883446,-18.763935029251964
-3.523221718333333,-21.13933031,2.552730874893617,-1.0748498666666662,0.057481,0.0033421598900355183,0.0,164,6,200.4354427173694,308.1275,mp-569912,Ca3SiBr2,https://materialsproject.org/materials/mp-569912,-26.14093582404785,-50.655931923616706,-9.400959235475343,-29.89584506931647
-4.059258732,-142.07405562,3.828340743643501,-1.0727781187500007,4e-07,5.798115683542525e-09,2.1493,1,35,803.9898069394369,1853.583,mp-1215798,ZnCd4(GaS2)10,https://materialsproject.org/materials/mp-1215798,26.36199176654397,61.54290284239774,-12.806035941206195,7.49374210230935
-8.391748820625,-268.53596226,9.202078062388654,-3.262422566621563,8.690000000000001e-05,2.0836747219083185e-06,2.1033,115,32,486.03470497925326,2693.4201415999996,mp-677238,Th10N9F13,https://materialsproject.org/materials/mp-677238,-8.196509692895365,-34.63087588837221,-1.5241350218890202,-26.55444880218997
-7.375180645357143,-206.50505807,7.753170687356853,-2.3921822981249994,0.0,0.0,2.2962,36,28,409.0615247831131,1909.93632,mp-583454,Nb2Bi2PbO9,https://materialsproject.org/materials/mp-583454,21.036320542697613,58.24975508799997,33.3226181914844,-4.743134042504042
-6.880987400294117,-233.95357161,2.6328477113521616,-2.3819576410924377,0.9999983,0.02111050124343746,0.0,4,34,552.0496565316007,875.2956960000001,mp-504341,Sb(PO3)4,https://materialsproject.org/materials/mp-504341,45.500366336711686,-38.72965837805208,52.46229414440482,-32.164274090683314