energy_per_atom,energy,density,formation_energy_per_atom,total_magnetization_uB,total_magnetization_T,band_gap,sgr,num_sites,cell_volume,weight,mp_id,formula,URL,tsne_xrd_lin1_0,tsne_xrd_lin1_1,tsne_xrd_lin2_0,tsne_xrd_lin2_1
-5.753391434333332,-172.60174303,7.6604380564107935,-1.8634351522500008,0.0,0.0,1.937,63,30,682.3884432596943,3148.0105399999993,mp-560665,LaPb6BrO7,https://materialsproject.org/materials/mp-560665,5.062303004005657,18.586152717744575,1.6316371408778922,25.00691264140555
-3.197850108125,-51.16560173,4.151288309175728,-1.0385747191249997,3.4e-06,7.326370101203152e-08,2.3665,140,16,540.8383644199988,1352.0766,mp-23541,KSn2Br5,https://materialsproject.org/materials/mp-23541,-18.5969897812487,20.96319939986697,-13.456633043945073,17.794988025028815
-4.600512802,-92.01025604,2.625034193815335,-1.7942854995559998,4.999999925,0.11491737032559918,1.3655,62,20,507.0627949773335,801.5813800000002,mp-23049,KMnCl3,https://materialsproject.org/materials/mp-23049,-4.7241923658154885,5.162753058567149,-3.7967142323365,26.302557307123013
-5.170503382222221,-46.53453044,7.016711176497728,-0.273682427152778,2.1903702999999997,0.1209053973729395,0.0,21,9,211.12967581879252,892.1415999999998,mp-1216741,Tl2Fe3Se4,https://materialsproject.org/materials/mp-1216741,-14.770367218313279,31.7381890991922,-14.25988309723022,52.79808921780963
-5.573191621666666,-66.87829946,8.384117331340244,-1.4561665158333323,2.95e-05,1.8008110662776954e-06,0.0,74,12,190.9111495528181,963.9168,mvc-6615,BiO2,https://materialsproject.org/materials/mvc-6615,-35.155489491501044,25.844103990664028,1.5776412112816165,22.549794257987237
-6.410433418611111,-230.77560307,4.728756083144522,-2.1580097296875005,0.0,0.0,1.2715,14,36,553.4700219003863,1576.1296,mp-541090,Ce(SeO3)2,https://materialsproject.org/materials/mp-541090,7.081068102030076,20.83519457133114,34.84751719859459,1.6447618543650144
-5.548163182727274,-122.05959002,5.777000019152792,-1.99660344784091,1.055e-05,3.752582771765881e-07,1.6718999999999995,40,22,327.6420290461631,1139.8636,mp-1191811,BaZnTe2O7,https://materialsproject.org/materials/mp-1191811,-0.9567463608263218,23.468141210052533,7.818488668031138,27.522619032524663
-7.5971509463461535,-395.05184921,4.2904485716738066,-3.3092288478846164,5.0000015,0.0738816215291074,1.3895999999999995,75,52,788.698733702517,2037.814995,mp-1228423,Ba8Ti3Co(SiO4)8,https://materialsproject.org/materials/mp-1228423,3.613210329743226,25.346336202660808,-5.8522309951371705,29.10718897403117
-7.517356186153847,-586.35378252,7.4120513361309195,-2.410770958942308,2.7917650000000003,0.02838808202245477,0.0,160,78,1146.093988104932,5115.752939999999,mp-1211606,Nb13(Pb3O10)5,https://materialsproject.org/materials/mp-1211606,26.218999694363408,64.2374134502066,-10.68730151527467,36.586167842385294
-7.507410927894738,-142.64080763,6.2832454425520625,-3.0765805733991236,0.0008316,3.854929989639503e-05,0.0,123,19,251.40586965022808,951.2843400000003,mp-1214655,Ba2La2Ti2Cu2O11,https://materialsproject.org/materials/mp-1214655,-28.49050497411807,45.929283497464,-13.682192388962193,63.46992926799741
-9.1034789365625,-291.31132597,7.063061114257041,-3.986043082656249,0.0,0.0,4.0802000000000005,62,32,504.3386441292336,2145.19176,mp-771121,La2HfO5,https://materialsproject.org/materials/mp-771121,30.715450533226328,62.7818488618726,-8.998567267679885,35.93717164265405
-5.636120039375,-90.17792063,4.989071502305134,-1.0915841157812505,6.99980325,0.2329682256482191,0.008000000000000007,40,16,350.1600282342944,1052.052,mp-555984,EuCu2SnS4,https://materialsproject.org/materials/mp-555984,10.402475578062916,6.905030950252445,11.28263215974382,10.131191748764289
-5.4022255575,-64.82670669,4.465388978053289,-1.3450373718229165,8.00000045,0.33587045470648785,1.7106,59,12,277.5847715044813,746.4588,mp-1095252,SrFe2Se2O,https://materialsproject.org/materials/mp-1095252,-4.773330371418195,17.09285224694269,5.997892139762262,26.55621155404469
-8.833524907142857,-61.83467435,5.264093852514826,-2.3403970787157147,2.0000003,0.209761112860204,0.0,164,7,111.11751231446124,352.2549,mp-1025352,Ce2C(NO)2,https://materialsproject.org/materials/mp-1025352,28.33518372842471,60.89787117777798,-13.394349989106427,38.965011211020425
-4.807955088,-24.03977544,3.491912610054898,-1.005436797693966,0.008261399999999999,0.0009573759888658359,0.0,119,5,100.56539106029,211.47684500000003,mp-1219572,RbLiMnS2,https://materialsproject.org/materials/mp-1219572,-16.178248740545918,32.4129017831481,-12.099713851843694,51.280105295877505
-8.320685234210528,-158.09301945,6.444208223002484,-3.6425190442105273,0.0,0.0,3.462699999999999,148,19,311.60271397999963,1209.26562,mp-755135,La6WO12,https://materialsproject.org/materials/mp-755135,-11.696691290680162,-25.20879358764594,-9.938863139839755,31.749690871638354
-8.611708660454546,-189.45759053,7.60217728196757,-3.7407596078409098,1.495e-05,5.850568957097762e-07,2.5885,63,22,297.79713670137687,1363.3564600000002,mp-756135,Tb3NbO7,https://materialsproject.org/materials/mp-756135,15.856248402142176,60.269398629858706,-3.2351132347694644,38.44386878131492
-8.45118708409091,-185.92611585,8.72676063584082,-3.368354573977274,1.50120485,0.05932005074505001,0.0,63,22,294.92790951869927,1549.9577000000004,mp-31102,Tb3ReO7,https://materialsproject.org/materials/mp-31102,12.789377792534928,63.06538619782116,-4.65866294056216,39.698047996188286
-5.032014333333333,-90.576258,4.723297186080862,-0.9232990809626436,2.76063145,0.08015201629154457,0.0,72,18,401.39449036991164,1141.7409776,mp-558911,Cs2Co3S4,https://materialsproject.org/materials/mp-558911,-9.793465929261837,20.643369988304247,-11.850085665569653,51.032963723922364
-5.2666354825,-21.06654193,7.227153185260898,-1.81122171703125,0.0,0.0,1.2536999999999994,166,4,101.89577178504591,443.4803,mp-1001604,LuTlS2,https://materialsproject.org/materials/mp-1001604,-25.107007690177642,-32.544146614202056,-30.389945571256057,-19.472382205898622
-7.767968805,-31.07187522,7.083700545427434,-0.2270870868749997,0.5812695,0.1296853285849071,0.0,38,4,52.23530276887287,222.8308,mp-19741,CeNiC2,https://materialsproject.org/materials/mp-19741,-36.938949002980635,28.165354198787817,-40.44942370904547,35.44697166447936
-5.482763908055556,-197.37950069,4.778795960161063,-1.5479498610822218,0.0,0.0,2.3050999999999995,114,36,586.7467327463238,1688.5739199999996,mp-625541,Sn3(HO2)2,https://materialsproject.org/materials/mp-625541,-4.046814118885379,15.824661014148806,4.334189206809231,23.989185899648053
-5.24867333375,-83.97877334,4.884066469727962,-1.5075179145312507,0.8821097,0.029050120925665626,0.0,38,16,353.87679130866303,1040.841395,mp-1228155,Ba4CoNi3S8,https://materialsproject.org/materials/mp-1228155,-10.11257692089141,16.971286587103176,6.6891078749696895,49.49355061567014
-6.623656861111113,-59.61291175,6.385344888197016,-2.181055067604167,5.999993,0.4469498950189307,0.13450000000000004,139,9,156.44775362111469,601.5955299999998,mp-1079800,La2Co2Se2O3,https://materialsproject.org/materials/mp-1079800,-20.744816405582824,26.43377921790802,-23.60528073304904,46.984044256109584
-7.841478332083334,-752.78191988,3.921692583124573,-2.606172490137361,15.000000400000001,0.17937937650237853,3.8123,29,96,974.5321879168387,2301.5512200000007,mp-23566,Mn3B7IO13,https://materialsproject.org/materials/mp-23566,-14.185528711616099,17.858341410042264,-4.436483368564773,27.304264838592747
-7.20770514875,-288.30820595,5.4785802930050655,-2.6699118565000006,1.1e-06,1.981011346824676e-08,3.164,217,40,647.1175074470794,2135.0207,mp-1207793,Y3Sb5O12,https://materialsproject.org/materials/mp-1207793,26.24135663784003,64.69707405384857,-7.773650573842983,33.935948909274046
-7.1747169911904765,-301.33811363,3.0960977172242337,-3.4424127317913618,0.0,0.0,5.5152,176,42,540.9480241060031,1008.6049784,mp-6473,Ca5P3O12F,https://materialsproject.org/materials/mp-6473,-0.7026086180449539,46.040475068562365,3.1094802679334754,53.542561494764435
-6.206537032000001,-124.13074064,8.362685471116825,-1.7456727562499998,4.9999997,0.2345225335439501,1.5192000000000003,62,20,248.46363155828286,1251.2944,mp-645159,FeBiO3,https://materialsproject.org/materials/mp-645159,-20.85233776976371,44.658494097539474,-6.9611265651615,62.56291295809885
-8.901051849249999,-356.04207397,7.475800621117528,-3.1251295704999995,17.000000075,0.30759542033503634,0.0,206,40,644.0898950698813,2899.7136,mp-1207676,YbEu3O6,https://materialsproject.org/materials/mp-1207676,25.45693735602621,63.75580652377891,-5.9773478189592035,35.98179271862573
-7.09491018875,-113.51856302,5.093273157063222,-0.4479452128571433,5e-08,2.340350842445771e-09,0.3853000000000009,62,16,248.9811476381181,763.685144,mp-28029,TcP3,https://materialsproject.org/materials/mp-28029,2.8440285746928913,8.562763855197124,-18.07269667472652,6.96200240641703
-7.843317576666667,-23.52995273,5.575560902872088,-0.09844137083333376,1.6e-06,3.796118197355045e-07,0.0,139,3,49.1199237396968,164.92905,mp-1995,PrC2,https://materialsproject.org/materials/mp-1995,-8.28808918080037,-26.66920378692811,-3.838445533650312,-18.978849088368715
-7.2642107014285715,-101.69894982,7.120850608795624,-2.896736995,0.0,0.0,0.0,64,14,190.92001002852825,818.7177999999999,mp-16115,Pr2CuO4,https://materialsproject.org/materials/mp-16115,-21.799753343939376,38.35782790365463,-8.892186114174788,59.978184866977045
-8.74102733875,-69.92821871,7.456179713928492,-2.753494514960937,4.797678299999999,0.3621962253878621,0.0,139,8,154.37061390197968,693.15747,mp-1025436,YU2S3O2,https://materialsproject.org/materials/mp-1025436,-1.8765929009432933,9.539631709584423,-8.32567289994661,29.799610220311042
-6.964679683157895,-264.65782796,7.847323104456008,-3.2780089227302636,0.0,0.0,3.3703,87,38,550.9582102093393,2603.70096,mp-6795,Ba5Ho8Zn4O21,https://materialsproject.org/materials/mp-6795,-6.363156786982678,35.44665184186689,-2.047531042639425,49.774036250621
-5.213427744166666,-62.56113293,6.187820766584923,-1.3483459066666663,0.0,0.0,2.1971,11,12,171.3172039942051,638.3951999999998,mp-1103475,TeO2,https://materialsproject.org/materials/mp-1103475,11.352784331640226,22.9582779579664,22.76881511509191,37.14529819353788
-7.758943634166666,-93.10732361,4.984459813331895,-2.7648250093341677,0.8177265,0.0528709921059263,0.0,123,12,180.2469977893669,541.0495599999999,mp-1209879,NdNb2CuClO7,https://materialsproject.org/materials/mp-1209879,1.6269708932996232,10.506129700389922,7.274888337417929,23.604343594123133
-6.5462961975,-523.7036958000001,8.623622297309996,-2.362749238125,3.855e-05,3.3375802826995267e-07,2.6543,1,80,1346.0775739566598,6990.54,mp-757587,Dy5Bi11O24,https://materialsproject.org/materials/mp-757587,22.70270229355407,57.006184397039355,-1.4992420970044642,37.49060906268179
-6.752842062499999,-135.05684125,7.703051751602079,-2.4770957027500002,0.0,0.0,0.9279999999999996,62,20,256.38689527218935,1189.3496480000001,mp-752429,ScTlO3,https://materialsproject.org/materials/mp-752429,-14.951986389526004,48.63913332340285,13.2322463374247,63.44875420147438
-7.6772966775,-214.96430697,3.5673775322772316,-3.3720447338571424,0.0,0.0,4.2828,62,28,379.7911755949448,815.91487712,mp-17891,NaYSiO4,https://materialsproject.org/materials/mp-17891,11.600173503719091,14.191565712166884,50.12600971424761,4.633143888534425
-5.870708895555556,-52.83638006,5.625521079304713,-1.9914352831944453,1e-07,9.255702760946449e-09,0.0,99,9,125.91226267261844,426.5615386,mp-1253491,BaAlCuSnO5,https://materialsproject.org/materials/mp-1253491,-11.57797365608876,52.62336659424469,25.349205839503746,53.30901250010753
-7.1311640725,-57.04931258,6.916816517572286,-3.05115613903,0.0,0.0,3.9409,11,8,92.15532251407959,383.86418,mp-1079758,TbHO2,https://materialsproject.org/materials/mp-1079758,0.4825814176637693,13.708949705263171,6.168555687648468,32.884011422356345
-6.878595610769231,-89.42174294,5.656498847672376,-2.340527513557692,16.999999300000002,1.0584103458393528,0.0,82,13,187.18552190507427,637.6331200000002,mp-1104176,BaHoFe4O7,https://materialsproject.org/materials/mp-1104176,7.505799670478705,55.86515142801024,-8.501513385653457,51.58786405691178
-5.257690911363637,-115.66920005,7.606665427203138,-1.7994300861363646,0.0,0.0,0.0,64,22,368.0385273078051,1685.9260000000002,mp-6027,Ba2Tl2CuO6,https://materialsproject.org/materials/mp-6027,-12.894272733903565,25.521604661971146,-17.804102719446004,40.90897795934305
-8.864624465925926,-239.34486058,5.674870575787098,-3.887192759583333,0.015072799999999997,0.0004395040274100899,0.9173,160,27,399.6764000980007,1365.8889,mp-686003,Ce4Y6O17,https://materialsproject.org/materials/mp-686003,23.977581520540852,63.47452564993572,-8.211202251785933,37.12907266908663
-4.124356904583333,-98.98456571,4.206062147683152,-1.5530135122483335,0.0,0.0,3.6429,62,24,567.6294253912786,1437.7768800000001,mp-703295,SrH2I2O,https://materialsproject.org/materials/mp-703295,2.3451532490976867,27.223304163678204,-0.013837143635513598,15.87429459955964
-4.5583670725,-54.70040487,4.860241976770259,-0.008946316150793741,0.0,0.0,0.6188000000000002,14,12,232.07539102425577,679.262896,mp-8200,AgP2,https://materialsproject.org/materials/mp-8200,6.150821218105175,21.633147056767893,-7.813848065701366,-1.5465674518497987
-3.35826776,-40.29921312,3.3177809035525567,-0.6370921990799996,0.0,0.0,3.1308,62,12,179.4499184263538,358.54352,mp-23714,SrH2,https://materialsproject.org/materials/mp-23714,-10.500026899915689,9.638359733057275,0.18110183335915084,18.858039112368
-3.35926554,-6.71853108,8.941673415372223,0.1610644925,0.002705,0.0005043425244746658,0.0,65,2,62.505625998145426,336.5804,mp-1227305,BiTe,https://materialsproject.org/materials/mp-1227305,-27.659793776435407,65.06359947563345,-40.07809761746919,59.032652637095424
-5.942297701363636,-130.73054943,7.951094872028018,-1.829339279659092,0.0,0.0,1.6441,46,22,321.5847034879466,1539.8316,mp-633099,Sb2Pb2O7,https://materialsproject.org/materials/mp-633099,20.162325399607166,56.776398052857104,1.181221580197008,37.252219896542
-6.067956865714287,-169.90279224,4.381239297584028,-1.576908495,2.99999435,0.08454400019121698,1.9922,135,28,413.53766551307837,1091.0959799999996,mp-1096874,Co(AsO2)2,https://materialsproject.org/materials/mp-1096874,-3.696316198914535,-4.049483247538311,-12.693342769325529,48.35177020699714
-6.865096525,-247.14347489999997,9.977816900912538,0.3957575183866674,0.0,0.0,0.01389999999999958,52,36,704.3602649986426,4232.3472,mp-1246200,Os2Pb3N4,https://materialsproject.org/materials/mp-1246200,3.7316076428399256,33.11667162579689,0.7338018143516604,34.16512710141382
-8.011630509249999,-320.46522037,6.705220583088702,-3.028912322625,25.9999962,0.6276410736835727,1.9836,8,40,482.7689781721761,1949.4106500000007,mp-1075954,La5Sm3Cr7FeO24,https://materialsproject.org/materials/mp-1075954,-29.54000830791655,51.73430447745292,-16.959362794863306,66.78097251173747
-8.55482511,-34.21930044,9.873037178759672,-0.31211376687499914,1.7e-06,3.739621119730573e-07,0.0,38,4,52.978388663017434,314.99265499999996,mp-999088,ThCoC2,https://materialsproject.org/materials/mp-999088,-36.980779667195,28.00148847509316,-40.43217478597196,35.37454532865625
-6.8678757315909085,-302.18653219,3.7238009789871582,-2.713075288457792,2.0000006999999997,0.040802492942414455,3.7059,14,44,571.2429810565758,1281.026896,mp-17551,SrNiP2O7,https://materialsproject.org/materials/mp-17551,16.161076722872632,21.273879640539867,41.09508464983538,11.466110818340981
-6.4500445310000005,-258.00178124,6.741717842828421,-2.2128502787500013,2.99828325,0.052102110491671766,0.0,194,40,670.6482112191234,2722.8032000000007,mp-561147,Ba2BiRuO6,https://materialsproject.org/materials/mp-561147,-18.12712785127864,5.913796076611253,0.6054434677186601,46.04416326855614
-7.67354254975,-306.94170199,4.3484530078634,-2.847385295900001,0.0,0.0,2.4098,29,40,500.68926107320624,1311.15479424,mp-558920,NaNbO3,https://materialsproject.org/materials/mp-558920,-11.157709186605816,50.53743215512672,10.422723853706268,36.07905646073658
-4.637627901428573,-32.46339531,5.128871875320656,-0.0005413878571433528,1.59e-05,1.1057263873681817e-06,0.15409999999999968,215,7,167.58181047369595,517.6064,mp-569600,Ge3As4,https://materialsproject.org/materials/mp-569600,-9.719423005249443,-7.0079527673656905,-11.80647540153319,7.686903875775517
-7.797995166666666,-46.787971,6.359912129727934,-0.4536843768749996,1.288023,0.17824924647883658,0.0,123,6,84.21187616256691,322.5339,mp-1206312,SmCr2Si2C,https://materialsproject.org/materials/mp-1206312,-39.899972203574784,-5.745640626902581,-49.04770602298216,8.060232592704121
-4.056508042,-40.56508042,3.2866298795558464,-2.45595403469738,0.0,0.0,4.7971,225,10,316.4714068762626,626.3775538,mp-1112674,Cs2LiPrCl6,https://materialsproject.org/materials/mp-1112674,-17.44612585148315,-21.608125040710974,-15.715071164341413,-20.213090123397762
-6.443330500714287,-90.20662701,6.0233986648729605,-2.582486258035715,4.9952157,0.3203944695946304,0.0,38,14,181.69654237278613,659.08159,mp-1218459,Sr3Sm(CoO4)2,https://materialsproject.org/materials/mp-1218459,-23.316062357660797,40.78840457295377,-12.83946586173254,59.4708606605621
-7.276404788684211,-276.50338197,2.8078079820231627,-3.1451558550000014,2.0010111,0.04804424318687789,0.0,28,38,485.38412561320536,820.7367544,mp-1198493,Ca2Al2(SiO4)3,https://materialsproject.org/materials/mp-1198493,29.29859322268872,12.165523221299006,46.588558413133256,24.024862577083656
-4.223562145,-42.23562145,4.903502428208284,-2.483542593955379,0.9999998999999999,0.0697822227355837,0.0,225,10,167.00619656832052,493.1623230000001,mp-1112572,Cs2LiPdF6,https://materialsproject.org/materials/mp-1112572,-22.63701388096481,6.2586450948082115,-27.428722254819398,-9.216402620864944
-5.258621070555557,-189.31035854,7.943205692019595,-0.5780091838888894,0.00159875,2.569185107278461e-05,0.0,64,36,725.2080047617366,3469.04,mp-1202284,Dy2Ge6Pd,https://materialsproject.org/materials/mp-1202284,-46.12621228332868,13.478633539349794,-42.53773516083917,29.399257901588893
-4.492215594,-67.38323391,3.612039069845048,-2.7642906826473337,1.9291933,0.11123008039882112,0.0,123,15,202.1300676613237,439.67752879999995,mp-1223920,K3MgCu2F9,https://materialsproject.org/materials/mp-1223920,-28.2719758097098,31.782374961325427,-26.682231573750645,9.546743034882502
-7.780170762941176,-529.05161188,5.799797962215488,-3.4475879033823524,0.001068225,1.2745131080196968e-05,1.8197,64,68,976.7779761018498,3411.612,mp-1178581,Ba4Ti3O10,https://materialsproject.org/materials/mp-1178581,-24.456812576474398,30.55819657998109,-15.347401105019463,50.493232900200454
-8.5126463175,-102.15175581,5.4056721361008915,-3.2782387968055557,1e-07,7.953188361103253e-09,2.821600000000001,3,12,146.5332423101703,477.0202,mp-1215607,Zr2TiSnO8,https://materialsproject.org/materials/mp-1215607,14.23057842249744,54.52622266461543,2.7241157278106596,39.17906430216463
-5.338668143442623,-325.65875675,6.439178896275983,-2.0142803327254097,0.0013026,1.587538097849437e-05,0.0,2,61,956.2343601895712,3708.0514,mp-1229139,Ba10Ca5Cu10Hg5O31,https://materialsproject.org/materials/mp-1229139,0.5560023550390167,49.51807237996766,5.088243393723995,46.901689468737366
-7.0256701325,-84.30804159,8.186836063774198,-0.5046933524999998,1.5152058000000002,0.09900498061250332,0.0,139,12,178.3577596572759,879.3444199999999,mp-1217005,USi3Ni2,https://materialsproject.org/materials/mp-1217005,-16.32371589876056,11.135900450772192,-27.819412289804408,40.82847108459335
-8.279323790000001,-99.35188548,8.933638669491087,-3.230997829166667,0.99999995,0.07500073287480685,0.0,13,12,155.3860041515823,835.97096,mp-4574,YbTaO4,https://materialsproject.org/materials/mp-4574,21.447772914010216,53.8636196868574,-3.641713245891906,34.86981102852474