energy_per_atom,energy,density,formation_energy_per_atom,total_magnetization_uB,total_magnetization_T,band_gap,sgr,num_sites,cell_volume,weight,mp_id,formula,URL,tsne_xrd_lin1_0,tsne_xrd_lin1_1,tsne_xrd_lin2_0,tsne_xrd_lin2_1
-6.199024125625,-396.73754404,3.0877466753094165,-0.1499187271875,1.31875e-06,1.0700163219103669e-08,2.0235000000000003,96,64,1436.3143443806744,2670.8043199999997,mp-652200,C2IO,https://materialsproject.org/materials/mp-652200,10.556799588884028,-26.38029528592496,25.997835138713302,-14.90696709736189
-5.191818814285715,-145.3709268,4.874337955244071,-1.1671422398214284,1e-07,2.052996824946557e-09,0.14200000000000002,14,28,567.6611201219498,1666.3096,mvc-8705,BiTeO5,https://materialsproject.org/materials/mvc-8705,39.76235820799021,-36.57919377061435,29.73417450884141,-54.05452722552444
-5.9250066275,-237.0002651,5.419679908568102,-1.738219024750001,1.495e-05,2.438302064835435e-07,2.3518,19,40,714.5475159228328,2332.1456,mp-1202960,Sb2O3,https://materialsproject.org/materials/mp-1202960,12.041930235829685,21.220040749154336,33.797974002725155,1.5432551153208642
-10.24048840423077,-532.50539702,7.547921378477086,-3.495294812596154,6.99999975,0.10982618258197614,2.0041,2,52,742.7960125401801,3376.35296,mp-1225201,GdTa3O9,https://materialsproject.org/materials/mp-1225201,-11.850954036185827,49.902045719548035,10.391757874290873,36.19937972970643
-2.27960492875,-18.23683943,3.5614783128486995,0.170050689375,0.3069461,0.009405451542771413,0.0,194,8,380.32939884038086,815.72,mp-1187161,Sr3Pm,https://materialsproject.org/materials/mp-1187161,-11.409702298690956,-19.10405086633638,-20.21684655254729,-6.378471412664325
-6.908655872666667,-414.51935236,3.2677717700612283,-2.63305088965,1.000000625,0.012393135299300192,2.1927000000000003,62,60,940.365111402298,1850.5428,mp-554684,K2SrV3O9,https://materialsproject.org/materials/mp-554684,6.328511773349222,30.198137343848586,31.203508497717024,-3.658229782477025
-4.303815793888889,-77.46868429,5.741175726245907,-1.2861110366666668,0.0,0.0,0.4095,36,18,665.0259636061427,2299.272,mp-1105724,Ba2ErGaTe5,https://materialsproject.org/materials/mp-1105724,9.519727508032963,-16.63948394526844,19.0973119334182,-14.168575419652257
-6.330626296,-31.65313148,6.703402611706963,-1.7216513642500004,2.09e-05,2.8427514492525866e-06,0.0,221,5,85.68105868366955,345.88445,mvc-13598,YBiO3,https://materialsproject.org/materials/mvc-13598,-18.638341922199047,-48.34981918146695,-25.533047269207373,-6.1196081083406355
-4.824422252333333,-144.73266757,1.5241542964069006,-1.6688521986986666,5e-08,1.4609626907689858e-09,5.317,14,30,398.84881544872,366.09024000000005,mp-24384,CaH8(ClO2)2,https://materialsproject.org/materials/mp-24384,15.963194727051771,-25.41130083797949,11.354347060422905,-24.435871189119787
-6.805236786363636,-299.4304186,4.436915252195898,-2.5126326923863638,0.0,0.0,3.0729,62,44,694.04417460429,1854.4672,mp-22822,BaV2CdO7,https://materialsproject.org/materials/mp-22822,11.02165461265976,19.026402287592315,33.506982293014204,-8.306092444516283
-5.7696141197727275,-253.86302127,5.397810334163929,-3.153184553376288,0.0,0.0,2.8062,148,44,581.8464679839493,1891.3718992,mp-29934,Zr6Ag7F31,https://materialsproject.org/materials/mp-29934,-11.916789110375072,-25.556976738676727,-5.432123034157241,-18.89021615242372
-7.481563853571429,-418.96757579999996,5.85916175887632,-3.251356433928572,9.9125e-05,1.203885008828452e-06,3.8858000000000006,84,56,959.567701324032,3385.8056,mp-1201161,Pr4AsBrO8,https://materialsproject.org/materials/mp-1201161,-20.844285926076555,13.858285985984509,-22.76407801756492,54.035014107771815
-7.207907102678571,-403.64279775,4.241427717343096,-2.8188839755676787,0.0,0.0,4.1968,62,56,920.9534258944307,2352.343,mp-1204472,Y3Se2ClO8,https://materialsproject.org/materials/mp-1204472,6.527132872164657,29.22821448775497,-1.1358258035044266,37.50204959994458
-7.1254781962500005,-342.02295342,4.327124564663328,-2.6041752219037355,0.0,0.0,3.6954,60,48,843.6155092469867,2198.34,mp-1200745,RbNd(MoO4)2,https://materialsproject.org/materials/mp-1200745,1.6902876904257509,-14.671526558280512,26.806252644108294,-4.802728606095119
-5.5396669716666675,-33.23800183,3.3416574853834664,-1.019135139479167,1.8833504,0.10419584500723336,0.0,123,6,210.6483953319109,423.9074,mp-1213871,Ce2CuS2O,https://materialsproject.org/materials/mp-1213871,5.847842633360888,-35.76408231178092,15.17528444243536,-16.78263638237539
-6.903480080624999,-331.36704387,2.9285053628655944,-2.4047648373379027,5.000000275,0.06530837387476804,2.5955000000000004,136,48,892.2336235074913,1573.5317799999998,mp-1211605,KRbMnV2O7,https://materialsproject.org/materials/mp-1211605,9.113812393852168,-24.948666167185486,68.88529469396978,-24.23889551614613
-6.876570784999998,-82.51884942,8.436689904453273,-2.007277649166666,0.0,0.0,2.9279999999999995,15,12,179.12420819664342,910.0752,mp-641365,PbWO4,https://materialsproject.org/materials/mp-641365,15.363571381254161,-15.457473655619069,28.566331832003986,-3.7081282433932414
-4.760734535166667,-285.64407211,2.2661809983279237,-1.631569125256001,0.0,0.0,4.8555,29,60,514.291985911082,701.8677056,mp-706616,ZnH8(O2F)2,https://materialsproject.org/materials/mp-706616,28.426409340632787,-37.31005900316789,10.857282481326651,-24.550342503213262
-3.2536290094444444,-58.56532217,3.0698358011570543,0.2869025154038888,2.0000015666666666,0.04313722008694715,0.0,145,18,540.3256806111848,998.8992,mp-1188705,HgCNCl3,https://materialsproject.org/materials/mp-1188705,35.240820724257105,-35.7171768931516,25.321950139828605,-63.563566713100464
-7.127246789791666,-342.10784591,4.488447708252611,-2.6100060208620683,0.0,0.0,3.6711,60,48,822.348024194191,2222.812,mp-1209294,RbSm(MoO4)2,https://materialsproject.org/materials/mp-1209294,6.102588273509108,18.548965663184628,26.889979565352697,-4.730117267767776
-5.85412129673913,-269.28957965,4.93144654051126,-0.6738517620130438,0.000742,7.667315636752581e-06,0.3765000000000001,136,46,1127.8153229781185,3349.3708,mp-1246400,Ba11(CN5)2,https://materialsproject.org/materials/mp-1246400,10.58863195121013,19.230956875131344,25.81743275843766,-7.591940892127853
-4.217748361666667,-75.91947051,4.769356836218474,-1.393619160194444,0.0,0.0,1.0302000000000002,140,18,675.2277158848208,1939.3714,mp-557761,KBa4Sb3O,https://materialsproject.org/materials/mp-557761,8.512485519696266,-23.64717136886241,22.578942132859947,-18.325167104210557
-4.736294161428573,-66.30811826,4.3835484505933575,-0.8188401108514282,3.02254645,0.12473427100627905,0.0,14,14,282.39995169088013,745.4891700000001,mp-1180349,Mn(IO2)2,https://materialsproject.org/materials/mp-1180349,21.58252766232728,-6.953520234153751,32.965024860299856,-14.03684002435905
-4.762187203636363,-52.38405924,4.1759066804639104,-1.7210146331935734,6e-06,2.6427451073369853e-07,0.0064000000000001825,38,11,264.5899842600366,665.3882,mp-1173361,Rb4Sb2O5,https://materialsproject.org/materials/mp-1173361,-14.038191124972252,25.19911064492173,-17.180771658220337,37.64767160691586
-4.51021041,-27.06126246,4.823126325438047,-0.28526962999999955,4.000114,0.22138832174696385,0.0,36,6,210.56931678132727,611.6100799999999,mp-567687,CrI2,https://materialsproject.org/materials/mp-567687,2.7195258819718986,-10.978876793054884,9.159472803395113,-10.044706785382056
-3.2076895184375,-102.64606459,2.8570750864886683,-0.4748883157886903,0.0001161,1.1166331367004066e-06,2.7093,62,32,1211.7112376696384,2084.835048,mp-1201622,BPBr6,https://materialsproject.org/materials/mp-1201622,10.202294243758699,-23.450007615429893,-3.1907271684318417,-30.583851559920177
-8.1104104175,-259.53313336,6.144669589381344,-3.636213054843751,1.25e-07,2.7320949695801957e-09,2.1735999999999995,14,32,533.2018516156494,1973.0636399999999,mp-18471,Sr2UO5,https://materialsproject.org/materials/mp-18471,22.069366989330828,-8.378311828814606,39.729757407326616,-5.477117864823211
-5.807316225,-58.07316225,2.5916665952402766,-1.4776661787949663,0.03342215,0.0020611055123445124,3.0132,167,10,188.97814721534766,294.9454,mp-38220,RbNO3,https://materialsproject.org/materials/mp-38220,-5.383677801165736,-27.632036183732932,17.522180653071114,-18.846375324076494
-5.239741735,-41.91793388,3.076949728742629,-3.4228676046425,0.0,0.0,5.4068000000000005,148,8,147.21046955036982,272.7784192,mp-4782,CaSnF6,https://materialsproject.org/materials/mp-4782,1.0061345614228925,-38.56091141370039,0.3754716231818335,-30.84724537615137
-7.278226798888888,-655.0404119,6.078286167370894,-3.0802294271388893,0.96193945,0.007851075923406394,0.0,156,90,1427.8940576996076,5226.705599999998,mp-736122,Ba3CaZrWO9,https://materialsproject.org/materials/mp-736122,-22.181133593042173,13.104929663660144,-29.609331159690324,47.982815930743314
-3.622444915714286,-25.35711441,6.424150554422151,0.01285496499999945,7.340000000000001e-05,4.003738671440197e-06,0.0,166,7,213.65239455006184,826.56,mp-1224370,Ge(SbTe2)2,https://materialsproject.org/materials/mp-1224370,-23.200907861062447,-36.413011474166936,-33.22048968419634,-22.258569101260107
-6.250730767142858,-175.02046148,4.4283821506171535,-1.6276359169642862,0.0,0.0,0.0,14,28,577.3398484014926,1539.6696,mp-1239301,BiMoO5,https://materialsproject.org/materials/mp-1239301,40.07711250496075,-35.76470185295547,45.35495586361153,-32.97745441266668
-1.56612922,-9.39677532,2.429841962828993,0.09135134000000013,0.07476105,0.003194558985382144,0.0,187,6,272.7356493185395,399.09,mp-1094303,Sr2Mg,https://materialsproject.org/materials/mp-1094303,-19.414701629988038,-36.59195023330072,-14.253379186421174,-29.366833253308958
-6.01528984,-84.21405776,3.0505038864991763,0.045948867221785664,0.0,0.0,3.0736,82,14,325.37356879182965,597.7295999999999,mp-542942,ZnCdC4(SeN)4,https://materialsproject.org/materials/mp-542942,22.430421857916325,-16.900450295237427,18.676478511413784,-21.176794771488613
-9.070422894750001,-362.81691579,5.125219555928734,-3.997350267,0.0,0.0,4.0571,5,40,611.2166353949465,1886.5075600000002,mp-757001,Y15TmO24,https://materialsproject.org/materials/mp-757001,18.590041962780106,59.607406730563795,-5.694417199999948,37.078444058540995
-1.597463195,-6.38985278,2.607281699515447,0.06666056500000006,3.9e-06,2.4851316126063233e-07,0.0,25,4,182.89112891415618,287.165,mp-1094976,Sr3Mg,https://materialsproject.org/materials/mp-1094976,-10.870830717420585,-18.635262680265807,-19.53911854679404,-6.987656179034129
-6.506689708624999,-2082.14070676,3.9845674358485863,-2.4879307561767243,0.00097589375,2.23524990670539e-06,3.8122,205,320,5088.079386344505,12209.165183999998,mp-1205185,Rb3Sc2(AsO4)3,https://materialsproject.org/materials/mp-1205185,-21.515260752302908,12.013683862734878,-1.0126652092737587,9.535135995387252
-6.5449687369000005,-654.49687369,7.4317735635015785,-2.0168195893000007,0.999999925,0.007842374732724259,2.1746000000000003,62,100,1486.0376219814327,6650.789199999998,mp-29058,V3(Bi3O8)2,https://materialsproject.org/materials/mp-29058,7.356748812728405,28.007657237177817,33.25701396205732,-4.919590611147927
-6.883754659166668,-495.63033546,6.5256809557759174,-2.5152127628819456,0.0,0.0,2.8096,176,72,975.9112375917308,3835.1916,mp-558323,SrBi2B2O7,https://materialsproject.org/materials/mp-558323,4.421038609020945,26.146114447172284,18.50746156279384,-21.429636047356926
-5.457908612115384,-283.81124783,7.875358742768419,-1.5659709002884623,0.0,0.0,2.6810000000000005,73,52,1082.771646908483,5135.20908,mp-554445,Bi5IO7,https://materialsproject.org/materials/mp-554445,-10.182026479747718,-24.770644130941967,21.806860617201046,-18.70496430714828
-4.800789190625,-153.6252541,4.616325261874398,-1.3577513013750862,3.25e-07,5.521844064689872e-09,3.0787999999999998,62,32,685.9250291586468,1906.8826228,mp-768311,Cs3NO4,https://materialsproject.org/materials/mp-768311,6.766884760150938,29.10345339549207,30.032639962226558,3.1776191062324814
-6.6647922034615386,-173.28459729,4.274304614177547,-2.5431270045776917,0.0,0.0,1.0268000000000002,100,26,456.50442783390565,1175.0636,mp-1214680,Ba2V2CuClO7,https://materialsproject.org/materials/mp-1214680,7.40565789318022,-23.69424244797539,17.517325143899864,-18.08271662541431
-3.7530262876666662,-112.59078863,3.777948212520833,-0.7939912933833336,0.0,0.0,1.4545,68,30,1005.833842293544,2288.4064,mp-4971,K4Sn3Se8,https://materialsproject.org/materials/mp-4971,-3.9278037342945806,5.866968933567025,13.651619270742247,-24.03006176382459
-7.14042565,-199.93191819999998,5.199842579886066,-2.4516280773809527,0.0,0.0,1.0839,135,28,446.1679025548442,1397.1383999999996,mp-18288,Ti(SnO2)2,https://materialsproject.org/materials/mp-18288,7.975325935152072,-24.06005030501455,34.56515953270592,-4.448286541982928
-3.319932125,-59.75877825,3.736422773175877,-1.6484278261111107,0.00737135,9.873217380657318e-05,3.4989999999999997,136,18,870.0931727635942,1957.81964,mp-754572,BaCa2I6,https://materialsproject.org/materials/mp-754572,1.2842037420097208,-27.95912712174217,-4.158660116127914,-29.90589328115909
-3.7828218435294114,-64.30797134,2.9241295974857797,-0.7167021242156859,0.0,0.0,0.28790000000000004,8,17,283.27063474862547,498.82599999999996,mp-675818,Li11TiAs5,https://materialsproject.org/materials/mp-675818,0.7772309632365547,-21.444768869947513,-18.155969970312007,-34.942078627118235
-6.077589689210527,-461.89681638,3.8392879943678135,-2.047403103720508,0.0,0.0,4.1184,198,76,1514.7796503948612,3502.2816000000007,mp-1210143,Rb2Cd2(MoO4)3,https://materialsproject.org/materials/mp-1210143,10.189753534828226,-26.528693666992417,24.72708320826745,-14.235199872832466
-7.9576889400000015,-286.47680184,4.21863846370303,-2.1612737641052786,1.1325e-05,1.746987661762991e-07,2.1703,62,36,755.4849209183722,1919.3272,mp-1246598,Y4S3N2,https://materialsproject.org/materials/mp-1246598,3.614068690509914,26.88775790553755,1.8186219356071087,34.01032715520897
-7.5576725775,-453.46035465,4.797571154039416,-3.2243240107500006,0.0,0.0,3.0111,15,60,941.84634968668,2721.1494399999997,mp-675416,Sr4Nb2O9,https://materialsproject.org/materials/mp-675416,-21.42090956572128,15.806979221966259,-18.005138237455864,46.53063037456706
-4.898543862083334,-117.56505269,6.311034028462171,-1.3587163822916672,0.0,0.0,2.3396000000000003,14,24,538.3191421270238,2045.93228,mp-559332,BiTeIO3,https://materialsproject.org/materials/mp-559332,8.009219348733232,28.56769339876543,30.11846744012435,-5.997981873419392
-5.6246062403125,-179.98739969,2.7594448461444823,-2.9843854445012497,1.000000025,0.030874382667912363,2.6315,33,32,377.46714450175364,627.2660512,mp-765622,Li2VOF4,https://materialsproject.org/materials/mp-765622,9.884921564051924,-33.908560054526966,36.424783403142435,-45.196253718836104
-7.901470344791666,-379.27057655,4.576826706283321,-2.603641288987068,7.00000035,0.09991634804841833,3.1131,60,48,816.4675659213298,2250.3720000000003,mp-1209393,RbGd(MoO4)2,https://materialsproject.org/materials/mp-1209393,6.044272268709802,18.55429477181497,26.455600422122693,-5.049447427264012
-4.6807020239999995,-23.40351012,3.805358221789236,-1.3734655457500005,0.0037335000000000003,0.000189656556598298,0.0,123,5,229.41706634750787,525.7414,mp-1210807,Lu2Br2O,https://materialsproject.org/materials/mp-1210807,5.554879529596456,-27.53011151363367,16.706396824028474,-16.4970207061654
-5.4771423683333325,-230.03997947,3.718657283168683,-1.5518722344406817,5e-08,4.91958774337266e-10,1.9401,15,42,1184.4554239589759,2652.5024000000008,mp-542012,Rb4Hf3S14,https://materialsproject.org/materials/mp-542012,38.55850998467381,-35.66095956091677,23.552418166254288,-55.91339098437833
-7.490469136000001,-599.23753088,5.731606977268112,-0.6536908020520699,0.000815175,4.900451311960665e-06,1.9126,80,80,1938.6178223593795,6691.4388456,mp-1119092,Cs3W2N5,https://materialsproject.org/materials/mp-1119092,8.885577593952881,-24.520693447365908,22.000727380478917,-18.21568352491764
-5.497724945882354,-186.92264816,4.123951255746803,-2.2881086524016223,0.9968094000000001,0.016821873368215744,0.6342000000000003,136,34,690.5819024560009,1715.0612151999999,mp-628617,Cs4K2Cu(SiO4)2,https://materialsproject.org/materials/mp-628617,0.534216874691817,-14.820949039229864,19.262341469728565,-15.270920818462725
-6.060938666384614,-787.92202663,5.1080006982624,-2.0636208062692307,3.5e-07,1.6842815895517998e-09,2.5942,14,130,2421.758152377195,7449.5944,mp-1197996,Sr5(Sb11O19)2,https://materialsproject.org/materials/mp-1197996,1.7307735772307198,-17.35202353390854,28.361065209303412,-6.339155251912584
-5.912537614285714,-165.55105319999998,5.5554241410996745,-1.5000827464285729,0.01910575,0.0005125183669361062,0.5327000000000002,135,28,434.44228030190885,1453.4504000000004,mp-22265,Fe(SbO2)2,https://materialsproject.org/materials/mp-22265,-9.241194702978675,-23.16145370973353,1.8589586944099512,-29.171906813410803
-6.97926427375,-279.17057095,4.5886538923004485,-0.5619425518020691,1.25e-07,1.5233702269632602e-09,1.5430000000000001,80,40,956.2731834886353,2642.5194228,mp-1247239,Cs3Mo2N5,https://materialsproject.org/materials/mp-1247239,8.814610912930803,-24.80711769612741,21.93479957128898,-18.21979217905583
-8.268487180227272,-363.81343593,4.568742598262976,-3.696785022613638,0.0,0.0,4.7843,14,44,648.3739736377618,1783.9109600000004,mp-5732,La2Si2O7,https://materialsproject.org/materials/mp-5732,14.163557813510904,-11.991751216570355,9.106690033656989,-21.96888490896902
-6.11622293625,-97.85956698,1.6899792651288554,-0.6210314786731255,0.0,0.0,4.1769,62,16,318.63941747631816,324.28867712,mp-6633,NaCSN,https://materialsproject.org/materials/mp-6633,8.664953090769933,-24.531864628378273,19.892580180710144,-16.62747308152564
-5.593985193529411,-95.09774829,3.7377657018906607,-1.8314489813159232,0.0,0.0,3.1413,157,17,407.5279350178057,917.3189557,mp-30300,Cs3As5O9,https://materialsproject.org/materials/mp-30300,9.477792508080304,-28.109452739245377,71.85705457469678,-23.73366933119087
-5.608063307999999,-56.08063308,8.914030308929803,-1.5129162192500003,1e-07,6.7131251438486115e-09,0.0,132,10,173.60118458745816,931.918,mp-1080122,Bi2O3,https://materialsproject.org/materials/mp-1080122,-11.096793301015373,-24.475630659145747,-9.911252992928546,32.918338918656374
-3.077075236,-30.77075236,4.085630330512437,-1.390746317474138,0.0,0.0,1.5325,194,10,440.2657396150949,1083.2404514000002,mp-1206444,Cs3IO,https://materialsproject.org/materials/mp-1206444,-17.465329404005693,-36.045525405247524,-12.575960820916608,-29.09723613492745
-7.682600050166668,-460.95600301,5.5860801317629685,-3.4289040400833337,0.0,0.0,3.8849,14,60,997.6913844230832,3356.24992,mp-769915,La4Ga2O9,https://materialsproject.org/materials/mp-769915,10.141119680615926,24.08159122596657,34.31475415690628,-1.4524057089031608
-6.528696732,-65.28696732,2.8937792266243614,-1.3278944470000007,0.0,0.0,0.039800000000000064,4,10,141.79916224820462,247.1098,mp-1080068,CuCO3,https://materialsproject.org/materials/mp-1080068,2.108536992564477,-6.432732397233694,-2.3401670048537104,-8.831071187418543
-5.718576880535713,-320.24030531,5.5702309153388985,-0.7839971591747609,4.385e-05,3.920243373122571e-07,1.1059,60,56,1303.568915594375,4372.7847999999985,mp-1245657,Ba7TiN6,https://materialsproject.org/materials/mp-1245657,7.68312773956347,28.133631842640966,31.68911650865099,-5.491319044664768
-3.213526818,-32.13526818,4.753676672794085,-0.30696095806896506,9.03e-05,4.073934183557182e-06,0.0,21,10,258.31591811413693,739.4889999999999,mp-1219647,Rb2Zn3GeAs4,https://materialsproject.org/materials/mp-1219647,-18.36820219605989,5.7076045318051465,-27.24603099543731,-9.145175668484693
-6.287386931,-62.87386931,6.449781926776798,-2.5081894675000007,8.599999999999999e-06,5.820449806209052e-07,1.8713,216,10,172.19452169675426,668.8292700000002,mp-40802,BaSrLaBiO6,https://materialsproject.org/materials/mp-40802,-18.638897463740708,-49.515423141260726,-25.54325211011816,-7.097901646271597