energy_per_atom,energy,density,formation_energy_per_atom,total_magnetization_uB,total_magnetization_T,band_gap,sgr,num_sites,cell_volume,weight,mp_id,formula,URL,tsne_cry_lin1_0,tsne_cry_lin1_1,tsne_cry_lin2_0,tsne_cry_lin2_1
-3.275988205,-13.10395282,7.343799736428338,0.05538437625000015,0.0002185,1.903005425790069e-05,0.0,160,4,133.81008368628798,591.7804,mp-35216,BiTe3,https://materialsproject.org/materials/mp-35216,57.723259082282674,29.028671799857758,-8.604250342815693,-0.5045126942092143
-5.022788472777778,-180.82038502,4.0852582413429825,-1.0912202365520836,6.99999985,0.0768319845441318,0.3805999999999998,14,36,1061.777229155782,2612.1844,mp-628804,K2EuSiSe5,https://materialsproject.org/materials/mp-628804,-15.014366061090374,11.552778935734926,4.329618998760691,-6.236466885822782
-3.3053762019117654,-224.76558173,5.106152575138891,-1.0970978314764708,0.0,0.0,1.1367,122,68,1939.9345071786208,5965.2928,mp-574580,Tl4Pd3Cl10,https://materialsproject.org/materials/mp-574580,11.482281408870277,-9.845610972114576,8.06994384440245,-5.232671346538288
-5.327960148846153,-277.05392774,8.312399034153527,-0.7802680846153851,9.2575e-05,8.651259303095541e-07,0.0,62,52,1247.0728347417316,6242.6518000000015,mp-1209527,Pr3(Sn3Pd2)2,https://materialsproject.org/materials/mp-1209527,3.2185411823063617,49.01799571349778,-8.604250342815693,-0.5045126942092143
-5.337890932692308,-138.78516425,6.202058165850791,-1.098802478076924,1e-07,1.5114052034594684e-09,0.0,7,26,771.0748081245587,2879.9388,mp-675009,Y4CuTe8,https://materialsproject.org/materials/mp-675009,56.224076788160275,21.459623397981016,-8.604250342815693,-0.5045126942092143
-3.4634655052777776,-623.42379095,4.390583851670049,-0.20317960641111132,6.666666666666667e-08,1.3788431720992365e-10,0.7236000000000002,111,180,5634.706449763401,14898.5664,mp-1228096,K4Cu4Sn7,https://materialsproject.org/materials/mp-1228096,37.581593361636635,13.52252962060412,4.974691422390467,-6.268383282487142
-7.085759327380952,-297.60189175,4.5420153174391125,-2.2593822316666667,8.000649716666667,0.20859509178881092,0.9454000000000002,156,42,446.9908146975685,1222.6386,mp-675586,Fe2SiO4,https://materialsproject.org/materials/mp-675586,-24.93231165038684,-39.93976738753037,7.172459034368418,-1.3987574108775258
-5.207476817142857,-36.45233772,3.7159728436468216,-0.9852317737500006,3.6924303999999997,0.3012088288068084,0.0,164,7,142.8637507746115,319.7021,mp-985304,Cr(GaS2)2,https://materialsproject.org/materials/mp-985304,26.068088351946248,3.071347755759433,-4.683440380258416,-1.6177997956549706
-7.425074777142857,-103.95104688,5.269874712181031,-2.449830969285716,9.0000009,0.6290165835804442,0.04789999999999983,88,14,166.74694464280643,529.1868999999998,mvc-4611,Y(FeO2)2,https://materialsproject.org/materials/mvc-4611,-26.62080251798548,-16.608390109155593,-8.604250342815693,-0.5045126942092143
-5.4324179205,-217.29671682,8.173735451891634,-0.6179332673750004,1.1e-06,1.3303807344466183e-08,0.05819999999999936,223,40,963.594174050334,4743.136820000001,mp-30513,La3Sn13Rh4,https://materialsproject.org/materials/mp-30513,0.5867401788805433,49.83501093050196,-8.604250342815693,-0.5045126942092143
-3.807305672142857,-53.30227941,5.862689071515732,0.3200405478571428,1.4285714285714286e-06,3.4482161680279807e-08,0.0,2,14,482.8196130847811,1704.64,mp-1179613,Sb,https://materialsproject.org/materials/mp-1179613,37.16644763708965,28.254142000928088,-8.604250342815693,-0.5045126942092143
-7.068088893333332,-42.40853336,4.637499785366635,-1.278535966348889,0.0,0.0,0.05249999999999977,59,6,135.19074315600164,377.55634,mp-27848,TiIN,https://materialsproject.org/materials/mp-27848,36.40737569962503,5.816582664098222,-8.604250342815693,-0.5045126942092143
-6.33048572,-37.98291432,7.111433599963589,0.2464212433333337,7.081203200000001,0.750327267880217,0.0,160,6,109.98507490418345,471.02268499999997,mp-1221893,Mn2CoNiSb2,https://materialsproject.org/materials/mp-1221893,48.01709190402559,42.822739565841744,-8.604250342815693,-0.5045126942092143
-5.5461810775,-88.73889724,3.33141874611858,-0.8126401744140637,6.0000057,0.21272854617259165,0.0,59,16,328.70273558300926,659.4524,mvc-16256,ZnCr2S5,https://materialsproject.org/materials/mvc-16256,17.397356848947393,7.4660120067885485,-8.604250342815693,-0.5045126942092143
-6.37823085724138,-369.93738972,4.062200097219328,-1.68227915562931,38.99997795,0.6114049777709825,0.3294000000000001,1,58,743.3833313145639,1818.54913856,mp-850021,NaFe11O17,https://materialsproject.org/materials/mp-850021,-27.90360202754723,-33.66385118520976,5.430689021912143,-2.24243705576006
-5.834061436315789,-332.54150187,5.196809424394106,-1.35725898754386,40.032190299999996,0.7528328042448593,0.0,1,57,619.7096302300532,1939.4382,mp-685456,Fe14Ni11O32,https://materialsproject.org/materials/mp-685456,-28.285626306765668,-33.560341592389705,4.69859800084194,-3.2915784462516657
-6.874506253636364,-151.23913758,2.9987064075453262,-0.8643523727272732,0.0,0.0,2.0556,15,22,517.1148403525823,933.8386800000001,mp-672184,RuC4(IO2)2,https://materialsproject.org/materials/mp-672184,-8.442488361776542,-31.928343381233997,8.000438977974794,1.3211941405048528
-5.976600387142858,-167.34481084,3.157645087005201,-1.052388474392857,4.99999995,0.10852994266756363,0.0,141,28,536.9055013562677,1020.96787712,mp-1238798,Na(CrS2)2,https://materialsproject.org/materials/mp-1238798,17.458038966350188,7.593409267656118,-8.604250342815693,-0.5045126942092143
-6.609514663888889,-118.97126395,5.738579703204442,-2.2590336994444438,4.9999997,0.2406779000607808,1.2942999999999998,7,18,242.10914401307082,836.6937399999998,mvc-8907,LaFeTeO6,https://materialsproject.org/materials/mvc-8907,-4.291620929354285,-36.50987130821591,6.861231903273307,-1.7523816991339198
-4.680899967692309,-121.70339916,2.702492130213979,-1.591668241365385,8.00000115,0.2096684288512308,1.1997,136,26,444.66652463354274,723.68535424,mp-1211809,K2Na4Fe2O5,https://materialsproject.org/materials/mp-1211809,-34.64623281604922,-31.991356557859213,5.2023217779760405,-6.644655797294107
-6.010834046944443,-216.39002569,4.2864634621540025,-2.219568648591112,4.166666341666667,0.11498585384008485,0.4380999999999999,6,36,422.30063794595054,1090.1136384000001,mp-759563,FeOF,https://materialsproject.org/materials/mp-759563,-42.42012667300431,-76.74397988177775,0.8382293322746632,-2.3958122520894305
-8.086236265750001,-323.44945063,6.700527959743368,-3.0560962543749994,23.9999958,0.5801008570421857,1.9165999999999992,123,40,482.15323628460106,1945.5617500000005,mp-1076603,La5Sm3Cr8O24,https://materialsproject.org/materials/mp-1076603,-4.605079181667679,-7.1387142568460575,8.085845084240809,-1.5784187611077876
-2.684018119090909,-88.57259793,5.254720717595495,-0.0703145633333333,0.3518732,0.003931344925693372,0.0,8,33,1043.091649813607,3300.82893,mp-685100,Cu14I19,https://materialsproject.org/materials/mp-685100,16.929855917382117,-11.08573840425036,-8.139285416340227,2.2241420323560877
-6.710833927142858,-187.90334996,6.7859973897575925,-1.9309029691964288,6.97644755,0.1047732787390248,0.0,62,28,775.9991155052223,3171.216,mp-645690,Eu(DySe2)2,https://materialsproject.org/materials/mp-645690,-14.487834193162383,11.479938966852233,3.6314651194972742,-5.593460418354707
-6.27598589,-150.62366136,6.46750935428465,-1.9674698017727088,5.00000045,0.10116775424673306,1.9942,186,24,575.9772917862242,2243.3308899999997,mp-17340,Nd4MnSe6O,https://materialsproject.org/materials/mp-17340,46.406384761272676,1.820748682051773,-8.13928534387111,2.224142017013658
-6.011649477037038,-324.62907176,4.333629565130705,-2.220384078683704,4.999946838888889,0.09299989904294813,0.5747,6,54,626.5566405922308,1635.1704576,mp-764510,FeOF,https://materialsproject.org/materials/mp-764510,-41.84617641153631,-76.83500638578086,4.124627013115983,-0.3678866778075585
-5.846229383571428,-81.84721137,4.618794125350641,-2.019027240178571,2.0,0.07359097985761838,0.0,166,14,316.7253594151791,880.9725000000002,mp-1246931,Lu3Mg2VS8,https://materialsproject.org/materials/mp-1246931,25.74302114568311,10.225453278611337,-6.1713644470045255,-3.187889349290458
-8.031380786,-40.15690393,6.701518432668192,-3.0140546082499995,2.9999995,0.5857097052703122,2.2734,221,5,59.692008133126656,240.90195,mp-19353,PrCrO3,https://materialsproject.org/materials/mp-19353,-4.5571618258008435,-7.117581570448045,7.389208823755182,-1.8186018470222816
-4.399467386428571,-369.55526046,3.7565846022961913,-1.9790295514686904,0.0,0.0,1.1831,14,84,1683.7753442463065,3809.151353599999,mp-561487,Te4As2S(OF6)2,https://materialsproject.org/materials/mp-561487,47.28146476560421,-18.6264551227534,8.738167306599673,-0.49105342696982
-5.15862771,-67.06216023,3.5374295698113705,-1.4166842212451929,0.0,0.0,1.6001,2,13,205.7535622469183,438.31473856,mp-559068,Na2Pd(SeO4)2,https://materialsproject.org/materials/mp-559068,-9.830056014445542,-25.77644452355691,7.980145417703197,-0.5710415664626075
-5.915446481627908,-254.36419871,5.261357106680363,-1.4190940165116268,39.9999996,1.006261820679882,0.3506999999999998,12,43,463.2617243947489,1467.8278,mp-36806,Fe11(NiO3)8,https://materialsproject.org/materials/mp-36806,-28.19585984084442,-33.83352169654247,4.911453428458223,-1.8518589009523807
-7.075137795321102,-771.19001969,1.4453789750411126,-0.039711852558531865,1e-07,1.0242167609880888e-09,0.0012999999999998568,2,109,1137.8514018181766,990.41724,mp-1201037,ZnH36(C5N)12,https://materialsproject.org/materials/mp-1201037,46.013827480637225,-26.10199543631052,3.5057374255042446,-3.800264967497753
-6.400724201071428,-179.22027763,5.7973939479884535,-1.218255717202381,3.0000002,0.06539798961993926,0.3250000000000002,31,28,534.6065964974614,1866.4572,mp-1246999,HfCrAgS4,https://materialsproject.org/materials/mp-1246999,17.884378103091137,4.43119930199824,4.985988803626339,-5.849396044177285
-5.859513719565218,-134.76881555,2.1086268065041494,-1.2296263635339126,2.0,0.060265781038958986,2.06,148,23,386.7556205743319,491.1196,mp-558721,K4Ni(NO2)6,https://materialsproject.org/materials/mp-558721,-2.7049556789730795,-24.26056782664932,8.020334487203893,-0.6283271455719274
-8.0804264025,-32.32170561,3.7626993646257696,-3.0837964809225014,0.0,0.0,0.8744000000000001,123,4,63.50693870097547,143.90358319999999,mp-1220314,NbO2F,https://materialsproject.org/materials/mp-1220314,-1.152087456888079,-45.92130176923428,7.219715036159037,-2.362022440036222
-2.82450533,-11.29802132,0.8087975608113633,1.547055875,1.7e-06,2.7880733723041238e-08,0.2203000000000004,71,4,710.5950047856343,346.1090000000001,mp-1093953,GaCuPd2,https://materialsproject.org/materials/mp-1093953,34.43534806571915,-2.168675303642229,6.449831091508872,-6.185566057453326
-3.97195975,-31.775678000000003,5.906031640386883,-0.3797037103385419,4.36e-05,2.296957015866917e-06,0.0,6,8,221.21320537286118,786.788,mp-1223673,InSn3Se4,https://materialsproject.org/materials/mp-1223673,69.74824821502429,17.518258717741322,6.587440945351816,-6.156675036207223
-7.318720274749999,-585.49762198,5.756739131452737,-2.6363991066249994,25.00000005,0.2793466545299496,1.8417,230,80,1042.9751535308214,3615.7752,mp-1201849,Nd3Fe5O12,https://materialsproject.org/materials/mp-1201849,-23.374047177923227,-33.60914840629608,7.373202520915632,-2.2716169596259403
-5.7660218610000005,-115.32043722,7.59427591196309,-0.5305032395000004,0.908054575,0.021355231237627625,0.0,57,20,495.5472837691823,2266.326,mp-1208885,SmVSb3,https://materialsproject.org/materials/mp-1208885,3.3055974912394435,35.03576203803111,-8.604250342815693,-0.5045126942092143
-3.808251125263158,-72.35677138,5.948637707838378,-0.17818147394736847,0.0029091,5.377906621592129e-05,0.009199999999999877,160,19,630.4096038732719,2258.35,mp-1219067,Sn5Ge2(SbTe5)2,https://materialsproject.org/materials/mp-1219067,67.04349621612131,25.70734088836248,3.2329630610623767,-5.206050198911433
-3.5091624491666664,-42.10994939,4.492294780483389,-0.4824379292266663,0.0,0.0,1.4378000000000002,194,12,199.42947283822025,539.52117856,mp-862693,BaNaH3Pd,https://materialsproject.org/materials/mp-862693,31.854874427205928,-20.71343575208407,7.933213832703104,-4.623801155207682
-5.2601708999999985,-36.8211963,7.568321652883487,-0.3415809049107139,1.84e-05,1.6840692391668481e-06,0.0,12,7,127.33133937009899,580.3444,mp-4852,Ni(RhSe2)2,https://materialsproject.org/materials/mp-4852,21.95043813281642,14.93890110532207,-8.604250342815693,-0.5045126942092143
-3.1102860014583333,-149.29372807,3.746588651984512,-0.43316160093055583,0.0,0.0,0.1482000000000001,14,48,1182.9566246294949,2669.04406272,mp-21622,Na3InAs2,https://materialsproject.org/materials/mp-21622,35.487035165817645,19.313577468685445,3.8075567782102318,-5.55963277665553
-4.619301696,-46.19301696,2.9189442920762585,-1.8478435480249655,3.0000009,0.12657663788185214,0.0,194,10,276.2137262562735,485.5366,mp-23319,RbVCl3,https://materialsproject.org/materials/mp-23319,10.611606966139377,-6.12556508945766,4.9913470081493045,-5.692442549554631
-4.631766612,-231.58833059999998,5.486238981881499,-0.7425236598750007,4.999946,0.04665469497515854,0.4535,14,50,1248.956714309817,4126.41609,mp-683891,MnSb6(Pb2S7)2,https://materialsproject.org/materials/mp-683891,70.12205996575186,15.283185339665573,5.44500096687255,-6.888521823928489
-6.12173038857143,-42.85211272,4.110239816406315,0.17549204071428498,0.0,0.0,0.7526999999999999,221,7,74.16480021196546,183.576,mp-1094049,SnB6,https://materialsproject.org/materials/mp-1094049,13.500018184615412,-17.561647216252638,4.421143542904611,-4.768511275032528
-4.233839870833333,-50.80607845,3.209715946415956,0.2546861812447917,3.0234609,0.09747597902108968,0.0,191,12,361.47992069182635,698.71760784,mp-1179932,NaCrSe2,https://materialsproject.org/materials/mp-1179932,24.234538954624785,7.572247569836838,-8.604250342815693,-0.5045126942092143
-6.990692873125001,-559.25542985,2.964537673342773,-2.402609799696429,15.99999975,0.16152504316324945,3.222,56,80,1154.4032417250814,2060.940344,mp-758889,LiFe4(PO4)3,https://materialsproject.org/materials/mp-758889,-9.81569821192566,-86.45653071939473,6.909642019854164,-1.3585322977300625
-6.11755206875,-48.94041655,7.95784483023268,-2.2442638878125,0.0,0.0,1.2695,123,8,157.148080231235,753.1048699999999,mp-549333,NdBi2IO4,https://materialsproject.org/materials/mp-549333,38.85193591434084,-8.816144602276859,8.171688188518333,-4.525720287780285
-7.8787470376470585,-133.93869964,6.059930466355686,-3.08662561504902,0.0,0.0,1.9433,139,17,218.43253538237212,797.1423400000001,mp-6000,La2Ti3(AgO5)2,https://materialsproject.org/materials/mp-6000,7.0465576597708175,-41.37839196051888,8.30012471745285,-0.7523658627119391
-3.774807769166667,-317.08385261,2.2104768781961335,-1.725369641886667,2.9999968166666666,0.013904016359565393,0.7890999999999999,33,84,2514.536542159179,3347.3015400000004,mp-23515,K2CoCl4,https://materialsproject.org/materials/mp-23515,20.82297980374798,-1.6544433206382554,5.6216904502115375,-6.504047103339675
-4.7972902425,-19.18916097,10.987477875588384,-0.8236604412500004,2e-07,3.056452894409061e-08,0.0,225,4,76.2587559839551,504.59,mp-4053,YbSnPd2,https://materialsproject.org/materials/mp-4053,29.273683477768532,41.32343363014673,-8.604250342815693,-0.5045126942092143
-5.269606474375,-84.31370359,6.401641335445636,-0.7948578141091955,1.9276453000000002,0.04097542238850287,0.0,51,16,548.2531204125818,2113.6027237999997,mp-617298,CsUTiTe5,https://materialsproject.org/materials/mp-617298,-12.276525842424354,20.315125312681197,-8.604250342815693,-0.5045126942092143
-6.0935392325,-97.49662772,3.3475742201994723,-3.1788252971425,2.0000002,0.10883270531690692,1.7379000000000002,136,16,214.16477526734303,431.74683839999994,mp-765663,VF3,https://materialsproject.org/materials/mp-765663,-21.967802386740264,-51.009396894789184,8.132988138487066,2.6182333553922112
-5.058834782727273,-55.64718261,8.353349527080818,-0.11297455727272747,0.7962313,0.0440264240213052,0.0,148,11,210.76731418497602,1060.2659749999998,mp-1226090,Co5Te6,https://materialsproject.org/materials/mp-1226090,53.409627043810175,28.59826672584717,-8.604250342815693,-0.5045126942092143
-4.9362605925,-19.74504237,4.613378045271917,-0.6778510583485993,4.0000002,0.3745659134061336,0.0,119,4,124.4540940662338,345.76349689999995,mp-1207359,CsMnSe2,https://materialsproject.org/materials/mp-1207359,26.180566282224717,15.903671286039973,-8.604250342815693,-0.5045126942092143
-6.490025351428572,-90.86035492,5.375534401407549,-1.3075568675595244,3.0000004000000002,0.12127834319193152,0.7583999999999995,3,14,288.2806448301725,933.2286,mp-1239238,HfCrAgS4,https://materialsproject.org/materials/mp-1239238,17.770566943187767,4.365834033126614,5.063677048652512,-5.927502928877477
-5.527383835,-22.10953534,4.266453190540998,-2.1390941276562505,0.0,0.0,1.8017,166,4,86.18278550001276,221.43099999999998,mp-1222296,LiSmS2,https://materialsproject.org/materials/mp-1222296,53.13600865394945,9.014879419684249,7.340049828724034,-3.816997799111622
-5.854579310178572,-327.85644137,5.119801852211356,-1.6461047493749998,10.000000275,0.1406925444722167,2.1308,62,56,828.3356546549531,2553.9384,mp-540592,Fe2(TeO3)3,https://materialsproject.org/materials/mp-540592,-18.730002568174747,-37.424389191487826,8.252553843655344,0.13220157375380234
-3.648553956,-36.48553956,4.097700713969309,-1.2719926186913793,2.9999682,0.09983635466283776,1.3505999999999998,225,10,350.19130893240845,864.1646730800002,mp-1112009,Cs2NaMoBr6,https://materialsproject.org/materials/mp-1112009,10.526379864230524,-7.660200474346187,6.720495400935791,-1.7066793421277735
-7.93344143775,-317.33765751,6.729637963398365,-2.9981450758749997,27.999996600000003,0.6770458185785908,1.7537000000000005,38,40,481.9670472124376,1953.25955,mp-1076580,La5Sm3Cr6(FeO12)2,https://materialsproject.org/materials/mp-1076580,-4.627991526008253,-7.170983856208802,7.903896941788213,-1.6530609639580454
-6.114330935000001,-146.74394244,4.116616660432744,-1.4879746202864592,13.9974954,0.273075175115077,0.0,113,24,597.3729321109561,1480.9379999999999,mp-1192354,Eu2Ga2GeS7,https://materialsproject.org/materials/mp-1192354,-15.756726468984768,11.557964937236807,3.2728967336870864,-5.255587162004568
-4.930697988048781,-404.31723502,8.380546639880121,-0.3357490546951221,6.77e-05,4.600278869701986e-07,0.0,12,82,1715.0703412756425,8655.759750000001,mp-1217867,Tb9Ni24Sn49,https://materialsproject.org/materials/mp-1217867,2.2951016846106875,54.75408622457355,-8.604250342815693,-0.5045126942092143
-4.239556154285714,-59.35378616,7.320487944940045,-0.4834799549999994,0.0,0.0,0.7673999999999994,148,14,336.03123031191683,1481.3939999999998,mp-1225130,Er(CuTe)3,https://materialsproject.org/materials/mp-1225130,55.39141262306099,20.223753342263443,6.304530002265049,-6.17701930819366
-3.16115433,-18.96692598,5.329753005194202,-0.23154746666666645,0.0,0.0,0.8583999999999996,12,6,234.4580850898709,752.52894,mp-28051,SbTeI,https://materialsproject.org/materials/mp-28051,62.72939779135209,20.16302759231731,6.380751102560003,-6.98711234114687
-5.756086225,-115.12172450000001,6.767742605388548,-1.8711152701562497,0.0,0.0,1.3695,70,20,564.0830304795691,2298.99368,mp-1189318,Tm2Se3,https://materialsproject.org/materials/mp-1189318,52.6329259774718,7.198645090789148,7.896841790908255,-6.1673551532575726
-7.195322546,-143.90645092,9.558980854397497,-2.61457875025,2.99999985,0.14801392761914262,1.7051999999999996,14,20,236.20880231981437,1359.74847,mp-1212356,Ho2CoPtO6,https://materialsproject.org/materials/mp-1212356,-12.94802441025175,-28.938223488023358,6.9083699959453275,-3.2025545644217464
-3.220397953,-32.20397953,2.7986421414116864,-1.4983689707226666,0.0,0.0,1.2197,225,10,281.06653508154426,473.7044,mp-1112480,K2AgAsCl6,https://materialsproject.org/materials/mp-1112480,6.1920770379572225,-7.717956612083072,8.621358353227148,-4.469751850481125