energy_per_atom,energy,density,formation_energy_per_atom,total_magnetization_uB,total_magnetization_T,band_gap,sgr,num_sites,cell_volume,weight,mp_id,formula,URL,tsne_xrd_lin1_0,tsne_xrd_lin1_1,tsne_xrd_lin2_0,tsne_xrd_lin2_1
-5.820365885625,-186.25170834,4.416111010690275,-1.3773439445312494,10.9926067,0.3727799756710774,0.0,10,32,343.65727469790465,913.937365,mp-757626,Li2Fe3Co7O20,https://materialsproject.org/materials/mp-757626,23.516583042971746,-72.57067177353275,-5.996677990081802,-71.00054330355351
-5.7836605771875,-185.07713847,4.1659806958554615,-1.8483116138099989,21.9999999,0.8896702981501555,0.3496999999999999,6,32,288.1847627868478,723.001465,mp-1100605,Li9Mn2Co5O16,https://materialsproject.org/materials/mp-1100605,15.004908454483235,-79.94275520419716,-12.669219615957156,-85.45674197824567
-5.7847781578125,-185.11290105,4.2667686911877265,-1.8494291944349996,13.999999300000002,0.5798508169233011,0.0,2,32,281.377371379252,723.001465,mp-1175687,Li9Mn2Co5O16,https://materialsproject.org/materials/mp-1175687,21.963480533044606,-80.19460950087299,-9.659176760235583,-85.9444624304626
-5.5031267965625,-176.10005749,4.275403079362803,-1.70792813125,22.000000600000003,0.9030579306973844,0.3441000000000001,2,32,283.91249694330895,730.991765,mp-1175505,Li9Co7O16,https://materialsproject.org/materials/mp-1175505,17.721844031521496,-75.54185998547987,-9.492695068060364,-80.9551744266836
-5.760894829375,-184.34863454,4.162923624719529,-1.8255458659974997,20.0000002,0.8081976864603005,0.04020000000000002,1,32,288.3963932176586,723.001465,mp-1176037,Li9Mn2Co5O16,https://materialsproject.org/materials/mp-1176037,15.780631996646125,-83.24358660045874,-17.086115138986745,-88.00940576945452
-6.106827489375,-97.70923983,4.276545120008473,-1.9273275501199996,5.99999995,0.4695754371130849,0.6080999999999999,2,16,148.9098077244945,383.50167999999996,mp-1173882,Li2MnCoO4,https://materialsproject.org/materials/mp-1173882,5.368522807669112,-77.28645846581121,-29.912886760910997,-76.63556501643498
-5.7727684303125,-184.72858977,4.19606090167147,-1.837419466935,21.4590116,0.8740588152084942,0.0,1,32,286.1188592690478,723.001465,mp-1176236,Li9Mn2Co5O16,https://materialsproject.org/materials/mp-1176236,14.945933887859788,-80.23864500296861,-13.111375975547713,-86.99610463919731
-5.7686119978125,-184.59558393,4.155586814368962,-1.8332630344349996,23.9999998,0.9681279476976375,0.12600000000000033,1,32,288.9055655048333,723.001465,mp-1176244,Li9Mn2Co5O16,https://materialsproject.org/materials/mp-1176244,14.385833630222688,-79.97237720011212,-12.849469939908008,-85.9371187073775
-5.851254509375,-93.62007215,4.404709447670646,-1.811904868185,9.9999999,0.7977695294575274,0.40100000000000025,2,16,146.083100766504,387.49683,mp-1174018,Li4MnCo3O8,https://materialsproject.org/materials/mp-1174018,10.691206663584305,-81.71512506427511,-14.567943066565062,-86.73421906374939
-4.8637293448214285,-272.36884331,4.862858539288609,-1.3394951125892862,13.000000199999999,0.3127505707986644,0.0,2,56,484.4206806312118,1418.6172,mp-766878,Li13Ni15O28,https://materialsproject.org/materials/mp-766878,23.036401584523922,-71.10482386129551,-9.791255983557695,-75.68544086070112
-5.7941875196875,-185.41400063,4.210053079829205,-1.8588385563099996,19.9999999,0.8173474737202133,0.3975000000000004,1,32,285.1679387040885,723.001465,mp-1176058,Li9Mn2Co5O16,https://materialsproject.org/materials/mp-1176058,17.575051674209902,-78.33763145995232,-10.35872989158231,-84.57541515886291
-5.7708715634375,-184.66789003,4.176642290044424,-1.8355226000599991,22.0000025,0.8919472512897555,0.3496999999999999,1,32,287.4491218631327,723.001465,mp-1176221,Li9Mn2Co5O16,https://materialsproject.org/materials/mp-1176221,15.635435620179601,-80.82846469221185,-13.972194266085944,-86.15572074654774
-5.5243916515625,-176.78053285,4.385104785529801,-1.7291929862499993,17.9999985,0.7578238988768761,0.0,10,32,276.80988780621607,730.991765,mp-1175392,Li9Co7O16,https://materialsproject.org/materials/mp-1175392,22.015536184257346,-71.43114071984277,-9.324894154859487,-76.0917938553116
-5.311959812142859,-74.36743737,4.4710232305850885,-1.3156429993542855,4.9999629,0.4207411279394491,0.13850000000000007,12,14,138.49345268994313,372.895445,mp-752530,Li2MnNi3O8,https://materialsproject.org/materials/mp-752530,8.950549673337905,-67.97687343931801,-5.187395786027607,-69.86291038583957
-5.978364356428571,-83.69710099,4.468503187790675,-1.6345322879257134,8.0000006,0.6715159339615789,0.0,166,14,138.8388874451499,373.61483,mp-753177,Li2MnCo3O8,https://materialsproject.org/materials/mp-753177,21.753494054416198,-69.11630242516016,-8.973943210325352,-73.32769277189641
-5.748558733125,-183.95387946,4.155566206454478,-1.8132097697474991,21.6594902,0.8737105825990752,0.0,8,32,288.90699821962886,723.001465,mp-1100617,Li9Mn2Co5O16,https://materialsproject.org/materials/mp-1100617,19.628294087084733,-82.49961947151637,-14.725837001607713,-82.0629860455007
-6.308735637000001,-126.17471274,3.8285541159839203,-2.127456424567,7.00033345,0.44637039491853614,0.9567,12,20,182.7682578964612,421.39218000000005,mp-1173964,Li3Mn2O5,https://materialsproject.org/materials/mp-1173964,12.894708864546695,-80.98103487220209,-18.581770012640806,-84.00118682151474
-5.269947224545454,-115.93883894,4.625725555050869,-1.4108733447727273,1.0,0.05669295684643875,0.0,2,22,205.56459604191133,572.636585,mp-777850,Li4Co3(NiO4)3,https://materialsproject.org/materials/mp-777850,24.72999275365839,-73.10749894426708,-4.23311256084295,-71.48674917029584
-5.545979314166666,-66.55175177,4.507115073238248,-1.7180938210416663,4.999999900000001,0.552616514764,0.0,12,12,105.44441061859484,286.2023,mp-754431,Li3Cr(NiO3)2,https://materialsproject.org/materials/mp-754431,21.89377071717123,-69.45604604594905,-8.484886488084259,-75.56219837269741
-5.998946317894737,-227.95996008,4.022753395400509,-1.9698850307894744,3.77841005,0.11205330175867108,0.0,12,38,392.97222633230456,951.9983088,mvc-12893,Al4(NiO4)3,https://materialsproject.org/materials/mvc-12893,26.548629438379898,-69.27306397239748,-14.053905669895695,-72.89734203132659
-5.534380591875,-177.10017894,4.359195850337756,-1.7391819265625,15.999999800000003,0.6696412698774804,0.8632999999999997,1,32,278.4551108450325,730.991765,mp-1175376,Li9Co7O16,https://materialsproject.org/materials/mp-1175376,22.366924079500862,-71.59150498533698,-8.712103845804652,-76.28045233921591
-5.801258505625,-185.64027218,4.2522960515786865,-1.8659095422475,16.0000002,0.6604388933229011,0.4643999999999999,1,32,282.33503595404056,723.001465,mp-1175725,Li9Mn2Co5O16,https://materialsproject.org/materials/mp-1175725,19.535535689749178,-79.94354590379605,-11.658183172618447,-87.32972368998458
-5.792603205625,-185.36330258,4.189581172926076,-1.8572542422475,24.0000012,0.9760476776073468,0.4270999999999998,5,32,286.56137906290854,723.001465,mp-1175748,Li9Mn2Co5O16,https://materialsproject.org/materials/mp-1175748,17.581202240804895,-76.91163837261766,-13.942621652350375,-81.01087430416177
-5.784497847857144,-161.96593974,4.107867442495308,-1.8439846530150004,9.00180265,0.4151499281453292,0.0,8,28,252.6980833685104,625.12847,mp-1174264,Li4MnCo2O7,https://materialsproject.org/materials/mp-1174264,14.140240353281055,-80.27942920581454,-14.021726602869586,-87.37042915875523
-5.857182635357143,-328.00222758,4.5539578623735455,-1.6384625839285718,2.999999875,0.06400317308249437,0.20150000000000026,1,56,546.2571803410099,1498.08714,mp-761944,Li2FeCo3O8,https://materialsproject.org/materials/mp-761944,24.06298114597473,-68.73771345634299,-14.674855115188365,-71.90161953066414
-5.799143615714287,-162.37602124,4.148725306098259,-1.8586304208721427,8.0,0.37261791053346094,0.0,1,28,250.2094385291372,625.12847,mp-1174703,Li4MnCo2O7,https://materialsproject.org/materials/mp-1174703,18.88807644681112,-83.56261263586529,-11.820345516018314,-88.73573121287994
-5.8025400621875,-185.68128199,4.25425454334737,-1.8671910988099996,16.000000099999998,0.6607430693633585,0.4889999999999999,1,32,282.20505998802986,723.001465,mp-1175604,Li9Mn2Co5O16,https://materialsproject.org/materials/mp-1175604,21.189844014106157,-79.24410347189952,-9.784477508836783,-87.47894094011922
-6.58688922125,-105.39022754,4.286523222675661,-2.239994343125,9.000000199999999,0.7304257386452425,0.5848999999999998,12,16,143.5965078097996,370.680695,mp-755387,Li4Cr3CoO8,https://materialsproject.org/materials/mp-755387,16.821456474613868,-70.14092984945056,-10.93447990400662,-70.97892758791873
-5.805280167083333,-139.32672401,4.040196851701136,-1.8578813302883328,16.000001,0.8604581938607598,0.0,1,24,216.70436674950628,527.2554749999998,mp-1175075,Li7Mn2(CoO4)3,https://materialsproject.org/materials/mp-1175075,16.142924749996432,-81.27405070782116,-12.145031975204908,-85.6054269067771
-5.501258086666668,-132.03019408,4.251320385509925,-1.7407263139583335,14.0000001,0.7804174349660259,0.5746000000000002,2,24,209.0636378316496,535.245775,mp-1174804,Li7Co5O12,https://materialsproject.org/materials/mp-1174804,21.63386103383549,-72.39828935690865,-8.930166338530984,-76.99448079475033
-5.78320023625,-185.06240756,4.182158953680858,-1.8478512728724992,24.0000001,0.9743184768474134,0.4581,10,32,287.0699492550444,723.001465,mp-1100701,Li9Mn2Co5O16,https://materialsproject.org/materials/mp-1100701,17.437585827840948,-78.88554890527482,-11.577226989420387,-85.8845904218258
-5.814885716428571,-162.81680006,4.154393782162431,-1.874372521586428,9.000000199999999,0.4197679123544458,0.6116999999999999,1,28,249.86803944958402,625.12847,mp-1174686,Li4MnCo2O7,https://materialsproject.org/materials/mp-1174686,17.57986336288811,-78.52208360215529,-10.666749375441416,-84.87657132192057
-5.757956370625,-184.25460386,4.130336032843377,-1.8226074072474996,22.0000002,0.8820581774573537,0.09120000000000016,1,32,290.6717877342305,723.001465,mp-1175985,Li9Mn2Co5O16,https://materialsproject.org/materials/mp-1175985,13.330663117253454,-84.13765121891237,-17.375727906493452,-88.14982364035531
-5.7870151278125,-185.18448409,4.210259444601607,-1.851666164435,21.999999600000002,0.8991262796816056,0.5082999999999998,2,32,285.15396127169004,723.001465,mp-1175612,Li9Mn2Co5O16,https://materialsproject.org/materials/mp-1175612,15.724610985553776,-75.94252534968528,-12.000930780721188,-82.40834674634688
-5.799979266875,-185.59933654,4.251460060318903,-1.8646303034974991,15.9999999,0.6603090402311721,0.5132999999999996,2,32,282.3905532631626,723.001465,mp-1175407,Li9Mn2Co5O16,https://materialsproject.org/materials/mp-1175407,19.560307461234935,-80.03113156562002,-11.14242522562683,-86.99936860695856
-4.858933888035715,-272.10029773,4.279052978719057,-1.4565770722321436,4.9999993,0.12393214178786115,0.4604999999999997,2,56,470.1792034280857,1211.6075999999996,mp-766611,Li17Ni11O28,https://materialsproject.org/materials/mp-766611,25.130002751536363,-70.77001053048784,-6.670307590837838,-75.28065724704892
-5.776212593125,-184.83880298,4.171838499351325,-1.8408636297474992,21.9999991,0.8909212350116743,0.0,1,32,287.7801139225235,723.001465,mp-1175982,Li9Mn2Co5O16,https://materialsproject.org/materials/mp-1175982,15.022200520605178,-80.26483930015762,-13.083801206780324,-86.90212263365486
-5.483913814,-109.67827628,4.227537136333439,-1.7511155553750002,5.0,0.3391829566128265,0.6034000000000002,12,20,171.7961434286139,437.37278,mp-1173970,Li3Co2O5,https://materialsproject.org/materials/mp-1173970,21.25868755410124,-72.12280320323785,-10.918931172152407,-76.15141292750351
-4.874519563333333,-58.49423476,4.08178675398897,-1.5229450043750006,3e-07,3.5638357504762215e-08,1.3164000000000002,12,12,98.10270945569587,241.1472,mp-556550,Li2NiO3,https://materialsproject.org/materials/mp-556550,-12.191643124176315,-69.74138583822544,3.818502172515152,-81.57333910187323
-5.77633051125,-184.84257636,4.162942679281391,-1.8409815478725,22.000000399999998,0.8890215315967858,0.3672,1,32,288.39507317380037,723.001465,mp-1176279,Li9Mn2Co5O16,https://materialsproject.org/materials/mp-1176279,12.895508600957134,-78.3569450250963,-14.271033696900933,-86.09122037497687
-4.9596008569230765,-64.47481114,5.13814779567494,-0.8438822576923078,0.9999998999999999,0.08551242653760664,0.2277,12,13,136.2850298959531,421.701995,mp-756594,Co(NiO2)4,https://materialsproject.org/materials/mp-756594,22.464719512766827,-71.00159172192005,-10.655074266355948,-75.23584612086246
-5.7858827834375,-185.14824907,4.264436059587124,-1.850533820059999,14.0000005,0.5795338636295568,0.0,2,32,281.5312838166769,723.001465,mp-1175680,Li9Mn2Co5O16,https://materialsproject.org/materials/mp-1175680,19.73108021456046,-82.32897611566918,-10.831835168390294,-81.01926663523712
-5.773876758125,-184.76405626,4.18065229667872,-1.838527794747499,22.000000600000003,0.8928035353819961,0.1764000000000001,1,32,287.1734058255638,723.001465,mp-1176002,Li9Mn2Co5O16,https://materialsproject.org/materials/mp-1176002,14.837643236778609,-80.13358998477206,-14.709260564865602,-82.5709351618817
-5.386703306875,-86.18725291,4.535846920810905,-1.6423479674999992,6.0,0.4976142831966085,0.0,166,16,140.51925556913903,383.8355,mp-757137,Li4CrNi3O8,https://materialsproject.org/materials/mp-757137,21.056301485879494,-69.67905576177026,-9.405913019969846,-74.28164388981837
-5.771362798125,-92.34180477,4.6154846913801455,-1.81080888875,3.00000025,0.25220306587379226,0.7379000000000002,15,16,138.6271697771156,385.31559,mp-1177967,Li2FeCoO4,https://materialsproject.org/materials/mp-1177967,23.015107950902195,-68.99757695850556,-15.241169915883749,-71.99655985181165
-5.7580099815625,-184.25631941,4.114969578145441,-1.8226610181849996,22.0,0.8787765703644169,0.053200000000000365,2,32,291.7572380087375,723.001465,mp-1175770,Li9Mn2Co5O16,https://materialsproject.org/materials/mp-1175770,13.422168057918807,-82.98656148421496,-16.796276550702164,-87.44610819394943
-6.000618329583332,-288.02967982,4.590491050656679,-1.2508096913299989,5.9999998,0.1343379301142268,0.9386,212,48,520.5111188261492,1438.93132,mp-867992,MnCo3O8,https://materialsproject.org/materials/mp-867992,26.057759744007893,-69.55837270089818,-6.382044835513461,-73.4904801755943
-4.864723116071429,-272.4244945,4.868489687725865,-1.3404888838392859,13.0,0.31311272845733523,0.0,2,56,483.8603744718727,1418.6172,mp-757347,Li13Ni15O28,https://materialsproject.org/materials/mp-757347,23.03689212784681,-70.94760582763251,-7.4944850712464115,-75.6976725441813
-5.7915031075,-185.32809944,4.226564073834359,-1.856154144122499,18.0,0.7384976574001574,0.2871999999999999,1,32,284.05393545129175,723.001465,mp-1175970,Li9Mn2Co5O16,https://materialsproject.org/materials/mp-1175970,19.335190525654344,-79.59896687644292,-10.567364395295904,-85.9846979064791
-5.742189565,-183.75006608,4.157354964016003,-1.8068406016225,21.9942669,0.8875968611390194,0.0,1,32,288.782692120651,723.001465,mp-1176254,Li9Mn2Co5O16,https://materialsproject.org/materials/mp-1176254,16.191534375861444,-82.07861823036649,-15.030965730951126,-87.07076767257178
-5.812894331428572,-162.76104128,4.1944874040166855,-1.8723811365864296,7.0000003,0.3296370447359448,0.3410000000000002,5,28,247.47963921799374,625.12847,mp-1174782,Li4MnCo2O7,https://materialsproject.org/materials/mp-1174782,21.207478463757763,-79.35999148837625,-9.751196865811904,-88.07267534174551
-5.819500026071429,-162.94600073,4.1912960418275835,-1.8789868312292868,7.00000045,0.3293862485137797,0.5390000000000001,2,28,247.6680766739241,625.12847,mp-1174455,Li4MnCo2O7,https://materialsproject.org/materials/mp-1174455,19.247374965144147,-83.12964317001995,-11.064463186366376,-88.54070127883465
-5.792622995625,-185.36393586,4.231678939161614,-1.8572740322474992,21.9999995,0.9037005377327304,0.3721000000000001,12,32,283.7105971105531,723.001465,mp-1175395,Li9Mn2Co5O16,https://materialsproject.org/materials/mp-1175395,19.177192765099914,-73.56745572497971,-8.677025164232969,-77.51114361265138
-5.501313098125,-176.04201914,4.310710415158522,-1.7061144328125,19.9999999,0.8277414336370366,0.5400999999999998,12,32,281.5870811995539,730.991765,mp-1175492,Li9Co7O16,https://materialsproject.org/materials/mp-1175492,13.806718069633893,-75.01507914505325,-9.39281149742346,-79.11589311888801
-5.7437272125,-183.79927080000002,4.143618711247743,-1.808378249122499,23.8172336,0.9579884246257976,0.0,6,32,289.74001766880065,723.001465,mp-1100568,Li9Mn2Co5O16,https://materialsproject.org/materials/mp-1100568,17.255213467685508,-77.5223522553172,-13.886950230363269,-82.42129985622383
-5.797127153125,-185.5080689,4.217496285308694,-1.8617781897475,20.000000699999998,0.8187925441186336,0.7088999999999999,1,32,284.66466296408834,723.001465,mp-1176075,Li9Mn2Co5O16,https://materialsproject.org/materials/mp-1176075,13.610610299703,-75.44555843684152,-9.92869240775205,-81.39413318522611
-4.783587753137256,-243.96297541,4.241723147921422,-1.2347226857843143,0.0,0.0,0.8969,1,51,460.73085051181823,1176.9026,mp-759703,Li12Ni11O28,https://materialsproject.org/materials/mp-759703,25.240908426023694,-72.69974317561653,-5.14280499569842,-73.211111853448
-5.7872745471875,-185.19278551,4.222218686034008,-1.8519255838099988,16.0000005,0.6557674853379559,0.2083000000000004,1,32,284.34627571065215,723.001465,mp-1175621,Li9Mn2Co5O16,https://materialsproject.org/materials/mp-1175621,21.1218269319922,-79.2427173065437,-10.536923054570137,-88.39031037354741
-5.7950584765625,-185.44187125,4.252491835911942,-1.859709513184999,22.0000016,0.9081453439397464,0.3839000000000001,2,32,282.32203727493624,723.001465,mp-1175611,Li9Mn2Co5O16,https://materialsproject.org/materials/mp-1175611,20.254443231463746,-72.59059262049206,-9.22776346754183,-77.29789348484681
-5.7624691,-184.3990112,4.168724287461695,-1.827120136622499,22.000033399999996,0.8902575642987323,0.0,6,32,287.9950977378533,723.001465,mp-1100570,Li9Mn2Co5O16,https://materialsproject.org/materials/mp-1100570,19.662716778425754,-82.26242237186231,-14.712650293007366,-81.05065945353931
-5.7729167171875,-184.73333495,4.188657003030105,-1.8375677538099997,20.0000003,0.8131936161521722,0.0,2,32,286.62460491302846,723.001465,mp-1175683,Li9Mn2Co5O16,https://materialsproject.org/materials/mp-1175683,19.575761322851207,-82.55455309056413,-13.046824505201403,-83.10410359111594
-5.49771546142857,-153.93603292,4.285093558243061,-1.7173740358035714,9.00000015,0.4275096998987688,0.2845999999999997,2,28,245.3431693502705,633.11877,mp-1174298,Li4Co3O7,https://materialsproject.org/materials/mp-1174298,19.192704048698612,-78.63630066040274,-9.052822824592893,-80.65237243778215
-5.892461040892857,-329.97781829,5.1932341010300425,-1.7879898930357143,0.0,0.0,0.7363999999999997,212,56,563.3194744673847,1761.74714,mp-757613,Li2Co3SbO8,https://materialsproject.org/materials/mp-757613,19.972635230047548,-69.20137024500475,-8.564349651457839,-74.06795695459577
-6.70176596,-80.42119152,3.5085860025859703,-2.870447560208333,1.9999999,0.2221149430535821,1.983,12,12,104.93723681657093,221.7239772,mp-755151,Li3Al2VO6,https://materialsproject.org/materials/mp-755151,20.124889569786294,-71.87419602019266,-12.142334335048867,-75.0616989431413
-5.7913091515625,-185.32189285,4.1823126976784195,-1.855960188185,24.0000002,0.9743542986796194,0.6406000000000001,5,32,287.0593964138848,723.001465,mp-1175780,Li9Mn2Co5O16,https://materialsproject.org/materials/mp-1175780,17.68553218262228,-76.83486306664473,-14.23235583107399,-81.77904595351332
-6.8337131,-82.00455720000001,4.051860963415419,-1.6692672894066665,13.0000009,1.0603059157762242,0.0,166,12,142.88598250536288,348.654335,mp-756562,Mn3FeO8,https://materialsproject.org/materials/mp-756562,18.44021445774889,-69.75779709196979,-11.210713678957195,-71.05762900467641
-5.5236045134375,-176.75534443,4.266929878912744,-1.728405848125,22.000000399999998,0.901268198652794,0.6409000000000002,2,32,284.4762857950467,730.991765,mp-1175429,Li9Co7O16,https://materialsproject.org/materials/mp-1175429,18.864900293063236,-73.77169438483723,-9.005320031997732,-77.85881773447508