energy_per_atom,energy,density,formation_energy_per_atom,total_magnetization_uB,total_magnetization_T,band_gap,sgr,num_sites,cell_volume,weight,mp_id,formula,URL,tsne_xrd_lin1_0,tsne_xrd_lin1_1,tsne_xrd_lin2_0,tsne_xrd_lin2_1
-5.445423653181819,-119.79932037,5.57707475729338,-1.8155357137784092,1.9999997999999999,0.031037468945263408,0.055600000000000094,167,22,750.9673954217026,2522.19382,mp-1190418,Ba4USe6,https://materialsproject.org/materials/mp-1190418,2.8253895847868256,3.2412538308259395,4.393572916094263,12.713000279647687
-8.014124232,-160.28248464,8.191745559872832,-3.0774215314420004,3.99999975,0.2068764934694964,0.3985999999999996,62,20,225.33375056260837,1111.61298,mp-21125,LuMnO3,https://materialsproject.org/materials/mp-21125,-9.307008077937617,44.798806366934116,-2.9486390400096685,63.50842671271471
-6.909830547857143,-290.21288301,7.341419535317565,-3.190709518050595,0.0,0.0,0.10210000000000008,176,42,530.8690777781517,2347.0286,mp-17648,Yb5Si3SO12,https://materialsproject.org/materials/mp-17648,-0.9389290476592356,47.57579764416274,-3.0294526426777804,62.94800942861248
-9.2149828075,-36.85993123,10.62565402012862,-1.3497314740513389,4.376102599999999,0.6053477398561519,0.0,166,4,84.24807725206972,539.096582,mp-1216657,U2PS,https://materialsproject.org/materials/mp-1216657,31.37584196491176,63.44578490481536,-14.661882412092993,35.083335358032265
-9.208779224444443,-82.87901302,5.935303716452537,-3.812929255092593,0.0,0.0,2.9199,12,9,118.55906712913122,423.76845999999995,mp-5274,ThTi2O6,https://materialsproject.org/materials/mp-5274,16.053974405082805,-0.5266643513633554,48.26687477680768,1.1602447070118318
-6.8245208069230765,-88.71877049,5.479074799698294,-2.2864527097115377,16.999999399999997,1.0252118216424766,0.0,216,13,193.24698560700585,637.6331200000002,mp-1214409,BaHoFe4O7,https://materialsproject.org/materials/mp-1214409,7.836856802493359,57.200518281527735,-9.038077030565466,51.996958536680545
-7.144685952000001,-71.44685952,8.69406693802774,-0.617917654,0.6879664000000001,0.04499529126902933,0.0,115,10,178.18764499171718,932.9351949999999,mp-1227056,Ce2CoGe4Ru3,https://materialsproject.org/materials/mp-1227056,-49.10649766466772,29.266499806964408,-50.369940935598564,19.34236366296883
-6.391347414,-31.95673707,5.70507928870166,-0.25817240899999944,6.825952799999999,0.9117383134468324,0.0,119,5,87.25101807435901,299.7665,mp-1225144,EuCuSi3,https://materialsproject.org/materials/mp-1225144,-9.848434906543424,49.73085201239597,-8.762795916760446,58.49485747802744
-5.817677366666668,-69.8121284,4.877125819305532,-2.9022777261683337,4.9999995,0.3726042907542064,0.9963,97,12,156.3865996223992,459.31899488,mp-1210079,NaGdCu2F8,https://materialsproject.org/materials/mp-1210079,24.311751025988606,60.83997852124217,-11.341339061004353,7.540712618376119
-6.8086341936363635,-299.57990452,3.74551380290006,-2.8666909918668835,0.0,0.0,4.4518,14,44,579.8406708111829,1307.8892959999996,mp-558616,SrZnP2O7,https://materialsproject.org/materials/mp-558616,16.197426250438053,21.369123200794984,41.102037362595965,11.561695112402784
-7.924200773,-316.96803092,4.972758574431602,-3.1576616878416672,0.0,0.0,2.5575,26,40,472.4662869717086,1414.87837568,mp-676988,Na3HoTi2Nb2O12,https://materialsproject.org/materials/mp-676988,-21.14615189169108,46.66997469951353,-4.1666198986065,68.33991899992421
-5.619219737777778,-101.14595528,4.812689420439222,-2.244475712256945,0.0,0.0,1.4558999999999995,140,18,442.2445676593924,1281.74388,mp-16452,BaLa2ZnS5,https://materialsproject.org/materials/mp-16452,-8.319488400141756,8.841409516590717,-0.5078914124338026,20.16718837790439
-2.9379733983333334,-17.62784039,3.245992829410381,-1.105478906584052,0.00461645,0.0002590339642846561,1.8869999999999998,194,6,207.6963438669424,406.0012,mp-1071288,Rb2S,https://materialsproject.org/materials/mp-1071288,-35.495906176276144,46.24641601333668,-20.34732180131713,74.06571482609074
-6.519179541071429,-182.53702715,5.462346331878992,-2.333804915044643,9.1475574,0.19864491979386725,0.0,166,28,536.6672682137175,1765.368,mp-556877,Ba7Ru4Br2O15,https://materialsproject.org/materials/mp-556877,-17.672764667812725,19.10708859860215,-14.696923385885725,47.476050459678525
-5.515906342222222,-49.64315708,10.043562097848994,-0.9309228122222224,1.4033333333333332e-05,8.403087163164343e-07,0.0,189,9,194.62534716824416,1177.167,mp-1079874,ErSnPd,https://materialsproject.org/materials/mp-1079874,-42.56288302807592,15.166978360833335,-40.61800867438691,18.96873430595269
-9.266560885,-111.19873062,6.1674759749662496,-3.5084040637950022,20.999999600000002,1.1133135129838518,3.0266,38,12,219.8260891545268,816.4650700000002,mp-1222917,LaGd3(ClO)4,https://materialsproject.org/materials/mp-1222917,-6.326156408228855,11.59865311369108,8.434633334764692,32.0461197697918
-8.1972992565,-163.94598513,4.717482462647632,-3.1951456947500008,0.0,0.0,4.9866,72,20,202.29594258486645,574.7094999999998,mp-11112,Tb(BO2)3,https://materialsproject.org/materials/mp-11112,20.357998495050442,-2.875483095998306,16.26222764629543,-23.84002680137888
-5.308698914,-106.17397828,7.431866902647053,-1.5640465292500003,0.00182225,5.5539144607920166e-05,0.0,139,20,382.3721031664656,1711.335,mvc-10756,BaTl(BiO3)2,https://materialsproject.org/materials/mvc-10756,34.777836583642305,31.64070328966751,15.195208080827685,14.551576774684934
-6.691327368333333,-40.14796421,5.5442046461384376,-1.7632544022933334,6.99999925,0.7227651465072389,0.3109000000000002,129,6,112.86992055662472,376.84988,mp-1070860,EuHCl,https://materialsproject.org/materials/mp-1070860,-7.5374179732916895,10.265167467729102,-22.324996075581574,-4.870905709908876
-7.38382056,-88.60584672,9.107196817477746,-0.6868526237351192,0.0,0.0,0.936,14,12,184.71662591341428,1013.075048,mp-1102534,POsS,https://materialsproject.org/materials/mp-1102534,5.011207098118064,15.902765003850096,3.5453331645836617,32.77166729324635
-6.170305534,-30.85152767,6.638104799183504,-0.5423177560000007,2.7000000000000004e-06,3.153664599308664e-07,0.0,139,5,99.77590797958996,398.8602,mp-568961,Ba(FeAs)2,https://materialsproject.org/materials/mp-568961,-17.12231212562336,32.34319267033302,-17.418860087591785,55.385481210769704
-6.798884486413042,-625.49737275,6.699189975008711,-2.1697107191385867,15.9987617,0.15760399148155324,0.0,8,92,1183.0322530528695,4772.7621084799985,mp-1173873,Na16(WO3)19,https://materialsproject.org/materials/mp-1173873,-11.077581463456486,50.74259838918086,10.482546768065081,35.95990067992073
-5.024082691818182,-110.52981922,3.3287909156531046,-3.3411220224563323,1.925e-05,6.059196207803882e-07,5.6909,65,22,370.2483616273008,742.2164448,mp-1223349,KRb2SiF7,https://materialsproject.org/materials/mp-1223349,5.9126845017859555,-21.46282704587899,9.954069023462203,-10.614873850727284
-8.361156817391304,-384.61321360000005,4.72209170757046,-3.1017536079239134,0.0,0.0,1.9272,127,46,649.5930345952735,1847.2543,mp-1211647,K2PrNb5O15,https://materialsproject.org/materials/mp-1211647,9.705699937330658,32.83744646654679,31.707738554282194,36.438465277461795
-5.943202266923077,-77.26162947,7.166137092852316,-2.1920697329807703,1.3500000000000001e-05,7.873268064458554e-07,0.0,25,13,199.82791534785045,862.3670999999998,mp-1228402,Ba2NdTlCu2O7,https://materialsproject.org/materials/mp-1228402,-19.497268435636748,35.97837324923833,6.421926518912388,56.56560119982173
-5.5520050975,-44.41604078,7.633476389676153,-2.2466538715300004,0.99997375,0.13000006216752294,0.0,11,8,89.64425600306205,412.09348,mp-632348,YbHO2,https://materialsproject.org/materials/mp-632348,0.5551884151926496,13.815748195138097,6.587008010986278,32.7765411728866
-3.6495305875,-29.196244699999998,5.973277296273358,-2.0834726896425,4e-06,3.213758419268301e-07,1.3237,148,8,145.05215703441772,521.7804192,mp-35659,HgPbF6,https://materialsproject.org/materials/mp-35659,-7.83131869490825,-27.649907545459676,15.823682543965699,-16.957095700703753
-7.584339143333334,-68.25905229,5.9515565530744565,-2.8248526908333336,0.0,0.0,0.9379,148,9,118.80307767907246,425.80344,mvc-15457,La2CrO6,https://materialsproject.org/materials/mvc-15457,-7.46598214873337,8.990497324868633,5.531483236836205,24.91341073971144
-3.319500355,-13.27800142,6.954882078596157,-0.03550513833333335,2e-07,2.2516189192462812e-08,0.0,123,4,103.51720420310585,433.564,mp-1223863,InCuTe2,https://materialsproject.org/materials/mp-1223863,-34.76770920420414,-31.464604228379336,-60.06579338039203,8.624650415749544
-7.773112397999999,-38.86556199,7.117538091773612,-2.798313639942001,3.9999992,0.7888406639740216,0.0,221,5,59.09463329659454,253.29624500000003,mp-1075973,SmMnO3,https://materialsproject.org/materials/mp-1075973,-29.097470242206068,54.16928727512163,-17.444433479150018,66.64748894005409
-6.433911006000001,-32.16955503,7.981414493575702,-0.6458554452500009,2.0469733,0.3938162132349388,0.0,221,5,60.575361359408426,291.1567,mp-972116,VIrO3,https://materialsproject.org/materials/mp-972116,-10.046533877843274,51.49633512275739,10.43230580936267,35.34153114017968
-6.2624249121428575,-87.67394877,7.164963867651283,0.00015810006857159517,0.0,0.0,0.234,227,14,191.04142592859245,824.3136,mp-16031,Sn3N4,https://materialsproject.org/materials/mp-16031,7.7814076086914525,57.21077044021933,-12.486729653027005,59.168389047030686
-7.347706393928571,-205.73577903,7.328682382347883,-2.4420758109642864,0.0,0.0,2.7619,8,28,391.4198784507527,1727.50648928,mp-1221019,NaNb4Bi5O18,https://materialsproject.org/materials/mp-1221019,17.22807897200045,55.23776701509792,-0.1689110345400552,38.08436721273503
-8.198323873333333,-49.18994324,8.373805222082273,-3.2178054816666664,0.0,0.0,2.0762,12,6,77.26752945584497,389.64651000000003,mp-634900,SrUO4,https://materialsproject.org/materials/mp-634900,3.2725942536559325,0.2864691733596216,7.174580047066518,24.832701288761395
-6.3284342275,-25.31373691,9.017008275483985,-4.143477059642501,3e-07,8.40309499882028e-08,5.3953000000000015,139,4,41.60632995650705,225.9294196,mp-865194,TmF3,https://materialsproject.org/materials/mp-865194,26.922867930439025,60.21081984818635,-5.771509121154059,-19.55609042200297
-3.4029487739285718,-95.28256567,3.5013259051498324,-1.1659318597413793,3.0018257,0.033560674044936734,0.6409,62,28,1042.3947712400688,2197.93918,mp-23366,Rb2CoBr4,https://materialsproject.org/materials/mp-23366,35.01229894637978,33.43648106354184,34.482927342547114,23.062844905141144
-6.412271437999999,-64.12271438,5.964976782912685,-2.4754274379375003,1.8000000000000001e-06,9.070034311713993e-08,0.8916,63,10,231.28155715480747,830.808,mp-1080801,NdLuS3,https://materialsproject.org/materials/mp-1080801,8.260616806242435,-7.2394112870547405,13.883694997326225,5.191046711445681
-5.971066685384615,-77.62386691,7.058400300560836,-2.2075113852884627,0.0003584,2.0716019416384407e-05,0.0,25,13,201.6225574292486,857.0305699999999,mp-1228434,Ba2LaTlCu2O7,https://materialsproject.org/materials/mp-1228434,-19.52588486242201,35.986817091300715,6.3879718211677625,56.551842222446155
-2.7661182775,-22.12894622,6.550233683502923,-0.5023819741300001,4.2075e-05,2.080542409615949e-06,1.9387,138,8,235.68122093505548,929.678276,mp-1120780,AuCl,https://materialsproject.org/materials/mp-1120780,-12.259124324586418,3.7529175431021096,-27.27282323022343,-10.164321707068078
-5.816032575,-255.9054333,5.516117613099712,-1.572273117840909,0.0,0.0,0.4525999999999999,14,44,641.3048064951864,2130.34,mp-21560,CuAs2PbO7,https://materialsproject.org/materials/mp-21560,35.69519200555615,25.204427095641545,40.0160295728551,12.51130799570494
-7.9599327755,-159.19865551,6.669392059110245,-2.9753847244419998,3.999999825,0.1893670099181419,0.0,62,20,246.16883939250218,988.7129800000001,mp-20852,NdMnO3,https://materialsproject.org/materials/mp-20852,-17.90383519725382,53.830353944174654,12.863489931035275,63.63639698386627
-6.808622609375,-326.81388525,5.296412212344563,-2.3118941693750004,0.0001671,2.968858871283675e-06,1.5118999999999998,64,48,655.9403150924148,2092.1702,mp-1194912,YV(TeO4)2,https://materialsproject.org/materials/mp-1194912,9.56371968015101,18.395301508214253,50.36301360140109,7.388642506949013
-5.619802145,-67.43762574,6.548061852068738,-1.9681490017708343,0.0012408,6.882955591392465e-05,0.0,123,12,210.08945035001517,828.4531,mvc-2577,Ba2TlSn2O7,https://materialsproject.org/materials/mvc-2577,-7.660268798295916,22.257368999657025,5.696377223171535,47.459505164381476
-6.637201582083333,-159.29283797,4.537420971529229,-1.916386208828125,9.92984185,0.2102607505421148,0.05400000000000027,173,24,550.3786122840595,1503.90891,mp-18484,La3MnFeS7,https://materialsproject.org/materials/mp-18484,8.803970301599742,-4.014550860669893,12.465307190053695,5.633971079792688
-3.99680359,-15.98721436,3.1024449975564887,-0.4725009984049997,0.0,0.0,0.6421000000000001,156,4,76.9106694897723,143.69497859999996,mp-570485,SrAlSiH,https://materialsproject.org/materials/mp-570485,-54.17491449209167,25.61861515286057,-52.26088835901618,29.797489224587174
-6.610059990769232,-85.93077988,7.344014623948727,-2.3227272203296705,0.0,0.0,3.2200000000000006,166,13,183.49614547817558,811.5427239999998,mp-22750,P2Pb3O8,https://materialsproject.org/materials/mp-22750,-14.397112436456954,18.68996020033172,-0.6626624954021725,20.433824366607798
-8.528514160681818,-375.25462307,3.96860113474167,-3.6766678907954553,0.0,0.0,5.1098,62,44,579.0562334131237,1383.914,mp-17404,Y2Si2O7,https://materialsproject.org/materials/mp-17404,8.73912800803704,13.19390573330987,28.561253434166602,37.69537126385538
-5.091958867142857,-71.28742414,5.088285821701612,-1.3737550889136911,0.0,0.0,1.3907,70,14,203.5083838744789,623.5980000000001,mp-5625,Ag2SO4,https://materialsproject.org/materials/mp-5625,3.66839164196172,22.618222527753247,-0.027266042921625558,17.243847346866467
-5.752911813333332,-51.77620632,8.031141426638326,-1.6574409298611108,6e-07,4.368003113406711e-08,1.6616,35,9,160.08319321188037,774.2369999999999,mp-562283,GePb3O5,https://materialsproject.org/materials/mp-562283,23.823738272451443,63.693087394490654,-8.552581125052765,36.92946307249821
-4.573753700666667,-137.21261102,3.0325871947727943,-1.496681044887931,10.000000199999999,0.14329015631848904,1.2593,147,30,813.3193029490219,1485.33798,mp-752494,Rb6Co2O7,https://materialsproject.org/materials/mp-752494,7.045271082204446,-28.184099085704037,16.98261132721869,-18.726626188501648
-4.6973312525,-18.78932501,4.785526898413819,0.01226464392857185,1.115e-05,1.250916383666936e-06,0.0,164,4,103.87810401293669,299.367524,mp-1218948,SnP,https://materialsproject.org/materials/mp-1218948,-30.125316292698802,-17.603554920363315,-30.393136248198005,-22.978567387342444
-8.1476556635,-162.95311327,6.5483124965423345,-3.1303294857499986,3.000000175,0.1430799259850759,2.2775000000000003,62,20,244.35430837996918,963.6078,mp-1105822,PrCrO3,https://materialsproject.org/materials/mp-1105822,-24.57331448321675,49.7329212982899,-7.476408586529536,63.36131280842541
-5.694347542894738,-216.38520663,5.725882160791168,-0.6210654899999998,0.8548234,0.01492534266139531,0.0,194,38,667.4665700283749,2301.5628264,mp-1209381,Pr3(Al3Ru)4,https://materialsproject.org/materials/mp-1209381,-37.92330147935494,2.353114879359806,-27.113290380323203,13.001606227572394
-8.338564902857142,-58.36995432,8.034349773609069,-2.4669677935714285,14.000163800000001,1.850427164333024,0.0,139,7,88.17359520900412,426.619,mp-770352,Eu2NiO4,https://materialsproject.org/materials/mp-770352,-23.27782518935414,41.58796407842711,-11.86087039479482,60.01571248401801
-5.0775700025,-20.31028001,6.641898932492215,-0.9481954285416664,3.9855121,0.9345185485160684,0.2345000000000001,166,4,49.70197353383164,198.800195,mp-753001,CoAgO2,https://materialsproject.org/materials/mp-753001,-33.539156269377806,26.547957714612107,-32.82681435290688,37.93248266393536
-7.62909765142857,-160.21105068,6.984457718632374,-2.457981167948572,25.151596100000003,1.063293713656413,0.0,139,21,275.67014298871004,1159.50689,mp-557447,Ba2Eu3Mn2(CuO6)2,https://materialsproject.org/materials/mp-557447,-24.731906136436628,47.80144507628064,-11.529169487202832,65.00671973886793
-5.40167865,-32.4100719,7.297679053444008,-0.8491661949999999,6.445e-05,4.023127390571013e-06,0.0,139,6,186.69666696407197,820.4879999999998,mp-12049,Nd2Sb,https://materialsproject.org/materials/mp-12049,-44.540871150442314,26.670221932411188,-32.84926670516577,31.881714540678573
-7.28492268734375,-466.23505199,3.264619713221077,-2.8496052956249995,4.00064515,0.05822197329157541,3.3825000000000003,130,64,800.7934989876605,1574.36,mp-1264002,ZnFe(Si2O5)2,https://materialsproject.org/materials/mp-1264002,20.292961837786496,-4.706928450056791,50.28153213264296,1.1966588747969558
-2.934089844,-29.34089844,3.3305766113324475,-0.30251936586337924,0.0,0.0,2.1454000000000004,225,10,160.45600966922373,321.8298516800001,mp-989642,Cs2NaAlH6,https://materialsproject.org/materials/mp-989642,-24.523777496485373,9.516834901286867,-13.164819530314928,-22.65406768135589
-7.680008751153847,-199.68022753,4.60060758805587,-2.4826467889423087,10.99984175,0.32764607542620305,0.0,186,26,391.25409353874505,1083.9893,mvc-1316,BaYV4O7,https://materialsproject.org/materials/mvc-1316,7.943953465521983,55.003778475736866,-4.120816161757641,60.831442249490955
-8.1401068596875,-260.48341951,4.1695682609390765,-3.1202474910326856,0.00024700000000000004,5.90061191736064e-06,2.701,62,32,487.83991205268563,1224.95272,mp-1219566,RbTiNbO5,https://materialsproject.org/materials/mp-1219566,-0.5416248894643405,16.560404520815364,21.52938520061769,35.14426180226917
-6.94725547,-277.8902188,6.7709220291072025,-2.6944581210000007,0.0,0.0,3.1175999999999995,217,40,638.8991029365598,2605.1396,mp-772087,Er3Sb5O12,https://materialsproject.org/materials/mp-772087,25.21103101888836,64.7596617290059,-7.5512849095796515,34.638256202269396
-4.118208289375,-65.89133263,5.535808994901428,-0.6383033611979165,0.0,0.0,1.4887000000000006,40,16,374.25593900625574,1247.6727999999996,mp-861942,Ag2GePbS4,https://materialsproject.org/materials/mp-861942,29.841305672965323,26.990001869000487,33.865890231068214,37.066590979854034
-8.8381101875,-388.87684825,5.0639664820403585,-3.29112807943182,11.999873525,0.2258429926853417,0.0,62,44,619.2235661600448,1888.3792,mp-21599,Eu2Si2O7,https://materialsproject.org/materials/mp-21599,8.223079758612549,13.159189783588099,23.442740187559266,35.49127559805972
-5.8480182522222215,-105.26432854,6.502178633605566,-2.1878139995138883,6.68e-05,2.2542863569220193e-06,0.0,38,18,345.33834817238227,1352.2426,mp-755667,Ba4Bi3O11,https://materialsproject.org/materials/mp-755667,-18.56878304749995,-50.98931036336845,-12.33661127934776,28.41622846022259
-6.720447773636362,-73.92492551,6.587585007377363,-2.6356463052272727,3.21e-05,2.499070731985325e-06,0.0,107,11,149.69383395642237,593.85587,mp-1218164,SrLaNd(CuO3)2,https://materialsproject.org/materials/mp-1218164,-24.61329298515336,47.117367647961494,-14.111085642045948,60.41803481096466
-7.31948879826923,-380.61341751,4.898741600252515,-3.0953183826546162,0.0,0.0,3.1501,136,52,968.1170687853473,2856.0336399999997,mp-555073,La3As2ClO7,https://materialsproject.org/materials/mp-555073,7.9747961412765225,18.813804609456245,0.7831360566595261,34.6073855484359
-6.060606464375,-290.90911029,7.271859917049437,-2.3247087880468755,0.0,0.0,1.9294999999999995,150,48,836.3123456154946,3662.3928,mp-29787,Ba5Pt2O9,https://materialsproject.org/materials/mp-29787,-14.651180918062053,16.08119183139182,-14.440027218537749,26.01420872393741
-5.389410995,-21.55764398,9.138931146349076,-0.8389487575000008,5e-08,6.6376321869016494e-09,0.0,63,4,87.78781683291523,483.14842000000004,mp-998911,TmGe,https://materialsproject.org/materials/mp-998911,-32.845240676347,21.707216404805717,-39.987180174238965,24.650075433154587