energy_per_atom,energy,density,formation_energy_per_atom,total_magnetization_uB,total_magnetization_T,band_gap,sgr,num_sites,cell_volume,weight,mp_id,formula,URL,tsne_xrd_lin1_0,tsne_xrd_lin1_1,tsne_xrd_lin2_0,tsne_xrd_lin2_1
-3.150900103,-94.52700309,7.160589637200697,-0.2847179063333333,0.0,0.0,0.22270000000000006,225,30,482.3135914847791,2079.836500000001,mp-1207426,Zr6Zn23Si,https://materialsproject.org/materials/mp-1207426,-44.00014580018921,-37.760063665856364,-60.697476291910604,-31.04960315289637
-5.397492528333332,-64.76991034,2.0473834075093538,-1.0930518440624997,0.000121025,1.4587265594295226e-06,0.9820000000000002,46,12,966.8934729279404,1192.144,mp-1080269,CeSe2,https://materialsproject.org/materials/mp-1080269,40.26289587455901,-30.75527787647389,4.7606727858686035,-53.10694987015349
-7.975174624583333,-191.40419099,10.23569938347511,-0.5998755781944437,1.275e-06,5.841093001850053e-08,0.18039999999999967,55,24,254.38616677233745,1568.05728,mp-976384,HoB4W,https://materialsproject.org/materials/mp-976384,-37.20396551115025,-11.525252573655283,-38.1366390003576,-11.455214228129904
-6.414191275,-25.6567651,11.270860378596199,-0.6485987633333341,3e-07,4.688448355450863e-08,0.0,123,4,74.57092766529351,506.148,mp-1224492,HfInPd2,https://materialsproject.org/materials/mp-1224492,-79.71725725434091,10.822243959522073,-74.94036031578473,-5.2014989524083495
-8.115920415172415,-235.36169204,7.9755527880805825,0.12385828724137972,14.931177100000001,0.3874535895571843,0.0,44,29,449.1090281363311,2157.066275,mp-1219945,Pr4Ho2Mn23,https://materialsproject.org/materials/mp-1219945,-57.046950959356394,-16.910686565881438,-52.590768165388745,-13.612532569076631
-3.14040006,-69.08880132,2.1614609256997013,-1.258231825134805,0.0,0.0,2.4632,67,22,720.2494724434296,937.521524,mp-569653,SnPCl9,https://materialsproject.org/materials/mp-569653,41.226706985801954,-18.645852136809626,13.891068320575222,-42.02167811047837
-7.897127353333333,-23.69138206,4.6468354310627245,0.0,3.3333333333333334e-08,7.57019227344465e-09,0.0,191,3,51.31558244758102,143.601,mp-72,Ti,https://materialsproject.org/materials/mp-72,-38.814918827533596,-63.16243692177575,-53.404144951008156,-33.601159883951205
-10.246202675,-40.984810700000004,8.113988703829715,-1.2133969961899993,0.0,0.0,0.0,194,4,43.75982015918985,213.82616000000002,mp-2701,NbN,https://materialsproject.org/materials/mp-2701,-70.8840955763338,-0.3304940343757204,-76.85239099658617,-9.172407320618667
-7.136900036111111,-128.46420065,7.660345554248378,-0.4846297204629637,0.0002575,1.6122257037487207e-05,0.0,86,18,186.1353327860006,858.67356,mp-1105839,Sm(CoB)4,https://materialsproject.org/materials/mp-1105839,-49.94780499746595,-6.1430281259254045,-59.774129136879864,0.9760808346372832
-8.890142535555556,-80.01128282,6.768172673324129,-0.4984224705555549,1e-07,9.152981510072602e-09,0.0,189,9,127.32533939607241,518.9639400000001,mp-9916,NbCrSi,https://materialsproject.org/materials/mp-9916,-56.701003557410424,-27.80934455571513,-63.6533686986967,-17.092977904826604
-5.006511976875,-80.10419163,5.385565013164009,-1.2545306749999998,5.599106,0.4536091237538545,0.0,166,16,143.8514804385549,466.5482,mp-771644,Li3Cu5O8,https://materialsproject.org/materials/mp-771644,-9.436709648577667,-64.34146486320907,-26.215416995703386,-63.70745376663577
-7.17824074,-28.71296296,6.818545553567513,-0.4164164399999999,2.0155382,0.4926311595456426,0.0,225,4,47.68113481906554,195.78942859999998,mp-4955,AlVCo2,https://materialsproject.org/materials/mp-4955,-50.49857065177493,-51.769767274937685,-70.4540271059527,-44.28061335657689
-5.994548125,-95.91277,4.1347333033491545,-2.6618675109375003,7.000000599999999,0.5227178441230211,1.4249,123,16,156.06595664860694,388.60339500000003,mp-1032577,Mg6FeCoO8,https://materialsproject.org/materials/mp-1032577,-29.68022241449901,-69.36930638534325,-46.765853734249994,-66.99365674224748
-7.235042162,-36.17521081,8.567437298807185,-0.7627671419999998,1e-07,1.7079597705241275e-08,0.0,139,5,68.23383649711708,352.0478,mp-571147,Hf(SiNi)2,https://materialsproject.org/materials/mp-571147,-38.10151892647785,-16.78166340136089,-58.63062568270194,19.252295399043017
-5.00657549675,-200.26301987,4.183657005699264,-3.209572330583,1.999999925,0.03926021554587668,0.8300999999999998,14,40,593.6831560139633,1495.7592895999999,mvc-10392,BaCaCuF7,https://materialsproject.org/materials/mvc-10392,11.078387388812706,-13.325816177398355,15.758060711877306,-8.241502307475104
-6.123021021666666,-73.47625226,3.4987699816744953,-2.6085991622816658,2.0000001,0.21201058925867705,0.03739999999999988,10,12,109.93852142964093,231.64140640000002,mp-759119,Li2VO2F,https://materialsproject.org/materials/mp-759119,-7.855699489426155,-64.5913397208304,-25.297884297195285,-62.29270870954824
-5.6131720886666665,-84.19758133,4.725527972766204,-1.5812242993333343,5.0,0.4312158912995836,0.8104999999999998,2,15,135.13027937626643,384.55098,mp-764781,Li3(CoO2)4,https://materialsproject.org/materials/mp-764781,-9.4439010944562,-65.56047282956838,-28.369407299778185,-61.62948210122963
-5.81263492625,-139.50323823,10.044828054643542,-0.5166548029166668,7.75e-06,2.6744473509286365e-07,0.0,194,24,337.7108992479383,2042.8594772,mp-1192322,Lu3AlNi8,https://materialsproject.org/materials/mp-1192322,-62.598747487965184,-15.436493440603027,-52.70422545676471,0.5940844872764282
-4.755089405714286,-66.57125168,3.1381284494305786,-2.7685316647064293,2.0000044999999997,0.19124099323109944,1.9476,71,14,121.8785867747758,230.3292192,mp-753281,Li6NiOF6,https://materialsproject.org/materials/mp-753281,-9.11929980945932,-65.37644622413093,-26.382421931478586,-61.46856036040348
-8.24181119,-49.45086714,7.864062752447638,-0.32443914333333385,0.00033130000000000003,4.4577185382716085e-05,0.0,166,6,86.61362591649963,410.18908500000003,mp-1215478,Zr2VCo3,https://materialsproject.org/materials/mp-1215478,-74.09406599753306,-18.87192921787762,-67.34697367707761,-6.020340589769557
-6.4014613478125,-204.84676313,7.794194387515367,-0.07752649718749982,1.000013775,0.025900014795952,0.0,118,32,449.9698320297258,2112.05654,mp-1097859,Mn3Ge5,https://materialsproject.org/materials/mp-1097859,-64.59367783519767,-26.316002053020142,-61.90585454196077,-13.033960103310992
-5.254239495,-42.03391596,5.160240119300797,-2.153667267332975,0.00509745,0.0002550079511879099,2.3277000000000005,194,8,232.95749092587852,723.9315437999999,mp-1078726,CsHoS2,https://materialsproject.org/materials/mp-1078726,-2.6789709916415245,-25.36585409491715,11.728835687072506,-12.440169028480868
-4.864811409583333,-116.75547383,5.338932902029082,-1.2288562122916662,2.999999875,0.16307719687724134,0.0,15,24,214.39044532534646,689.304,mp-757063,LiNi2O3,https://materialsproject.org/materials/mp-757063,-9.716085885729946,-64.34138443862118,-26.88380446956491,-62.5133104368001
-6.4483904658333335,-154.76137118,7.6146318306635505,-0.3313848358333331,0.08143116666666668,0.002735880869058309,0.0,160,24,346.87332389771944,1590.635685,mp-1216367,Y2CoNi5,https://materialsproject.org/materials/mp-1216367,-62.9874918616828,-16.527340249087537,-61.33171146294235,-6.1369842602018
-11.71449682,-105.43047138,16.53649656070122,0.00041178708333373184,9.966666666666666e-06,1.0154780981639782e-06,0.0,162,9,114.3817666868959,1139.0721,mp-567397,W2C,https://materialsproject.org/materials/mp-567397,-70.09416853876449,2.2706550050012697,-68.69038763509631,10.993400703149504
-5.909491925833334,-70.91390311,10.089407821250235,-0.4339467670833344,0.3947211666666666,0.027135622201461082,0.009199999999999877,166,12,169.5227774502984,1030.0176,mp-1051,ErNi3,https://materialsproject.org/materials/mp-1051,-63.37744194705525,-16.200458458517847,-53.18411289183497,1.0023408982645363
-8.767730603809524,-184.12234268,8.455629871939834,-0.655047555952381,11.655874699999998,0.5115646189013416,0.0,174,21,265.53501496325543,1352.130694,mp-17988,U2Mn12P7,https://materialsproject.org/materials/mp-17988,-62.8786800320464,-29.52105942107209,-65.05193544215476,-17.56305150042546
-7.359953990277778,-264.95834365,8.17555654246582,-0.6869122954365091,2.29989905,0.060513116928659336,0.0,62,36,442.93161316822494,2180.745144,mp-1197850,YbFe5P3,https://materialsproject.org/materials/mp-1197850,-64.59551090106413,-28.975925846154407,-64.93709978060555,-15.390344414973386
-7.522051996315787,-142.91898793,8.111287631343957,-0.027762598157895158,30.3090239,1.3502471544639283,0.0,166,19,261.5990165621905,1277.8410000000001,mp-1188910,Sm2Ga2Fe15,https://materialsproject.org/materials/mp-1188910,-53.46983282729018,-23.968385456159574,-55.93908351174464,-11.466201116420605
-5.8880823504999995,-117.76164701,3.9070705208853935,-1.931043614971,7.00000005,0.4470265423016044,0.01670000000000016,12,20,182.4912981018941,429.38248,mp-1174240,Li3MnCoO5,https://materialsproject.org/materials/mp-1174240,4.542253200079677,-71.93775466247942,-23.14585210394091,-76.46653390017316
-6.589288371944446,-237.21438139,8.684952735662282,-0.8211879848809526,3.1540904,0.08157951870822264,0.0,189,36,450.57845893375884,2356.615849,mp-1207639,Yb5Co19P12,https://materialsproject.org/materials/mp-1207639,-64.02597604252404,-29.21010808120448,-65.67410635391272,-16.795997870332588
-5.253235223333333,-47.27911701,5.272203952160346,-3.47693026746,1.9999983000000001,0.16543010663394,4.5238,139,9,140.8940017477286,447.33781919999996,mp-556041,Ba2NiF6,https://materialsproject.org/materials/mp-556041,-9.446728417815722,-29.789826537225892,0.16977735471892794,-22.04857677506997
-4.275884551666667,-25.65530731,8.250185297529535,-0.15386563666666633,5.610000000000001e-05,7.6305377639631e-06,0.0,187,6,85.68112156239901,425.696182,mp-1225311,DyBeCu4,https://materialsproject.org/materials/mp-1225311,-53.102382348495034,-15.04683430239816,-53.59900730549766,-3.4383226321133358
-6.956367974827588,-201.73467127,10.709886677109347,-0.5930336998275867,9.000000000000001e-07,2.6860326266733426e-08,0.0,225,29,390.48886417638016,2518.5144,mp-580092,Hf6Ni16Ge7,https://materialsproject.org/materials/mp-580092,-55.17139030390031,-18.285951587571603,-69.8424903192824,-13.166953653995376
-5.881316013125,-94.10105621,5.068699390757064,-2.2140792669140623,5.0015297,0.2374218901571181,0.6778999999999993,129,16,245.50453644820976,749.3884,mp-505312,Sr2FeCuSO3,https://materialsproject.org/materials/mp-505312,-26.628097732490808,48.017302551019476,-14.078968900222135,62.728093637057114
-6.5936622794444455,-474.74368412,3.481438695770069,-2.554858747893518,13.9999995,0.2541627872224422,1.1997,1,72,641.9385889328051,1345.8701,mp-768407,Li24Ti5Cr7O36,https://materialsproject.org/materials/mp-768407,-9.736770372249252,-68.35862020349161,1.5800240283991276,-81.30967295853652
-4.82689052375,-38.61512419,4.687509996605231,-1.3847038038362074,1.2e-06,4.594985660201272e-08,1.3667000000000002,194,8,304.3508459275378,859.1473,mp-16764,RbYTe2,https://materialsproject.org/materials/mp-16764,-5.960844898568671,-31.521303997244377,-8.640440103368004,-28.72377905678679
-4.3329048725,-34.66323898,8.272417610198673,-0.22316890499999964,2.8999999999999998e-06,2.6975562308575876e-07,0.0,194,8,125.28668523687703,624.149,mp-1184314,Ga3Rh,https://materialsproject.org/materials/mp-1184314,-52.171296291499786,-35.21443591515736,-60.42229378721862,-27.579317554842238
-5.66526282,-90.64420512,4.925779619067733,-1.7971757729166669,2.9999990000000003,0.24037267314094524,0.0,12,16,145.4499057932173,431.4588,mp-756694,Li3Ti(NiO2)4,https://materialsproject.org/materials/mp-756694,-9.358033321998748,-64.23691833838886,-26.172930448957835,-62.84365477221611
-7.20667886888889,-129.72021964,6.527047616121856,-0.3689869522222232,0.003412288888888889,0.00016298684705675002,0.0,147,18,243.9892325786906,959.0436,mp-2716,TiNi,https://materialsproject.org/materials/mp-2716,-42.032765569893314,-36.48456626528985,-62.6962071042444,-30.667274866103824
-5.621196664166668,-67.45435997,3.58666666354909,0.17833322472222216,0.029266200000000003,0.0015342754264897186,0.0,63,12,222.30049739310746,480.156,mp-1094326,MgTi2,https://materialsproject.org/materials/mp-1094326,-48.10443010554386,-31.97921979215921,-57.89763687553405,-27.589889786787662
-7.282115572499999,-203.89923603,14.171949196457374,-0.2735471589285713,0.0,0.0,0.0,176,28,434.18635028253686,3705.5840000000003,mp-28999,Sn4B3Ir7,https://materialsproject.org/materials/mp-28999,-59.08669107816034,-20.092783817528968,-57.83742240921176,-6.430439797261739
-6.952246739666665,-208.56740219,7.949472526056515,-0.6196274973333327,0.0,0.0,0.0,139,30,463.356134073059,2218.21756,mp-22233,Zr4Co4Ge7,https://materialsproject.org/materials/mp-22233,-62.28678873617383,-26.132158246243602,-67.49025091933015,-16.213969158471322
-9.6100038325,-115.32004599,10.393299727136812,-0.8285182232142851,0.00020009999999999998,1.3881589308244928e-05,0.0,62,12,167.99073284815614,1051.452568,mp-1208564,TaVP,https://materialsproject.org/materials/mp-1208564,-51.018152512779615,-7.493241731369352,-58.69845775449489,2.2240067487135224
-5.2153159845833335,-125.16758363,7.056835266789446,-0.8660110261646908,2.00000005,0.03168987500909539,0.0,69,24,735.5071650214114,3125.7036276,mp-1190813,Cs2U(PtSe2)3,https://materialsproject.org/materials/mp-1190813,10.814223134420843,-47.61113553550297,-2.3483377812146653,-48.29358503156102
-4.722718024444443,-85.00892444,4.513615335110977,-0.8098533255555557,0.0,0.0,0.8267000000000002,15,18,564.9686758607163,1535.6768,mp-11692,Ba3(SiAs2)2,https://materialsproject.org/materials/mp-11692,-0.4041597927236869,-15.79875080391254,19.23852635095093,-14.151607476205498
-5.7826893709375,-185.04605987,4.165200276014941,-1.8473404075599988,22.0000001,0.8895036428737361,0.4190999999999998,1,32,288.23875901553095,723.001465,mp-1176237,Li9Mn2Co5O16,https://materialsproject.org/materials/mp-1176237,-2.118033248507173,-76.46672162507235,-19.91865411578848,-77.05388550168766
-7.113614429999998,-85.36337316,10.066667243233882,-0.8927971499999986,1.2338078000000001,0.06048065920120469,0.0,26,12,237.74337462583355,1441.269,mp-1226896,Ce2Ge2IrRh,https://materialsproject.org/materials/mp-1226896,-52.65045900715601,13.589548585988233,-37.52494981943806,20.801774778367285
-9.706100161666667,-232.94640388,12.982035686040154,-0.6209689816666663,4.945e-05,1.2246097925404386e-06,0.0,227,24,470.5935772468084,3679.084,mp-1190626,Hf2Rh,https://materialsproject.org/materials/mp-1190626,-69.8707310249351,-3.1324389675692115,-65.0340534633915,4.7749885176487785
-6.4513099575,-25.80523983,6.994059728572209,-0.488275432500001,1.2e-06,2.5002173045519237e-07,0.0,123,4,55.934648966754224,235.5923386,mp-1215308,ZrAlNi2,https://materialsproject.org/materials/mp-1215308,-49.24961921573489,-35.797908327230765,-59.3649089813992,-30.62364148485808
-8.283990734166666,-99.40788881,12.232425567990573,-0.4212581725000011,4.525e-06,3.1075648580335804e-07,0.0,62,12,169.69764270407632,1250.0843,mp-1095502,TaCoGe,https://materialsproject.org/materials/mp-1095502,-63.40281671579567,-24.923415573028677,-58.452572778052094,0.8662269535460916
-4.693326123333333,-28.15995674,5.617119280352923,-0.5620346716666661,0.0,0.0,0.0,74,6,109.02619604239756,368.803824,mp-11412,ScGa2,https://materialsproject.org/materials/mp-11412,-39.47990177022936,-10.150825113184947,-43.89792846745811,3.826443554310069
-7.00416723,-252.15002028,9.141859502897313,-0.1554331366666667,6.09374365,0.1410917202968122,0.0,194,36,503.33841741441216,2771.05746,mp-1196386,Ce2Co7,https://materialsproject.org/materials/mp-1196386,-63.64270350843225,-16.555874123930895,-53.344458146620006,1.6291716130454386
-5.189372078584906,-550.07344033,4.856887634014759,-0.5616636658254723,0.2105458,0.0008031054826248339,0.0,13,106,3055.2828288144533,8936.35442,mp-1204878,Nb10Se40I3,https://materialsproject.org/materials/mp-1204878,36.42522129561839,-35.241412491524436,2.436907808374592,-53.13062241029909
-5.2447451166666665,-62.9369414,7.2953169479496465,-0.2450234754166676,1.686416,0.12029817052046672,0.0,166,12,163.37406639228396,717.75825,mp-568529,PrMg2Ni9,https://materialsproject.org/materials/mp-568529,-58.92042260832836,-24.743317945672164,-60.18303610410322,-18.91036545433284
-7.334843963181819,-161.36656719,7.8284330511895135,-0.045441560493637734,35.5612524,1.5667389302650152,0.0,166,22,264.5195896120626,1247.0492099999994,mp-1192456,Nd2Fe15Co2H3,https://materialsproject.org/materials/mp-1192456,-52.43006047867561,-23.56930074863713,-55.82477405987228,-11.450019925614395
-9.14942302875,-73.19538423,17.9090630546795,0.41445613999999853,3.95e-06,3.385725695498321e-07,0.0,194,8,135.96363081869643,1466.38,mp-1183851,DyOs3,https://materialsproject.org/materials/mp-1183851,-49.71005954464179,-34.39731800910717,-59.19719087590654,-28.332676208170128
-10.80626102375,-259.35026457,15.419401706418789,-0.43121217541666573,3.71375e-05,9.180461473116716e-07,0.0,227,24,471.43907935164106,4377.68,mp-1191415,Hf2Os,https://materialsproject.org/materials/mp-1191415,-69.99945568887412,-3.0708100793650512,-65.26337960153977,7.2676139987388
-7.922076668095237,-166.36361003,7.547584163682943,-0.7194491759523798,0.37572209999999995,0.017051480962728842,0.0,174,21,256.7923395893353,1167.1883340000004,mp-541196,Ce2Fe12P7,https://materialsproject.org/materials/mp-541196,-63.610062700708426,-30.107917645595126,-65.94055142445579,-17.374032216346052
-5.558620453333332,-66.70344544,7.259879564622588,-0.4055846916666663,4.7e-06,3.2050213349647513e-07,0.0,160,12,170.90090425757796,747.17905,mp-1226870,CeY(MgNi4)2,https://materialsproject.org/materials/mp-1226870,-75.86045439419337,-20.619671108514176,-70.64408094265696,-6.821150861877383
-6.866686452000001,-274.66745808,7.101003077713987,-0.6949898285000004,0.002388075,4.7006512126527e-05,0.0,128,40,592.0622371814916,2531.85,mp-669393,Dy2Fe3Si5,https://materialsproject.org/materials/mp-669393,-35.922370319408095,1.160119811589092,-21.979813154048376,16.097433592775246
-5.6899712292307685,-73.96962598,5.2607798101739975,-0.4261563969230775,5.1631928,0.3168060550551653,0.0,139,13,189.93381712333772,601.7323087999999,mp-5091,Dy(Al2Fe)4,https://materialsproject.org/materials/mp-5091,-47.10892833840783,-23.55792182746595,-46.70246685758778,-24.982312646282672
-4.974503586666667,-44.77053228,7.742953918816063,-0.4137638866666656,1e-07,6.591805794189804e-09,0.0,38,9,176.79623970159898,824.3860000000001,mp-1095027,Dy2CuGe6,https://materialsproject.org/materials/mp-1095027,-46.00159671072553,13.421662698522134,-42.33993553658454,29.31049233979182
-4.981029689166667,-59.77235627,4.3459975014106265,-0.4945747516666674,5.7000000000000005e-06,2.9837491946707175e-07,0.0,166,12,222.63322038674625,582.6803202000001,mp-865990,Y3Al7Cu2,https://materialsproject.org/materials/mp-865990,-34.21548785462879,9.102626360240855,-43.93479234049472,26.746494683599604
-7.434886779375,-118.95818847,5.828839153255933,-0.2445933885416673,0.07838730000000001,0.003247106856916826,0.0,25,16,281.33680590157064,987.551,mp-1217255,Ti13Sb3,https://materialsproject.org/materials/mp-1217255,-48.99088744417212,-33.87091212101321,-57.23899775232514,-25.073428025652145
-6.077127126896551,-176.23668668,9.296089850641652,-0.4392184073399015,14.1371585,0.37205257595499375,0.0,225,29,442.8281686695616,2479.056707,mp-5979,Mn3(P3Pd10)2,https://materialsproject.org/materials/mp-5979,-63.30353040935571,-17.941843963648687,-61.803583897497155,-5.306804460396816
-8.098538198055557,-291.54737513,9.729497993460011,-0.504583303796295,6.829999999999999e-05,1.896520896898764e-06,0.0,142,36,419.7014782528472,2459.132,mp-1196250,Er(BRu)4,https://materialsproject.org/materials/mp-1196250,-58.199340037950364,-12.015088289668029,-57.893286295342634,-1.3846460682590884
-4.847697855,-193.9079142,4.386266485794085,-3.138994251333,2.99999995,0.06534667382944034,1.6007,14,40,535.0263706800097,1413.2568896,mvc-10607,BaMgNiF7,https://materialsproject.org/materials/mvc-10607,11.874501885330774,-17.11974395395046,10.150307867806212,-13.746672712607353