energy_per_atom,energy,density,formation_energy_per_atom,total_magnetization_uB,total_magnetization_T,band_gap,sgr,num_sites,cell_volume,weight,mp_id,formula,URL,tsne_xrd_lin1_0,tsne_xrd_lin1_1,tsne_xrd_lin2_0,tsne_xrd_lin2_1
-6.393384202857143,-179.01475768,3.907914398953564,-2.1325274695807144,10.9999901,0.4952710505994939,0.4469999999999996,2,28,258.83725076954124,609.14787,mp-1174316,Li4Mn3O7,https://materialsproject.org/materials/mp-1174316,0.5672199816607247,-80.5744904806757,-28.60165094181861,-79.09770654137381
-6.349814034375,-101.59702455,4.148882684756737,-2.0301637970550006,14.0,1.0741582650428567,0.20619999999999994,2,16,151.89280027494462,379.50653000000005,mp-1174214,Li4Mn3CoO8,https://materialsproject.org/materials/mp-1174214,5.094374283518996,-77.86951222060225,-28.73473481439683,-76.41309108715019
-5.7641142434375,-184.45165579,4.15125008547443,-1.828765280059999,23.7371848,0.9565270765755726,0.0,6,32,289.2073794374845,723.001465,mp-1100598,Li9Mn2Co5O16,https://materialsproject.org/materials/mp-1100598,4.641517980442019,-70.82218448798528,-21.5969224769598,-74.18711359194842
-5.82699367375,-139.84784817,3.980736999250889,-1.8795948369549995,17.9999992,0.9537690164682434,0.0,6,24,219.941257223475,527.2554749999998,mp-1175179,Li7Mn2(CoO4)3,https://materialsproject.org/materials/mp-1175179,5.3477397591163385,-70.59866697335355,-22.302281985201997,-73.19135076072195
-5.527891532619047,-232.17144437,4.1976843669567545,-1.5027084566666666,5.0,0.1431719492479124,0.0,4,42,406.99539378275324,1028.84555,mp-759802,Li4Co5O12,https://materialsproject.org/materials/mp-759802,8.947928373748232,-67.04968401372703,-4.2882053905757305,-70.03793624037229
-5.929829896999999,-118.59659794,3.9827560511273776,-1.972791161471,6.99999115,0.4556855048304471,1.2405,12,20,179.0233602005807,429.38248,mp-1174099,Li3MnCoO5,https://materialsproject.org/materials/mp-1174099,13.797172279499614,-74.52333641816985,-11.880664472933107,-79.07464753677442
-5.674135653181818,-249.66196874,4.25926221764651,-1.3144121978409102,13.0,0.31031093858760395,0.9288,1,44,488.2291379506276,1252.301735,mp-760219,Li2MgCo13O28,https://materialsproject.org/materials/mp-760219,8.630982297053857,-66.37232347147604,-3.971467082803235,-68.84330497753339
-2.085867865,-4.17173573,8.842334950118461,-0.03511766583333298,0.0,0.0,0.0,221,2,32.54044966234097,173.2772,mp-1912,ZnAg,https://materialsproject.org/materials/mp-1912,-37.31755162577132,-57.031156013145,-49.37291534155993,-42.96595438881645
-8.003159093571428,-112.04422731,3.729332687315016,-3.0787053257142856,2.0314818,0.15755482056679826,0.0,166,14,150.26528795695396,337.4743,mp-756280,Li2Ti3CrO8,https://materialsproject.org/materials/mp-756280,0.7076433687230568,-66.64722558937856,-14.773551968109205,-65.54024790906685
-5.612911716666668,-252.58102725,4.36108865556906,-1.3009241083333345,13.000000300000002,0.3203962498802041,0.4038,1,45,472.8608577539288,1241.878735,mp-771244,Li4Co13O28,https://materialsproject.org/materials/mp-771244,8.972988530564383,-66.93958314333463,-3.953454929214242,-69.77692352994687
-6.340131288125,-101.44210061,4.170352548258192,-2.0204810508050004,13.999999300000002,1.0797168235996526,0.0,12,16,151.1108237751116,379.50653000000005,mp-1174186,Li4Mn3CoO8,https://materialsproject.org/materials/mp-1174186,4.537051510763308,-78.36930404427362,-28.604770933714047,-76.10575722591824
-5.4325615392045465,-478.06541545,4.226009056965268,-1.4558999738863632,6.9999999875,0.08141076674535144,0.0,167,88,1002.0597584766043,2550.20418848,mp-1203207,Na2(CoO2)3,https://materialsproject.org/materials/mp-1203207,8.142820649216484,-54.01422817239952,-5.247918814835326,-55.88426375127902
-6.327964519166668,-303.74229692,3.2079393541808594,-2.078182077483333,10.00000015,0.2656476134788627,0.0,2,48,438.7039203835335,847.5173044000002,mp-757927,LiMn3Al2(HO2)6,https://materialsproject.org/materials/mp-757927,20.446409747739036,-64.47526209345915,-1.640359487328636,-72.2457280241852
-6.349729941666666,-152.3935186,3.2263753747979727,-2.099947499983333,10.000013099999999,0.5343492714737363,0.7898,12,24,218.09854830048835,423.7586522,mp-690617,LiMn3Al2(HO2)6,https://materialsproject.org/materials/mp-690617,20.435862999095065,-64.4743705182416,-1.629210437388093,-72.23106406563176
-6.172919500833332,-148.15006802,3.875106309284036,-2.0386535999516657,18.0000001,0.9427472380577984,0.2027000000000001,1,24,222.51262968814987,519.265175,mp-1175283,Li7Mn4CoO12,https://materialsproject.org/materials/mp-1175283,3.4082313163894526,-78.92498175363345,-28.661716066491962,-78.69389558070112
-2.83538762,-62.37852764,6.457801180746283,-0.23209007712121216,0.00017325,3.9932214557227586e-06,0.0,229,22,505.6235283300917,1966.3592,mp-646824,Ca3Ag8,https://materialsproject.org/materials/mp-646824,-71.70055209814439,0.4715544408188246,-57.21048789340693,-21.89438205758717
-10.7224534075,-42.88981363,11.433273989240622,-0.4424702024999991,3.37e-05,5.775951317117382e-06,0.0,225,4,67.9960687465192,468.17188,mp-1183039,ZrTaTc2,https://materialsproject.org/materials/mp-1183039,-41.283162547686025,-62.29098718186631,-48.460457436135734,-38.65689697695607
-6.699958238333334,-241.19849658,3.2889486538615134,-2.0719700220511115,3.00000035,0.10764299476734608,0.9526,55,36,324.797711845227,643.31098,mp-764236,Li2MnCO5,https://materialsproject.org/materials/mp-764236,17.16179845899966,-50.721501879524496,1.0239790657310672,-43.66518043300814
-7.901435223999998,-158.02870448,3.5990143925562315,-2.8806389402499994,4.999999099999999,0.2514307605480882,0.9751999999999996,2,20,231.7549103662497,502.3003,mp-753240,Li2Ti3V3O12,https://materialsproject.org/materials/mp-753240,6.912900607749778,-59.28483581897758,-5.9579319566753535,-64.4608775987228
-5.827840148214285,-326.3590483,4.175150267724722,-1.6548390110714288,14.000000325,0.2786096006848129,0.0,212,56,585.611228767324,1472.4224,mp-776112,Li2Fe3NiO8,https://materialsproject.org/materials/mp-776112,16.565000611521505,-66.82780342543687,-15.128575369172866,-68.86630254212926
-6.64517463,-99.67761945,3.9387795435653037,-2.337650667111111,15.0,1.1384585977505943,1.8386,166,15,153.55057437643575,364.2202,mp-755163,Li3TiFe3O8,https://materialsproject.org/materials/mp-755163,2.102320239770762,-63.385685396930675,-12.591783362266982,-63.787438850378045
-6.032653334615384,-78.42449335,4.379852770907767,-1.5014474646892308,5.0000007,0.4191582313657673,1.0574,12,13,139.0175061832336,366.67383,mp-755862,LiMnCo3O8,https://materialsproject.org/materials/mp-755862,8.64703405954658,-66.57868831944978,-4.019736010365029,-68.93455828666337
-5.6442652524999986,-67.73118303,2.7003028754209115,-3.146368831626667,2.0000005,0.14155911234588994,2.0665,63,12,164.6530201121913,267.75222560000003,mp-755415,LiVF4,https://materialsproject.org/materials/mp-755415,31.665819867548407,-37.82710800181821,32.27385527784207,-55.279131615780756
-6.7494533226666675,-101.24179984,4.131810368708405,-2.285263333333334,5.000000099999999,0.4021073773505968,0.8081999999999998,148,15,144.9123500596686,360.575895,mp-773242,Li3V3CoO8,https://materialsproject.org/materials/mp-773242,6.780084219858553,-68.24452513133987,-6.700521330342009,-68.3069258030866
-5.681710306666666,-17.04513092,4.4399989831628215,-1.1187687324999989,1.0000001,0.3426845556136087,1.1238,166,3,34.00814465390329,90.931995,mp-1062939,CoO2,https://materialsproject.org/materials/mp-1062939,9.856522212638724,-66.07332950110433,-5.000848689895973,-68.78036516661516
-6.4242908978125,-205.57730873,3.894559376434711,-2.1385661892725,26.000000399999998,1.010854876203548,0.9139000000000004,12,32,299.7519187780661,703.025715,mp-1100493,Li9Mn7O16,https://materialsproject.org/materials/mp-1100493,0.7904084679808258,-80.60392890816594,-29.509643724179266,-77.50055430835573
-5.9291582275,-118.58316455,4.0225399711732575,-1.972119491971,5.999999900000001,0.3944896636913879,0.8508,5,20,177.25277467511555,429.38248,mp-1174072,Li3MnCoO5,https://materialsproject.org/materials/mp-1174072,17.827877106891062,-72.53767176289657,-11.737325419115331,-78.62783692363274
-4.7318023755555565,-42.58622138,3.8977000931443007,-3.045234381425517,0.0,0.0,5.7953,164,9,152.33402264667458,357.56601919999997,mp-7949,Rb2GeF6,https://materialsproject.org/materials/mp-7949,-4.2227677085540325,-25.532221850180868,-9.85794169017429,-27.90929157161529
-8.09382226433735,-671.78724794,3.5116500716117387,-3.2575767775502023,0.0002925,3.771738145661989e-06,0.0,8,83,903.7779968618207,1911.2782,mp-530165,Li13Ti22O48,https://materialsproject.org/materials/mp-530165,-0.6443845645849138,-66.45577664971687,-16.90520501106265,-65.47877470064662
-6.599083571617648,-448.73768287,3.7979623649617618,-2.3037188710858834,11.000001725,0.19786419635880104,1.7765,212,68,647.8925190131611,1481.8509800000002,mp-764142,Li5MnV3O8,https://materialsproject.org/materials/mp-764142,1.250477996847963,-60.646736359356794,-11.648505787740286,-61.115413920350115
-6.355801634545455,-209.74145394,3.3030703028794783,-2.695338937943637,2.999999966666667,0.1031673539086568,0.945,1,33,338.8881521587283,674.1012192000001,mp-761182,Li3V2(O2F)2,https://materialsproject.org/materials/mp-761182,12.084334127668901,-62.00276231616514,-0.6605785202961578,-75.33746281203291
-7.061630340000002,-141.2326068,3.9074234512859625,-2.0696685148940013,16.999999600000002,0.8851628531569542,0.0754999999999999,10,20,223.82219923180512,526.677235,mp-850956,Li2Mn3Cr3O12,https://materialsproject.org/materials/mp-850956,5.0623537395899465,-64.8827861694639,-6.9955888303938245,-65.43634079195142
-5.168963042857143,-144.73096519999999,4.886630899722705,-1.3534515764285715,0.59104205,0.023526723662286805,0.0,59,28,292.7752471139003,861.5784,mvc-6765,Mg(CuO2)2,https://materialsproject.org/materials/mvc-6765,8.782745460014533,-58.643877721779326,-7.284449875725367,-56.28170944992899
-6.4333104953125,-205.86593585,3.930209671698227,-2.1475857867725,25.999981100000003,1.0201073543991934,0.0,2,32,297.0329176806956,703.025715,mp-1100545,Li9Mn7O16,https://materialsproject.org/materials/mp-1100545,3.3677964897669037,-78.90499632560679,-28.83301028745889,-77.36517636545408
-7.051930953333334,-105.7789643,3.8735702977722326,-2.394093342636445,11.9999992,0.9024299355909788,1.0504000000000002,2,15,154.96911442313916,361.499335,mp-755233,Li3TiMn3O8,https://materialsproject.org/materials/mp-755233,5.914337998801511,-64.68246048381408,-6.846573000296117,-65.8587211043637
-5.0622784175,-20.24911367,3.748512482274388,-1.07557740203125,0.0,0.0,0.6705999999999994,164,4,57.590055303828294,130.00419499999998,mp-753946,LiCoS2,https://materialsproject.org/materials/mp-753946,9.141855349029166,-51.361328638733475,-8.92138736846338,-55.202282621481416
-6.398711028571428,-179.16390880000003,3.8671040447564367,-2.137854295295,11.00001685,0.4901001263273838,0.7997000000000001,12,28,261.5688141722996,609.14787,mp-1174410,Li4Mn3O7,https://materialsproject.org/materials/mp-1174410,0.6434616708571186,-80.53884498434746,-29.41725007121775,-77.84150041844266
-6.190838801111112,-445.74039368,3.727960245621981,-2.193222349105,35.0000018,0.6546183092300977,1.2313,1,72,623.0994187996843,1398.8769949999999,mp-770492,Li24Mn11CrO36,https://materialsproject.org/materials/mp-770492,-11.74862165813884,-68.53416705663089,2.8704940378644213,-79.99221731417599
-5.211615404545454,-57.32776945,2.2669305392912853,-3.1147995657572727,1.0,0.07770260747278644,1.9246000000000003,160,11,149.9829304523823,204.75332240000003,mp-759421,Li3VF7,https://materialsproject.org/materials/mp-759421,9.072545255898405,-70.57212752488535,0.2813349147805861,-74.06783139579217
-3.643144446666666,-10.92943334,4.967469680615754,-0.530655041666666,4e-06,6.063561944129173e-07,0.0,187,3,76.87933185109671,229.983,mp-1218272,SrGaGe,https://materialsproject.org/materials/mp-1218272,-53.57907674702898,26.15922027817168,-49.70619979927561,30.971873703029807
-6.549084073214287,-366.74870810000004,4.075922539180434,-1.9696101525,4.500000075,0.09025588049091372,0.6016999999999997,1,56,581.0512518999033,1426.2356,mp-775440,Li2Cr3NiO8,https://materialsproject.org/materials/mp-775440,17.005089477041672,-66.76867806651654,-15.791860361596838,-68.62756167137817
-3.7363694975,-44.83643397,3.226671316928549,0.15313076583333304,2.22660885,0.12068068640995065,0.0,63,12,215.02234146155,417.82,mp-1094145,Mg2Fe,https://materialsproject.org/materials/mp-1094145,15.1853947514448,-78.34066508696233,-26.620412086594573,-61.62594683918282
-5.022375088125,-160.71600282,10.937430448587351,-0.2259319168750009,3.45e-06,7.496837669642803e-08,0.0,227,32,536.3131127694091,3532.52,mp-638586,Te3Pd13,https://materialsproject.org/materials/mp-638586,-40.225452773399724,-61.5630186851219,-48.941425695818424,-39.83423821149736
-5.76778982625,-184.56927444,4.125052366476604,-1.8324408628724989,21.638197899999998,0.866442435373725,0.0,12,32,291.04410124983633,723.001465,mp-1100745,Li9Mn2Co5O16,https://materialsproject.org/materials/mp-1100745,3.953275324510312,-72.59179601147126,-22.6935255541751,-76.4984889560636
-5.67856788,-34.07140728,4.786926248757031,-1.115626305833333,0.0,0.0,0.0,164,6,63.08688282874309,181.86399,mp-32686,CoO2,https://materialsproject.org/materials/mp-32686,27.18943967319605,-68.2364911152568,-5.159231327054217,-74.97772445008738
-10.000906645,-40.00362658,17.282392326479147,-0.2868440987500005,0.00015830000000000003,2.6350210057670348e-05,0.0,225,4,70.01228640904823,728.66688,mp-866299,ErTaOs2,https://materialsproject.org/materials/mp-866299,-46.92824887313057,-64.790025387743,-51.10863334285969,-36.85431062278432
-5.7101265295833326,-137.04303671,3.9347275560755217,-1.7627276927883326,18.9761764,0.993872363891088,0.0,156,24,222.51306801136985,527.2554749999998,mp-1175227,Li7Mn2(CoO4)3,https://materialsproject.org/materials/mp-1175227,3.2365225719108284,-69.11970955935044,-22.55196213804431,-71.9005756681899
-8.820943153333333,-26.46282946,3.5004314176115274,-3.3709572413888886,0.0,0.0,2.4631,166,3,37.88683823187819,79.8658,mp-25433,TiO2,https://materialsproject.org/materials/mp-25433,2.613331021891888,-66.6019440091998,-8.718789987279788,-66.32376751211677
-6.4400518246875,-206.08165839,3.8922334944578014,-2.1543271161475,26.000002,1.010251242572997,0.7905000000000002,2,32,299.93104153275755,703.025715,mp-1100557,Li9Mn7O16,https://materialsproject.org/materials/mp-1100557,3.8803827452360564,-78.64056272987838,-28.93403508568429,-77.01804304341441
-5.681900918666668,-85.22851378,4.2859950014434,-1.6172306940000007,16.000006900000002,1.2616764362605009,0.0,166,15,147.79155052357828,381.462785,mp-753893,Li3FeCo3O8,https://materialsproject.org/materials/mp-753893,3.3226943579848616,-67.52452454567018,-12.311596028634524,-65.72272156336582
-6.1323452708333335,-147.1762865,3.323914368998857,-2.617923411448333,1.999999975,0.10070753488565998,1.0707,1,24,231.44374728495785,463.28281280000004,mp-763212,Li2VO2F,https://materialsproject.org/materials/mp-763212,12.071326516706678,-61.9905458361564,-0.6424926493268733,-75.41957244232485
-6.431596371875,-205.81108390000003,3.9254274419083424,-2.145871663335,25.9999014,1.018862977357733,0.0,2,32,297.39478392036773,703.025715,mp-1100515,Li9Mn7O16,https://materialsproject.org/materials/mp-1100515,0.6077212143208146,-80.57651733197588,-28.916139929056488,-79.02488068100584
-4.636695340357143,-129.82746953,4.361997816571718,-0.997756018857144,1.000000025,0.03744792822174201,0.0,13,28,311.20720470578783,817.49667712,mp-764934,Na(NiO2)2,https://materialsproject.org/materials/mp-764934,9.57208598475907,-53.142904218375406,-3.14084804210891,-59.402579289422405
-6.176860791833334,-370.61164751,3.461640802717876,-2.902322102059333,2.0000000166666667,0.0361919226759091,1.4261,1,60,644.0146865938318,1342.5444768,mp-760801,LiVOF2,https://materialsproject.org/materials/mp-760801,3.3912821119895527,-59.98739379955588,-7.495838714360981,-59.66324541562115
-7.5621022625,-30.24840905,9.82714349769924,-0.7494034512500001,2.59e-05,4.2966340321872395e-06,0.0,225,4,70.25040423460075,415.745,mp-864947,ZrSnRh2,https://materialsproject.org/materials/mp-864947,-47.30755784084052,-65.05812447180776,-50.63226596923764,-36.83430694626066
-5.773169075,-184.7414104,4.147179306776296,-1.8378201116224997,22.0000003,0.8856551642441589,0.0,8,32,289.4912589499121,723.001465,mp-1100757,Li9Mn2Co5O16,https://materialsproject.org/materials/mp-1100757,-1.9196402572323144,-76.3681892873321,-19.960922058688677,-77.02494438798124
-2.8235294475,-11.29411779,6.149157160752165,-0.2857750649999997,9.000000000000001e-07,1.6104227791717786e-07,0.0,225,4,65.12984311298625,241.18291200000004,mp-973143,ScZn3,https://materialsproject.org/materials/mp-973143,-37.410565644689896,-56.98350226443368,-49.33127897300572,-42.90918436509339
-4.7918280225,-38.33462418,3.5968017104409613,-2.5635480196650002,1.9977068,0.33065522132861896,1.9215,123,8,70.40991020869113,152.5110096,mp-752550,Li3NiOF3,https://materialsproject.org/materials/mp-752550,2.757254048421547,-55.70746084233202,-5.9181740098072915,-57.7136103335186
-5.032231728125,-80.51570765,5.7153331269485035,-1.5207175715625,5.0000019,0.3708407683052836,0.0,166,16,157.1303669545636,540.8198,mp-756926,Li4Ni3BiO8,https://materialsproject.org/materials/mp-756926,-31.471471190463713,-4.089153820764318,-16.753240842203596,-58.34376846183751
-7.8186169386666675,-117.27925408,3.7640103801181186,-3.0770336791111115,0.053419799999999996,0.0041470289786877355,0.0,166,15,150.12140318686255,340.2862,mp-752879,Li3Ti4O8,https://materialsproject.org/materials/mp-752879,-0.6553191702376955,-66.99910893719695,-17.080767379870938,-65.99844030521251
-6.0906835263636365,-133.99503758,4.461249306251503,-1.8895029832575758,0.9999844999999999,0.05568239576080535,0.0,12,22,209.29207472712315,562.289775,mp-770955,Li4TiCo5O12,https://materialsproject.org/materials/mp-770955,9.358656919823435,-65.43595706523479,-2.7833392133788024,-68.60506435925872
-6.356375978787879,-209.76040730000003,3.299609335354403,-2.6959132821860607,3.0000002,0.10305926284419227,0.9257,6,33,339.24361269058187,674.1012192000001,mp-759833,Li3V2(O2F)2,https://materialsproject.org/materials/mp-759833,12.075592056047174,-61.99345590359743,-0.6153362271234452,-75.3491100669795
-3.511527483888889,-63.20749471,2.5692290926736887,0.19040494055555532,1.99992175,0.062297286575143475,0.0,155,18,374.1289371638617,578.862,mp-1094377,Mg2Ti,https://materialsproject.org/materials/mp-1094377,-70.5733958588392,5.4425142368188135,-68.0466209860939,14.133252956511646
-5.4591203283333325,-32.75472197,12.907234212967888,-0.8598832749999996,5e-08,4.739868560228974e-09,0.0,227,6,122.9365817266113,955.576,mp-1349,SrPt2,https://materialsproject.org/materials/mp-1349,-74.20904311707837,-4.819208157182068,-66.38345088618135,11.62926466850807
-6.091820449166666,-73.10184539,5.4076286538618055,-1.9377445066666656,0.0,0.0,2.0896000000000003,227,12,185.11466825136574,602.8352,mvc-4323,SnO2,https://materialsproject.org/materials/mvc-4323,2.4517261700003976,-55.03789509490154,-5.9414852513804615,-61.829280438222426
-6.031771441428572,-84.44480018,4.111680189771908,-1.7429318857142866,12.9999993,1.0184407046241284,0.0,12,14,148.75960200485622,368.345395,mp-757499,Li2Fe3CoO8,https://materialsproject.org/materials/mp-757499,5.113120245305498,-65.30993158927949,-7.944409335375793,-65.85788442760628
-5.953594145,-23.81437658,5.909212950194597,-0.5200207175000005,3e-07,7.383725114010935e-08,0.0,123,4,47.35034657687461,168.50147719999998,mp-1228910,Al2FeNi,https://materialsproject.org/materials/mp-1228910,-51.85820580521619,-52.36191506497859,-68.95861795613031,-42.582115518988736
-7.30566450642857,-102.27930309,4.804507083060001,-2.4402789795238102,0.0,0.0,1.0124999999999995,74,14,153.25607009693994,443.4222,mp-1222352,LiTiRhO4,https://materialsproject.org/materials/mp-1222352,1.6665673302759008,-61.56019608857204,-11.53354963797194,-59.74339659159904