energy_per_atom,energy,density,formation_energy_per_atom,total_magnetization_uB,total_magnetization_T,band_gap,sgr,num_sites,cell_volume,weight,mp_id,formula,URL,tsne_cry_lin1_0,tsne_cry_lin1_1,tsne_cry_lin2_0,tsne_cry_lin2_1
-4.855513895833333,-58.26616675,2.3856173577218933,-1.1143639208541671,2.99999965,0.14353992060508414,0.11919999999999994,15,12,243.5711967191798,349.92713855999995,mp-1179891,NaFe(SO)2,https://materialsproject.org/materials/mp-1179891,-6.757869568066006,-8.996729293071864,2.8927476281385833,-4.973592829952599
-3.8404596525,-15.36183861,7.056127280927142,-0.3415347437499996,4.6e-06,3.920073643215797e-07,0.8409999999999993,123,4,136.7543133954932,581.1099999999999,mp-1218915,SnTe2Pb,https://materialsproject.org/materials/mp-1218915,66.78208985721416,23.042162166451767,7.802004653759267,-7.265268155277079
-5.677199885,-22.70879954,3.11869169958032,-1.3405889006562504,2.0000002,0.31707277877621165,0.0,164,4,73.51035294134506,138.06126927999998,mp-999454,NaVS2,https://materialsproject.org/materials/mp-999454,21.643544618620368,12.686408898623723,-8.604250342815693,-0.5045126942092143
-5.45598623875,-174.59155964,2.484058467022962,-3.1664985751187507,1.99999955,0.05454326302854976,2.4474,14,32,427.33278147642164,639.262064,mp-777680,Li2VF5,https://materialsproject.org/materials/mp-777680,-22.367664061053723,-52.192972457149246,8.241611406957755,3.645634783568331
-6.5931788325,-26.37271533,6.169089457323158,-0.6878106974999989,4.8e-06,8.149059797657115e-07,0.0,225,4,68.64535578002426,255.025224,mp-1186955,Sc2NiPd,https://materialsproject.org/materials/mp-1186955,12.839231238460107,56.20384067645972,-8.604250342815693,-0.5045126942092143
-7.268973914285715,-101.7656348,4.330956629691324,-2.140235105,6.99999965,0.5456440464878735,0.0,15,14,149.5085483917366,389.9426772,mvc-4602,AlCr2O4,https://materialsproject.org/materials/mvc-4602,11.873630182943762,-8.965913697246933,6.236434756973287,-2.4125329706417937
-5.19509494375,-41.56075955,6.526107720368166,-1.6361727149479168,0.0,0.0,0.8198000000000003,109,8,173.4974661970025,681.86482,mp-1079656,TmAgS2,https://materialsproject.org/materials/mp-1079656,52.911296255823345,12.554316442890089,6.850886379676021,-6.046478801349838
-4.336457561617647,-294.87911419,6.229734277833122,-0.6205801708272063,0.0,0.0,0.6525999999999996,62,68,1469.9628993982267,5514.762400000001,mp-559551,Cu4Bi4S9,https://materialsproject.org/materials/mp-559551,58.321414863439706,9.439079456204887,5.486121137450548,-6.8713599962987
-4.9998599365,-99.99719873,7.99069382555995,-0.2571291899374998,3.75e-07,1.3773092118180133e-08,0.0,139,20,317.30523924553114,1526.9072,mp-569983,Ni2PdSe2,https://materialsproject.org/materials/mp-569983,21.71867807140036,14.829578207162564,-8.604250342815693,-0.5045126942092143
-3.881734363000001,-38.81734363,3.515686723876596,-0.4228126402000008,0.0,0.0,0.10990000000000012,63,10,270.8612627117801,573.4664,mp-9673,K2NiAs2,https://materialsproject.org/materials/mp-9673,28.541075685827746,12.598871512623925,-6.300288277397177,-3.657796965363457
-6.44410168,-77.32922016,5.3561895823314805,-1.5959675543749998,4.9999997,0.4229771942419488,0.5091000000000001,12,12,137.76232184576742,444.3624,mp-1216789,V2Fe(CuO2)3,https://materialsproject.org/materials/mp-1216789,-27.271003540382978,-31.07919974292832,6.159331497529834,-1.8042984656936163
-3.192612282,-31.92612282,3.6022413667921844,-1.4413652311973797,1.0,0.04174459858378517,0.0,186,10,279.17539437273393,605.6209038,mp-567366,CsCuCl3,https://materialsproject.org/materials/mp-567366,3.8955702601435935,-6.9987927472380225,-6.112683333853401,-3.4528474911850173
-7.763174007999999,-77.63174008,6.1878730596058835,-3.1798105516666677,5.0000007,0.456233107819277,1.8044,216,10,127.7205249289489,475.94087,mp-1227842,BaLaTiFeO6,https://materialsproject.org/materials/mp-1227842,5.833228115239041,-40.897504874511775,5.7292785338919066,-1.8337916102352252
-4.192318274285714,-29.34622792,4.801565920797116,-0.5044910541964285,0.0,0.0,0.5391000000000004,82,7,181.58904121171767,525.0775386,mp-1229027,AlCuSnSe4,https://materialsproject.org/materials/mp-1229027,33.46556542239297,1.0356891066162102,3.950849012010541,-5.730609404683208
-5.460998957105264,-207.51796037,5.681480041440048,-1.4465077454385964,0.0002571,5.054687501633306e-06,2.1124000000000005,15,38,592.7686038072433,2028.1384,mp-1197464,Ag2Te4MoO12,https://materialsproject.org/materials/mp-1197464,4.350345474315359,-19.12330556851428,8.989868223976417,0.7902616252283802
-4.713795005714286,-65.99313008,4.01225371817974,-1.6486987410406404,5.0000004,0.19541454149643211,1.9256,12,14,298.18829283740007,720.4931999999999,mp-555287,Rb3FeO3,https://materialsproject.org/materials/mp-555287,-33.696454739218105,-30.65861057631085,8.003004680377947,0.20616532144174055
-8.69660660325,-1043.59279239,2.129083789876502,0.5288669779999983,8.333333333333332e-10,8.639533220564121e-12,0.6377999999999995,58,120,1124.102471263559,1441.2839999999999,mp-568028,C,https://materialsproject.org/materials/mp-568028,59.958254602128115,37.25772462524557,-3.4786922143889565,-1.806401996680667
-3.328363650625,-53.25381841,8.152135749155098,-0.5106370979687505,0.0,0.0,0.8201999999999998,87,16,558.9264977913393,2743.95517,mp-1223306,La(Tl3Te2)3,https://materialsproject.org/materials/mp-1223306,58.548282750859,23.756877562565574,6.096358468461043,-6.057735953219208
-8.2214799865,-164.42959973,6.84462509309776,-3.262919982250001,2.00001135,0.096344896652743,1.4646,62,20,241.92523557075143,997.1988,mp-1188225,SmVO3,https://materialsproject.org/materials/mp-1188225,-13.662260002233634,-28.961472041358963,7.821388458590673,-2.802075763200444
-6.224455736666666,-37.34673442,4.02628855319369,-1.8069106329166664,2.00000015,0.19243071703884712,1.4546,59,6,121.12479572855177,293.6898,mp-27841,VBrO,https://materialsproject.org/materials/mp-27841,-20.78630276164972,-42.138206138337615,5.2353519414263205,0.08787648683932704
-7.39329856,-147.8659712,5.886982264048815,-2.7856893823749997,19.9999998,0.961882723119202,1.4352999999999998,6,20,242.3177873125144,859.0707486,mp-1223294,La3Al(FeO3)4,https://materialsproject.org/materials/mp-1223294,-20.82166065357261,-33.04443566710055,6.322082846058737,-3.829651991251711
-3.351973093333333,-30.16775784,3.2365723994820126,-1.59635049284,0.0,0.0,1.8478,225,9,249.343919763544,485.9986,mp-23513,K2PtCl6,https://materialsproject.org/materials/mp-23513,49.7433875560557,-16.504895201474852,9.764994917998447,-2.6230618921559463
-5.178398674166666,-124.28156818,7.934555614594848,-0.22001344916666632,0.0,0.0,0.040899999999999714,61,24,433.91688641255615,2073.38556,mp-3715,CoGeTe,https://materialsproject.org/materials/mp-3715,16.83014330250487,3.672074599464992,1.2522492895971926,-1.4812330161084566
-7.419614499750001,-296.78457999,7.163277162859192,-0.8269542637499996,13.8423877875,0.1299870216080553,0.0,14,40,1241.0476206527471,5353.664000000002,mp-1199270,Eu2Sb3,https://materialsproject.org/materials/mp-1199270,0.9101905796732932,35.35716442316225,-8.604250342815693,-0.5045126942092143
-4.623962446,-184.95849784,8.261781025794178,-0.5061441074999997,6.500000000000001e-05,7.711160055551877e-07,0.0,223,40,982.3608961027664,4887.6,mp-1214141,Ca3Sn13Pt4,https://materialsproject.org/materials/mp-1214141,0.5884837853222235,50.194041023946866,-8.604250342815693,-0.5045126942092143
-6.880439880108696,-633.00046897,4.7794719340146985,-2.2039547985656527,0.0002612,2.057548159183145e-06,2.3494,1,92,1479.4510179538586,4258.25256,mp-669521,Nb3Te4ClO15,https://materialsproject.org/materials/mp-669521,2.116858465691452,-51.12015701032386,9.4387783591267,0.12727094815520507
-2.9912380444444446,-53.8422848,3.6235111072849415,-0.4350881044444448,4.99514925,0.08551066791731947,1.0595,1,18,680.778133605389,1485.5459999999996,mp-540998,FeTeBr7,https://materialsproject.org/materials/mp-540998,24.018463001193872,-3.7054291755422963,7.331977486558903,-4.941594536065303
-3.2572903,-39.0874836,4.2524457941363885,-1.070501002121149,0.0,0.0,2.017,11,12,357.539149909662,915.6158437999999,mp-579536,CsCu2ICl2,https://materialsproject.org/materials/mp-579536,48.12814483634864,-11.031002985690172,7.680794756538867,-0.9815176759703256
-6.673886609545455,-146.82550541,4.290743097529043,-2.3122280120454564,4.0000002,0.18224557264171312,1.8279,64,22,255.7881694755749,660.9428,mp-754074,Li2V2SnO6,https://materialsproject.org/materials/mp-754074,-27.511363083636518,-51.47701368103606,6.4434573592931175,0.7642791378456182
-6.0322425666666675,-361.934554,4.1064188631433245,-1.8112858108690482,8.000354175,0.13079232495653406,2.6306,62,60,712.8602216517943,1762.862896,mp-774985,Ni4P2O9,https://materialsproject.org/materials/mp-774985,-18.008415639719363,-39.864624318572496,9.37207312879694,0.5058297295992649
-8.815570074,-88.15570074,5.037877303267327,-3.074536745441998,4.99999985,0.4552559257953248,3.1509,148,10,127.99464831323488,388.32049,mp-754980,ZrMnO3,https://materialsproject.org/materials/mp-754980,3.08137042119354,-77.46186882494287,8.63933807995513,-0.375505714640892
-8.411996091499999,-168.23992183,5.5099708329614385,-0.7512823794279981,3.5000000000000004e-06,1.261121013087789e-07,1.81,15,20,323.4362625049648,1073.2204,mp-989606,CaReN3,https://materialsproject.org/materials/mp-989606,34.4648458625945,-8.167466016437519,6.370113925580242,-0.4130340926195877
-3.9592906219999997,-39.59290622,3.955615350590116,-2.1552263291973794,0.0,0.0,2.3778,225,10,294.2748941226432,701.0002538,mp-1113333,Cs2TbCuCl6,https://materialsproject.org/materials/mp-1113333,13.223179370345012,-12.306815147630553,8.529874560605883,0.8698835171843555
-5.187695895,-62.25235074,7.320685249637601,-1.5832006187630203,0.0001906,7.303263895242925e-06,0.9491999999999998,8,12,304.14685509265615,1340.8678400000001,mp-1216647,Tm4CdSe7,https://materialsproject.org/materials/mp-1216647,51.6984006193414,5.593281674394512,6.259571461524379,-6.659705452797716
-6.057375505,-24.22950202,7.669987520693461,-0.47766960625000104,6.9366045,0.7348959622870349,0.0,221,4,110.00147271601796,508.094,mp-20387,EuSn3,https://materialsproject.org/materials/mp-20387,-10.551540742974632,39.64737363381896,-8.604250342815693,-0.5045126942092143
-6.154090248749998,-147.69816597,5.5858137793405485,-2.0071474061557546,0.0,0.0,2.4212,2,24,354.87831246799544,1193.759448,mp-557644,Ag2P2PbO7,https://materialsproject.org/materials/mp-557644,4.030036979442005,-17.97504104615306,8.269093700497775,-0.6014532299449217
-4.872540405714285,-68.21556568,3.34808070513896,-1.7480173801785717,5.520000000000001e-05,1.982523180227324e-06,1.2939000000000005,55,14,324.48769419761913,654.252,mp-866824,Ca2SnS4,https://materialsproject.org/materials/mp-866824,42.83850793977539,0.9054117986763146,6.316185608179108,-6.442830107090478
-5.3823384328125,-172.23482985,8.31070638147205,-0.12428960416015665,2.375e-06,4.1265473082554817e-08,0.0,200,32,670.7400101643437,3356.9359999999997,mp-1205063,Ge3Ir2Se3,https://materialsproject.org/materials/mp-1205063,39.54191151506568,6.283689259394684,6.882933045059207,-6.744248743875907
-7.089978870833333,-255.23923935,8.367722774036949,-3.13139191125,1.999715025,0.047825127554322416,2.1509,62,36,487.292133231426,2455.54328,mp-510134,BaTm2NiO5,https://materialsproject.org/materials/mp-510134,28.47343047416761,-28.4560359162788,9.645209529962779,-1.8015612920663624
-5.948782583684211,-226.05373818,2.707003587415186,-1.2257258502741928,0.0,0.0,1.8948,14,38,644.5547647617525,1050.7504,mp-555122,Rb2Pd(NO3)4,https://materialsproject.org/materials/mp-555122,-2.0518898701579564,-23.62326244262143,8.370407142729645,1.2672889935669889
-3.855331478,-19.27665739,6.346122707745204,-0.43161117682291705,2.2800000000000002e-05,1.8111641950197282e-06,0.9527000000000004,160,5,146.70822090289096,560.6784,mp-1223842,InBiSe3,https://materialsproject.org/materials/mp-1223842,70.26996181546575,22.26838351719385,6.225986826700176,-6.121382962280478
-5.7697009928571426,-80.7758139,5.9023719678090085,-0.5796789454241075,0.26904829999999996,0.010298593872238094,0.0,6,14,304.4596528463417,1082.19926,mp-1220694,Nb2VFeSe10,https://materialsproject.org/materials/mp-1220694,49.143082765899365,25.007607866215874,-8.604250342815693,-0.5045126942092143
-2.893347846,-28.93347846,3.1808992757584083,-1.5087153560594484,0.0029625,9.928988870115451e-05,0.0,225,10,347.72087410252715,666.0879689999998,mp-1114492,Rb3AuCl6,https://materialsproject.org/materials/mp-1114492,4.521926277910136,-3.308526013619141,3.2838397260746137,-5.238131482360485
-3.8360001825,-15.34400073,6.943460774684754,0.0434227541015626,0.0016922,0.0001895295417102129,0.0,225,4,104.05242491578734,435.09,mp-1187055,Sn3Se,https://materialsproject.org/materials/mp-1187055,26.69955340180172,38.25196827807107,-8.604250342815693,-0.5045126942092143
-6.27596055,-12.5519211,7.841311913739672,0.3083628025000005,3.1457745999999998,0.996953196065992,0.0,221,2,36.773101378217895,173.648045,mp-1009206,MnSn,https://materialsproject.org/materials/mp-1009206,46.32419766924728,40.499304639579776,-8.604250342815693,-0.5045126942092143
-7.007829018636364,-308.34447682,5.448757866760556,-2.528412770795456,4.99999175,0.10313436395935492,2.7687,14,44,564.9933298636358,1853.9232,mp-1195316,SmFeGe2O7,https://materialsproject.org/materials/mp-1195316,-18.487736357243897,-34.85801076961111,9.147583644686069,-0.17796647022062173
-6.837150368333334,-410.2290221,4.185301615794435,-2.301263738833333,2.0027880000000002,0.0294532725708068,2.1251,9,60,792.4627398056882,1997.3608,mp-1217810,SrV2(AsO5)2,https://materialsproject.org/materials/mp-1217810,-13.507121781606902,-44.42656808202635,8.468020249676135,0.6080350534107347
-5.332873259333334,-79.99309889,9.953961265782551,-0.28332087600000005,0.00043128,1.3467938249226945e-05,0.0,2,15,373.1948396331594,2237.085,mp-1103512,Te2Ir,https://materialsproject.org/materials/mp-1103512,52.7624129736137,31.63523754682577,-8.604250342815693,-0.5045126942092143
-6.90712930125,-165.77110323,5.0395074938094,-2.557321664090417,5.0000039,0.10796916694402214,2.285800000000001,186,24,539.6945346800909,1637.89865,mp-18292,La4MnS6O,https://materialsproject.org/materials/mp-18292,46.67200249892437,0.8186356636912444,7.768574075911169,-1.9695155751302844
-5.72788046,-45.82304368,7.494009392521937,-0.6550608818750003,0.0242817,0.0014467717040158679,0.0,129,8,195.59444230377272,882.7173300000001,mp-1078968,LaCoSb2,https://materialsproject.org/materials/mp-1078968,2.7774777879620487,34.533040374353696,-8.604250342815693,-0.5045126942092143
-5.460358765,-21.84143506,11.41629057964844,-0.73986038375,0.00288,0.0003973377232415337,0.0,225,4,84.4714825241227,580.74575,mp-1100767,TbBiPd2,https://materialsproject.org/materials/mp-1100767,27.184185809634446,40.1889097646914,-8.604250342815693,-0.5045126942092143
-4.0046780215,-160.18712086,8.662626573669552,-0.31759293886718754,0.0093273,0.00013103665102484182,0.09879999999999978,59,40,829.5462185803923,4327.54,mp-1202782,Hg3Pd8Se9,https://materialsproject.org/materials/mp-1202782,51.02865817551365,24.205651913232174,3.5719202161088224,-5.543029140801962
-5.8728104042857145,-82.21934566,5.985110603726064,-0.6089359404241067,1e-06,3.736549930801491e-08,0.0,6,14,311.8937251846088,1124.16414,mp-1220711,Nb3FeSe10,https://materialsproject.org/materials/mp-1220711,49.14875075821474,24.96739661591549,-8.604250342815693,-0.5045126942092143
-5.545367140588236,-94.27124139,7.911071720950233,-0.33849509470588274,0.0,0.0,0.0,204,17,420.37368478851647,2002.727,mp-9976,Ba(Sb3Ru)4,https://materialsproject.org/materials/mp-9976,34.44549377764861,28.71712351063293,-8.604250342815693,-0.5045126942092143
-6.606591754166668,-237.83730315,3.873767717607117,-2.5409998334722226,10.000000975,0.2500252149522164,0.8683000000000001,62,36,466.1156240204924,1087.372,mp-22113,Ca2Fe2O5,https://materialsproject.org/materials/mp-22113,-21.268399264434983,-32.36217255796687,6.362756851552888,-3.7963981766565382
-4.11418423,-16.45673692,5.044502739742881,-1.0728133469062504,6e-07,7.173965668269678e-08,1.4575,166,4,97.46964491986972,296.10016928,mp-1221125,NaBiS2,https://materialsproject.org/materials/mp-1221125,72.53656000239967,21.460271414492947,6.862343337096614,-4.119331055777259
-5.2014802575,-208.05921030000002,2.3650184556094125,-0.9433597278160704,3.0000322999999995,0.037801255884878635,1.1536999999999995,14,40,924.9050044910562,1317.29357312,mp-1210219,NaCr(PS3)2,https://materialsproject.org/materials/mp-1210219,24.0393208554062,-1.8024987940850201,7.177756113858735,-4.173705349245334
-5.487531921875,-175.6010215,8.628682984731384,-0.4594888782226558,1e-07,1.5488914202038425e-09,0.3399000000000001,148,32,752.4132822057956,3909.776,mp-1194504,Sn3Ir2Se3,https://materialsproject.org/materials/mp-1194504,39.303288241294815,6.083703614370725,5.700296500865254,-6.560656988245318
-6.330359208625,-506.42873669,3.898581596794388,-1.3621357458750012,9.37499993125,0.10039531123229443,0.1211,1,80,1088.2665246062331,2555.0112,mp-1245084,Fe2O3,https://materialsproject.org/materials/mp-1245084,-29.330277407844683,-33.54172788022675,0.985441711087704,-2.391469583401027
-7.124243140000001,-206.60305106,7.478817458706914,-2.40768164566092,3.9993285000000003,0.11732571156221967,0.4728000000000003,42,29,397.25677147099,1789.1846,mp-1208356,Ti4Fe(BiO3)6,https://materialsproject.org/materials/mp-1208356,8.895046463634127,-37.98663118516806,3.6991144898548542,-3.3965322959236635
-5.928941434285713,-41.50259004,5.444820896499566,-0.14117525633928604,2.2654098,0.18052878539415312,0.0,1,7,146.24389394715647,479.5261,mp-673844,Cr(FeSe2)2,https://materialsproject.org/materials/mp-673844,17.595954179434635,13.26530291654552,-8.604250342815693,-0.5045126942092143
-5.651716909375,-90.42747055,8.931917290988244,-0.3402505218750003,0.0,0.0,0.05399999999999938,204,16,414.57864107940185,2229.9880000000007,mp-1239,Sb3Ir,https://materialsproject.org/materials/mp-1239,34.57912806166536,28.777163458804942,-8.604250342815693,-0.5045126942092143
-7.826972641785715,-219.15523397,8.060284658780285,-0.7916908460714284,20.9874697,0.3275501134849331,0.0,57,28,746.7233904871927,3624.6079999999997,mp-1193516,Eu3(SnPd)2,https://materialsproject.org/materials/mp-1193516,3.0360688458346403,48.19896222780841,-8.604250342815693,-0.5045126942092143
-4.507737606111111,-81.13927691,4.379963635818922,-1.0160526135488521,0.0011083,2.754340658920421e-05,1.2654999999999998,70,18,468.9398148916875,1236.9112,mp-1205388,Rb2Pd3S4,https://materialsproject.org/materials/mp-1205388,65.30175861403119,16.105122991511035,8.365388471857832,-6.337183216074079
-6.937230084411764,-235.86582287,3.6310613347947567,-1.9863669541176472,9.9999999,0.2154145912501675,2.4169,2,34,541.0062794903631,1183.0056,mvc-8023,Fe2(MoO4)3,https://materialsproject.org/materials/mvc-8023,-7.792941646306419,-42.084300421715724,8.88057249657118,0.7579159892942244
-5.535596226666668,-99.64073208,4.339976759005797,-0.7326489451987549,14.9999994,0.3060324751572948,0.4415,72,18,571.2170399762542,1492.9300775999998,mp-3704,Cs2Mn3Se4,https://materialsproject.org/materials/mp-3704,26.15470169491148,15.911709201535725,-8.604250342815693,-0.5045126942092143
-6.13119908,-98.09918528,3.5984600883594857,-2.185200026875,4.000000275,0.2251906871262108,1.5299,2,16,207.0079490853009,448.5952,mvc-15567,MgFeO2,https://materialsproject.org/materials/mvc-15567,-23.3481998892386,-30.241014757610213,7.056065927774125,-3.270427919668183
-8.224528888,-41.12264444,11.727439911341277,0.4189582489999992,0.0,0.0,0.0,12,5,120.70991991081594,852.5052999999998,mp-1069751,Pr2Os3,https://materialsproject.org/materials/mp-1069751,-2.537648226433596,38.56962632172183,-8.604250342815693,-0.5045126942092143
-3.0135412125,-24.1083297,5.153288436060285,-0.6771396530468747,0.0,0.0,0.9329999999999999,215,8,201.2249287978705,624.4780000000002,mp-1079034,Zn3CdSe4,https://materialsproject.org/materials/mp-1079034,39.017415050473204,3.442747967443036,6.337448937016957,-5.998933954112075