energy_per_atom,energy,density,formation_energy_per_atom,total_magnetization_uB,total_magnetization_T,band_gap,sgr,num_sites,cell_volume,weight,mp_id,formula,URL,tsne_xrd_lin1_0,tsne_xrd_lin1_1,tsne_xrd_lin2_0,tsne_xrd_lin2_1
-5.872400281666668,-140.93760676,4.065715516520865,-1.9250014448716672,18.000015100000002,0.9741303973386288,0.8714,3,24,215.34421105794812,527.2554749999998,mp-1175072,Li7Mn2(CoO4)3,https://materialsproject.org/materials/mp-1175072,13.900122684483266,-72.24711044681531,-11.850081937037446,-78.31628876883929
-5.66349079125,-90.61585266,3.931109921635913,-1.8321425056850007,10.0000009,0.8223279269514,0.0,12,16,141.7204188191736,335.504635,mp-1174059,Li5Mn(CoO4)2,https://materialsproject.org/materials/mp-1174059,19.622725848688432,-71.8733345324393,-12.106777980547367,-77.89229104690679
-5.846977293333333,-140.32745504,4.057896325919831,-1.8995784565383325,16.000000699999998,0.8642277112157507,0.0,8,24,215.75915941932843,527.2554749999998,mp-1175015,Li7Mn2(CoO4)3,https://materialsproject.org/materials/mp-1175015,16.627000422342604,-76.46502203910755,-13.769978573714814,-83.04140033049777
-6.3993317082142855,-179.18128783,3.893249192174366,-2.1384749749378567,10.999999800000001,0.4934128850175202,1.0621999999999998,12,28,259.81224661936363,609.14787,mp-1174359,Li4Mn3O7,https://materialsproject.org/materials/mp-1174359,10.688464335622433,-82.57079080164009,-18.878296617740226,-86.32324338057911
-6.42538415,-205.6122928,3.929101392982624,-2.13965944146,25.9994893,1.019800404318575,1.0731000000000002,10,32,297.11670153546885,703.025715,mp-1100580,Li9Mn7O16,https://materialsproject.org/materials/mp-1100580,11.722885951456444,-82.79199619530812,-19.177491028517746,-86.1244154184687
-5.78425311625,-185.09609972,4.136397085517845,-1.8489041528725,25.9999998,1.0439620891768921,0.5676000000000001,12,32,290.24586706461986,723.001465,mp-1176322,Li9Mn2Co5O16,https://materialsproject.org/materials/mp-1176322,1.981952524827576,-72.89240041082599,-21.774896044389134,-76.38462455636298
-5.4443855785,-108.88771157,4.060194173289082,-1.7115873198749996,7.0,0.45605941889794394,0.3346,2,20,178.87680865149133,437.37278,mp-1174005,Li3Co2O5,https://materialsproject.org/materials/mp-1174005,17.322369532821845,-78.46155261981046,-9.391419854828603,-83.72670358086026
-5.8569194175,-140.56606602,4.062688421329749,-1.9095205807050004,16.000000099999998,0.8652482720309194,0.5839000000000003,1,24,215.50466329009706,527.2554749999998,mp-1174963,Li7Mn2(CoO4)3,https://materialsproject.org/materials/mp-1174963,16.47725661414672,-75.52152149019108,-11.714403691668036,-82.12709312615506
-5.4482396335,-108.96479267,4.099356477322005,-1.7154413748749997,6.9999999000000015,0.4604582998750161,0.0,12,20,177.16794824776642,437.37278,mp-1173983,Li3Co2O5,https://materialsproject.org/materials/mp-1173983,15.928466987028164,-78.73172615983019,-13.676733748080913,-82.75497685331139
-7.460985157272727,-82.07083673,3.740085744309724,-2.7458965681060614,4.000001,0.40440619408374623,1.2756999999999996,12,11,115.2709118363554,259.6284,mp-752814,Li2TiV2O6,https://materialsproject.org/materials/mp-752814,3.611832537439312,-64.08328027893968,-9.030674594895837,-65.25372405986917
-6.9161318192307695,-89.90971365,4.458914184300615,-1.6988848779876924,12.999999699999998,0.9891202064343674,0.0,12,13,153.1692887896831,411.29337999999996,mp-756265,Mn4CuO8,https://materialsproject.org/materials/mp-756265,4.487358174280336,-76.03413365615232,-27.386933831875925,-74.97951527133537
-5.798775002857143,-162.36570008,4.116962253401197,-1.858261808015,10.00000015,0.4622063954690393,0.2615000000000003,1,28,252.1398462161977,625.12847,mp-1174704,Li4MnCo2O7,https://materialsproject.org/materials/mp-1174704,15.047205805591009,-79.95644762769606,-14.605612220003946,-85.00901065623641
-6.339448319375,-101.43117311,4.1620750365997745,-2.0197980820550008,16.0000008,1.2315129813498409,0.27390000000000025,12,16,151.41135214005268,379.50653000000005,mp-1174175,Li4Mn3CoO8,https://materialsproject.org/materials/mp-1174175,5.440535076057028,-74.91604056441776,-27.093562119921174,-75.09235413208658
-6.827943220714286,-191.18241018,3.9267884179761143,-2.0975711292857144,11.99999975,0.4674865577812493,0.0,1,28,299.1503649237322,707.4209999999998,mp-769975,Li2Cr3FeO8,https://materialsproject.org/materials/mp-769975,5.938065024955455,-65.92276481762846,-7.492382846747545,-66.1655138112796
-6.130007036875,-98.08011259,4.373494334287212,-1.9505070976199992,5.99999995,0.4802207052898925,0.7135000000000002,2,16,145.60885709924563,383.50167999999996,mp-1173885,Li2MnCoO4,https://materialsproject.org/materials/mp-1173885,14.48193581609486,-69.02962344554443,-10.702128514133943,-70.00111651123416
-6.750035971333332,-101.25053957,4.12128699479951,-2.285845982000001,5.000000099999999,0.40108324364024256,0.8869000000000002,12,15,145.28237205658826,360.575895,mp-1177534,Li3V3CoO8,https://materialsproject.org/materials/mp-1177534,6.206890996449548,-68.2779095114354,-8.298471807465475,-66.98440532305465
-5.869036474583332,-140.85687539,4.086069780041898,-1.9216376377883329,18.0000003,0.9790063986203452,0.9637000000000002,1,24,214.27149985731918,527.2554749999998,mp-1174919,Li7Mn2(CoO4)3,https://materialsproject.org/materials/mp-1174919,16.417342859105936,-72.96916036387013,-10.356840448618907,-78.43954634604282
-6.307610399,-126.15220798,3.816278034312334,-2.126331186567,7.00000045,0.4449179635136778,0.7909000000000002,12,20,183.35618100917404,421.39218000000005,mp-1174068,Li3Mn2O5,https://materialsproject.org/materials/mp-1174068,12.339578902086615,-78.88298723844,-18.300831052272297,-83.61736351646056
-6.552967737333334,-98.29451606,4.043787660867362,-2.1372138080000003,14.999998199999999,1.1679113458045576,0.6462000000000003,12,15,149.67827073437158,364.5004,mp-755011,Li3Cr2(FeO4)2,https://materialsproject.org/materials/mp-755011,1.8922760677075618,-67.02787130691888,-11.640461230602295,-65.71345674071695
-6.7497220275,-80.99666433,5.89594722323912,-0.3742340416266667,3.75e-07,3.179291627622783e-08,0.0,62,12,137.46062964905244,488.0708,mp-1029251,LiRuN,https://materialsproject.org/materials/mp-1029251,5.31264087821153,-67.61786242801944,-25.697025622650823,-74.53602751902795
-5.79873345125,-185.55947044,4.146437325963824,-1.8633844878725,26.000000699999998,1.0464961254445768,0.7863000000000002,2,32,289.5430617248327,723.001465,mp-1175424,Li9Mn2Co5O16,https://materialsproject.org/materials/mp-1175424,5.767301760815654,-70.94425290971193,-22.212232652728357,-76.49224962741475
-5.644186836666668,-457.17913377,4.9300946827269385,-1.7284838516049386,2.9999611,0.0514782789393573,0.5469999999999997,1,81,679.1552028331256,2016.393095,mp-705640,Li20Co21O40,https://materialsproject.org/materials/mp-705640,24.16288764696876,-68.62522828739239,-15.551883079619438,-72.06027287382527
-6.2961831746875,-201.47786159,4.090966546603593,-2.1698762946875,16.0000011,0.6137606874504052,1.1368999999999998,10,32,303.80741711400924,748.4714,mp-1177344,Li4VFe3O8,https://materialsproject.org/materials/mp-1177344,2.819595257710436,-65.60986011956298,-11.542140577709048,-65.51384914268479
-5.870352440416667,-140.88845857,4.101963600348783,-1.9229536036216681,16.000000099999998,0.8736128762672443,0.6955,2,24,213.441265109422,527.2554749999998,mp-1174545,Li7Mn2(CoO4)3,https://materialsproject.org/materials/mp-1174545,21.815847683575345,-75.2242363323892,-10.425766356519176,-78.49188775025141
-5.7961328759375,-185.47625203,4.136040915269496,-1.86078391256,26.000000399999998,1.0438722214524616,0.5305,2,32,290.27086124254816,723.001465,mp-1175591,Li9Mn2Co5O16,https://materialsproject.org/materials/mp-1175591,6.8494155137402,-71.7775568940162,-21.26757459368855,-75.32190831087857
-6.334004184333334,-190.02012553,4.0691773355003376,-2.0447084543333336,17.000024,0.6590140047275979,0.5653999999999999,2,30,300.630000894991,736.6985999999998,mp-754939,Li3CrFe3O8,https://materialsproject.org/materials/mp-754939,3.5560166396671424,-65.52188838712868,-9.614685564215078,-65.41056599936253
-5.109651958666666,-76.64477938,4.890542683977111,-1.5416236886666668,4.999999900000001,0.3792611333268893,0.0,166,15,153.6416932213514,452.4984,mp-1177536,Li3Ni3TeO8,https://materialsproject.org/materials/mp-1177536,2.1449116098973247,-63.384996142081576,-12.568167058668509,-63.127474026245295
-5.7762390553125,-184.83964977,4.144423808732571,-1.8408900919349989,23.2448324,0.935146685441851,0.0,6,32,289.6837326530192,723.001465,mp-1100586,Li9Mn2Co5O16,https://materialsproject.org/materials/mp-1100586,4.801041626092039,-72.98946146154425,-22.87189610494379,-75.04478218700616
-6.5005756375,-52.004605100000006,4.0336999064418855,-2.2698703531249995,7.0000003,1.073106445383146,1.0846000000000005,10,8,76.02084327711795,184.6661,mp-1177788,Li2VFeO4,https://materialsproject.org/materials/mp-1177788,2.9438693849865247,-66.27029581729475,-11.76930025354715,-64.24300741701445
-6.484338638125,-103.74941821,4.073673313438148,-2.281270848750001,7.000000200000001,0.5449024202047059,0.9832,12,16,149.71204515495424,367.2771,mp-773925,Li4V3NiO8,https://materialsproject.org/materials/mp-773925,2.8043355699229218,-66.61870356367879,-11.045825754274958,-65.31370723382803
-6.4171318921875,-205.34822055,3.9370580201878953,-2.1314071836475,25.999976,1.0218846801515995,0.0,12,32,296.516241288641,703.025715,mp-1100491,Li9Mn7O16,https://materialsproject.org/materials/mp-1100491,10.820505094415712,-82.71303804125326,-19.11157854609077,-86.22444723311926
-6.36236854625,-101.79789674,4.200174049037614,-2.1316632618749995,5e-08,3.990694253704897e-09,0.9488000000000004,12,16,146.0155054692582,369.3322,mp-765706,Li2VFeO4,https://materialsproject.org/materials/mp-765706,16.014882960031528,-67.03760686499488,-17.435269677899733,-68.41066666450615
-6.053633995,-84.75087593,4.200148654455866,-1.7647944392857156,12.9999992,1.0403538516702528,0.0,166,14,145.62625252628374,368.345395,mp-756157,Li2Fe3CoO8,https://materialsproject.org/materials/mp-756157,1.5997612509361514,-71.55053105693969,-19.796941523775704,-74.07348213359793
-5.77576814875,-184.82458076,4.123441873378964,-1.8404191853724996,23.9996678,0.9606258450881884,0.0,10,32,291.1577743730583,723.001465,mp-1100695,Li9Mn2Co5O16,https://materialsproject.org/materials/mp-1100695,4.7996156275489765,-73.34796958625805,-22.96598705481055,-75.07726364715616
-5.906822582,-118.13645164,3.9982509630370533,-1.949783846471,6.9985375,0.4573633513475138,0.0,2,20,178.32956903496188,429.38248,mp-1174057,Li3MnCoO5,https://materialsproject.org/materials/mp-1174057,18.647364693260013,-78.19473156313785,-9.65866741245301,-83.74398692246747
-6.625429037777778,-59.62886134,4.201067832976033,-1.5641752927133343,5.0000004,0.5567122344000193,0.0,12,9,104.66866888101276,264.805685,mp-761501,Mn2CoO6,https://materialsproject.org/materials/mp-761501,23.497938922619177,-72.54282710576057,-6.4029348359959695,-71.24800020064563
-5.7702610153125,-184.64835249,4.1251934284477985,-1.8349120519349995,23.9999998,0.9610471940881364,0.0,10,32,291.0341489275177,723.001465,mp-1100727,Li9Mn2Co5O16,https://materialsproject.org/materials/mp-1100727,6.272676560163868,-72.15281021266318,-22.480712983590426,-76.02341880442489
-6.441100482608695,-296.29062220000003,3.872754759550533,-2.112543363469564,17.00000025,0.4544879335269335,0.6793999999999998,1,46,435.9171925854665,1016.65805,mp-779719,Li6Mn5O12,https://materialsproject.org/materials/mp-779719,7.088387039172418,-71.96764222799503,-17.051224492179173,-75.45210804564152
-5.3895239925,-129.34857582,4.050851439955019,-1.6289922197916669,21.656319,1.150286559877275,0.0,12,24,219.40980027458747,535.245775,mp-1174577,Li7Co5O12,https://materialsproject.org/materials/mp-1174577,3.987023887446973,-71.28415970916241,-23.638811361804752,-73.49001603533372
-6.4235449840625,-205.55343949,3.920223625644142,-2.1378202755224995,25.999891,1.0175118956002942,0.8915000000000002,10,32,297.78955420932004,703.025715,mp-1100479,Li9Mn7O16,https://materialsproject.org/materials/mp-1100479,10.789468033995616,-82.72188529002827,-19.265915539909784,-86.19617333532624
-5.794514029375,-185.42444894,4.164200902621048,-1.859165065997499,24.0000003,0.9701347938886726,0.6284000000000001,1,32,288.30793390732526,723.001465,mp-1175803,Li9Mn2Co5O16,https://materialsproject.org/materials/mp-1175803,1.8298372589625242,-73.28007779181273,-21.833479625887666,-77.34187387653503
-6.5931767103125,-210.98165473,4.293562337667418,-2.3841146878125,8.99999895,0.3554656293215369,3.1018000000000003,2,32,295.06810803751137,762.941,mp-768690,Li4Cr3GaO8,https://materialsproject.org/materials/mp-768690,13.691736693297155,-67.84485169413406,-12.920294392993808,-68.60845353422482
-5.408149396875,-86.53039035,3.975795808184009,-1.7169514093750005,10.0,0.8218885022065171,0.0,12,16,141.79617723416402,339.49978500000003,mp-1174039,Li5Co3O8,https://materialsproject.org/materials/mp-1174039,18.820760915350732,-72.61357094401299,-12.578397550071927,-76.22635495499121
-5.478897640714287,-153.40913394,4.2008908211821545,-1.6985562150892857,10.79654335,0.5027699069683147,0.0,12,28,250.2608325931055,633.11877,mp-1174371,Li4Co3O7,https://materialsproject.org/materials/mp-1174371,-2.1911131521790193,-75.84278081536957,-22.41197051112411,-73.7634648241014
-10.44315664,-20.88631328,11.85552485256301,-0.01477990333333423,0.005562,0.001997289195030545,0.0,65,2,32.45394228650284,231.707,mp-1216621,TiW,https://materialsproject.org/materials/mp-1216621,-38.06726720557947,-54.56762105102885,-53.711161091152036,-38.01055270096092
-5.768163763125,-184.58124042,4.132257452559853,-1.8328147997474995,23.9999999,0.9626929053054832,0.15399999999999991,1,32,290.5366309802315,723.001465,mp-1176000,Li9Mn2Co5O16,https://materialsproject.org/materials/mp-1176000,4.986085892957268,-73.95316902345651,-25.8000614121471,-76.18551293208827
-6.6545543240625,-212.94573837,4.163524317647088,-2.2769821628125,11.999999,0.4769512758902749,2.174,2,32,293.2139459226952,735.185,mp-770328,Li4Cr3FeO8,https://materialsproject.org/materials/mp-770328,13.893088248410669,-68.32611058027891,-11.27604051972208,-69.4591541514465
-5.9194452066666665,-71.03334248,4.306222316874299,-1.8333787994550004,11.9999996,1.2521942813600868,0.0024999999999999467,2,12,111.68296700508158,289.623835,mp-1173940,Li3Mn(CoO3)2,https://materialsproject.org/materials/mp-1173940,5.352851844222349,-74.92814941237846,-26.970056683701362,-76.17801014875154
-5.7969574571875,-185.50263863,4.171542871456057,-1.8616084938099997,25.999999399999997,1.0528323210130268,0.6872000000000003,2,32,287.8005082543092,723.001465,mp-1175461,Li9Mn2Co5O16,https://materialsproject.org/materials/mp-1175461,1.7163236499004262,-72.95689988796778,-21.568998037284075,-76.388277365914
-5.76016926,-184.32541632,4.160762336763054,-1.824820296622499,25.527458199999998,1.031026061085255,0.0,6,32,288.54619933512043,723.001465,mp-1100576,Li9Mn2Co5O16,https://materialsproject.org/materials/mp-1100576,1.936120013312781,-72.7993358483355,-21.74038581168963,-75.99284305551129
-5.3742829975,-64.49139597,4.797814625108184,-0.9464862450000004,3.0000023999999996,0.27790931531498586,0.0,166,12,125.80442741837538,363.488185,mp-753483,Co3NiO8,https://materialsproject.org/materials/mp-753483,26.84909491301309,-69.75066474501618,-5.728059070036861,-74.62520950311901
-5.271294036875,-84.34070459,4.624821796997057,-1.5545490487500002,10.9999996,0.8876226550077064,0.0,166,16,144.42478131139828,402.2422,mp-756375,Li4FeCu3O8,https://materialsproject.org/materials/mp-756375,15.693034164624086,-69.62582105082218,-19.42207900191321,-72.23505334361433
-5.816903718571429,-162.87330412,4.158564857358666,-1.8763905237292855,8.0000002,0.3735016595164905,0.15710000000000024,8,28,249.6174197244074,625.12847,mp-1174790,Li4MnCo2O7,https://materialsproject.org/materials/mp-1174790,19.662670164442602,-82.49493112214863,-15.40396376587437,-83.01002204290609
-5.695536461875,-182.25716678,4.073487007639685,-1.7601874984974994,25.017018,0.9892157814140408,0.0,8,32,294.7283632814004,723.001465,mp-1100630,Li9Mn2Co5O16,https://materialsproject.org/materials/mp-1100630,6.484958836203092,-79.4386047035823,-24.801638931615802,-74.90637421171428
-5.86209143625,-140.69019447,4.068820991319101,-1.9146925994550008,17.999999600000002,0.9748736181375895,0.6644000000000001,2,24,215.1798523845601,527.2554749999998,mp-1174569,Li7Mn2(CoO4)3,https://materialsproject.org/materials/mp-1174569,13.787522929096806,-72.28853041342478,-11.152925272489359,-78.80234117412242
-5.8431695291666665,-140.2360687,4.0495031576354865,-1.8957706923716664,18.000001100000002,0.9702452214894172,0.3203999999999998,10,24,216.2063508063706,527.2554749999998,mp-1174866,Li7Mn2(CoO4)3,https://materialsproject.org/materials/mp-1174866,16.309668389225422,-71.53943507677654,-13.236850252506242,-78.84828143647515
-6.5623153275,-104.99704524,4.338124820316866,-2.266262583125,13.0,0.9509792743179041,0.7343999999999999,12,16,159.312454156209,416.20058,mp-770958,Li4NbFe3O8,https://materialsproject.org/materials/mp-770958,1.8525522025852141,-60.48217667409601,-10.889787990657782,-61.119906422254886
-5.666481243125,-90.66369989,4.428981731751536,-1.7284902181850006,10.999999699999998,0.8829285969558662,0.6013999999999999,10,16,145.19261177395651,387.257035,mp-1222609,Li4MnCo2NiO8,https://materialsproject.org/materials/mp-1222609,3.7547840706984963,-70.67901668754781,-20.38411295090379,-73.85790284888243
-7.089572765,-42.53743659,4.089557095168394,-1.779162934486666,0.0,0.0,1.4741,166,6,70.60032261561294,173.87368999999998,mp-25424,MnO2,https://materialsproject.org/materials/mp-25424,21.5373131729453,-68.50065554742068,-7.521457693149884,-71.01391889922316
-6.3581277525,-101.73004404,4.101373262348377,-2.0384775151800003,16.0000004,1.2135519526330236,0.7018999999999997,2,16,153.65229368055554,379.50653000000005,mp-1174262,Li4Mn3CoO8,https://materialsproject.org/materials/mp-1174262,5.349081604800415,-78.33042462950709,-29.776992390247703,-76.45170340102031
-5.7889395559375,-185.24606579,4.159792271020632,-1.853590592559999,25.9999999,1.0498666730289212,0.8046000000000002,2,32,288.61348846035656,723.001465,mp-1175713,Li9Mn2Co5O16,https://materialsproject.org/materials/mp-1175713,4.546559388488314,-70.31025090358766,-21.375187719250594,-74.17043665875644
-5.834384791607143,-326.72554833,5.120302091172727,-1.7383385562499996,1.000000025,0.020539898056395563,0.0,212,56,567.3867042530211,1749.54714,mp-757875,Li2Co3SnO8,https://materialsproject.org/materials/mp-757875,19.354615750253316,-69.8922080336063,-6.85774687153079,-71.93127089577187
-5.7049439132142865,-159.73842957,4.059869650714715,-1.7644307183721426,12.74279405,0.5808123105528129,0.0,12,28,255.68560539073619,625.12847,mp-1174650,Li4MnCo2O7,https://materialsproject.org/materials/mp-1174650,4.781526676342189,-73.34502585987816,-23.232644742749486,-74.64642389527306
-2.6371227795,-105.48491118,2.954346004328246,-0.42267621810800016,1.995086875,0.015348490306603974,0.0,205,40,1514.863755566212,2695.1679999999997,mp-680506,PtCl4,https://materialsproject.org/materials/mp-680506,24.923875828794746,-32.580212507901315,16.039785522810938,-57.382635686710024
-5.7561294521875,-184.19614247,4.08577919268378,-1.82078048881,26.0000003,1.0311869425859377,0.12769999999999992,1,32,293.84166446378305,723.001465,mp-1176087,Li9Mn2Co5O16,https://materialsproject.org/materials/mp-1176087,1.9937063640818025,-77.37000586435393,-26.929056230036068,-78.3144476727678
-6.38417986625,-153.22031679,3.890882171910203,-2.156480433325,18.0000002,0.9539245972484378,0.847,12,24,219.90539801780014,515.270025,mp-1175354,Li7Mn5O12,https://materialsproject.org/materials/mp-1175354,12.667432779030245,-81.55904021049011,-17.80275595749858,-83.01668888390037
-6.1374521875,-147.29885249999998,3.318956959545475,-2.623030328115,1.99999995,0.1005573346674549,1.0074,1,24,231.78944668229914,463.28281280000004,mp-763209,Li2VO2F,https://materialsproject.org/materials/mp-763209,12.06572185826714,-61.97434173112428,-0.6304809749043889,-75.406113579255