energy_per_atom,energy,density,formation_energy_per_atom,total_magnetization_uB,total_magnetization_T,band_gap,sgr,num_sites,cell_volume,weight,mp_id,formula,URL,tsne_cry_lin1_0,tsne_cry_lin1_1,tsne_cry_lin2_0,tsne_cry_lin2_1
-4.235028203428572,-148.22598712,8.180363723689204,-0.541405040571429,1.25e-05,1.7803204437920068e-07,0.0,12,35,818.2561188069766,4030.99988,mp-1197789,La4In21Pd10,https://materialsproject.org/materials/mp-1197789,32.32799700291296,39.968412265945865,-8.604250342815693,-0.5045126942092143
-3.8696441234375,-247.65722390000002,3.3433146845883237,-0.40420137330370665,5.75375e-05,3.9671925403640364e-07,1.1561,14,64,1690.2273963986204,3403.08896,mp-1201043,Rb2Sn2H3N,https://materialsproject.org/materials/mp-1201043,37.44273893101229,13.357803278561938,7.417413503131741,-5.036245935620905
-4.973167753214286,-278.49739418,4.331233599202879,-0.5702105300771686,0.0,0.0,0.8182,7,56,1603.301528671145,4181.9392880000005,mp-1195772,KNb2PSe10,https://materialsproject.org/materials/mp-1195772,64.9490404860403,14.081697896824286,7.095114338974078,-6.118021869741222
-4.633601455,-46.33601455,3.2666983940702496,-1.8863717901973795,2.99999895,0.11850104164126883,0.4834999999999998,194,10,295.0369177914065,580.4119038,mp-22977,CsVCl3,https://materialsproject.org/materials/mp-22977,10.512501347428634,-6.097400937817607,5.52610993751477,-5.663961590016072
-5.072747828,-25.36373914,9.181338467703512,-1.1944007515000004,0.0,0.0,0.5792000000000002,42,5,104.45756543018169,577.5595999999998,mp-755419,Bi2TeO2,https://materialsproject.org/materials/mp-755419,60.55468896348716,25.09070414391576,-8.604250342815693,-0.5045126942092143
-6.0949955525,-73.13994663,4.417164838198527,-3.580796668453333,4.99999995,0.2889070903747992,3.2831,36,12,201.69225755069263,536.5173156000001,mp-556850,BaMnF4,https://materialsproject.org/materials/mp-556850,-12.009396127462342,-29.870725056947393,7.780686675170343,-0.34062677833157257
-3.1669245,-6.333849,0.5980868125199947,0.7156561675000002,0.0,0.0,2.0935,8,2,555.9499564429602,200.24,mp-1181264,GeTe,https://materialsproject.org/materials/mp-1181264,-4.832637201147875,-42.82796039511038,8.432290121661527,-0.32296024144193586
-6.0730323925,-364.38194355,2.7706902941398943,-1.1464518708680005,0.000169375,1.800536653425552e-06,1.9676,14,60,1096.288274441348,1829.2104,mp-669498,K2Pt(NO2)4,https://materialsproject.org/materials/mp-669498,-1.8253056494188769,-23.56569371086121,9.123112641471415,1.5375593428946004
-5.153721578888889,-185.53397684,4.832216738190426,-1.1676094970511115,5.000000325,0.1047381802579935,2.6739000000000006,19,36,556.3427539683877,1618.97354,mp-771330,Mn(IO3)2,https://materialsproject.org/materials/mp-771330,-9.217364013412908,-38.53672376517163,8.125094842065923,-0.7199219555997898
-3.794516992,-37.94516992,2.8162608974341117,-1.8929619631060002,0.0,0.0,1.3887,225,10,278.6590641996391,472.60353856000006,mp-1111488,Na2SmCuCl6,https://materialsproject.org/materials/mp-1111488,12.70761805448034,-12.527850369788329,9.005758969484065,-3.1586586798119516
-4.6598059030000005,-46.59805903,4.641011395825252,-0.2376096432514885,3.0000002999999995,0.1404818728904176,0.7765,5,10,248.87337486716632,695.571824,mp-1226281,CrAg(PSe3)2,https://materialsproject.org/materials/mp-1226281,25.052048006338982,-1.2863355396025422,6.5880156881395395,-6.572341293178859
-4.399841977857141,-123.19557538,6.930993033677368,-0.7776082716071429,8.5e-07,1.3719716204422071e-08,1.1131000000000002,62,28,722.0233209694892,3013.6832,mp-641924,Bi2PbS4,https://materialsproject.org/materials/mp-641924,72.23029557994627,20.959313365531305,8.681682174855512,-6.67270337503312
-3.210929917,-32.10929917,4.089573597123321,-0.8761134205189656,3.0000001,0.08190382735136892,1.0856,225,10,426.86888529759534,1051.29218928,mp-1114447,Rb2NaMoI6,https://materialsproject.org/materials/mp-1114447,10.517588402229483,-7.678906059555008,7.096686579285878,-2.6490497419104724
-6.903865919553572,-773.23298299,3.795925589356009,-2.157910175198979,0.0,0.0,2.2502,224,112,1696.9017671604036,3879.0493240000014,mp-560580,K3Mo12PO40,https://materialsproject.org/materials/mp-560580,-4.725712573858804,-41.16012707105352,8.747563432934678,2.307399768026277
-6.521598897142857,-45.65119228,7.887947898448161,-2.2889214446428565,6.929999999999999e-05,6.1791568213063185e-06,0.0,166,7,130.70176273138324,620.86387,mp-753380,La(BiO2)2,https://materialsproject.org/materials/mp-753380,35.52065452076025,-8.402068836640723,-8.604250342815693,-0.5045126942092143
-3.943164323,-39.43164323,3.310656194630024,-2.101108458774965,0.0,0.0,2.3294,225,10,296.65172368942336,591.4416,mp-1112436,Rb2NdCuCl6,https://materialsproject.org/materials/mp-1112436,13.23583225935018,-12.309203471323139,8.296988785939053,1.648662013407484
-6.677548632142857,-93.48568085,6.337876487489494,-0.15210186564571362,0.0,0.0,1.9177,227,14,143.54945451556532,547.8936,mp-476,Ge3N4,https://materialsproject.org/materials/mp-476,21.93409145361475,-12.184454139028338,7.2377168119643525,-0.6974329333070879
-6.579131597142857,-92.10784236,3.7813735268729882,-1.1009716105357146,16.999999600000002,0.7714028877984281,0.40609999999999946,216,14,256.82960176272826,584.851445,mp-1221557,MnZn(CrS2)4,https://materialsproject.org/materials/mp-1221557,16.912359815515554,8.643435974680875,-5.4734986613408925,-3.0215104461388416
-9.270653962,-278.11961886,5.650888707127045,-3.642213735166668,1.0000001,0.03327275300872688,1.7153999999999998,1,30,350.2585414230529,1191.9455,mp-759463,Zr9VO20,https://materialsproject.org/materials/mp-759463,-2.9056991520531863,-41.05362334131579,8.198935779530307,0.11640746181107528
-6.991490674375,-111.86385079,4.4395127161863135,-1.988843515937499,0.0,0.0,1.9539,62,16,215.3524638646826,575.7528,mp-20589,MoO3,https://materialsproject.org/materials/mp-20589,-4.634073139635829,-40.95608247409177,7.645129111934527,1.3746613529692135
-6.1463926804166675,-147.51342433,6.81028547481778,-1.455837884947916,0.60735555,0.012342492911010064,0.0,62,24,573.4790346413388,2351.9808,mp-607004,CeAsSe,https://materialsproject.org/materials/mp-607004,45.704654721226596,4.71699756506684,-8.604250342815693,-0.5045126942092143
-5.373377210384616,-139.70780747,6.278517853066402,-1.6922472773269244,0.0,0.0,2.5380000000000003,15,26,525.730660273367,1987.79387712,mp-780246,Na2Bi4O7,https://materialsproject.org/materials/mp-780246,14.787112872607207,-29.605998147080825,6.709867297115707,-0.18812866692653624
-6.881216551630435,-633.07192275,4.734255878940539,-2.204731470087391,6.125e-06,4.7791948914517365e-08,2.3551999999999995,15,92,1493.5809974940205,4258.25256,mp-1199992,Nb3Te4ClO15,https://materialsproject.org/materials/mp-1199992,2.1203340163974618,-51.12661722004792,9.544714674598456,0.14823252098359144
-6.863677582888888,-308.86549123,3.2041986215778278,-2.4864513315555548,12.000000866666667,0.2460489743453364,2.2296,1,45,568.3778513728906,1096.7496,mp-759106,Li2Fe3(SiO4)2,https://materialsproject.org/materials/mp-759106,-9.725186638271794,-86.50011048913461,7.562687223915456,0.02250879284486173
-4.35962140875,-34.87697127,5.376653072978397,-0.771162178125,0.04431545,0.0016026553197929757,0.0,63,8,322.24965552283817,1043.41094,mp-1025418,LaTe3,https://materialsproject.org/materials/mp-1025418,-9.5813832651175,23.643404186808315,-8.604250342815693,-0.5045126942092143
-4.0125131040909086,-88.27528829,6.614421138517621,-0.8899298492006273,0.0005502,9.042013057385294e-06,1.0619999999999998,63,22,709.141470728703,2824.7215038000004,mp-1190323,CsTb2Ag3Te5,https://materialsproject.org/materials/mp-1190323,55.94238941952237,19.23902330197434,7.60622681941312,-6.1145855735344075
-7.506745609761904,-315.28331561,3.4926145582736754,-2.8625553998129245,3.9999998,0.08350247923612801,1.9280000000000004,15,42,558.2619484578959,1174.1932960000001,mp-17519,BaV2(P2O7)2,https://materialsproject.org/materials/mp-17519,-14.773390759497836,-49.08644139531657,8.061433071763954,1.0237270945058994
-8.2468107285,-164.93621457,7.423413145846649,-3.3104317657500015,1.999999975,0.0996392456871406,1.5490000000000004,62,20,233.9251877413189,1045.7588,mp-22789,DyVO3,https://materialsproject.org/materials/mp-22789,-13.634231139631096,-28.96868633189321,8.157758260267144,-1.7400823639161418
-5.572729792272726,-367.80016629,3.064103060550357,-3.0730699343899994,5.999999683333333,0.07549508033982294,2.0394,145,66,926.2111468741608,1709.08743576,mp-1221472,Na2MnVF7,https://materialsproject.org/materials/mp-1221472,-21.154687656475765,-50.91260807413178,9.212405718806538,0.39425865091178136
-5.19456578,-72.72392092,5.794685801698952,-1.6918959020535718,0.0,0.0,1.4057000000000002,227,14,388.586298578543,1356.02684,mp-15802,Tm2MgSe4,https://materialsproject.org/materials/mp-15802,49.70917029414154,8.355356014617106,7.959239316224912,-6.156746891866916
-4.5902718205,-91.80543641,3.4144848838889987,-0.7851919689375002,0.0,0.0,1.6058,14,20,559.3578117856118,1150.1799999999996,mp-5045,SnGeS3,https://materialsproject.org/materials/mp-5045,63.790070165159605,2.7957836616838856,8.789692994768895,-6.080148777764351
-4.056379595,-40.56379595,3.68937914296316,-2.121629448197379,1.0000002000000001,0.03795559359523752,0.26780000000000026,225,10,307.04478574759906,682.1909038,mp-1113363,Cs2CeCuCl6,https://materialsproject.org/materials/mp-1113363,12.564866075158127,-11.443629800226908,6.859023661042562,1.2250992898413908
-6.13987813340909,-270.15463787,6.8537146448174475,-0.5993898491420451,0.0,0.0,1.2095000000000002,15,44,1045.0740168053785,4313.44215424,mp-1196650,Na2(ReSe2)3,https://materialsproject.org/materials/mp-1196650,59.58057823574814,-1.360781294710153,7.90740357704662,-6.245144953507378
-8.005255952499999,-192.12614286,5.182226274948817,-2.547650818333333,4.999990625,0.21369109333234096,1.8479999999999996,3,24,272.68433932956225,850.99592,mp-37509,NbFeO4,https://materialsproject.org/materials/mp-37509,-4.933664514104629,-39.24609633004215,7.388115666322983,-1.8375881781782304
-3.2765138528571427,-91.74238788,6.892594472758153,-0.2549654092857142,0.0,0.0,0.6374,2,28,1029.7633227736574,4274.3596,mp-17217,Tl3GeTe3,https://materialsproject.org/materials/mp-17217,58.57201136968921,23.6965952133485,6.491402368172209,-6.504318376724508
-6.24159709625,-49.93277677,9.793323221141938,-0.5044550262499996,0.0,0.0,0.0,62,8,152.37558294236268,898.6619999999999,mp-20619,SbRh,https://materialsproject.org/materials/mp-20619,49.13756319995589,39.62081658367015,-8.604250342815693,-0.5045126942092143
-3.6600842589999996,-36.60084259,3.770319964517624,-1.3063296420413792,3.0000001,0.09018002101600668,1.5990999999999995,225,10,387.69336144731966,880.2732037999998,mp-1113043,Cs2KMoBr6,https://materialsproject.org/materials/mp-1113043,10.58739945448249,-7.783449645678041,7.262081099127336,-2.3642018646022773
-4.019617582857143,-28.13732308,3.769206152916609,-1.2351527714285713,4.9999995,0.34050905530877684,1.7795999999999998,65,7,171.12707320786518,388.43604500000004,mp-28250,Li2MnBr4,https://materialsproject.org/materials/mp-28250,17.228827625678893,-8.016059084066361,6.905531297329729,-0.6077841233583323
-3.676499566,-36.76499566,3.984679095736861,-1.218752633068965,2.9999999,0.11138051152024064,1.2695,225,10,313.8986585271616,753.2406,mp-1114422,Rb2LiMoBr6,https://materialsproject.org/materials/mp-1114422,10.50944373293719,-7.637129526059629,6.779900488507714,-2.6849064378362795
-4.44131313125,-35.53050505,5.449072541875951,-0.20514778992187568,2.9584357000000003,0.19693327396316,0.0,82,8,175.0735189610603,574.5051950000001,mp-1226052,CoCu2GeSe4,https://materialsproject.org/materials/mp-1226052,31.28484469895033,1.4346995001470102,-8.604250342815693,-0.5045126942092143
-5.3696941545,-214.78776618,8.353541002533113,-0.579433895375,5.539999999999999e-05,6.801757532596537e-07,0.0,223,40,949.2181767810516,4775.156,mp-680552,Nd3Sn13Rh4,https://materialsproject.org/materials/mp-680552,0.4762287681937574,50.076943982167634,-8.604250342815693,-0.5045126942092143
-5.281750245,-147.88900686,5.358174148630051,-1.4018462035714288,0.0,0.0,0.4310000000000001,62,28,914.3995926185852,2950.555296,mp-17501,Ba(ScTe2)2,https://materialsproject.org/materials/mp-17501,59.14004161569893,21.36465172075086,6.5347258190759065,-6.752329004847957
-5.49653755375,-131.91690129,5.898841211060598,-0.8514985301458337,3.9973410000000005,0.06522481656217624,0.009299999999999642,8,24,714.2261701510596,2537.19224,mp-1223557,KU2SbSe8,https://materialsproject.org/materials/mp-1223557,-15.087692018255419,15.60732889436613,-8.604250342815693,-0.5045126942092143
-6.334111977692308,-82.34345571,3.407253420195296,-1.2851500848076922,5.8859607,0.29045227816201824,0.0,166,13,236.16742716088243,484.591,mvc-11271,Mg(VS2)4,https://materialsproject.org/materials/mvc-11271,20.348629240176464,13.65291526437638,-8.604250342815693,-0.5045126942092143
-7.591547135151515,-501.04211092,3.0155405600134917,-2.6695493474350664,11.00000075,0.14687123741987332,0.06190000000000007,14,66,872.8374832999059,1585.073744,mp-767351,V5(P3O11)2,https://materialsproject.org/materials/mp-767351,-14.855156385378535,-48.71590003139418,7.161261351370831,-1.061733154344398
-3.53484238,-35.34842379999999,6.501333785575402,0.0015451859999998873,2.375e-05,8.651036393740341e-07,0.0,15,10,319.9432134496235,1252.64,mp-1078904,Sb2Te3,https://materialsproject.org/materials/mp-1078904,66.95020908247606,26.06330358049197,-8.604250342815693,-0.5045126942092143
-3.176999955,-6.35399991,4.922879812053348,-0.5004283316299998,0.0,0.0,0.32750000000000057,225,2,33.393401971435026,98.999,mp-571386,CuCl,https://materialsproject.org/materials/mp-571386,7.857288707609611,-2.4218408872675776,4.608961667325617,-6.288625324613265
-9.839279584,-98.39279584,7.8798402871186015,-1.182394217427999,2.12e-05,1.8623610118841053e-06,1.5297,26,10,132.6628787875637,629.5319000000002,mp-989407,YWN3,https://materialsproject.org/materials/mp-989407,34.573790082577304,-10.528740540658877,8.769815663773947,-2.8973399997541067
-5.822998782000001,-116.45997564,7.360799634182014,-1.8783132591562501,0.0,0.0,0.3403999999999998,62,20,500.57169319425077,2218.9228000000007,mp-15257,Tb2Se3,https://materialsproject.org/materials/mp-15257,50.61299757518015,4.466408035620426,6.074156296111022,-7.004528710127425
-4.199075686615385,-272.93991963,5.800978249323291,-0.8457216401185904,0.0001509,1.1485399832952913e-06,0.0,1,65,1531.1599071489356,5349.001199999999,mp-1225888,In16Bi8Pb3S38,https://materialsproject.org/materials/mp-1225888,39.412750528620684,-2.4672482175927923,6.496220416696228,-5.131078487496498
-5.695495542142857,-159.47387518,5.802825652426355,-1.363417872767857,0.0,0.0,1.2338,62,28,701.6102115462455,2451.807296,mp-542826,Sc2PbSe4,https://materialsproject.org/materials/mp-542826,55.482465560356175,6.6824492769424175,9.020657700520584,-6.2493132097975215
-4.5136797,-31.595757899999995,7.33688441302674,-0.6769914928571426,0.0005583999999999999,3.1941875033134673e-05,0.0,115,7,203.73349285997426,900.171,mp-1219184,Sm2CdSb4,https://materialsproject.org/materials/mp-1219184,3.853091188377881,32.933115679300215,-8.604250342815693,-0.5045126942092143
-7.47159691,-29.88638764,5.891044739503068,0.32521480412250003,3e-07,5.275629899562246e-08,0.0,65,4,66.27112777676106,235.1081,mp-1245892,PtCN2,https://materialsproject.org/materials/mp-1245892,0.8537388612926802,-2.234053492613602,3.586730212456961,-4.929958149652559
-5.556582253999999,-55.56582254,8.286319195335714,-0.6413220594999999,8.5e-07,4.892824068345677e-08,0.0,129,10,202.4588441829069,1010.2976,mp-976380,Nd(NiSb)2,https://materialsproject.org/materials/mp-976380,2.169291698166013,35.359455969428915,-8.604250342815693,-0.5045126942092143
-6.7159892493,-671.59892493,4.975745337154367,-2.65146158163125,0.00041875,1.9633709317073253e-06,1.9503000000000004,120,100,2485.5922763742137,7447.987600000001,mp-1224734,La20S29O,https://materialsproject.org/materials/mp-1224734,47.22067863822542,1.0580272858046502,7.360220000524009,-4.67375712087994
-7.486202547777778,-67.37582293,6.153683984036523,-2.7707669076388903,8.0000005,0.7359017739867734,0.7647000000000004,1,9,126.69153316810137,469.49794,mp-1097052,La2Fe2O5,https://materialsproject.org/materials/mp-1097052,-26.860866316500797,-16.552753138704453,-8.604250342815693,-0.5045126942092143
-9.063527111388888,-326.28697601,3.2023569990485856,-1.4808234053037037,3.3e-05,6.589643086910857e-07,1.6321,7,36,583.6190707481218,1125.512,mp-1247012,SrTi7N10,https://materialsproject.org/materials/mp-1247012,35.34025513804036,-14.748176431551068,9.628106023057398,-2.4025114292524643
-4.4118396505,-88.23679301,7.471104015889582,-1.1867694197499998,0.0,0.0,2.1443000000000003,2,20,334.44866577082354,1504.7528,mp-28318,HgTeO3,https://materialsproject.org/materials/mp-28318,4.890276945293628,-21.610976631299682,9.042012307346855,-0.08242196188631136
-7.8061893925,-31.22475757,9.51337963192951,-0.7417853125000011,3.7000000000000006e-06,5.212162832581286e-07,0.0,225,4,82.72964802428473,473.9657,mp-1187762,Y2RuPt,https://materialsproject.org/materials/mp-1187762,15.211361913209748,52.04449019479803,-8.604250342815693,-0.5045126942092143
-5.6444697269565225,-129.82280372,3.1847317759919997,-1.898292011195652,18.000142899999997,0.8131936554618799,0.0,8,23,257.96417601509927,494.74700000000007,mp-764936,Li8(FeO2)5,https://materialsproject.org/materials/mp-764936,-21.595715201496205,-80.65304154108459,2.4779058837218995,-4.609393046170424
-7.0043606634090905,-308.19186919,5.211645409012812,-2.518823293068181,5.002268475,0.10074584291949236,2.7015,14,44,578.6517748823571,1816.1138,mp-22208,PrFeGe2O7,https://materialsproject.org/materials/mp-22208,-18.451514466538576,-34.87359320478136,9.275626516762124,0.19860746423713546
-6.072369163888888,-109.30264495,7.749889989656515,-1.031176551944445,5.9e-06,1.3326530317797505e-07,0.0,193,18,515.95562024329,2408.01282,mp-9436,La3HfSb5,https://materialsproject.org/materials/mp-9436,1.1744379461236354,33.80728926073617,-8.604250342815693,-0.5045126942092143
-6.690564290789473,-254.24144305,2.9781491073889064,-1.9278109146672944,30.9999978,0.6586568661451354,0.8621000000000001,2,38,548.5040859360003,983.73294128,mp-704387,NaFe7(PO4)6,https://materialsproject.org/materials/mp-704387,-21.785821201959894,-79.52781024405033,5.867702710601115,-4.379342637138187
-10.04998643,-120.59983716,8.889405033213379,-0.4284629315866664,1.625e-06,1.1963519653368184e-07,0.5661,12,12,158.29668696266805,847.4136,mp-1101178,WN2,https://materialsproject.org/materials/mp-1101178,34.34436828305961,-7.008405444245581,4.1419821457461055,-3.223866008827054
-6.445326595384616,-83.78924574,3.100066386965701,-1.7600810060897445,0.300813,0.013857485196701836,0.0,166,13,252.98199035871062,472.293,mvc-11283,Mg(TiS2)4,https://materialsproject.org/materials/mvc-11283,19.86951351724869,14.513112148092508,-8.604250342815693,-0.5045126942092143
-7.741783489499999,-154.83566979,3.953554236512724,-3.305641912083334,7.1e-06,4.0984308455520345e-07,2.6362,62,20,201.8915604614251,480.6808,mvc-3783,MgTiO3,https://materialsproject.org/materials/mvc-3783,2.973927125489823,-42.61740547875437,8.914964343894932,1.5554208281029045
-4.4210830450000005,-44.21083045,3.435846566663729,-2.026473612024966,5.9999998,0.2414726303519459,0.0,225,10,289.57479032977994,599.1636,mp-1113297,Rb2EuCuCl6,https://materialsproject.org/materials/mp-1113297,-18.742588486276773,10.079906410353589,-8.604250342815693,-0.5045126942092143
-6.3081901034375,-201.86208331,4.326287405571257,-2.0047258054612502,7.999997425,0.22523787669558915,1.7672,9,32,413.9289960421054,1078.4304127999999,mp-1224755,Fe2AsO4F,https://materialsproject.org/materials/mp-1224755,-14.94425135442752,-38.11310215141216,8.766070569744995,-0.3643698546132821
-6.86484407109375,-439.35002055,2.813755510330388,-2.805892557072857,2.00006565,0.026274822365683775,2.0617,33,64,887.1190187346148,1503.2082758400004,mp-1238774,NaVPO4F,https://materialsproject.org/materials/mp-1238774,-16.425779504297637,-49.36708595584466,8.200754625849077,1.3995501563473327