energy_per_atom,energy,density,formation_energy_per_atom,total_magnetization_uB,total_magnetization_T,band_gap,sgr,num_sites,cell_volume,weight,mp_id,formula,URL,tsne_xrd_lin1_0,tsne_xrd_lin1_1,tsne_xrd_lin2_0,tsne_xrd_lin2_1
-3.190201816666667,-38.2824218,5.3745746271791175,-0.2898670291666671,0.0,0.0,0.7904999999999998,15,12,327.18501675445424,1058.9816,mp-28900,Cd2As3Br,https://materialsproject.org/materials/mp-28900,5.223960111094443,20.25961466513153,17.965170724056847,-15.00481489304105
-3.8067393175,-106.58870089,4.2656905999326185,-1.913637406687192,0.0001618,1.6729529905644253e-06,4.163,167,28,1127.1253232070678,2895.4259914,mp-1192709,Cs3Ho2Br9,https://materialsproject.org/materials/mp-1192709,-30.761197946830354,-14.898624542292303,-20.38735684211451,-8.492139171154315
-3.056566864,-15.28283432,4.214402684197766,-1.6517884331973791,0.0041825000000000005,0.00027884446701332356,0.0,8,5,174.8039917496441,443.64775189999995,mp-1080231,CsTlCl3,https://materialsproject.org/materials/mp-1080231,1.5257633279845004,-30.423839783769523,-9.751528841273132,-36.268233581235286
-8.302609455,-365.31481602,4.488930774034602,-3.226273935871214,0.0,0.0,2.2225,57,44,585.8796274720099,1583.8068400000002,mp-557384,MgUB2O7,https://materialsproject.org/materials/mp-557384,28.04311499780765,-40.94172426734428,13.093018792163301,-21.43622593939481
-7.195368357758619,-417.33136475,4.984205774629546,-3.0197093135431032,0.0018369,2.2472792816757748e-05,2.954,194,58,952.5897272879962,2859.2541971200008,mp-1214677,Ba6Na2Nb2V2O17,https://materialsproject.org/materials/mp-1214677,-18.68523118438994,17.477744414765073,-17.415273200582394,47.36387269748046
-6.643920815652175,-152.81017876,4.867783206994707,-2.5302868807298147,8.999999699999998,0.3067579239869244,2.4553,150,23,341.91970689333715,1002.319709,mp-1228226,Ba3Co3Te(PO7)2,https://materialsproject.org/materials/mp-1228226,4.046826143469498,25.35884800808323,-5.866850456647756,29.239076739278413
-8.887429425588236,-302.17260047,7.123254958121178,-2.7280366164705887,13.99999965,0.3307607235922779,3.2221,15,34,493.2777415798415,2116.0256,mp-773192,Gd2(WO4)3,https://materialsproject.org/materials/mp-773192,11.211928521447453,21.8246642924278,40.056924882825314,-4.068974567750758
-6.191852913333333,-74.30223496,3.804271804013772,-0.1491016075749426,1.550559375,0.06702637072810466,0.0,62,12,269.6001468325459,617.65018,mp-1247531,RbMnN,https://materialsproject.org/materials/mp-1247531,5.306521759081323,18.2813416478877,34.87770839277959,-3.2156734519128585
-5.289929818333333,-126.95831564,4.161480606537256,-2.9472648686544822,4.0000008000000005,0.11069816409662936,0.0994,129,24,421.1114863007018,1055.3484388,mp-504524,CsMnF4,https://materialsproject.org/materials/mp-504524,-8.694909771594958,-32.76274410804897,15.01365423780776,-16.90307790390955
-8.536488568181818,-187.8027485,3.928794615445753,-3.684642298295456,0.0,0.0,4.9322,14,22,292.4616135401912,691.957,mp-7999,Y2Si2O7,https://materialsproject.org/materials/mp-7999,7.075274787923889,23.900106058388637,2.9123878901904714,35.852165953113904
-2.14937492,-21.4937492,4.7424274776504065,-0.14010389648275884,4.5e-07,1.2271373051575984e-08,0.07189999999999985,119,10,427.3628652319672,1220.5298076,mp-567752,Cs2In3,https://materialsproject.org/materials/mp-567752,2.9404911978358386,-11.414802324696307,0.5868437489056748,-2.3532042160313758
-4.70106644,-84.61919592,3.4360469495344192,-2.5925159525931614,0.0,0.0,5.2808,82,18,328.4164470934091,679.5710935,mp-30927,CsAs4F13,https://materialsproject.org/materials/mp-30927,8.071304252221402,-26.00833593453402,-7.516367327919725,-34.314446970135364
-6.873477551428572,-96.22868572,3.7314023508207073,-2.7218551393596067,0.0,0.0,3.3689,164,14,255.96843391412145,575.1874499999999,mp-1209350,Rb3YV2O8,https://materialsproject.org/materials/mp-1209350,-18.748133656366704,4.676061249625815,-6.893217436720805,0.2665390229016641
-7.00397609375,-168.09542625,4.429748089567325,-2.9719744055208346,0.9999995,0.0306981306687345,0.18049999999999988,113,24,379.6341565969279,1012.7336,mp-11613,Ba2CuSi2O7,https://materialsproject.org/materials/mp-11613,3.85039515298921,25.546250450642294,32.27472386578405,-6.831351386581953
-5.5276845802941175,-375.88255146,6.650974782749008,-1.5949364924264708,0.0,0.0,2.8002,14,68,1102.889920944794,4417.4168,mp-28990,Bi2Te4O11,https://materialsproject.org/materials/mp-28990,1.923701151296734,-17.197512863610527,27.571995984323703,-6.39039795349172
-4.6927797,-56.3133564,4.898613848404764,-1.3663747783666669,0.0,0.0,1.1375000000000002,12,12,359.74168469198617,1061.2431,mp-1227985,Ba6Br2N3Cl,https://materialsproject.org/materials/mp-1227985,-13.72241972644884,20.76365475553857,-14.988856000631573,12.697302720692914
-5.795195795555554,-417.25409728,2.4439979782740333,-1.8045058808772028,6e-07,7.330540597043599e-09,4.1979,62,72,953.877653492003,1403.9266771199998,mp-505772,Rb2NaH5(CO4)2,https://materialsproject.org/materials/mp-505772,0.38336206121913735,-14.89739863111878,18.710547673494162,-21.49654949180506
-4.213885126,-84.27770252,6.178896476083954,-1.2606643192500002,0.0,0.0,0.3803000000000005,148,20,775.5628319175926,2885.88364,mp-1105808,Er7IrI12,https://materialsproject.org/materials/mp-1105808,-24.79688579140653,-37.97552418601488,-34.11265092009089,-23.776419472376233
-6.218591274615385,-80.84168657,3.60205917208692,-2.1662750742979844,4.9999996,0.1863116625373856,1.8647,35,13,312.757228439631,678.4363487999998,mp-572800,Cs2MnV2(BrO3)2,https://materialsproject.org/materials/mp-572800,11.37398373969478,-18.002481841831226,17.487474645234578,-10.927600201134279
-3.5300268810000004,-35.30026881,4.891783182302516,-0.4853039814827589,0.0,0.0,0.8815999999999997,63,10,418.0391389276225,1231.5018076,mp-1078965,Cs2Sb2Pd,https://materialsproject.org/materials/mp-1078965,6.421966927345929,-5.094666051967197,13.078093452619074,-10.656119469953364
-6.848963240897437,-534.21913279,6.733775166723615,-2.554828406282052,5.90759505,0.0525679377627697,0.0,88,78,1309.6860613678673,5311.0052,mp-559484,Ba11(OsO6)4,https://materialsproject.org/materials/mp-559484,5.550743463623984,24.57627520274914,-5.675377606708229,32.13488635392964
-7.3440031675,-146.88006335,4.836286295170956,-2.67746957225,4.999999275,0.1747806821282002,1.7483000000000004,31,20,333.39105159722806,970.9946800000001,mp-605340,LaFeO3,https://materialsproject.org/materials/mp-605340,-18.335949171385924,6.954069192827874,30.826649558453287,-5.9283750561959305
-7.382126211375001,-590.57009691,2.8941003531263982,0.18727380050633397,0.00143225,1.1526882745343613e-05,3.6372,57,80,1448.0527510563352,2523.7648,mp-669526,HgB(CN)4,https://materialsproject.org/materials/mp-669526,39.96442177305483,-34.97245717650042,46.21618082082377,-33.78292410732419
-5.041797052857143,-141.17031748,3.4975071430523395,-1.6789645940601414,0.0,0.0,3.6221,15,28,515.9188497615143,1086.65308,mp-23897,Rb3H(SeO4)2,https://materialsproject.org/materials/mp-23897,0.7790047571191197,-21.01507239112304,18.652323115672157,-13.536691592246378
-8.013695442222222,-288.49303592,4.522902487851847,-2.995981327277778,0.0,0.0,2.0507,14,36,622.7652906939791,1696.2604399999998,mp-1181308,KUVO6,https://materialsproject.org/materials/mp-1181308,38.76282201753281,-36.051548824444474,45.93781532747575,-34.03935654514453
-6.278427405978261,-577.61532135,7.612066541173707,-1.867628119076088,0.000390475,3.093642397859331e-06,2.6385,14,92,1470.958939925986,6743.0136,mp-1204598,Bi6Mo2O15,https://materialsproject.org/materials/mp-1204598,1.6685030679863782,-17.66814110221111,27.548745593786112,-6.187407472038151
-4.917835436375,-393.42683491,2.51060263872571,-1.2742063904414995,0.0,0.0,4.4527,186,80,839.6606373032525,1269.49994,mp-1216448,YH18(BrO6)3,https://materialsproject.org/materials/mp-1216448,6.414305372787258,-29.09925478449255,18.877758124449326,-17.669425917930738
-3.3065836675,-66.13167335,5.253750056081801,-0.23072302550000004,5e-08,7.379028770333599e-10,1.0560999999999998,167,20,789.6747075586225,2498.43782,mp-1205361,Te6RhI3,https://materialsproject.org/materials/mp-1205361,-5.817981049195574,-7.559484823315282,2.1153672100425576,-38.36090719223018
-4.884803846666666,-29.30882308,5.717198054514817,0.1892739992066665,5e-08,3.808822385275194e-09,0.0,129,6,152.98776883918237,526.7334000000002,mp-1245707,SbTeN,https://materialsproject.org/materials/mp-1245707,-12.824796163622294,17.87189727998603,-12.85147571249576,24.532060884212516
-2.5180249591666666,-30.21629951,5.272502361864212,-0.04746185138888906,0.00012415,4.8546657360577275e-06,0.0,227,12,298.0333189094528,946.308,mp-1210993,LiIn2,https://materialsproject.org/materials/mp-1210993,1.5736792207223136,29.220043920308047,30.02828023748561,-4.151720015478071
-7.314722353611112,-263.33000473,5.729209060165697,-2.9293565900694443,0.00040945,7.851449191213197e-06,2.4083,15,36,607.7549131267117,2096.8823199999997,mp-1228322,Ba5Nb2O11,https://materialsproject.org/materials/mp-1228322,-20.739115427465613,12.325501047324336,-28.70161403279563,47.805432941197864
-7.77678160671875,-497.71402283,6.320014108255856,-2.9157725034374997,0.000266425,2.8963990946555787e-06,3.5907,61,64,1071.998058816696,4080.0262399999997,mvc-7472,CaTaBiO5,https://materialsproject.org/materials/mvc-7472,10.399801657643868,-24.190835430801577,41.32871172302638,-5.261498900507309
-5.234214875555555,-94.21586776,5.204328185333639,-3.4040170541266668,1.00000075,0.04038703641784889,0.8405,64,18,288.5597594370109,904.3808384,mp-3879,Ba2CuF6,https://materialsproject.org/materials/mp-3879,3.337151815793879,-24.470820336762056,-1.535857523189717,-25.887753519847607
-7.664970566,-919.79646792,4.2946532785621425,-2.8388133121500005,2.7066666666666666e-05,2.074034599495472e-07,1.7153000000000005,62,120,1520.8843988781507,3933.46438272,mp-1194823,NaNbO3,https://materialsproject.org/materials/mp-1194823,-11.32515465386582,49.89208899153815,9.815671916667034,36.57161624958953
-7.5494054785000015,-150.98810957,3.9227197735695385,-2.5946817463,0.0,0.0,4.2959,15,20,269.26228461261553,636.0829,mp-1211249,KTb(CO3)2,https://materialsproject.org/materials/mp-1211249,31.18478402706356,-17.576061140477016,43.90998447243288,-29.195261711618468
-3.98781557125,-31.90252457,5.521521587146298,-0.7174799890885417,0.0,0.0,0.045199999999999914,23,8,223.01131058164418,741.5434,mp-569790,BaAg2GeSe4,https://materialsproject.org/materials/mp-569790,6.039951705635378,-22.134193715989326,17.184750224448894,-18.597159097055254
-6.970993925000001,-306.7237327,2.9882167950634244,-3.0061607473214305,0.0,0.0,5.1624,14,44,494.68764594896146,890.2132960000001,mp-1195826,Mg2P2O7,https://materialsproject.org/materials/mp-1195826,6.480248505277465,31.797851458995808,31.152594089163852,-3.5497400687146254
-6.848143800714285,-95.87401321,5.936397414380575,-0.9214788460199992,0.000277,9.087872969288052e-06,0.6057000000000001,176,14,355.21798697104066,1269.8979599999998,mp-1247074,Ba3TaN3,https://materialsproject.org/materials/mp-1247074,2.139453500173286,25.885212345942875,-16.154822259531514,41.89040341669906
-5.398273702916666,-259.11713774,7.731486781342988,-2.216536949563333,1e-07,1.3900177417845553e-09,3.2117,61,48,838.4112247083825,3903.6512511999995,mp-760162,BiOF,https://materialsproject.org/materials/mp-760162,6.87538041941677,-32.89628322101086,21.26629662400446,-19.85227630207326
-5.666729110416667,-136.00149865,5.655845497495204,-1.8132279823697919,0.0,0.0,1.5553,173,24,518.7782228171363,1766.9741000000006,mp-554781,Tb3CuSnS7,https://materialsproject.org/materials/mp-554781,9.146986030258507,-19.711622644841114,14.002810766643504,3.697508327216244
-10.968513917000001,-438.74055668,6.5576878953635385,-3.94170504225,34.9994751,0.6469267295434573,3.0149,24,40,630.4982174856794,2489.9207,mp-752459,Gd5Y3O12,https://materialsproject.org/materials/mp-752459,19.354482442383798,59.677825073501175,-5.5810603982197,36.98140296075877
-2.4155763818181817,-53.1426804,6.3732965320940265,-0.6431321568181819,0.0,0.0,2.1721,128,22,881.361033710391,3382.7420399999996,mp-570339,Tl4CdI6,https://materialsproject.org/materials/mp-570339,5.940178081580616,27.40983778797727,33.304616923416624,-6.384240104678828
-3.815455814285714,-106.8327628,4.19547300802426,-1.9152963456157637,0.0,0.0,4.0904,167,28,1136.4825702739254,2871.4061114,mp-669304,Cs3Tb2Br9,https://materialsproject.org/materials/mp-669304,-30.71677157051109,-14.860738040441964,-20.438100504920786,-8.430208071249785
-6.1181486172222215,-110.12667511,3.801461076418613,-1.8500876599377392,1.9015723000000002,0.07147026387985365,0.0,46,18,310.0736663174985,709.8496,mp-1076401,Rb2Cr2O5,https://materialsproject.org/materials/mp-1076401,20.643400036677853,59.09154216563618,32.820030274940216,-4.684381779541738
-2.917750844,-29.17750844,4.976250102811815,-0.8805094474741381,0.10003200000000001,0.002855706445195873,1.3272000000000002,194,10,408.2280268302332,1223.3646494000004,mp-505212,Cs3AuO,https://materialsproject.org/materials/mp-505212,-18.29124006876888,-35.48337876233596,-15.280938566685546,-29.82925276395724
-7.383817824285713,-51.68672477,6.235658134495997,-2.8642040294519697,1.0,0.07721012881099665,0.3134999999999999,139,7,150.93958463775888,566.8085037999999,mp-1025274,Cs2NpO4,https://materialsproject.org/materials/mp-1025274,-7.225973626910819,-26.7065448887423,18.341629970195925,-22.030758840558924
-6.686423229583332,-320.94831502,3.2157233391237448,-2.6518668334949718,0.0,0.0,3.4711,14,48,877.6257701218187,1699.5695999999996,mp-559758,Rb2CaV2O7,https://materialsproject.org/materials/mp-559758,7.378883572991357,22.128874551109124,24.442075878641106,34.67968036242698
-2.683608475,-26.83608475,4.128007397200632,-1.272227928241379,3.195e-05,8.603771365478823e-07,3.3159,194,10,432.7722735372339,1075.8477238,mp-29751,CsMgI3,https://materialsproject.org/materials/mp-29751,-17.34336611867506,-36.08891201727883,-14.821483720997332,-30.42923172659952
-5.562475591818181,-244.74892604,5.893075840220808,-1.6315872442045454,2.1899999999999997e-05,4.172600762979284e-07,0.0,62,44,611.6665193168983,2170.7392,mvc-8983,ZnSb3O7,https://materialsproject.org/materials/mvc-8983,19.397102429225345,58.793357217314615,-5.821231097840136,35.68828614718821
-4.6849677367857145,-131.17909663,3.442877485752921,-1.3438385366964287,0.00011240000000000001,1.6010573854419097e-06,2.4663000000000004,62,28,818.1573579726238,1696.326,mp-1194183,Ca2SiSe4,https://materialsproject.org/materials/mp-1194183,1.8586274045226563,-11.959024705834867,9.452501093752927,-13.616781282411775
-1.71229961125,-13.69839689,2.399439916301751,0.4064290322413793,1.0246269000000001,0.03032554733985103,0.0,194,8,393.76266243396685,568.9778,mp-974572,Rb3Si,https://materialsproject.org/materials/mp-974572,-0.4939032070620178,-17.010028551271674,22.23864272530837,-17.55547792479455
-8.893847729736843,-337.96621373,7.3541697037813725,-3.2060513345723685,55.99999989999999,1.1369210818454554,2.7998000000000003,87,38,574.0307190351226,2542.2584,mp-16538,Ba5Gd8Zn4O21,https://materialsproject.org/materials/mp-16538,-6.699070188234385,34.83667040867333,-2.246215967307269,50.003956254917995
-5.565205685,-144.69534781,4.722868684525499,-1.3678559616666666,3.5e-07,5.809969145619625e-09,0.0,12,26,702.0558230453186,1996.77176,mp-510357,La4B4Br5,https://materialsproject.org/materials/mp-510357,0.2773673090286529,-14.745086704574268,20.370060078782018,-14.759172039593448
-5.776493833888888,-207.95377802,2.2209125108954813,-0.8067433821933329,0.9999998999999999,0.023528407413711826,0.2574000000000001,13,36,495.318845947962,662.4715199999998,mp-600520,SrCuH4(CO2)4,https://materialsproject.org/materials/mp-600520,27.38192077166936,-20.344819051248074,23.497935512993642,-52.27958281752285
-5.118815093928572,-143.32682263,4.459427698349043,-2.2139169678263553,1.25e-07,2.0947496355329485e-09,2.1247,14,28,695.4330349838355,1867.6064,mp-778968,Rb3DyO3,https://materialsproject.org/materials/mp-778968,8.415249920137096,28.19748942142313,31.120975436395305,-4.912665631669631
-5.2892310616666665,-31.73538637,5.9740001827127776,-2.0311272133133342,1.5e-07,2.0059756795065988e-08,1.8703000000000003,129,6,87.14511016972695,313.51560639999997,mp-989191,SbOF,https://materialsproject.org/materials/mp-989191,-11.281864698577635,-24.406242584813405,-10.78591432692752,32.71576493035272
-3.8817715306666662,-116.45314592,4.736377378070029,-1.1028708738706432,0.0,0.0,0.8679999999999999,140,30,1136.4144409825215,3241.40988,mp-1192750,Rb2Ba6Sb5HO,https://materialsproject.org/materials/mp-1192750,7.861007377285006,-23.527020783198555,22.017339485083195,-17.948971692468103
-5.283858659444443,-190.21891174,7.326150799750987,-1.9821740354166668,0.0,0.0,0.8080000000000003,62,36,692.142306798376,3053.6704,mp-18327,Ba2Tl2O5,https://materialsproject.org/materials/mp-18327,-18.96054753494053,6.791045124039187,-16.788429473902394,37.728392607401254
-6.028240362916668,-144.67776871,6.876995517977568,-1.7862824554166667,0.0,0.0,3.1807000000000003,14,24,336.01933651995625,1391.5984,mp-27911,BiAsO4,https://materialsproject.org/materials/mp-27911,9.962633631264818,16.18196187340082,27.58626494451867,-3.0701342672863285
-6.8848568540625,-220.31541933,5.024920645181863,-1.44969834734375,4.8599999999999995e-05,1.3689612342399629e-06,0.0,62,32,413.73527151837516,1251.9952,mp-1197076,BiC2O5,https://materialsproject.org/materials/mp-1197076,21.84626344968779,-16.303286716534902,21.72980362422639,-19.56210496666218
-7.85442865575,-314.17714623,7.5960758013695004,-2.8687807630000015,0.0,0.0,2.8612,32,40,605.836595068181,2771.3776,mp-647557,ZrPbO3,https://materialsproject.org/materials/mp-647557,-22.583042697728953,20.49873742533487,-17.481473612791188,47.629542177915475
-6.633509856875,-212.27231542,4.9517285435314315,-2.03551313984375,1.000009375,0.02320200693808557,2.5139,62,32,502.29163625870973,1497.8339999999998,mp-622171,VSb2O5,https://materialsproject.org/materials/mp-622171,7.567068590102671,28.01761362050352,33.01779475091944,-3.2116878839591463
-6.32811713275,-253.12468531,2.2788314218303682,-2.4851377206,0.9999185875,0.017355238069474574,0.2088,14,40,671.4466225909969,921.456,mp-1199261,KSiO3,https://materialsproject.org/materials/mp-1199261,7.446043492300492,29.14667031071412,30.983758204180496,-5.102370779597223
-3.1363074231818184,-137.99752662,2.042234254416308,-0.3088392941563633,4.0575e-05,9.125008914395941e-07,1.7421000000000002,62,44,518.2062643255098,637.32231424,mp-1180690,Na2Mg2NiH6,https://materialsproject.org/materials/mp-1180690,-3.967554466492078,5.944655664395134,-4.448905365073352,-2.536541169300808
-7.2086464404166675,-173.00751457,4.095182303680383,-3.384557861354168,0.0,0.0,4.4569,113,24,378.82593250811806,934.2516,mp-9338,Ba2MgSi2O7,https://materialsproject.org/materials/mp-9338,3.942601124444013,25.56411279344563,-5.647316878127532,29.58410385498702
-4.974704160416667,-119.39289985,7.072494130957133,-1.254210003750001,7.085e-05,2.1986111697937666e-06,2.3974,29,24,375.5509389199115,1599.5298799999996,mp-1191266,BiIO4,https://materialsproject.org/materials/mp-1191266,-10.39011252977677,-29.3604329609445,-1.1002095076984195,-29.048994189952865
-4.332594424,-21.66297212,7.260920885805485,-0.7623225949999999,0.0025691999999999998,0.00017075193863342548,1.1115000000000004,160,5,175.35158577578312,766.7474,mp-1222293,LuBiTe3,https://materialsproject.org/materials/mp-1222293,-6.17303625501994,-30.10604403636137,-7.268644837879678,-27.162744133773842
-4.764837632857144,-66.70772686,4.471665912074467,-2.216533004094828,0.0,0.0,2.1059,14,14,363.2136860422001,978.0982075999999,mp-753801,Cs2Sr2O3,https://materialsproject.org/materials/mp-753801,8.019402316617276,22.1695003311725,28.41267253078492,-3.5246061410001968
-3.70636917,-14.82547668,5.001771126929076,-1.301826418796875,0.008915000000000001,0.0008456747240429718,0.0,166,4,122.85573222605898,370.0583,mp-10989,KYbSe2,https://materialsproject.org/materials/mp-10989,-23.73637496142149,-36.52051359734912,-33.63866598480806,-23.57684741611351