energy_per_atom,energy,density,formation_energy_per_atom,total_magnetization_uB,total_magnetization_T,band_gap,sgr,num_sites,cell_volume,weight,mp_id,formula,URL,tsne_xrd_lin1_0,tsne_xrd_lin1_1,tsne_xrd_lin2_0,tsne_xrd_lin2_1
-5.974818203333334,-35.84890922,7.01660032388417,-0.4257449438888893,4.025e-05,4.090691268469288e-06,0.0,129,6,114.6691540158818,484.534,mp-1076973,TiGeSb,https://materialsproject.org/materials/mp-1076973,-32.862237406812305,14.8111738040486,-24.007799631138358,35.915279692137034
-6.428720939,-64.28720939,5.584712282376503,-2.41299761925,0.9506085,0.08650343948474924,0.0,87,10,128.06950912395763,430.7224,mp-1079351,Sr2CuMoO6,https://materialsproject.org/materials/mp-1079351,-20.45511463079215,37.615217457869775,-13.642128672611895,57.51976941431197
-6.256364925714286,-175.17821792,5.904728930373987,-1.9919031252678576,0.0,0.0,2.9644,176,28,438.6360706158932,1559.7508,mp-29218,Ge3Bi2O9,https://materialsproject.org/materials/mp-29218,6.213138032173829,12.257677847710884,13.926897278281894,2.9957154717793517
-6.705983915999999,-33.52991958,6.639630730804763,-0.7351230229999999,6.1e-06,9.025418009574558e-07,0.0,139,5,78.76620787779464,314.94503999999995,mp-5112,Pr(CoSi)2,https://materialsproject.org/materials/mp-5112,-60.97985324592678,15.749872689594088,-59.831012067585675,24.85133715257336
-5.65223533625,-45.21788269,5.167573829324998,-2.0931913331250005,0.0,0.0,0.0,63,8,117.71570613187393,366.3296,mp-5787,SrCuO2,https://materialsproject.org/materials/mp-5787,-17.964053117547163,25.959349612737714,8.266688387230102,48.82432298197436
-6.114838778333334,-36.68903267,6.699906673999378,-0.517365195,1.17e-05,1.216985662609765e-06,0.0,12,6,112.04121957077713,452.0614672,mp-571542,CeAlCo,https://materialsproject.org/materials/mp-571542,-13.732016276654706,12.950420836367462,-26.942673137051468,12.759977491467184
-7.383362170909091,-162.43396776,6.137774069852448,-3.0159724846590916,0.0,0.0,3.455,11,22,315.0626552699017,1164.5516,mp-780293,Dy2Ge2O7,https://materialsproject.org/materials/mp-780293,-0.8687431516340861,23.998451391208572,8.613044760577244,27.486517505960585
-3.5195398383333334,-21.11723903,2.852130696287775,-1.3898986198024428,0.0,0.0,2.7465,129,6,144.93978458012216,248.9476,mp-8751,RbLiS,https://materialsproject.org/materials/mp-8751,-30.828244279693532,19.476523675338253,-21.321737561900196,28.069472060061926
-6.3466061625,-76.15927395,2.970981535619462,-1.6946088166666666,0.0,0.0,1.7254000000000005,67,12,145.87336468569094,260.9918,mp-753425,LiCuCO3,https://materialsproject.org/materials/mp-753425,5.956248558245872,30.155964134154907,35.81830343658811,-57.16967772755146
-4.6539397275,-260.62062474,4.778790954783227,-0.627576365654762,1.0000001,0.01303104011995678,0.0,62,56,894.3312145987641,2573.75576,mp-1196400,InIO5,https://materialsproject.org/materials/mp-1196400,39.11027503404652,0.6644366780172136,52.069324117217754,3.732475927494104
-6.052090858500001,-121.04181717,5.253216139087601,-1.5236409589375008,0.0,0.0,1.2455000000000005,62,20,498.9554878962748,1578.476,mp-20244,ZrPbS3,https://materialsproject.org/materials/mp-20244,9.664549002126012,6.949974512364653,11.21095137706694,10.104159173441133
-7.356417092272728,-161.84117603,6.1378996858047135,-2.7523978125872746,10.000004400000002,0.386044179543647,1.2219999999999995,166,22,301.884357228874,1115.8641,mp-1191110,La3Mn2Sb3O14,https://materialsproject.org/materials/mp-1191110,15.151917331039106,62.989492884531174,-10.376045487763301,38.175453108751796
-5.426300306818181,-119.37860675,4.671804437262226,-1.6947708005681827,8e-07,3.1177551346889203e-08,2.7376,7,22,299.0373334427367,841.3195400000001,mp-1190901,VZn2IO7,https://materialsproject.org/materials/mp-1190901,34.2917021506569,-4.741658611896532,53.20503994167132,3.0780332655010407
-6.214006252916668,-149.13615007,6.703731593537718,-1.7632092016517866,1.55125e-05,3.9327774899562923e-07,0.1631999999999998,62,24,459.68448570005785,1855.7837760000002,mp-1192180,TmPS,https://materialsproject.org/materials/mp-1192180,-0.536735994158582,-24.466218512051945,11.79378708962999,-12.863186034582752
-3.658219307777778,-32.92397377,4.101747368089732,-1.1663068802681995,2.0040712,0.06858420122207147,0.0,225,9,340.53871237776025,841.1749037999999,mp-1207229,Cs2MoBr6,https://materialsproject.org/materials/mp-1207229,-22.733824532818375,-20.146005523002643,-19.25993514887352,-11.456449504794525
-8.875013496363636,-195.25029692,7.214313891721773,-3.799006784659092,0.0,0.0,2.862,51,22,287.3958386132606,1248.60888,mp-675300,Ho2Zr2O7,https://materialsproject.org/materials/mp-675300,10.717595867736687,62.87335144070622,-1.2885653473462602,72.84926344283343
-4.994415015,-49.94415015,2.5992497983779685,-3.434174320114,0.0,0.0,6.2965,225,10,164.9946074373671,258.2668578,mp-1095079,K3AlF6,https://materialsproject.org/materials/mp-1095079,-22.93633032517737,6.316444573701317,-30.92314051439723,-13.047463494171511
-5.7376889291666675,-137.7045343,5.5989085375777865,-1.8330754044531252,0.0,0.0,1.8007,173,24,496.7267084124297,1674.8341,mp-557517,Tb3CuGeS7,https://materialsproject.org/materials/mp-557517,8.083889198511994,-6.024973916104723,11.399156680076413,2.9923190745612125
-4.174998029166667,-50.09997635,5.418057555642314,-1.360986938664691,0.0,0.0,2.419,63,12,395.17617387234225,1289.3929037999999,mp-11122,CsDyCdSe3,https://materialsproject.org/materials/mp-11122,0.8982469272167779,1.0711418826684378,-2.4424681869345006,-10.570422464275065
-1.96315911,-7.85263644,3.718605040642347,0.007049303333333201,0.0057059,0.00040167696247983233,0.0,221,4,165.5482748505575,370.7282,mp-1187102,Sr3Ag,https://materialsproject.org/materials/mp-1187102,29.78625463352877,64.08574456966099,-14.035264228607247,33.753148254924746
-7.9343128946666654,-238.02938684,5.05118799191683,-3.663524837416667,3.3333333333333334e-08,9.208070005413574e-10,4.270499999999998,2,30,421.87866243806,1283.3112515999999,mp-780421,LaAlO3,https://materialsproject.org/materials/mp-780421,6.182766206721728,6.00818012666695,35.49976941533578,-13.590967963844413
-7.4878811741666675,-89.85457409,5.248713071021459,-2.702000451041666,0.0,0.0,3.2196,119,12,182.7876245400441,577.7640700000001,mp-1222712,LaV2BiO8,https://materialsproject.org/materials/mp-1222712,-14.651904347032485,1.1541010378644472,27.1905631477903,-0.29756686674609745
-8.676306831363636,-190.87875029,6.788003148900818,-3.5250407096590917,1e-07,3.669506420855023e-09,2.9093,63,22,317.59216188656256,1298.2631199999998,mp-12286,Sr2Ta2O7,https://materialsproject.org/materials/mp-12286,2.8662997810427315,18.212220977599284,31.408967119382066,36.586341306049206
-4.7496272225,-37.99701778,3.7085699101319274,-1.3574634419612073,0.0,0.0,0.9172,63,8,162.09940560144992,362.0252,mp-7467,RbCuO2,https://materialsproject.org/materials/mp-7467,12.069864129381106,-5.129342451470079,10.19179636828603,-0.3292474621011818
-3.9309383508,-98.27345877,5.2625959624234415,-0.5040897755499998,0.0,0.0,0.2775999999999996,146,25,526.1603702156485,1667.5124,mp-6287,Cu6Hg3(AsS3)4,https://materialsproject.org/materials/mp-6287,25.86999065719696,64.90669928608219,-7.4325952496929775,33.351825765467865
-5.692005665,-45.53604532,7.818353883542232,-2.0133819259375003,0.0,0.0,1.5736000000000003,129,8,137.4540409447705,647.178,mp-983603,ErZnAsO,https://materialsproject.org/materials/mp-983603,-19.258937413623947,25.93228012396924,-23.31862744803361,45.456359319030845
-6.478980756176472,-220.28534571,6.587851990729262,-2.7514869846323533,1.295e-05,2.670311553404862e-07,0.0,118,34,565.1780168205943,2242.2292,mp-636383,Ba4Sm2Cu2O9,https://materialsproject.org/materials/mp-636383,-17.58697904014887,34.85316327245124,-18.839523150532372,41.73575337665881
-7.0736884740625,-226.35803117,6.741403585552128,-2.0248003950325515,2.000000125,0.046953590743444615,0.06780000000000007,14,32,496.4078493854409,2015.3008,mp-556965,NpAgSeO5,https://materialsproject.org/materials/mp-556965,7.127568563055625,23.609252239653497,33.60647061863151,-1.0693028034256156
-6.043349817738094,-507.64138469,5.693709562890606,-0.0448962676695234,0.0004403,3.356101494606235e-06,1.3083999999999998,205,84,1528.942056014929,5242.485600000001,mp-1246824,Ba(SbN2)2,https://materialsproject.org/materials/mp-1246824,3.249253402597128,25.229802175648928,2.080830204586107,23.461226146514026
-6.95594187,-250.41390732,7.154918166231371,-3.204586908194445,0.0,0.0,3.2387,62,36,541.6394496740578,2333.812,mp-6452,BaSm2ZnO5,https://materialsproject.org/materials/mp-6452,-4.4453102698635965,35.093929616759965,-1.6733070580501381,51.182440439903324
-5.7053026707142855,-399.37118695,4.678597178953637,-1.9636093678660709,0.0,0.0,1.6390000000000002,146,70,1625.6503508971098,4580.2977,mp-1220132,Pr9Ga5S21,https://materialsproject.org/materials/mp-1220132,8.829808402408416,-4.98594312788521,13.086564340689572,4.5403629734495805
-4.274333639,-170.97334556,3.8557251338678964,-2.3800782403140004,0.0008785625,1.8615585217236623e-05,0.0,140,40,550.0135591902638,1277.1160768,mp-669347,KCuF3,https://materialsproject.org/materials/mp-669347,-26.537837156640787,30.439148605551228,-15.992415341080479,50.87507074067075
-7.04808943,-56.38471544,6.0559036561077715,-0.7062892574399999,0.0,0.0,0.18320000000000025,129,8,127.03676729255105,463.2968,mp-1245655,ZrCdN2,https://materialsproject.org/materials/mp-1245655,-20.40441970513924,37.81151467708462,-22.631077335992693,67.77514074125402
-9.113245988,-364.52983952,4.892006517621652,-3.9904432132500007,0.0,0.0,4.055999999999999,206,40,613.1899509419188,1806.4792,mp-2652,Y2O3,https://materialsproject.org/materials/mp-2652,18.284806010921983,60.078394131759346,-5.600316608399651,36.87644526421831
-7.966535401428572,-55.76574781,7.622901192998492,-3.1361755219471426,0.0,0.0,1.8088,107,7,84.89192487881577,389.70643860000007,mp-1025276,Sm2AlNO3,https://materialsproject.org/materials/mp-1025276,-6.732547071426063,21.711777649701013,-23.477969210528908,37.890540611880844
-8.170904064285715,-114.39265690000002,4.9526299098239015,-2.718410407857143,4.9999996,0.34105770030270405,0.5403000000000002,88,14,170.85179179199008,509.5729,mvc-4606,YV2O4,https://materialsproject.org/materials/mvc-4606,4.1698921256211765,54.96395525323052,19.68359219073944,60.73624395126796
-4.971077475833334,-59.65292971,5.768635631367619,-1.6130179758246532,0.0,0.0,1.7195,63,12,357.5065965384574,1241.96134,mp-1101818,BaLaAgSe3,https://materialsproject.org/materials/mp-1101818,-12.302849779655856,18.415121446308127,-2.8272367371742604,8.915820542504619
-7.5251900519444455,-270.90684187,5.988231997771544,-3.070664475694445,1.0118722,0.02317828049070808,0.0,62,36,508.77044848430114,1834.7268,mp-542733,BaY2CuO5,https://materialsproject.org/materials/mp-542733,-4.501634583452477,35.570412295622994,-1.4659589155733033,51.83357220377162
-6.889242766428572,-96.44939873,6.218760313830128,-2.7817713382142863,2.0000001,0.12489335905228535,0.0,63,14,186.62425998782,698.91253,mp-1218191,SrLaCoO4,https://materialsproject.org/materials/mp-1218191,-23.163758833345213,39.51147658188944,-13.99302942519707,59.56890782801039
-8.777729523181819,-193.11004951,4.615911791675101,-2.719937603103181,20.9999878,0.8251881639562653,0.05360000000000032,143,22,296.58110566056814,824.4264,mp-1213517,Eu3Si6N4O9,https://materialsproject.org/materials/mp-1213517,-13.29462271692175,18.112248254137345,-30.347400495464548,-23.002041660945515
-7.476212422916666,-179.42909815,6.339371319860491,-2.636776479416666,0.9999993,0.03296184832879341,0.042800000000000615,12,24,353.56198774005327,1349.779,mp-1211775,KCe(WO4)2,https://materialsproject.org/materials/mp-1211775,25.577084029442748,-3.6985118456548602,36.99918758652119,-8.0756288381296
-7.5031621149999985,-45.01897269,3.2742921247904886,-0.04603400680555462,0.0,0.0,0.0,65,6,113.32401114358316,223.4551,mp-15956,YBC,https://materialsproject.org/materials/mp-15956,4.901290058679193,3.3223186279379773,-1.7485260870042396,-10.499162928020136
-5.185357173333333,-93.33642912,3.1211033483980133,-2.5669903736610733,0.9999996999999999,0.033201995138656126,0.8549,63,18,351.0048485842881,659.7390255999999,mp-1179769,Rb2V(OF2)2,https://materialsproject.org/materials/mp-1179769,24.387207042484498,-5.056042627894934,4.562737864237888,12.468302735859425
-4.508795677386363,-396.77401961,7.995541647307401,-1.1926940865909093,0.0,0.0,1.4253000000000005,41,88,1276.6294713463606,6147.0064,mp-560456,Hg2Te2O7,https://materialsproject.org/materials/mp-560456,12.032151887722938,36.29546837053165,4.551527304832371,34.96525238376827
-8.259309347,-82.59309347,6.366564590175737,-2.469551609442,14.9999999,1.5140812959537726,1.6125000000000005,146,10,115.45679276941955,442.66537000000005,mp-1217936,TaMn2FeO6,https://materialsproject.org/materials/mp-1217936,-7.659924804865363,46.70812353359912,14.547340801088572,56.33867243600419
-4.811679075,-19.2467163,2.7085386916214693,0.3542559941550003,0.5206189,0.06346953292852184,0.0,123,4,95.59431277447216,155.92581,mp-1224351,HIN2,https://materialsproject.org/materials/mp-1224351,2.953616849493525,2.2041933190715093,2.776537826708948,-22.619242609708976
-7.180297980263157,-272.85132325,3.995597428812825,-2.651274211390977,13.000000199999999,0.3090553502726932,1.3668,74,38,490.2126568603692,1179.5521720000002,mp-1194498,BaFe3(PO4)3,https://materialsproject.org/materials/mp-1194498,2.6589315245781235,33.95562391597555,46.88280279058387,23.822613780652066
-6.694280718333334,-40.16568431,6.760172387759043,-0.9396026239322928,1.3500000000000001e-05,1.3174350656508628e-06,0.0,99,6,119.421350267331,486.1728,mp-1215455,Zr2As3Se,https://materialsproject.org/materials/mp-1215455,-32.0938468166721,14.458091917291693,-42.309863747874715,-1.2065873131375546
-5.7164491475,-114.32898295,4.7358136897324625,0.5398543661666672,0.009179575,0.0003623491436013603,0.0,127,20,295.2383454568431,842.012,mp-570034,ErB4,https://materialsproject.org/materials/mp-570034,1.0520110333680963,8.765644020257927,19.00512168814706,-4.098004701208368
-7.886672265500001,-157.73344531,6.6459725744359925,-2.004666820642,9.2e-06,3.035458432349617e-07,0.0,12,20,353.2164854076318,1413.67773856,mp-1220765,NaHf3(NCl)3,https://materialsproject.org/materials/mp-1220765,-14.852313182503519,36.952470796831676,-8.619618886750176,60.05200850642781
-8.299992390166668,-497.99954341,5.421422957444189,-3.681909990083332,3.999999875,0.050168472311165335,0.029399999999999867,14,60,929.1942825037132,3033.686708800001,mp-1096905,Ce4Al2O9,https://materialsproject.org/materials/mp-1096905,10.233605680909298,24.0207849514777,-1.4030366173936448,38.00216552449519
-5.06089182125,-40.48713457,4.818885149117225,-1.5529986507812508,8.7e-06,4.77844865232202e-07,0.3844000000000003,63,8,212.18259501857383,615.754,mp-4009,BaPdS2,https://materialsproject.org/materials/mp-4009,7.691148283915237,7.8287707160507365,-0.639936099627178,18.986901316369284
-10.205033044166667,-244.92079306,8.810391950618609,-3.443732513802084,34.962199600000005,1.2542531313886227,0.0,164,24,324.85606655688235,1723.60252,mp-1192440,Eu5Ta4O15,https://materialsproject.org/materials/mp-1192440,-15.74772273983734,20.013481830670948,-24.28830306369731,47.07841706533299
-5.551837024285715,-155.45143668,3.412098300547881,-2.3845068052770944,0.0,0.0,2.2055,62,28,461.27426294317667,947.832656,mp-755752,Rb2Be2O3,https://materialsproject.org/materials/mp-755752,2.6859377086232996,33.74679068791538,18.690900100968605,37.79969956097748
-5.135951074285714,-35.95165752,3.554337730031353,-2.412463332002857,7e-07,7.080762390393407e-08,0.0,139,7,115.21139802487477,246.6068,mp-23143,Ca2Cu(ClO)2,https://materialsproject.org/materials/mp-23143,-29.969784480586576,6.437957439302902,-64.62173732161392,25.055713784759412
-4.501216726,-45.01216726,7.040257646903031,-0.3404915376666665,1.345e-05,6.39350432667489e-07,0.0,127,10,245.16628625236,1039.44188,mp-574369,La2InCu2,https://materialsproject.org/materials/mp-574369,-42.9038599215861,39.71288441779306,-5.280931007411231,47.975477276647034
-5.447866334,-27.23933167,6.914284142047968,-0.5963915229999998,4.5e-06,5.240810382614627e-07,0.0,107,5,100.06714162086284,416.6675,mp-1069809,BaSi3Pt,https://materialsproject.org/materials/mp-1069809,-30.435375264886538,12.236048556008374,-24.7103863285108,9.177582067419724
-8.6825673915,-173.65134783,7.6650577489251,-3.671657152083333,0.998339975,0.05070435062484977,0.0,62,20,229.4619414371032,1059.19764,mp-755525,TmTiO3,https://materialsproject.org/materials/mp-755525,-9.509605059268784,44.264912946035565,-3.2116279499041798,63.42640447375632
-6.454760847777778,-116.18569526,5.14697296021813,-2.057520440034724,1.9999997,0.05700022595778745,0.0,140,18,408.91287108512876,1267.458,mp-16532,BaCe2FeS5,https://materialsproject.org/materials/mp-16532,-8.262526843908493,8.738084840429678,-0.36180281111170204,20.15486989422881
-6.610370313928572,-185.09036879,2.8949139142263407,-2.782819274166667,0.999960275,0.041153438810125634,0.2709000000000001,62,28,283.17443576475273,493.6744,mp-1210705,Mg2BO4,https://materialsproject.org/materials/mp-1210705,-7.799318754218242,28.533706487150106,23.647748944670056,59.08223168206742
-1.635607875,-6.5424315,5.637628208215811,0.011594218749999996,4e-07,2.830213188567717e-08,0.07750000000000012,221,4,164.70935574231356,559.198,mp-1183558,CaYb3,https://materialsproject.org/materials/mp-1183558,30.095828721184805,65.25577675114836,-18.56934104720197,-10.085784261451721
-4.4901117692,-112.25279423,5.76898274204723,-0.6962352789000005,0.0004654,1.0517380085385243e-05,0.0,65,25,515.6989384348765,1791.6219999999996,mp-1191394,Li8Nd7Ge10,https://materialsproject.org/materials/mp-1191394,-47.451153123392956,19.03214137412443,-26.56605440117969,27.627341477957412
-6.1339607475,-24.53584299,6.101277324954945,-1.443984981281666,3.9999994,0.8792428169387493,0.3077000000000001,12,4,53.018632850596646,194.805045,mp-996995,MnAgO2,https://materialsproject.org/materials/mp-996995,-6.650645239981703,24.58588892525395,2.8096028022220287,50.37355235243013
-7.352793322678571,-411.75642607,3.3597058997857645,-2.897721605157313,2.0000553,0.0334390008686049,2.9967,62,56,697.0535425532221,1410.322096,mvc-8257,CaTiNiP2O9,https://materialsproject.org/materials/mvc-8257,33.86585002387555,-2.7872502469363734,54.23044036878529,0.6834900488277456
-7.6132930071875,-243.62537623,3.2398885832722573,-3.1372401882812504,3.9999995999999998,0.09769249825290656,3.4805,129,32,477.17332714670266,931.016,mp-603241,BaFe(Si2O5)2,https://materialsproject.org/materials/mp-603241,21.651926498368358,-7.577779165236695,38.34553236839847,-10.956414534153454
-8.721414173333333,-209.31394016,6.234219509344653,-2.7819289966666667,7.000000175,0.2585285999083769,3.0307000000000004,14,24,315.54905521590547,1184.6768,mp-754079,GdAsO4,https://materialsproject.org/materials/mp-754079,9.29326367044071,17.171705858458985,22.49144790253504,36.8199774615001
-8.292781100000001,-331.711244,6.6112267848317945,-3.8583470282500008,0.0,0.0,3.7666,206,40,679.1589214122022,2703.9856,mp-553921,Pm2O3,https://materialsproject.org/materials/mp-553921,28.46868436396279,62.393686257456075,-8.425757320717933,33.41886744592054
-3.330729837,-33.30729837,2.715888599035772,-1.7764884299749653,0.0,0.0,3.08,225,10,294.43675711505426,481.56496928,mp-1114362,Rb2NaAsCl6,https://materialsproject.org/materials/mp-1114362,-17.36324114216254,-16.479999527341963,-13.484293647415338,-17.645916903332452