energy_per_atom,energy,density,formation_energy_per_atom,total_magnetization_uB,total_magnetization_T,band_gap,sgr,num_sites,cell_volume,weight,mp_id,formula,URL,tsne_cry_lin1_0,tsne_cry_lin1_1,tsne_cry_lin2_0,tsne_cry_lin2_1
-5.609614075,-33.65768445,5.9697555385998,-0.7738957694444443,5.7100000000000006e-05,3.68339127463718e-06,0.0,10,6,180.6615287100353,649.491,mp-8677,ZrTiTe4,https://materialsproject.org/materials/mp-8677,55.62888645198638,32.75412315481953,-8.604250342815693,-0.5045126942092143
-6.5334988844444455,-176.40446988,2.9860219704233137,-1.918143336790124,0.3662905,0.007553765991762428,0.0,12,27,565.118540503966,1016.21,mvc-16033,Ca3(TiS2)8,https://materialsproject.org/materials/mvc-16033,21.236530736178274,13.80348697633461,-8.604250342815693,-0.5045126942092143
-6.54416263,-418.82640832,5.481257899372622,-1.7714960361328131,35.99999655,0.5861520911963028,1.1258999999999997,194,64,715.7635328901677,2362.6572,mp-555778,Fe12PbO19,https://materialsproject.org/materials/mp-555778,-27.44403420484797,-33.90363985708499,4.162174937979129,-2.9261911559331204
-4.965459315625,-79.44734905,4.438010674806319,-0.6904245745312503,7.9999956999999995,0.28906903022676617,0.0026000000000001573,1,16,322.52665736921347,861.9952400000001,mp-1221868,MnCoCu4(SnS4)2,https://materialsproject.org/materials/mp-1221868,31.285181378859477,1.7659647636341609,-8.604250342815693,-0.5045126942092143
-6.198721787857143,-86.78210503,3.1587517087347767,-1.7689219887500005,2.00000015,0.0758137796067411,0.0,74,14,307.43924671916267,584.8246999999999,mp-1247241,YMgVS4,https://materialsproject.org/materials/mp-1247241,23.39688116453373,10.402358904978437,-8.604250342815693,-0.5045126942092143
-3.948503498,-39.48503498,3.69549137948213,-2.12881752869738,0.0,0.0,2.3589,225,10,306.8926639960748,682.9825538,mp-1112617,Cs2PrCuCl6,https://materialsproject.org/materials/mp-1112617,13.239972028156581,-12.264288631032484,8.109041401255025,1.3950947756216878
-5.541915076666666,-66.50298092,7.755328718770054,-0.6371665908333336,0.00011100000000000001,4.7750746394533924e-06,0.0,62,12,270.90700929906427,1265.23548,mp-12613,LaNiSn,https://materialsproject.org/materials/mp-12613,2.648742585614268,55.98191239937043,-8.604250342815693,-0.5045126942092143
-6.019301976666667,-144.46324744,4.3414904704253185,-2.228036578313333,4.9999993125,0.20963153753510907,1.6595,6,24,277.9654079523689,726.7424255999998,mp-752992,FeOF,https://materialsproject.org/materials/mp-752992,-41.79353014123007,-76.90468889221587,4.26064008669401,-0.15104857273498976
-3.100787558,-186.04725348,5.223576586634223,-0.2579757714942526,0.0,0.0,0.4848000000000003,57,60,2447.282232443602,7698.4436152,mp-505464,Cs2Te13,https://materialsproject.org/materials/mp-505464,65.31920767711445,19.4876241310237,4.688940185421601,-6.237753221612536
-5.151210350178571,-288.46777961,6.5548089691583815,-1.6485404722321424,8.28875e-05,7.02989988704339e-07,1.1761999999999997,29,56,1374.0967998931326,5424.10736,mp-1232089,Tm2MgSe4,https://materialsproject.org/materials/mp-1232089,52.15095418919203,6.4639759219772674,7.3395279295736895,-6.200570378691438
-5.422825805,-65.07390966,8.094079875246349,-0.07478256750000037,1.2104881,0.057287979044077585,0.0,10,12,246.24898554998168,1200.3084,mp-1224765,Fe3NiSb8,https://materialsproject.org/materials/mp-1224765,43.848354619895446,23.627988539058308,-8.604250342815693,-0.5045126942092143
-2.996996407708333,-143.85582757,6.014769113693055,-0.26102809770833285,0.0,0.0,0.9388,148,48,1440.4457802887189,5217.552,mp-23165,PtBr3,https://materialsproject.org/materials/mp-23165,9.74967700035926,-6.708125543987426,6.7994107714696215,-5.963880253305545
-4.182344091777778,-188.20548413,4.856502798037901,-0.8790577390509258,0.0,0.0,0.6371000000000002,8,45,1037.6241402376213,3034.692,mp-1224719,In14Sn5S26,https://materialsproject.org/materials/mp-1224719,39.04762856653645,-2.1021087761821806,3.7304649082839547,-5.2566111924159005
-5.187499854444446,-140.06249607,4.315418361673285,-1.592638510691852,3.0,0.05489030982272522,0.26000000000000023,148,27,636.9465654428558,1655.30038,mp-568478,Nb6Tl2VCl18,https://materialsproject.org/materials/mp-568478,12.145791114710939,-3.574677148351673,3.6328528243752714,-5.59690510711126
-6.5195701902380945,-273.82194799,4.700107364198941,-1.8319700995238104,9.00000015,0.22989102696619054,1.0889999999999995,1,42,456.2447960031617,1291.3876,mp-997515,Li(Fe2O3)4,https://materialsproject.org/materials/mp-997515,-27.703722174368576,-35.298066593754626,5.617465568037422,-2.9954233779003707
-4.0156966160000005,-40.15696616,2.307515089802515,-1.9438086270060004,3.0000002,0.13277955351774384,1.6286,225,10,263.3100934762513,365.90046928,mp-1206266,K2NaCrCl6,https://materialsproject.org/materials/mp-1206266,21.058269961488605,-2.621709334335301,8.572271277105694,-4.159796775717143
-4.587235191666666,-137.61705575,3.3290283034129033,-1.3062456221041672,2.8633333333333332e-05,4.372756125227745e-07,0.6550999999999996,4,30,763.1221860185022,1529.898,mp-866504,CaSnS3,https://materialsproject.org/materials/mp-866504,43.00636280295253,0.8022867980406191,4.151941444224723,-5.8688623638682
-5.7162249179166675,-137.18939803,3.1097191102000337,-3.218328497043334,1.99999995,0.08151103341673921,2.06,14,24,285.9506006168432,535.5044512000001,mp-765497,LiVF4,https://materialsproject.org/materials/mp-765497,-21.771081253188715,-51.5924401764335,9.159102477666114,1.4733219318912734
-8.600107326984126,-1083.6135232000001,2.320185855182573,0.2662510056349209,0.0,0.0,0.31179999999999986,200,126,1407.7695226614246,1967.004,mp-28905,SrC20,https://materialsproject.org/materials/mp-28905,59.82776621031539,37.35872724958641,-8.604250342815693,-0.5045126942092143
-4.568660711944443,-164.47178563,3.566114942841462,-1.2268230419270836,0.0,0.0,0.4108999999999998,1,36,882.6639978847858,1895.578,mp-866621,Ca3Sn4S11,https://materialsproject.org/materials/mp-866621,43.02322977528386,0.8092295362075649,5.243075451386921,-6.6551005921973445
-7.541992307727273,-165.92383077,4.427545285346488,0.0205298504063646,5e-08,1.443850950662692e-09,1.9791,167,22,403.57575576657564,1076.0662,mp-1246532,Bi2(CN2)3,https://materialsproject.org/materials/mp-1246532,17.110265094696732,-13.242997797056669,7.9162429230669025,-2.7967682420530777
-7.590692192307693,-296.0369955,5.496536484820123,-2.4769643112884614,0.0,0.0,1.7248,1,39,583.378956892744,1931.03784,mp-1223705,KNbW2O9,https://materialsproject.org/materials/mp-1223705,-2.9938554398037516,-39.59946590367283,8.862285655624932,-0.2808837956623294
-3.223509865,-32.23509865,3.2836399637634224,-1.5202412531916325,0.0,0.0,1.2549,225,10,286.45082592194444,566.4434000000001,mp-1113376,Rb2AgAsCl6,https://materialsproject.org/materials/mp-1113376,6.182094309293399,-7.705396283077514,8.602238620563941,-4.492889320573784
-3.5214985071666667,-211.28991043,4.8059500473188885,-0.6172321259791663,0.0,0.0,1.6167000000000002,62,60,2169.685514522186,6279.527279999999,mp-23386,Sn2SI2,https://materialsproject.org/materials/mp-23386,72.1691380225443,15.854731083188984,8.595693180185842,-6.5292704219093896
-4.593641964,-275.61851784,3.3348430763574552,-1.3126523944375004,0.000112875,8.633940083352369e-07,0.6924000000000001,14,60,1523.5831480219333,3059.7960000000007,mp-866606,CaSnS3,https://materialsproject.org/materials/mp-866606,43.02362481250832,0.7943924024554821,4.3766470053966335,-5.9621040782352255
-3.702391785714286,-25.916742499999998,7.624654993692821,-0.2641600257142857,0.0,0.0,0.7497999999999996,160,7,247.30863786669056,1135.5608,mp-1227398,Bi2Te4Pb,https://materialsproject.org/materials/mp-1227398,66.52220926787726,23.86143287714169,4.72624666984591,-6.5226601870393255
-5.8275516015,-116.55103203,5.44377170503173,-1.6394288306562508,1.195e-05,2.4523409425278905e-07,0.3725999999999998,62,20,567.8903435365388,1861.724,mp-998427,BaZrSe3,https://materialsproject.org/materials/mp-998427,57.31146566635485,1.242199181863623,4.046756345266571,-5.547323577471135
-2.41514905125,-19.32119241,4.922315701558309,-0.08441186624999998,0.0,0.0,0.7223999999999999,12,8,343.42747106262783,1018.0178800000001,mp-569766,TeI,https://materialsproject.org/materials/mp-569766,66.24970650195654,19.04147333899662,7.373001331965308,-7.06555025823692
-7.8391319525,-31.35652781,6.83751656527177,-0.6891176000000003,7.1577774000000005,0.634495257074324,0.0,63,4,131.4701733655237,541.3480000000001,mp-567833,EuSn,https://materialsproject.org/materials/mp-567833,-0.3620044582471251,51.914091802711475,-8.604250342815693,-0.5045126942092143
-8.719225625,-69.753805,3.727401052728468,-0.6641819178566664,2.99999985,0.432057759675404,0.5383000000000004,194,8,80.92018205120476,181.641,mp-1246479,CrBN2,https://materialsproject.org/materials/mp-1246479,20.885819244414424,-2.2215699294424343,2.953440843076371,-4.967531629342534
-7.980770452500002,-319.2308181,6.188377523450542,-3.6748337571875007,0.0,0.0,2.5344999999999995,221,40,433.92811648047586,1617.1321108,mp-997587,La7ScAl8O24,https://materialsproject.org/materials/mp-997587,33.874410746442386,-25.01844709628247,9.08021701291592,-0.16074180606153288
-6.011447691851854,-324.61817536,4.331268903502606,-2.2201822934985187,4.999987694444445,0.09294999863742764,0.12509999999999974,6,54,626.898131331372,1635.1704576,mp-759551,FeOF,https://materialsproject.org/materials/mp-759551,-42.08183664789964,-76.84225551868879,3.1779714245362154,-0.9517222708929808
-5.890388269545454,-129.58854193,5.008032151173972,-1.0270171220511355,2.51e-05,5.310160454957305e-07,0.0,38,22,550.8628755618274,1661.3514799999996,mp-1224047,K2(NbSe2)3,https://materialsproject.org/materials/mp-1224047,48.022480218653726,24.376339476556886,-8.604250342815693,-0.5045126942092143
-4.187998294130435,-192.64792153,4.95470023250545,-0.7102879533208394,1.45e-06,9.487870916797053e-09,1.0575,15,46,1781.0522580250463,5314.2864,mp-541953,Rb4Zr3Te16,https://materialsproject.org/materials/mp-541953,65.38535887793465,18.354970496833936,7.280923249234876,-6.178745704750121
-1.96059982025,-78.42399281,4.307955875776647,-0.11686940225000025,0.0,0.0,1.7864,141,40,1958.8020287340994,5081.74304,mp-567914,TeI4,https://materialsproject.org/materials/mp-567914,66.68603967465884,-10.42437911009777,9.77308897115556,-4.743385837779902
-5.5417562175,-44.33404974,6.454580836214991,0.0360171862500005,10.911465699999999,0.6225372891781497,0.0,164,8,204.26556005864185,793.9883,mp-1226350,Cr3Te5,https://materialsproject.org/materials/mp-1226350,54.173975804929455,33.68429084287283,-8.604250342815693,-0.5045126942092143
-3.6551208582142856,-102.34338403,4.1866084312739416,-1.5896487267857142,0.0,0.0,1.4047,214,28,1450.80417529576,3657.8176399999998,mp-1214632,Ba3SbI3,https://materialsproject.org/materials/mp-1214632,56.46027056989762,22.52976332196057,7.071572516910751,-3.9371412221850433
-5.877083625172413,-170.43542513,5.437703598565943,-1.4151526586206897,45.9999998,1.7571450179477983,0.9279000000000002,12,29,305.08977445301497,999.0658,mp-754651,Fe7(Ni3O8)2,https://materialsproject.org/materials/mp-754651,-28.121993939177408,-34.12759405918808,5.0667825718986865,-0.3327343029385708
-3.2924433050000004,-158.03727864,4.84159250209021,-0.8378478474450001,0.0,0.0,1.0698,148,48,1240.6443614210473,3617.316,mp-31134,PtCl3,https://materialsproject.org/materials/mp-31134,7.936279758693807,-8.185617816541539,7.630523045977486,-5.925294822824564
-5.138462384375,-82.21539815,3.986892493132796,-1.7206069287500003,0.9999998999999999,0.06082968411660058,2.8814,2,16,191.5851409784453,459.9888,mvc-12664,MgNiO2,https://materialsproject.org/materials/mvc-12664,-25.341229143674894,-31.67058587995873,8.835719394552852,-2.2995033006978742
-5.441223055714286,-76.17712278,7.617711363771522,-0.13069631714285834,6.18923265,0.21921727846162947,0.0,176,14,329.0329973153391,1509.4365999999998,mp-3708,Tl(FeTe)3,https://materialsproject.org/materials/mp-3708,48.05844866028293,27.99952637067504,-8.604250342815693,-0.5045126942092143
-3.941294596363636,-86.70848112,1.9386215352651277,-2.0209589228690907,4.99999965,0.08021305436910066,2.4284,229,22,726.4443455269103,848.0984900000002,mp-27901,K4MnCl6,https://materialsproject.org/materials/mp-27901,17.283102222480547,-8.319852261098521,8.645723507182293,-0.7435575460786595
-5.990799462857143,-125.80678872,6.333870870921409,-0.8624440480357136,0.0,0.0,0.0,12,21,343.6839269066132,1310.9295,mp-29841,Rh3S4,https://materialsproject.org/materials/mp-29841,34.54146956892243,5.882940810813847,-5.259564543342856,-3.5180142621177075
-4.817266661111111,-43.35539995,12.204296690317989,-0.1994937377777772,2e-07,9.31445871133793e-09,0.0,12,9,250.23600691629883,1839.1344,mp-1092293,Bi2Pt,https://materialsproject.org/materials/mp-1092293,-2.471958141005977,38.19551376981847,-8.604250342815693,-0.5045126942092143
-3.8385224064999997,-76.77044813,3.806125150818348,-0.9470805001000002,4.003313625,0.0798864858679641,0.0573999999999999,62,20,584.0146275520448,1338.6212,mp-23348,KFeBr3,https://materialsproject.org/materials/mp-23348,21.06246815161257,0.6042916164637989,-8.604250342815693,-0.5045126942092143
-3.6164662151219513,-148.27511482,6.15946998324034,-0.2557997814634144,0.0057911,4.7357900465108945e-05,0.5282999999999998,1,41,1425.1023343843922,5286.16,mp-675683,Yb3(Sb7Te12)2,https://materialsproject.org/materials/mp-675683,66.3634924219846,25.413302287674018,-8.604250342815693,-0.5045126942092143
-4.6275236300000016,-46.275236299999996,4.36401393677008,-0.2610772222514882,2.0000003,0.08819856232823654,0.0,5,10,264.26885457153054,694.517224,mp-6543,VAg(PSe3)2,https://materialsproject.org/materials/mp-6543,25.34318491513404,-1.1511792489110193,5.030870232174896,-6.0969068290052695
-3.95863116,-15.83452464,5.6957469576426165,-0.5544227962499995,5e-07,1.0359105407741877e-07,0.0,216,4,56.2503436052018,192.942,mp-1222657,Li2GePd,https://materialsproject.org/materials/mp-1222657,31.956941433157226,36.55391861083977,-8.604250342815693,-0.5045126942092143
-3.6138683730000003,-36.13868373,3.0835617574426686,-1.2171249023999997,3.0000001,0.09373091103501524,1.5482,225,10,373.00603501042116,692.6589,mp-1111172,K3MoBr6,https://materialsproject.org/materials/mp-1111172,10.607138451937596,-7.7980911613260995,7.188434882164732,-2.5688465459171663
-7.104960201100918,-774.44066192,1.5418416252701568,-0.02820004132000064,1.9528678,0.021482140484761797,0.0,2,109,1059.4311050888982,983.70164,mp-1211116,NiH36(C5N)12,https://materialsproject.org/materials/mp-1211116,46.01997856461068,-26.078300373497672,2.7213367799569537,-4.2002328945334035
-3.689607384117647,-62.72332553,7.534472087398134,-0.2475430994117649,0.0005947,1.1489238153965264e-05,0.3192000000000004,166,17,603.2316701390054,2737.0824,mp-1106025,Bi6Te10Pb,https://materialsproject.org/materials/mp-1106025,66.5531396013676,23.889135011369877,4.533069714458522,-6.388988917803088
-5.169487762857143,-72.37282868,6.730082377539945,-0.7670071375,0.00025469999999999996,6.7468155878094e-06,0.0,63,14,439.95426567375887,1783.1128199999996,mp-976378,La3Sn4,https://materialsproject.org/materials/mp-976378,-0.07983346446619187,55.82021586667443,-8.604250342815693,-0.5045126942092143
-4.50924439,-58.62017707,3.446990432435053,-1.5190492962407167,7.9999997,0.3163595871222814,1.3477,12,13,294.70424946603964,611.7547999999998,mp-1211726,K2Rb4Fe2O5,https://materialsproject.org/materials/mp-1211726,-33.36101811666719,-30.171316476455512,6.455532802226287,-1.28590743654357
-7.062135604155843,-543.78444152,8.339223502222113,-0.6788553460497827,1.4126450000000002,0.009875276266170348,0.0,148,77,1667.0983055967704,8372.164120000001,mp-685767,Ta24Ti5Se48,https://materialsproject.org/materials/mp-685767,47.57647110698204,25.70382593790942,-8.604250342815693,-0.5045126942092143
-3.753917381818182,-82.5861824,2.708765330570854,-1.0467125783977271,4.99999965,0.07850916322428364,1.2355,186,22,742.2104298502092,1210.73569,mp-18481,K6MnSe4,https://materialsproject.org/materials/mp-18481,24.516981539234447,1.665501882293683,6.369674699075695,-4.515125809153551
-3.6887109588888887,-33.19839863,7.499268155999296,-0.2540988055555557,0.0,0.0,0.18550000000000025,164,9,325.5773044110173,1470.3608,mp-569044,Bi2Te5Pb2,https://materialsproject.org/materials/mp-569044,66.52958247597287,23.76786899639939,6.4291184346740975,-7.1823509502205996
-7.04831816,-84.57981792,5.49599886121801,-0.4557418728566655,3.0,0.2478275916132507,0.0,36,12,141.0746644071803,466.9244,mp-1246317,CrGa2N3,https://materialsproject.org/materials/mp-1246317,-22.26499752130405,-31.414668041650863,-11.331372224381767,-0.2904330752133155
-6.3875077185,-127.75015437,6.442991205214485,-1.1796026536562498,3.96264675,0.10442198593314056,0.0,62,20,442.25305123809784,1715.9684000000002,mp-20170,CeCrSe3,https://materialsproject.org/materials/mp-20170,26.286029377404283,6.680273323437753,-5.168669567017192,-3.5211218181196733
-4.591640099375,-73.46624159,8.104937876231055,-0.2900565281249996,0.0,0.0,0.0,64,16,379.068831707898,1850.2,mp-1371,Sn3Pd,https://materialsproject.org/materials/mp-1371,33.58749589809813,35.330141977519396,-8.604250342815693,-0.5045126942092143
-3.891293185,-7.78258637,8.588813526086602,0.06252800500000033,0.000126,2.317759327001564e-05,0.0,119,2,63.35481618974543,327.6904,mp-1218964,SnBi,https://materialsproject.org/materials/mp-1218964,4.352968457710493,33.45261436232692,-8.604250342815693,-0.5045126942092143
-8.831984647666667,-529.91907886,1.8843702363097772,0.3934889335833323,0.0,0.0,0.91,71,60,635.0419635194016,720.6419999999999,mp-630227,C,https://materialsproject.org/materials/mp-630227,59.859164685767745,37.154460556788,3.420484404817893,-5.369295569417906
-6.492855795,-103.88569272,3.2698372273447807,-2.335303789166666,14.0000005,0.8656053899842436,1.3442999999999998,1,16,188.48879007770276,371.1612,mp-1177243,Li4TiFe3O8,https://materialsproject.org/materials/mp-1177243,-30.868380311797573,-32.554999013228155,6.785592377164464,-0.454913510035609
-5.186731154666666,-311.20386928,8.029842786001552,-0.6114023051666673,8.833333333333334e-07,7.2229511804822985e-09,0.0,57,60,1425.2379152506385,6892.000800000002,mp-568805,SmNiSb3,https://materialsproject.org/materials/mp-568805,3.7525879541219234,34.560774115099356,-8.604250342815693,-0.5045126942092143
-5.9455474475,-23.78218979,3.2066207569920078,-1.3271690520312511,3.0000002,0.5485993053726965,0.6579999999999995,164,4,63.72993240438048,123.0671,mp-4226,LiCrS2,https://materialsproject.org/materials/mp-4226,17.377707936177227,7.430023772958168,3.967592987122474,-2.642858826369308
-4.876034574285714,-34.13224202,8.801393838534304,-0.609433605446429,6.68e-05,5.172108967527006e-06,0.19099999999999984,166,7,150.5172322730887,797.79,mp-21863,Pd3(PbS)2,https://materialsproject.org/materials/mp-21863,26.41486652399929,39.10179023281497,-8.604250342815693,-0.5045126942092143
-4.091041348235295,-69.54770292,2.3858027650729974,-0.8837422025458825,0.0,0.0,1.1199,225,17,247.23260903439743,355.21492,mp-643397,H8Pd(NCl3)2,https://materialsproject.org/materials/mp-643397,49.95012027711803,-16.698464347399245,9.272157720670434,-2.948545550708757
-5.059582807058824,-86.01290772,7.275932330597072,-0.07688400438235356,3.0577251,0.09144444246377714,0.0,204,17,389.6893612337045,1707.48976928,mp-19844,Na(FeSb3)4,https://materialsproject.org/materials/mp-19844,43.94381435719279,23.527584694202446,-8.604250342815693,-0.5045126942092143
-5.91059136475,-236.42365459,8.457699734683969,-0.33979362100000043,0.029818099999999997,0.00033475791597895933,0.0,223,40,1038.0697578978354,5287.2483600000005,mp-1211693,Th3Sn13Ru4,https://materialsproject.org/materials/mp-1211693,0.346015404109885,49.87127809854042,-8.604250342815693,-0.5045126942092143
-8.27267997375,-132.36287958,5.289324378390488,-3.4550834823437486,0.0,0.0,2.0540000000000003,119,16,203.06212716189822,646.8149400000001,mp-1223063,La2Ti3ZnO10,https://materialsproject.org/materials/mp-1223063,6.9935256121404255,-41.53481729455218,7.673779152083378,-1.388829871223038