energy_per_atom,energy,density,formation_energy_per_atom,total_magnetization_uB,total_magnetization_T,band_gap,sgr,num_sites,cell_volume,weight,mp_id,formula,URL,tsne_xrd_lin1_0,tsne_xrd_lin1_1,tsne_xrd_lin2_0,tsne_xrd_lin2_1
-6.21801987125,-99.48831794,4.274218867283664,-1.99972825018,12.9999999,1.0282144196023513,0.21079999999999988,12,16,147.3455711080781,379.266735,mp-760206,Li4Mn3NiO8,https://materialsproject.org/materials/mp-760206,15.12635522843114,-76.83406931681273,-10.74812481976793,-69.35787470913613
-5.479353057857144,-153.42188562,4.201221188963949,-1.6990116322321431,10.9999999,0.5122846892711488,0.4485999999999999,2,28,250.2411530493693,633.11877,mp-1174257,Li4Co3O7,https://materialsproject.org/materials/mp-1174257,18.193134717896843,-76.26694323208676,-10.80762448417119,-82.30855200722189
-5.784450334375,-185.10241069999998,4.212903351827137,-1.8491013709974995,18.000000399999998,0.7361107677455141,0.37550000000000017,5,32,284.97500615318063,723.001465,mp-1175662,Li9Mn2Co5O16,https://materialsproject.org/materials/mp-1175662,19.264003142694033,-82.90553908780016,-11.478474429366797,-88.93789295084909
-5.5304657975,-176.97490552,4.3543309666577565,-1.7352671321874995,17.999999399999997,0.7525056746722728,0.5004,12,32,278.76621529132643,730.991765,mp-1175480,Li9Co7O16,https://materialsproject.org/materials/mp-1175480,21.964414246570282,-72.30770576569469,-8.964711718870332,-76.11045324825979
-5.490265975,-109.80531950000001,4.23461473997995,-1.7574677163749997,5.000000099999999,0.33975081235940485,0.9399000000000002,2,20,171.50900868653045,437.37278,mp-1173960,Li3Co2O5,https://materialsproject.org/materials/mp-1173960,21.67074344212495,-72.03681683665536,-7.950027498438518,-77.40909359705314
-5.7909532571875,-185.31050423,4.176875615309582,-1.855604293809999,24.000001899999997,0.973087689344822,0.6788999999999996,5,32,287.43306461155163,723.001465,mp-1175743,Li9Mn2Co5O16,https://materialsproject.org/materials/mp-1175743,17.6047848487319,-76.48660002286955,-13.729176767163874,-81.20797197478619
-5.782798989642857,-161.91837171,4.085585984675883,-1.8422857948007152,10.0000004,0.458683831022592,0.07939999999999969,1,28,254.07621656818927,625.12847,mp-1174757,Li4MnCo2O7,https://materialsproject.org/materials/mp-1174757,14.20532511092715,-82.95916384834163,-16.68041219905129,-88.27284059988365
-5.792410738125,-185.35714362,4.2371344582654915,-1.857061774747499,22.000000699999998,0.9048656460688564,0.24170000000000025,12,32,283.34530575674927,723.001465,mp-1176287,Li9Mn2Co5O16,https://materialsproject.org/materials/mp-1176287,20.165583041716797,-72.27095796799242,-9.229981956356976,-77.13672449409856
-5.7916667459375,-185.33333587,4.2133884630227545,-1.85631778256,17.9999998,0.7361955055523938,0.4062999999999999,1,32,284.9421953722215,723.001465,mp-1175712,Li9Mn2Co5O16,https://materialsproject.org/materials/mp-1175712,17.13997702122207,-79.77959156624172,-12.66118651548474,-85.58700375442554
-5.42619140125,-86.81906242,4.616881045107575,-1.5999733981849988,2.0,0.16147292666143193,0.0,166,16,144.3469814230262,401.335245,mp-756491,Li4MnCu3O8,https://materialsproject.org/materials/mp-756491,16.302135278135907,-68.76428762149109,-11.001060366488566,-70.64412414513923
-7.116520176666668,-341.59296848,4.0525203563270304,-1.797028799218334,44.999999200000005,0.925990582851253,0.8410000000000001,12,48,566.3479900920083,1382.163685,mp-775873,Mn13Cr3O32,https://materialsproject.org/materials/mp-775873,20.721512657015978,-68.70219586341058,-8.534376087667958,-71.25279863048662
-7.387799214666668,-110.81698822,3.3614482318787635,-3.0454929353333333,0.0,0.0,2.1569000000000003,12,15,147.88247946462403,299.3602,mp-755266,Li4Ti3O8,https://materialsproject.org/materials/mp-755266,2.727885868297834,-68.29952798957258,-11.615383837809086,-64.80434156023476
-5.7813695996875,-185.00382719,4.18488018879813,-1.84602063631,19.999999300000002,0.8124603378301463,0.19689999999999985,1,32,286.88328086986166,723.001465,mp-1175827,Li9Mn2Co5O16,https://materialsproject.org/materials/mp-1175827,12.819618275520446,-78.27312602519784,-13.654967452517571,-85.49041021356136
-5.4740238183333325,-131.37657164,4.247294250059478,-1.7134920456250005,14.000000199999997,0.7796783604338847,0.7014999999999998,10,24,209.2618154181593,535.245775,mp-1174403,Li7Co5O12,https://materialsproject.org/materials/mp-1174403,21.17477010932195,-71.92284168589188,-10.772233995372078,-76.22291508294799
-5.474026375416668,-131.37663301,4.1223468579151925,-1.7134946027083338,18.000000699999998,0.9729536285756294,0.5224000000000002,2,24,215.60449326965409,535.245775,mp-1174245,Li7Co5O12,https://materialsproject.org/materials/mp-1174245,15.453127197034295,-79.30763558054623,-14.299964388893494,-84.51432957370649
-5.7633948715625,-184.42863589,4.132955280885144,-1.828045908185,20.000000399999998,0.8023795848242951,0.0860000000000003,2,32,290.4875753585629,723.001465,mp-1175639,Li9Mn2Co5O16,https://materialsproject.org/materials/mp-1175639,13.13284915413024,-84.04495428176499,-17.158645050255867,-88.27043810143418
-6.21192930375,-149.08630329,4.019872744667548,-2.0776634028683323,14.0000005,0.7606405884817077,0.4269999999999996,2,24,214.49935109108606,519.265175,mp-1175160,Li7Mn4CoO12,https://materialsproject.org/materials/mp-1175160,22.65807022029233,-79.35189993483412,-9.692298097977092,-86.28642681535781
-5.760169013125,-184.32540842,4.138416896083564,-1.8248200497474996,22.000000600000003,0.8837839106216239,0.0,1,32,290.10420862766824,723.001465,mp-1176074,Li9Mn2Co5O16,https://materialsproject.org/materials/mp-1176074,12.731791601963069,-83.6756250604678,-16.69514450326108,-87.90300458182513
-5.7814507096875,-185.00642271,4.2120470154733125,-1.84610174631,17.9999998,0.7359611175614691,0.6322999999999999,5,32,285.03294341190633,723.001465,mp-1175656,Li9Mn2Co5O16,https://materialsproject.org/materials/mp-1175656,20.186497553974462,-79.3421069299805,-12.936875504750633,-88.56589034115636
-6.250073668333332,-150.00176804,3.691822573279588,-2.412410427291668,14.9999994,0.8370954830791815,1.6696,12,24,208.83037613932632,464.2858,mp-753111,Li7Fe3(SiO6)2,https://materialsproject.org/materials/mp-753111,7.3653414575378235,-73.97172375685768,-12.247204586708849,-74.56089432963608
-5.7995804728125,-185.58657513,4.2301692689530315,-1.8642315094349995,19.9999999,0.8212528677970751,0.4113000000000002,1,32,283.81184824474775,723.001465,mp-1175917,Li9Mn2Co5O16,https://materialsproject.org/materials/mp-1175917,19.837033395271536,-72.60287941222086,-8.841761525317342,-77.86513082713013
-5.7470748096875,-183.90639391,4.150068302789233,-1.811725846309999,21.9999967,0.8862719817480216,0.0,8,32,289.2897347744366,723.001465,mp-1100615,Li9Mn2Co5O16,https://materialsproject.org/materials/mp-1100615,19.66234242297294,-82.39409487651992,-14.605504056520653,-81.76780490039165
-6.58809756625,-105.40956106,4.291848907849974,-2.241202688125,8.999999800000001,0.7313332056055992,0.8766000000000003,2,16,143.41832124984703,370.680695,mp-768946,Li4Cr3CoO8,https://materialsproject.org/materials/mp-768946,16.783166403812746,-70.19764481639301,-11.275835532286214,-71.06040434840429
-6.189311574583333,-148.54347779,3.95650916835148,-2.0550456737016662,16.000230300000002,0.8556133457226945,0.13919999999999974,6,24,217.93456264356425,519.265175,mp-1175300,Li7Mn4CoO12,https://materialsproject.org/materials/mp-1175300,12.77081291474451,-81.2277477270087,-18.204520437346524,-84.78836619907398
-5.5490101668181815,-122.07822367,4.150586023907806,-1.5269779243181822,2.00000035,0.10393789700854196,0.0,64,22,224.2505793832496,560.5236,mp-777153,Li2Fe2NiO6,https://materialsproject.org/materials/mp-777153,6.05308111696588,-58.105750164342155,-6.138336001987321,-62.428837510467964
-5.7737650246875,-184.76048079,4.2432324173132665,-1.8384160613099996,18.0000003,0.7414100904365031,0.2784,2,32,282.9381095673928,723.001465,mp-1175695,Li9Mn2Co5O16,https://materialsproject.org/materials/mp-1175695,21.994084545105206,-80.31333135882977,-9.617906205175922,-86.25864492629879
-5.76108849,-184.35483168,4.150778669334289,-1.825739526622499,24.0000008,0.9670078334139734,0.0,8,32,289.24022557007214,723.001465,mp-1100633,Li9Mn2Co5O16,https://materialsproject.org/materials/mp-1100633,16.42656065826389,-77.32214206094204,-14.567843353222427,-82.22710570311627
-6.587484885,-210.79951632,4.2919813179509285,-2.2405900068749998,8.99999965,0.3656778780819612,0.5990000000000002,2,32,286.82779342371316,741.36139,mp-771058,Li4Cr3CoO8,https://materialsproject.org/materials/mp-771058,16.766242158218688,-70.25476735263122,-11.433780788337677,-70.89894183287095
-6.865344915555557,-123.57620848,4.128292629024801,-1.6795131277666668,14.000002599999998,0.7717171803861005,1.3451000000000002,12,18,211.42063603504917,525.61622,mp-755555,Mn5CoO12,https://materialsproject.org/materials/mp-755555,22.066201492330045,-65.97167204911507,-2.784535946348716,-71.57193202371417
-5.7830037503571425,-161.92410501,4.0711607979744215,-1.842490555515,10.0,0.4570643143561254,0.08089999999999975,1,28,254.9764750060827,625.12847,mp-1174738,Li4MnCo2O7,https://materialsproject.org/materials/mp-1174738,12.89185753518419,-83.68877112176506,-16.628948010517774,-88.09866783424904
-5.7813736649999985,-161.87846262,4.066979889104559,-1.8408604701578568,11.00000015,0.5022544284827868,0.09310000000000017,1,28,255.23859417928418,625.12847,mp-1174785,Li4MnCo2O7,https://materialsproject.org/materials/mp-1174785,13.538402551992517,-82.6576349983975,-14.485215765741556,-88.05253142459559
-5.7701744471875,-184.64558231,4.16499534822131,-1.8348254838099995,24.0000001,0.970319867967701,0.3788999999999998,1,32,288.25294105608214,723.001465,mp-1175734,Li9Mn2Co5O16,https://materialsproject.org/materials/mp-1175734,14.951895046558306,-80.08125009265581,-13.124368577681636,-86.92945476942919
-5.7923588284375,-185.35548251,4.209987681714472,-1.8570098650599995,22.000000600000003,0.8990682839458788,0.7333000000000003,1,32,285.17236851409825,723.001465,mp-1176086,Li9Mn2Co5O16,https://materialsproject.org/materials/mp-1176086,13.551019773266145,-75.71224169190849,-9.816552365455653,-81.14002343670391
-5.812592334166666,-139.50221602,3.9966713571952095,-1.865193497371667,17.9834736,0.9567076764484118,0.0,2,24,219.06437183408383,527.2554749999998,mp-1174878,Li7Mn2(CoO4)3,https://materialsproject.org/materials/mp-1174878,14.106002876935587,-82.62350882651336,-16.666693109805927,-88.65759574836369
-5.811733324642858,-162.72853309,4.121277173344015,-1.871220129800716,10.999998300000001,0.5089598226777216,0.2683999999999997,12,28,251.87585930023533,625.12847,mp-1174581,Li4MnCo2O7,https://materialsproject.org/materials/mp-1174581,17.712881174124092,-75.2143412243913,-13.805439820237165,-80.87204813060173
-5.398941665,-86.38306664,4.056387876534289,-1.7077436775,10.0000001,0.8385487460622941,0.0,166,16,138.9789793834428,339.49978500000003,mp-1173963,Li5Co3O8,https://materialsproject.org/materials/mp-1173963,20.597246712855025,-71.23696973721064,-11.218332282853565,-75.32127232448788
-6.1853168979166675,-148.44760555,3.987266884880858,-2.051050997034999,16.0000212,0.8622535751425677,0.1875,2,24,216.2534187188467,519.265175,mp-1175164,Li7Mn4CoO12,https://materialsproject.org/materials/mp-1175164,15.334629139311414,-81.18563310907795,-12.230836290095219,-86.02238264589735
-5.517046255714287,-308.95459032,4.819015348570057,-1.449224375,1.000000025,0.022405729130147926,0.0,212,56,520.1377288914128,1509.48074,mp-757851,Li2Co3NiO8,https://materialsproject.org/materials/mp-757851,26.043112480383158,-69.49150406384754,-14.512809883916495,-72.30838443105613
-5.5091741771428575,-154.25687696,4.2737015551830915,-1.728832751517857,7.9999999000000015,0.3789983508988956,0.4104000000000001,1,28,245.9971574914385,633.11877,mp-1174212,Li4Co3O7,https://materialsproject.org/materials/mp-1174212,20.433856235835467,-72.5559688422803,-8.703193171081624,-77.32911649742155
-5.349651483035714,-299.58048305,4.5320016505568095,-1.3533346702471425,4.999998625,0.10662062195394856,0.20740000000000025,1,56,546.5200518491389,1491.58178,mp-774906,Li2MnNi3O8,https://materialsproject.org/materials/mp-774906,24.04999725534201,-68.78042204685748,-14.581819882453685,-72.01871553096258
-5.8023513996875,-185.67524479,4.282748959745884,-1.8670024363099988,17.9999995,0.7483146903485679,0.21340000000000006,2,32,280.32746488155794,723.001465,mp-1175603,Li9Mn2Co5O16,https://materialsproject.org/materials/mp-1175603,22.09678334507647,-73.08963373195691,-9.19562255362613,-82.96108422298005
-5.857113917083333,-140.57073401,4.137837489489992,-1.9097150802883327,11.999999699999998,0.6609397991941818,0.4234,2,24,211.59078927460646,527.2554749999998,mp-1174869,Li7Mn2(CoO4)3,https://materialsproject.org/materials/mp-1174869,19.190372021421307,-79.41256580442995,-11.977575663595752,-86.52895804488172
-5.777781160625,-184.88899714,4.162700361642648,-1.8424321972474988,22.0,0.8889697670396123,0.07489999999999998,1,32,288.41186112563105,723.001465,mp-1176011,Li9Mn2Co5O16,https://materialsproject.org/materials/mp-1176011,14.272212270897965,-80.29740843815544,-12.703508979975526,-86.78290759699458
-5.7707455553125,-184.66385777,4.14926866359036,-1.8353965919349988,24.0000001,0.9666560188445106,0.3705000000000003,1,32,289.3454861442592,723.001465,mp-1176117,Li9Mn2Co5O16,https://materialsproject.org/materials/mp-1176117,12.977440404353528,-78.14040382771266,-13.892648040574805,-85.11562737458962
-5.745219563125,-183.84702602,4.124838945393867,-1.8098705997474989,23.8578861,0.9552743502016948,0.0,6,32,291.05916000680486,723.001465,mp-1100563,Li9Mn2Co5O16,https://materialsproject.org/materials/mp-1100563,12.5624908265444,-78.33127219047971,-15.012635939842852,-81.95540812504315
-5.911816568125,-94.58906509,3.805351119733225,-1.9403179844950005,9.9017088,0.7976957231256594,0.0,10,16,144.66061728658198,331.5094850000001,mp-1174357,Li5Mn2CoO8,https://materialsproject.org/materials/mp-1174357,18.874369265713074,-76.68767617201514,-15.620352335761972,-79.23781323028193
-6.8230718475,-109.16914956,3.910107459733411,-2.569170166875,8.999999,0.7291335159217563,3.0792000000000006,10,16,143.85098066213143,338.7290386,mp-768763,Li4AlCr3O8,https://materialsproject.org/materials/mp-768763,16.46925743550848,-69.72903975355068,-11.062725958063837,-70.65647584633649
-5.797697836875,-185.52633078,4.178411863324704,-1.8623488734974991,24.0000001,0.9734455163959208,0.8341000000000003,2,32,287.32738606921697,723.001465,mp-1175598,Li9Mn2Co5O16,https://materialsproject.org/materials/mp-1175598,13.469462475210564,-75.45488806034544,-10.459595834770703,-81.5666143306354
-5.756181431875,-184.19780582,4.072598016645351,-1.8208324684975,26.0000008,1.027860239106375,0.0,2,32,294.79269834704183,723.001465,mp-1175643,Li9Mn2Co5O16,https://materialsproject.org/materials/mp-1175643,2.1368819896833213,-77.27185799211345,-27.514001343230362,-77.95498423794075
-5.799659315,-139.19182356,4.060758291763468,-1.8522604782050005,17.7690683,0.9604594531539312,0.0,8,24,215.6070953711031,527.2554749999998,mp-1175014,Li7Mn2(CoO4)3,https://materialsproject.org/materials/mp-1175014,17.869867311041233,-76.82895092676758,-14.433458891767723,-81.66768475504705
-5.83074982,-139.93799568,4.06043511353762,-1.8833509832049995,15.999651,0.8647495071889458,0.038899999999999935,1,24,215.62425597498267,527.2554749999998,mp-1175049,Li7Mn2(CoO4)3,https://materialsproject.org/materials/mp-1175049,14.876777943814863,-80.32265458583728,-13.075455055293752,-86.46862198664215
-5.609731887222222,-201.95034794,4.665408032480936,-1.0467903130555558,1.6666629000000002,0.050011257239418516,0.14439999999999995,156,36,388.3805059656208,1091.1839400000001,mvc-12170,CoO2,https://materialsproject.org/materials/mvc-12170,26.561016761736145,-69.28223905995067,-14.105731367361148,-72.90874076225599
-5.5180804228125,-176.57857353,4.326531783018868,-1.7228817574999995,20.0000005,0.8307794732850393,0.0,10,32,280.557366633752,730.991765,mp-1175394,Li9Co7O16,https://materialsproject.org/materials/mp-1175394,20.467237039800338,-72.1104806637328,-9.828172887439985,-76.59130963919692
-6.22962545875,-99.67400734,3.7930996226776976,-2.1179765770550008,9.999997,0.812815810256037,0.5366,2,16,143.37887045613982,327.514335,mp-1174758,Li5Mn3O8,https://materialsproject.org/materials/mp-1174758,21.65272309619249,-75.46344067972416,-11.33728822697815,-79.8385269949742
-4.862050910625,-77.79281457,4.621040183170625,-1.3682860325000004,0.99999995,0.08304443700240699,0.0,12,16,140.3352784427772,390.5328,mp-752850,LiNiO2,https://materialsproject.org/materials/mp-752850,22.823639738639454,-69.37324972163825,-10.242213678735443,-75.30229038072491
-6.12698687,-98.03178992,4.3584446383395585,-1.9474869307449991,6.0000004,0.4785682466209583,0.6928000000000001,15,16,146.1116440355193,383.50167999999996,mp-1173929,Li2MnCoO4,https://materialsproject.org/materials/mp-1173929,1.672910086893569,-71.45891442302045,-20.05034155383375,-74.45564360670944
-5.906718709166667,-70.88062451,4.292388679751774,-1.8206523019550005,7.999999799999999,0.8321144315422817,0.22440000000000013,2,12,112.04290217255681,289.623835,mp-1173934,Li3Mn(CoO3)2,https://materialsproject.org/materials/mp-1173934,5.510292611564664,-76.8805469253687,-26.423477393946804,-75.88823774873488
-5.8211245654166675,-139.70698957,4.076003070002895,-1.8737257286216655,16.000096,0.8680891532518056,0.0,6,24,214.80069697067765,527.2554749999998,mp-1175147,Li7Mn2(CoO4)3,https://materialsproject.org/materials/mp-1175147,13.735831152482964,-76.12869449716626,-13.951738873636895,-78.97461150326694
-5.773537999375,-184.75321598,4.163394662039623,-1.8381890359974988,21.999999600000002,0.8891180229108566,0.13249999999999984,5,32,288.3637646836825,723.001465,mp-1175667,Li9Mn2Co5O16,https://materialsproject.org/materials/mp-1175667,18.84037483500713,-83.19443641027091,-18.63700588773633,-83.74098300933082
-6.0797438375,-48.637950700000005,3.9196958792807233,-2.3665308893750003,4.0000005,0.6718029113261522,0.8483999999999998,12,8,69.38979294574615,163.7943336,mp-1222767,Li2AlCoO4,https://materialsproject.org/materials/mp-1222767,20.974224562138268,-71.66887657013018,-11.697690374209913,-75.2694045773393
-5.799130797857143,-162.37566234,4.136087749024568,-1.8586176030150008,8.00000005,0.3714828702183677,0.29559999999999986,1,28,250.97393779792907,625.12847,mp-1174743,Li4MnCo2O7,https://materialsproject.org/materials/mp-1174743,15.30047500470031,-82.78638118292284,-14.539164916780974,-88.45001743311698
-5.7575342446875,-184.24109583,4.147691123007334,-1.8221852813099997,24.0000002,0.9662885028995584,0.0,1,32,289.4555363464973,723.001465,mp-1176171,Li9Mn2Co5O16,https://materialsproject.org/materials/mp-1176171,14.403754094330873,-81.73737294863126,-14.887454288973265,-86.83238483039379
-6.623284300476191,-278.17794062,3.8955956118547816,-2.0641953271333326,15.00000025,0.4147092358117665,0.9979,15,42,421.52660082366,988.89405,mp-691115,Li4Mn5O12,https://materialsproject.org/materials/mp-691115,20.113542632494298,-68.44554805262226,-16.01976229734548,-70.23503785609745
-5.68140011,-85.22100165,4.34973460027492,-1.7963910251111117,3.0000001,0.2456839415835652,0.0,12,15,142.30557869486867,372.7654,mp-758244,Li3TiNi3O8,https://materialsproject.org/materials/mp-758244,12.452962605984142,-72.74217766762179,-12.0143853305758,-83.79319600762193
-6.9041471459375,-220.93270867,4.040842033342022,-2.4221765803125006,10.9999989,0.4300594272138242,1.5583,2,32,298.0860122267413,725.3779999999998,mp-769609,Li4VCr3O8,https://materialsproject.org/materials/mp-769609,1.6933431198625506,-67.44611597531728,-11.880173084039907,-65.66247620058678
-6.903608748297873,-324.46961117,3.9617017095217566,-1.6393263492425534,40.999999100000004,0.8532391340284613,0.0,12,47,560.0031997247219,1336.051475,mp-867971,Mn15O32,https://materialsproject.org/materials/mp-867971,20.69444608946393,-68.47168962146083,-15.569733792437715,-69.90850743481546