energy_per_atom,energy,density,formation_energy_per_atom,total_magnetization_uB,total_magnetization_T,band_gap,sgr,num_sites,cell_volume,weight,mp_id,formula,URL,tsne_xrd_lin1_0,tsne_xrd_lin1_1,tsne_xrd_lin2_0,tsne_xrd_lin2_1
-4.30426825375,-34.43414603,3.1565577681311527,-2.529925904086207,0.0,0.0,6.6663999999999985,46,8,130.96007606271917,248.94509280000003,mp-677103,RbHF2,https://materialsproject.org/materials/mp-677103,-29.884995186078033,19.766968944785134,-11.197619701914547,23.2148289631811
-4.962145194166667,-59.54574233,5.045604277596508,-3.0111307832933343,0.9999996999999999,0.06395003841515295,0.0,36,12,182.23697069083903,553.7332256,mp-12268,BaCuF4,https://materialsproject.org/materials/mp-12268,10.080498997953582,-15.203070918062716,14.230161139095511,-9.804154470158897
-8.196543545277779,-295.07556763,9.621837129509416,-0.8670378680753983,4.31e-05,9.338416535455937e-07,0.0,189,36,537.8751202521714,3116.666744,mp-1199917,Ho5P12Ru19,https://materialsproject.org/materials/mp-1199917,-50.91940343038849,2.2981568484123214,-55.114117593100474,20.768711423218406
-6.612554467777778,-119.02598042,2.272336343066493,-3.1938647148107404,0.00082,4.2478120268490664e-05,5.9928,167,18,224.970715584786,307.85734080000003,mp-1105618,KBe2BO3F2,https://materialsproject.org/materials/mp-1105618,-26.29650902712317,-37.39873407549188,-35.38166314958497,-24.165124223426147
-5.881547073999999,-58.81547074,6.2549570063498665,-1.8055188012500003,0.0,0.0,2.3004,2,10,159.03570879370082,599.0594,mp-29188,VHgO3,https://materialsproject.org/materials/mp-29188,8.984036883725182,27.205073322161546,21.27638100769233,-16.83416924423116
-5.226098525,-188.1395469,6.2986346725469495,-2.9395716781477783,0.0,0.0,2.2959,14,36,519.8910604331621,1972.0125695999998,mp-17651,HoPtF7,https://materialsproject.org/materials/mp-17651,11.985751876830378,-26.560256885037266,25.234251140944647,-15.16435868914376
-7.1817026949999985,-43.09021617,9.79051876245148,-0.9896046724999992,9.4e-06,8.688196377113036e-07,0.0,44,6,126.08855061176972,743.41662,mp-1217278,Th2Si3Pt,https://materialsproject.org/materials/mp-1217278,-48.44642044114563,21.72310477422561,-29.837016960698552,28.528627938187466
-6.2632273629999995,-62.63227363,5.639130897520294,-2.3226661864375004,5e-07,2.401098036621484e-08,0.7894999999999999,63,10,242.6819853836079,824.1392999999998,mp-1206692,PrLuS3,https://materialsproject.org/materials/mp-1206692,8.715986316514224,-7.383645476102897,13.677503678207186,4.341423945273247
-5.028749415,-40.22999532,3.8452489605672833,-1.4137255893749998,0.0,0.0,0.16149999999999998,63,8,88.51529442739924,204.9716,mp-996986,LiCuO2,https://materialsproject.org/materials/mp-996986,-5.1932006365245815,-5.438930522745666,5.2382908976257445,-36.601083493276576
-7.17090141,-157.75983102,2.7399293188015643,-2.852404147587273,5.00000015,0.21754049759619265,3.5332,43,22,267.8596686814236,441.97489,mp-754949,Li2Mn(SiO3)2,https://materialsproject.org/materials/mp-754949,71.31529256109481,-29.55318387455821,72.73287348584155,-25.54621793172024
-8.025213338611113,-288.90768019,4.349144877970967,-3.0074992236666667,0.0,0.0,1.9565,14,36,647.6460917396877,1696.2604399999998,mp-645555,KUVO6,https://materialsproject.org/materials/mp-645555,39.986777893657596,-37.48129616043511,46.78587620161385,-34.087213481771045
-7.096132563076923,-184.49944664,3.170278355245592,-3.035678555406593,0.0,0.0,1.4420000000000002,141,26,427.6746883554533,816.5106480000002,mp-560528,K2Ce(PO4)2,https://materialsproject.org/materials/mp-560528,34.607143815273744,-24.149849903412946,10.23624732897507,-38.06454972990081
-5.13113215625,-41.04905725,6.544961227035558,-1.6018687212499998,2.0379556,0.27090371621114623,0.0,119,8,87.67124681113383,345.5533999999999,mp-755002,Li2NiBiO4,https://materialsproject.org/materials/mp-755002,1.246093767951789,-33.723794990552875,5.194191711919903,-33.44733250501791
-2.2794783375,-9.11791335,2.032775734629062,-1.0615065244450002,0.4112085999999999,0.04033150904942135,0.0,139,4,118.82153116466009,145.4573,mp-1185148,KCl3,https://materialsproject.org/materials/mp-1185148,-29.817550237600376,23.747885270710483,-34.604285391654216,60.341997925607615
-7.801526598846153,-202.83969157,4.627693567280246,-3.2659300530448734,0.00888055,0.0002890856697586233,0.0,46,26,358.0063480917936,997.7143772,mp-1266747,Sr2YTi2AlO7,https://materialsproject.org/materials/mp-1266747,-23.62942209306757,45.93363471590649,-10.128190204347717,63.74745394647781
-4.965459315625,-79.44734905,4.438010674806319,-0.6904245745312503,7.9999956999999995,0.28906903022676617,0.0026000000000001573,1,16,322.52665736921347,861.9952400000001,mp-1221868,MnCoCu4(SnS4)2,https://materialsproject.org/materials/mp-1221868,26.355397980886124,66.05420245223858,-12.582531721167214,6.743051562316178
-5.477044354705884,-93.10975403,5.313132366212981,-1.5841298514705893,0.0,0.0,1.3328000000000002,3,17,219.86633096637672,703.4938,mp-849732,LiSb(TeO4)3,https://materialsproject.org/materials/mp-849732,17.873971945761745,-43.57118535015503,49.752187971191,-10.64960692269585
-6.99138432675,-279.65537307,5.775994598606618,-2.6312199392812494,0.001866625,3.755616464340412e-05,4.2139000000000015,14,40,579.2329664818366,2014.79544,mp-1195677,ThTeSO7,https://materialsproject.org/materials/mp-1195677,16.56320642351517,-10.048694267524445,36.852072931791156,-12.49812628434902
-7.43155033078125,-475.61922117,3.2002002401584955,-2.8867599241225017,5.0000003,0.07149462286012745,2.8729000000000005,130,64,815.0309076113087,1570.73218,mp-1163949,MnZn(Si2O5)2,https://materialsproject.org/materials/mp-1163949,20.217694641534155,-4.903565858122672,36.29765383116397,-7.147549280653014
-5.8508753408333325,-140.42100818,3.6808573880370807,-2.117966178932292,1.1425e-05,4.0312337246653646e-07,3.3814,14,24,330.2901769545678,732.1424,mp-1190360,CaSeO4,https://materialsproject.org/materials/mp-1190360,9.696778250470716,16.291027442536162,28.308196226227174,12.163286346309798
-6.5223619742857135,-182.62613528,4.911098477418251,-2.9226166435,0.99999855,0.02990774720484092,0.0,62,28,389.6665233374525,1152.45147712,mp-1192434,NaYbSiO4,https://materialsproject.org/materials/mp-1192434,25.45642979104995,-19.079892422243052,39.004336311520255,-6.796208982970202
-7.711765971666668,-138.81178749,4.6155905236474535,-2.824590167916666,5.99998755,0.25113948344837866,0.06790000000000007,129,18,278.42791815180493,773.91089856,mp-20737,KNaEuNbO5,https://materialsproject.org/materials/mp-20737,-23.126470798091322,27.347040717868317,-20.985654405604443,48.994089061685855
-3.903558942142858,-54.64982519,3.343987432669004,-2.3704814060609527,0.9999998,0.04477800956824511,0.6746,14,14,260.2630745340535,524.1168256,mp-1104293,K2AgF4,https://materialsproject.org/materials/mp-1104293,27.008259907682646,-22.74599784389763,11.315337868354511,-37.298486662830655
-8.81781307,-96.99594377,5.857583373368953,-3.8734202428409095,0.0,0.0,1.8276,115,11,161.59784398385173,570.0395000000002,mp-1178478,Ce2Y2O7,https://materialsproject.org/materials/mp-1178478,26.341156887429687,64.8874890029655,-11.632456803141535,35.455688828251134
-6.2309274174999985,-74.77112901,5.330516983477104,-1.4892714110470553,2.9999999,0.1163734156248246,0.0,63,12,300.43109901480386,964.4176,mp-867188,RbNpCuS3,https://materialsproject.org/materials/mp-867188,21.71005200278043,-3.554063712295739,15.337728731973145,-24.120707397492883
-2.458372625,-19.666981,4.302667716153287,0.18099298374999995,0.32333425,0.008829786151060559,0.0,194,8,426.75532886313545,1105.7773,mp-1183368,Ba3Pr,https://materialsproject.org/materials/mp-1183368,-16.913906205366303,-35.992209922226536,-14.64397956039514,-30.44946950250873
-5.6458559637837835,-208.89667066,3.5693923239484113,-2.0077369401572702,5.9961425,0.08902404385408211,0.0,12,37,784.9501107255504,1687.2803544,mvc-12745,Rb6Al4(Sb2O7)3,https://materialsproject.org/materials/mvc-12745,13.829350402514093,0.5040217626893346,9.916171383161949,10.013509486534073
-6.3046082425,-50.43686594,7.289996302001977,-1.9539967871875,1.00000025,0.07366636595834869,0.0,129,8,158.20065961534132,694.5228,mp-1079385,CeCuTeO,https://materialsproject.org/materials/mp-1079385,-16.975485920629154,22.402449866218852,-21.059905797816157,44.61544719422246
-5.70597980625,-45.64783845,6.313896465684958,-1.8493348704687511,0.0073861000000000005,0.0005151960349967076,0.0,123,8,167.07831964807968,635.2848,mp-35915,BaBi2O5,https://materialsproject.org/materials/mp-35915,-8.557583746634782,-28.186909809372157,0.9957742406386968,25.16275996062443
-8.436877578999999,-84.36877579,5.247630278739994,-3.5650247664500005,0.0,0.0,3.711500000000001,44,10,139.33930613334402,440.33963928,mp-1220787,NaLaZr2O6,https://materialsproject.org/materials/mp-1220787,-27.237615989767647,28.29066950366953,-24.026546308451547,57.31779476279485
-6.314305709318182,-555.65890242,2.0845411731549315,-1.1190693147150006,3e-07,3.996878061511281e-09,3.5485,14,88,874.7375771694005,1098.09312,mp-1207713,ZnH7C4N3O7,https://materialsproject.org/materials/mp-1207713,41.20670165970376,-35.98151223310885,28.404877129581863,-53.114167791804704
-7.466590847000001,-597.32726776,3.455917240258505,-3.088286634537357,0.0,0.0,5.2589000000000015,142,80,1137.3575308158165,2367.0708152,mp-1019719,CsSi2BO6,https://materialsproject.org/materials/mp-1019719,8.408653324130533,-17.122683191132413,15.060647073372154,-20.3370773843462
-6.162284007999999,-30.81142004,5.111422766672519,-1.5511642048500007,1.2825212,0.24450761300077284,0.0,221,5,61.129324169279506,188.1665,mp-973958,KRuO3,https://materialsproject.org/materials/mp-973958,-30.20078761963812,49.25105218827883,-17.776292447915463,71.97100134325092
-7.1939080797727275,-316.53195551,3.0294962638870704,-2.7266260888668827,1.999999275,0.04288807864242165,2.1093,14,44,543.4638676694599,991.49837312,mp-17479,NaVP2O7,https://materialsproject.org/materials/mp-17479,49.45157430998567,-7.177521075903669,65.57727827955893,-11.705324490439404
-3.931679375833333,-47.18015251,1.1904298990562154,-0.4547058487327777,0.0,0.0,6.3547,166,12,128.0156252469672,91.77358928,mp-23758,KNa(BH4)2,https://materialsproject.org/materials/mp-23758,-21.91414282468777,-36.66165733067386,-11.231405190162402,-30.02538266195907
-2.2003103095,-44.00620619,4.9178537070212105,0.9563439980240002,2.996715225,0.04370162978989906,0.0,14,20,799.1444141778417,2366.746716,mp-1214882,AuI3N,https://materialsproject.org/materials/mp-1214882,36.22123504498241,-25.26119830598505,10.977264970265605,-62.375943155633934
-6.903328634499999,-138.06657269,5.396772941630768,-2.5334748617500003,3.0000002,0.13662501563650994,1.7088,44,20,255.8989397776813,831.6748,mp-19864,Ca2FeWO6,https://materialsproject.org/materials/mp-19864,-14.2993177285894,46.33192766965845,5.794362850848946,57.299909757142544
-4.102275449,-41.02275449,5.35219391106278,0.4594216450000005,0.001299,4.039602927394028e-05,0.0,227,10,374.75540075719925,1207.8990772,mp-1209964,Nd4Al,https://materialsproject.org/materials/mp-1209964,-7.530896143222487,-29.16595466295305,-1.4163381977331029,-29.04898725822257
-6.664889228888889,-119.96800612,6.544803737601531,-1.9735770391666656,0.0,0.0,1.4712,4,18,265.5706019237599,1046.7128,mp-28918,Sb2WO6,https://materialsproject.org/materials/mp-28918,6.501699085188996,17.384379789196693,35.26142228654386,-3.022201215943529
-4.4520013645,-267.12008187,4.253407220542888,-2.483070542994483,2.00000007,0.022291147542353174,0.16370000000000007,120,60,1045.6227216036534,2678.322597,mp-1202342,CsCoF4,https://materialsproject.org/materials/mp-1202342,13.377714274916599,-10.63434253091811,23.082225157309608,-7.348195889589032
-6.5236959878,-326.18479939,3.2137361211381745,-1.7852060341225011,1.06479255,0.015009376492292134,0.0,70,50,826.7606155000218,1600.07707712,mp-768876,Na2Bi2C4SO16,https://materialsproject.org/materials/mp-768876,29.984444035509682,-2.636293137913669,16.386290566737962,-23.20475134027166
-6.608904334999999,-39.65342601,5.338145771049022,-3.062533859583333,0.0,0.0,3.5535,166,6,147.32980720049386,473.6221,mp-756702,PrBrO,https://materialsproject.org/materials/mp-756702,-12.779177793841626,20.943484185549256,-1.4682912993716302,-23.363989284647985
-5.57927953,-27.89639765,4.0875355083202365,-3.027963133974965,5.0000014,0.7266253293927754,2.9656,221,5,80.19310340748014,197.40105459999998,mp-558749,RbMnF3,https://materialsproject.org/materials/mp-558749,-23.12438726041611,10.687592281322068,-29.69922251174837,-9.598336926459304
-7.0804135684375,-226.57323419,3.0546345251084883,-2.599532531674108,1.000000175,0.031740825887856004,1.5742,14,32,367.16331368302093,675.413048,mp-757920,LiVPO5,https://materialsproject.org/materials/mp-757920,40.43420877926009,-40.22563316413822,53.631502745034965,-30.961347709559625
-5.648262524,-28.24131262,7.576554375330727,-0.07367701699999926,8.6944868,0.7533880066049875,0.0,156,5,134.49392801987094,613.6564900000001,mp-1215539,YbMn2BiSb,https://materialsproject.org/materials/mp-1215539,-3.1063946682602865,-28.46591518827406,-1.3247393505844616,-20.862466700976654
-7.113951319166668,-256.10224749,3.23043524445592,-2.4692246847327777,9.000000333333334,0.2807287600609612,2.7204,6,36,373.62252023963987,726.850335,mp-775281,Li2MnFe(BO3)2,https://materialsproject.org/materials/mp-775281,13.166783347934613,3.2300396313866258,50.265043189811365,-5.645831248523054
-8.12628920075,-325.05156803,6.5305488543522445,-3.1248679067500005,8.999997500000001,0.21397499447906065,0.0,28,40,490.18136008476165,1927.77962,mp-1076338,La3SmV3CrO12,https://materialsproject.org/materials/mp-1076338,-30.00449416645923,48.63583103701325,-17.304659917132458,66.43814752732905
-7.5061685092592585,-405.3330995,5.0423800273005,-2.6183379122993835,1.00008005,0.01579800570632853,0.0,7,54,737.7512008225098,2240.2496,mp-771317,Ti5Sb5O17,https://materialsproject.org/materials/mp-771317,12.326982202508036,28.93417271664454,32.467213233206905,-0.6401394651341973
-7.621258215625,-487.76052580000004,2.9725819794104127,-2.9671771112552072,0.0,0.0,4.8697,14,64,836.7543035074588,1497.8996,mp-557420,KBaB5O9,https://materialsproject.org/materials/mp-557420,45.82568932703683,-10.4190678574258,43.67126731815564,-28.176664755004378
-8.664936093,-173.29872186,8.085598741443906,-3.4854890012500013,2.00002735,0.06702127493010085,0.0,62,20,347.77685605205545,1693.4164399999997,mp-35730,BaUO3,https://materialsproject.org/materials/mp-35730,-18.359823268341426,-51.07901448421347,-24.613828576281012,-5.551176374821164
-7.111189092999999,-213.33567279,3.808635757877736,-2.4833665470775856,4.0000003,0.08712897890083718,2.3232,84,30,535.0259256396529,1227.1430076,mp-560444,Cs2V4O9,https://materialsproject.org/materials/mp-560444,9.916247268345252,-21.820099006862513,30.600473337584084,-8.600948974841549
-1.997275405,-7.98910162,0.6503010459544046,1.208372865416667,0.0660923,0.0008087514956929325,0.0,71,4,952.38642434597,372.974,mp-1096249,InGa2Sn,https://materialsproject.org/materials/mp-1096249,44.55134680956636,-21.439118441235813,11.676426594991709,-62.46400976126807
-6.555753545,-196.67260635,7.101675450094307,-2.3408718889166664,1.99497775,0.048360590958836686,0.0,15,30,480.7550829580405,2056.0592,mp-554266,Ba3SrIr2O9,https://materialsproject.org/materials/mp-554266,-19.447475226746587,16.16405876078799,-16.928073410093525,46.604719784462866
-5.675224879500001,-113.50449759,4.803402708821194,-1.90523377225,3.780082,0.19468558894468807,0.0,3,20,226.2793086657428,654.5528999999998,mp-1177448,Li4Cr(TeO4)3,https://materialsproject.org/materials/mp-1177448,18.043408190979168,-43.83748187848078,49.919150373830355,-10.877858209565602
-8.642995474666666,-129.64493212,2.6343168302079305,0.01340479221466732,9.9999999,0.5744813046983803,2.0176,162,15,202.86238317429283,321.82549,mp-567650,Mn2Fe(CN)6,https://materialsproject.org/materials/mp-567650,0.5729154552871297,-34.71246964357541,-6.112055860236206,-35.556866517357626
-5.9101392125,-23.64055685,5.551644738860185,-1.1726631200000002,2.59e-05,2.9240845694217702e-06,0.0,194,4,103.22556357150238,345.111824,mp-10026,ScTe,https://materialsproject.org/materials/mp-10026,-18.382107514660387,-35.44652653165089,-34.41745108521926,-21.93376757527783
-8.534297204000001,-341.37188816,3.742189894541467,-3.4736781395833347,0.0,0.0,4.3758,15,40,453.50754968714136,1022.024372,mp-18677,PrSc3(BO3)4,https://materialsproject.org/materials/mp-18677,-10.09000252751516,33.646575939445505,-4.339170332799052,30.210843806016193
-5.008232394583334,-120.19757747,3.5701955858344703,-1.8124599201683336,0.0,0.0,0.5223,14,24,359.1833133248219,772.2520511999999,mp-581143,RuOF4,https://materialsproject.org/materials/mp-581143,32.409505877456986,-12.49693977560946,34.63159448142476,-14.997086257258625
-5.875802418333333,-105.76444353,4.865557125240326,-1.4610114516599992,2.9796717999999998,0.1908765565766142,0.0,31,18,181.92536988811128,533.0608063999998,mp-1178308,Fe3O5F,https://materialsproject.org/materials/mp-1178308,44.918658425469964,61.34194458156024,69.67323509895088,25.935314283032078
-6.096665015,-195.09328048,3.3250366322305567,-2.317828429642857,0.0,0.0,2.008,62,32,344.38823115166474,689.5974480000001,mp-26695,Li2CuPO4,https://materialsproject.org/materials/mp-26695,39.975585369158956,-8.471673022280154,57.57759441131814,-2.7381556772995186
-6.354352665714287,-88.96093732,3.9135285988238846,-1.1547986723214283,11.9999999,0.5110300695485529,0.0,166,14,273.6605621443237,644.9583,mp-1247544,Mg2Cr3WS8,https://materialsproject.org/materials/mp-1247544,-19.36172934166928,-7.874854976641223,-16.356767597418564,-4.623849595416428
-4.907530034285714,-137.41084096,3.456131777104352,-0.4764754846205364,2.5e-08,6.965289596717691e-10,0.5309,14,28,418.2907476686802,870.6016,mp-1210570,NiSeO5,https://materialsproject.org/materials/mp-1210570,40.46914792454644,-38.66032332175681,37.17710178767454,-50.75316360350035
-7.498050136842106,-569.8518104,3.3872864002196392,-2.6161732630331582,30.00017665,0.3740156941034733,3.4975,11,76,934.7843081969914,1906.83994656,mp-16381,NaMn6P7O24,https://materialsproject.org/materials/mp-16381,6.934700385727455,31.1181531620789,31.1851792685426,-3.5179809267573967
-2.5355896711111106,-114.1015352,4.166217374392703,-1.5434629843084906,0.0,0.0,1.9873,145,45,1577.8243939175104,3958.6900671,mp-29845,CsHgCl3,https://materialsproject.org/materials/mp-29845,1.484237710197578,-30.450846330635795,-9.831661880856844,-36.3679248498722
-6.604032226710527,-501.90644923,5.264847862504153,-2.4799543762330827,0.0,0.0,4.0631,15,76,1092.5653790675103,3464.0501440000007,mp-565692,K3Bi5(PO4)6,https://materialsproject.org/materials/mp-565692,16.860119157764466,-9.628980985991275,11.990250864640672,11.083608286600956
-8.366605923,-167.33211846,7.431678180304601,-3.924349721750001,0.0,0.0,4.3645,33,20,312.2839394697773,1397.61468,mp-756272,LaDyO3,https://materialsproject.org/materials/mp-756272,-21.66058838362416,14.044859258206522,-28.789016575233866,49.776040793854406
-6.848469392916668,-164.36326543,4.524961877309855,-1.370979200245806,0.0,0.0,2.8295,19,24,495.7111529052629,1350.8108,mp-1219620,RbOsNO3,https://materialsproject.org/materials/mp-1219620,2.021461738179045,-31.47792192715564,-7.150993711403196,-34.210295800520136
-7.023418902,-140.46837804,6.919391913715707,-2.9518798134166677,0.0,0.0,2.7509,62,20,289.63274142970124,1206.88668,mp-11623,LaInO3,https://materialsproject.org/materials/mp-11623,-21.42039435173953,29.862243302366945,-22.991761201009545,55.198910373970755
-6.840167514999999,-150.48368533,5.014812315492291,-2.146681747386364,0.0,0.0,2.1395,157,22,361.540527585423,1091.849,mp-1192129,Tl3V5O14,https://materialsproject.org/materials/mp-1192129,3.3075129085631416,-28.359341084834927,17.408341484336713,-17.072900097073646
-4.808367593716216,-711.63840387,3.202186743093266,-1.2614074809643243,0.0,0.0,3.3193,62,148,1698.2567701887176,3274.921688,mp-723109,BeH14(I2O9)2,https://materialsproject.org/materials/mp-723109,31.43528682963294,-13.496629994877207,29.608424280398264,-21.761827081426773