energy_per_atom,energy,density,formation_energy_per_atom,total_magnetization_uB,total_magnetization_T,band_gap,sgr,num_sites,cell_volume,weight,mp_id,formula,URL,tsne_xrd_lin1_0,tsne_xrd_lin1_1,tsne_xrd_lin2_0,tsne_xrd_lin2_1
-8.127832956410256,-316.9854853,6.494276380422175,-3.5908749598717957,0.0,0.0,1.9868999999999997,139,39,678.2522214366545,2652.60694,mp-1205425,Ba8CaY2U4O24,https://materialsproject.org/materials/mp-1205425,-20.155448286176874,6.40579923459817,-12.39697070309814,29.497571215306248
-7.509471163157895,-570.7198084,3.0330001179827053,-3.1130740323208026,0.0,0.0,2.5786,198,76,1094.7261387293868,1999.5341440000002,mp-1224611,K2YTi(PO4)3,https://materialsproject.org/materials/mp-1224611,7.256722552481289,-22.259226298245558,68.41002154944437,-21.77568346070966
-6.240388330499999,-124.80776661,7.4398565847461295,-2.286088587249999,0.00015855,6.0946778297322644e-06,0.0,31,20,303.17467490656674,1358.3397,mvc-9244,PrMg(BiO3)2,https://materialsproject.org/materials/mvc-9244,-22.669436487886816,20.318310655951805,-23.14141362478857,54.095784746271974
-7.558977519,-453.53865114,5.989716808131369,-3.3483470982500005,0.0,0.0,3.6011999999999995,14,60,954.12996401576,3441.6344,mp-559770,Nd4Ga2O9,https://materialsproject.org/materials/mp-559770,10.055838070069038,24.105534597271976,34.35512556756421,-1.5919373205209686
-3.39085474,-13.56341896,2.014546910170001,-2.151745289755,9.790000000000001e-05,1.0407732921040587e-05,4.9559,166,4,109.62357987944227,132.99406928000002,mp-1223313,KNaCl2,https://materialsproject.org/materials/mp-1223313,-27.531568034385504,-38.246492795414,-35.10459168394657,-21.254937092437952
-6.211683267000001,-248.46733068,3.8654096182552617,-2.2295426080032326,1.5e-07,2.375292747487321e-09,4.2761,62,40,735.9554807436571,1713.1601999999998,mp-1195500,RbY(SeO3)2,https://materialsproject.org/materials/mp-1195500,15.450570582075017,-15.336314066722293,30.072608804845814,-6.990267517001289
-5.257063842352942,-178.74017064,5.328895787982268,-3.5909403565262745,0.0,0.0,4.5144,127,34,541.9513599869316,1739.1956768,mp-28274,Ba3In2F12,https://materialsproject.org/materials/mp-28274,10.49870370239118,-18.246431425781452,11.188847863581186,-13.205993706139258
-6.023538067954545,-795.10702497,1.707060703412442,-0.5443100244460602,1.0000857,0.00999193262582613,0.7959999999999999,61,132,1166.4473693293205,1199.1265600000004,mp-759393,CuH16C4(N5O)2,https://materialsproject.org/materials/mp-759393,40.17158642248355,-40.017210265034855,37.46335411707154,-49.81683606012261
-6.880282029565217,-158.24648668,4.1240311883035,-2.5278531449456527,2e-07,1.0830219951699598e-08,3.4078000000000004,217,23,215.21381513088855,534.4942000000002,mp-4812,Zn4B6O13,https://materialsproject.org/materials/mp-4812,-21.05604950976516,7.4838804104038275,-17.940451649065892,43.205348245045926
-6.350535149765625,-812.86849917,6.753674043607462,-1.879938184414062,0.00331165,1.8735253329958223e-05,2.5529999999999995,7,128,2059.976607966868,8378.2496,mp-1228534,Bi13Mo6(AsO14)3,https://materialsproject.org/materials/mp-1228534,15.50226618557898,-16.434773877263638,27.08810802417212,-6.8721313997310265
-1.4271581425,-5.70863257,1.6522030184825656,0.16325976150000002,0.6941421,0.04303848324353996,0.0,139,4,187.96147970606853,187.0179,mp-1184898,K3Ga,https://materialsproject.org/materials/mp-1184898,-10.903999971100681,-29.64219989209894,-12.581968251537235,-26.695566003820108
-5.6101145755,-112.20229151,3.2320420572236896,-3.0400378090060003,5.000000725,0.1877360706422799,2.6901,11,20,310.38431832860783,604.1262184,mp-644332,KMnF3,https://materialsproject.org/materials/mp-644332,-27.1669614426288,10.568037387586557,-30.648228259435214,-11.150505880147962
-5.998447361315789,-455.88199946,3.2252041150659667,-2.5062382685724827,0.0,0.0,5.6076,198,76,1045.653053304121,2030.9336,mp-1209620,Rb2Mg2(SO4)3,https://materialsproject.org/materials/mp-1209620,4.717339989029244,27.808701502431102,20.999134037267734,-17.275919290620305
-5.403409168888889,-194.52273008,3.2785693698096736,-2.2389676602696356,1.6e-06,4.426465004259925e-08,3.8023,87,36,421.2504474371885,831.71715974,mp-17125,CsNa3Li12(GeO4)4,https://materialsproject.org/materials/mp-17125,4.806434386966641,-28.787969538326372,18.499570811496717,-16.487846516838612
-8.915266515,-71.32213212,6.831967105463898,-1.7441424259375005,10.792314,0.851064038612599,0.0,129,8,147.78479726019154,608.0319999999998,mp-1078679,GdFeAsO,https://materialsproject.org/materials/mp-1078679,-17.9719690491739,23.59054669894332,-22.074808068343724,45.10510853896097
-6.336885403875001,-506.95083231,7.025691403852012,-2.03000650125,0.00210315,1.7106566097392882e-05,2.8217,57,80,1432.7975694750562,6062.123999999999,mp-1195239,B3Pb6BrO10,https://materialsproject.org/materials/mp-1195239,9.067287608237836,20.736503563987426,35.89817703123368,-1.4047724208345118
-7.404358065416668,-1066.22756142,6.086091017318506,-1.0864460841066672,0.0,0.0,1.5486,159,144,3201.3219824093817,11733.2604,mp-680210,Ba3WN4,https://materialsproject.org/materials/mp-680210,9.009499599520053,28.580988456127187,32.275896181001265,-1.1025046540007652
-4.4477959035714285,-62.26914265,3.0415001320229846,-1.433879320931429,0.0,0.0,2.4039,68,14,242.9782075173368,445.0472,mp-555474,Sr(ClO2)2,https://materialsproject.org/materials/mp-555474,-20.794909053160247,13.692067015000285,-15.416866589080826,9.972820008805767
-7.063284041290323,-437.92361056,2.6979162980478577,-3.0352982221370963,4.00689775,0.0532064227196196,0.3180000000000001,15,62,877.6505453411087,1425.9392,mp-1204238,Ca6Si6O19,https://materialsproject.org/materials/mp-1204238,7.287937277182043,22.94356721031716,31.37707721823929,-0.16798343498863105
-4.543991738928572,-127.23176869,2.932262710004055,-1.283123508718571,3.9999998999999997,0.06753582890915392,0.2439,62,28,690.2448474799701,1218.8688000000002,mp-1209705,Sm(ClO)3,https://materialsproject.org/materials/mp-1209705,37.69417136610636,-35.40979808321057,11.62912114134368,-40.35523790411587
-5.266742030714285,-73.73438843,6.281409508668769,-0.9631830292857142,0.0,0.0,0.1993999999999998,11,14,525.3667289921322,1987.33272,mp-570779,Pr3OsI3,https://materialsproject.org/materials/mp-570779,-0.06606870180028226,-14.706316044017965,19.726811032509413,-14.10556498486851
-4.431988698333334,-106.36772876,4.441143991430473,-0.17862624453125045,0.0,0.0,1.4659000000000002,52,24,677.569492777663,1812.1728,mp-29249,GeAsSe,https://materialsproject.org/materials/mp-29249,10.09241349311806,21.067082544513145,39.864644174098366,-4.851429400326982
-7.2982384425,-87.57886131,3.902099125683381,-2.1949941183333324,4.0,0.32242110348595243,0.6328999999999998,8,12,144.58191038437963,339.752895,mp-755017,V3CoO8,https://materialsproject.org/materials/mp-755017,19.897389226842016,0.9314009311164684,54.44565789645938,-6.484044678533193
-6.042282327272727,-265.8604224,2.762989263436148,-1.6489450366953409,3.3e-06,7.49027984646605e-08,4.2155,1,44,513.4442842958912,854.32562,mp-695536,LaH6S3(NO3)3,https://materialsproject.org/materials/mp-695536,32.57594091455729,-23.295533893754644,50.67674792539774,-29.44172009129387
-4.558374017857143,-63.81723625,9.465559646811931,-0.38377402214285744,5.5e-07,1.8474492525080682e-08,0.0,59,14,346.9505652837866,1977.72,mp-605028,Te2Pd3Pb2,https://materialsproject.org/materials/mp-605028,-3.650312296022385,-1.7836918927218162,1.3190768338876897,-17.488805938853353
-4.9712344176923065,-64.62604743,3.5566633464888837,-1.5989330514016908,1.0,0.046027416261168685,0.0,166,13,253.19832654590508,542.3186,mp-1104306,Rb3(SeO4)2,https://materialsproject.org/materials/mp-1104306,0.7444438630623991,-21.03390975461703,-8.388305527395055,-30.352857664499318
-4.90258244,-19.61032976,5.02044374640307,-1.7246123400080815,0.0,0.0,1.899,166,4,130.23422367446207,393.7478,mp-10780,RbSmSe2,https://materialsproject.org/materials/mp-10780,-22.580610357991425,-36.00051735097318,-32.683587343381646,-22.819634572968287
-6.443101115833334,-154.63442678,3.6340094244673318,-2.52326986576381,0.0,0.0,3.6997,14,24,396.0432278392312,866.7214607999998,mp-555838,SnPO3F,https://materialsproject.org/materials/mp-555838,18.31401159841331,-12.066541578350575,34.60051041024341,-12.148635932424094
-6.346879851111112,-57.12191866,5.357450246623018,-2.3982379347222227,0.0,0.0,2.8624,162,9,147.79737472418802,476.8434,mp-9127,Ba(SbO3)2,https://materialsproject.org/materials/mp-9127,2.604039065361562,-24.589424478360986,-3.2258354388318398,-25.759840875605512
-7.31892960074074,-395.22219844,5.840945951412087,-1.6952877212215742,0.0,0.0,2.0857,148,54,1110.0188717587616,3904.4913,mp-568883,Pr3SiSe2N3,https://materialsproject.org/materials/mp-568883,-0.014163513498957041,-14.677481668383127,20.321190239569077,-14.684239135572467
-6.056284975319148,-284.64539384,6.5257228787853885,-3.5435168941878716,0.0,0.0,4.0785,148,47,716.302227885481,2814.9834024,mp-621825,Y6Pb8OF32,https://materialsproject.org/materials/mp-621825,-0.21910512488793926,-23.98010523720984,11.479268222565857,-12.639418039069893
-6.99068801375,-167.77651233,4.4941376359284915,-2.958686325520835,1.0000004999999998,0.03114438102645677,0.11129999999999997,15,24,374.19496600982666,1012.7336,mp-560805,Ba2CuSi2O7,https://materialsproject.org/materials/mp-560805,6.77666282705488,27.63004839599093,31.74847713380394,-6.666642023023468
-5.81688024,-116.3376048,3.4561784564374847,-1.9698682462499997,0.0,0.0,2.9276,15,20,249.5692058539193,519.4431999999998,mp-559767,LiAsO3,https://materialsproject.org/materials/mp-559767,49.83741288030165,-8.645590238375213,67.89863340228355,-17.2937937242769
-7.4235249193442625,-452.83502008,5.762092026531029,-0.6841463932677215,0.205668,0.001614517836549556,0.0,148,61,1484.5721362640625,5151.4845861,mp-1228320,Cs19(W2N5)6,https://materialsproject.org/materials/mp-1228320,8.920657770657982,27.61525682508176,35.358988390286186,-1.6560808168924874
-2.949191894166667,-35.39030273,3.215309325798964,-1.5337439943400002,0.0,0.0,2.3193,88,12,397.96797124840407,770.5871999999998,mp-27385,KTlCl4,https://materialsproject.org/materials/mp-27385,25.849986886233392,-19.86718211487436,-3.681333911626063,-30.738827456934914
-8.322018479999999,-91.54220328,5.5616656898876276,-2.570523286363636,0.9586399999999999,0.056043864112954166,0.0,147,11,199.34479590932202,667.6682,mp-755194,Er(ReO4)2,https://materialsproject.org/materials/mp-755194,6.0825100103648655,-34.48050314678506,48.91338951542377,-7.287252346264435
-5.9017928193103435,-171.15199176,7.442761748525226,-2.219513859956896,4.4e-06,9.780879537905092e-08,0.0,71,29,524.2666040465881,2349.8342,mp-758088,Ba6Bi6O17,https://materialsproject.org/materials/mp-758088,-18.278085956976973,-51.140146122748654,-24.58541487634481,-5.484764811786166
-1.856304135,-7.42521654,1.287692211458448,0.8510819415350002,1.0771069,0.23109417190579445,0.0,139,4,54.31843423852364,42.12212,mp-1184938,KH3,https://materialsproject.org/materials/mp-1184938,-14.412264687029953,-41.159831840505646,-13.385962086518186,-29.14078681214809
-7.372698162045455,-324.39871913,2.9555487694954654,-2.859968715382037,0.999999975,0.021183361904352504,0.06529999999999969,14,44,550.1517905339443,979.20037312,mp-17461,NaTiP2O7,https://materialsproject.org/materials/mp-17461,49.4126906166826,-7.118639773797746,65.77396964315871,-11.661750495309475
-5.541035008055554,-398.95452058,3.1582624574022327,-2.2085974108333337,1.25e-08,2.0313444024234676e-10,2.4289000000000005,88,72,717.1398876684802,1363.9643088,mp-770491,Li3AlNiO4,https://materialsproject.org/materials/mp-770491,-23.781857974325728,-36.614421647572826,5.573134077714123,-38.04589632617514
-8.3735947205,-167.47189441,9.564684875270236,-4.016959484750002,0.0,0.0,4.5874,62,20,269.3724520152169,1551.58208,mp-770472,HoLuO3,https://materialsproject.org/materials/mp-770472,-22.355576641007925,31.343961868558157,-22.300331215830315,57.01062226645074
-6.683669679642858,-187.14275103,3.9474265689372383,-3.0621863803775513,0.0,0.0,4.9459,62,28,456.6668888769388,1085.586648,mp-6812,KBaPO4,https://materialsproject.org/materials/mp-6812,1.5759013339646912,-0.1637088047136604,9.422689651412977,-15.048450911246633
-6.287130170625002,-1207.12899276,7.310878563112817,-1.9455288627500007,8.25e-07,3.091175713830391e-09,2.8099000000000003,5,192,3110.338695514637,13693.93187712,mp-1212549,NaV4Bi13O30,https://materialsproject.org/materials/mp-1212549,11.53443609024652,23.43784373900279,33.70356907605131,-0.008356826791166456
-6.233433440750001,-249.33733763,4.602726811692164,-2.320709638034482,0.0,0.0,3.1731000000000003,62,40,758.445697070514,2102.2802,mp-1194706,RbY(TeO3)2,https://materialsproject.org/materials/mp-1194706,9.111705225968812,-24.180716823462237,34.36743783333569,-2.8216061016255187
-4.822026508333334,-86.79647715,3.845830717262317,-3.015468713149656,4.00000015,0.1635152158359643,1.7729,74,18,285.0882139623822,660.2681322000002,mp-1225938,CsMgCoF6,https://materialsproject.org/materials/mp-1225938,-7.63850705278974,-11.67088742931677,1.329598427436616,5.9517237174527535
-6.383090143,-127.66180286,6.397200243304142,-2.5580943087500003,0.0,0.0,3.5238000000000005,59,20,294.60856204850694,1134.9748,mp-18888,Sr2CdWO6,https://materialsproject.org/materials/mp-18888,-24.15719652137581,21.133674426830357,-24.00696450350398,54.56630733850171
-5.045330838709678,-156.405256,5.545822209374843,-1.4855448975564522,2.0000001,0.04342848010739935,0.0,5,31,536.7015067735382,1792.4607999999996,mp-1224134,K6Bi6O19,https://materialsproject.org/materials/mp-1224134,24.97260040026356,-5.302458727839203,8.496533579568293,-39.15391560357239
-5.00257248125,-40.02057985,5.956369732125242,-1.690956138426723,0.0,0.0,2.3292,15,8,208.46592433248424,747.7693038,mp-29506,CsBiO2,https://materialsproject.org/materials/mp-29506,21.183729075618203,-8.210457473387336,26.3135230341935,-4.056218822812366
-8.445398779318182,-371.59754629,6.587313312390016,-3.810512966250002,5e-08,8.489524993496604e-10,1.7118000000000002,1,44,686.3790837230164,2722.8472,mp-38284,Ce2Nd2O7,https://materialsproject.org/materials/mp-38284,-12.462709599338744,-24.01105859534161,-10.443776089888487,33.279095173543475
-4.86555167975,-194.62206719,8.092701981970107,-1.406461308,0.0,0.0,0.0,73,40,603.4369528725075,2940.8736,mp-685257,CdPbO3,https://materialsproject.org/materials/mp-685257,19.066768579103176,59.29840146478012,32.5076251385743,-4.6678961415525855
-5.464560786,-27.32280393,3.2730198682573888,-2.8654230693139997,4.0000003,0.6204580367693799,0.0,221,5,75.13201509836378,148.08960960000005,mp-555036,KCrF3,https://materialsproject.org/materials/mp-555036,-25.41733703129005,17.903675905676103,-27.56254389338037,53.29206291003556
-5.8485913,-35.091547799999994,1.8039793142955791,0.9691560191666668,0.00023535,2.324289032744306e-05,0.0,12,6,118.00529562295864,128.1988,mp-1071152,CaC2,https://materialsproject.org/materials/mp-1071152,37.76982574603025,-40.225011487291276,15.270788561647393,-57.43827900470253
-5.220633497777778,-46.98570148,5.294293761690955,-3.390435676348889,1.0000006,0.08217037637621383,0.0,139,9,141.82814146598096,452.1904192,mp-554352,Ba2CuF6,https://materialsproject.org/materials/mp-554352,3.254104719093945,-24.448615429496108,-0.4266466787168881,-30.45525494769017
-5.94874576,-642.46454208,4.729037780069593,-4.05542141796,0.0,0.0,6.8252,144,108,1784.5881633427014,5082.3164304,mp-1201270,KErF4,https://materialsproject.org/materials/mp-1201270,15.490824970112927,-25.58029141576527,11.039207775033471,-24.425468353427604
-6.824533949189188,-505.01551224,3.4075331541305087,-2.3852813903378376,5.0999999999999995e-06,4.523427365635341e-08,3.3377,146,74,1313.9534590870205,2696.3172,mp-699558,K10Zr3Cd(MoO4)12,https://materialsproject.org/materials/mp-699558,28.684197375606004,-17.68007736356053,45.88102028643375,-28.185483814241643
-5.967608205,-71.61129846,6.751035461580873,-0.10863782476562517,5.9798773,0.2823717404585507,0.0,99,12,246.80188347809946,1003.39,mp-1225183,Fe3Te2Se,https://materialsproject.org/materials/mp-1225183,-3.3648301629121,-13.251243816046498,-19.960284004519426,45.15570848342707
-5.782557961818181,-127.21627516,4.61173456771212,-3.923640631444545,0.0,0.0,3.6155,137,22,489.18710823726445,1358.5956384,mp-754354,Ba4OF6,https://materialsproject.org/materials/mp-754354,-15.489724024404065,-42.83451066408343,-19.056093945079226,-34.431935674899925
-7.9103871508333325,-94.92464581,5.860195626425661,-3.5392428809375014,3.1e-06,1.8048296105273726e-07,3.0310000000000006,139,12,200.17180892981102,706.4248,mp-755895,Ba3Zr2O7,https://materialsproject.org/materials/mp-755895,-20.76446316012805,14.345082542667694,-27.600860121717282,49.48670633173646
-7.142696249636363,-392.84829373,14.426242820409405,-0.7327640589999997,14.954606400000001,0.19376060575341764,0.0,147,55,899.4705139161737,7814.317959999999,mp-1217537,U6Si19Pt30,https://materialsproject.org/materials/mp-1217537,-50.978654998609564,2.7188172673543183,-40.619405180156114,34.39813837320892
-3.883089281666667,-23.29853569,6.909090597492514,-1.6693955137300005,0.0,0.0,2.0929,129,6,169.7303278372317,706.2057464,mp-22969,PbIF,https://materialsproject.org/materials/mp-22969,-19.710725064160354,14.734893854132574,-20.746203104518003,45.28512641108202
-4.049076309615385,-210.55196809999998,4.6960063021798915,-0.6238129544230774,1e-07,8.726820020871723e-10,1.1324999999999994,15,52,1335.4308608046174,3776.6,mp-542596,Hg(SbS2)4,https://materialsproject.org/materials/mp-542596,13.243060499836474,10.693782203577177,-0.5616493932271109,-6.84074963312955
-4.767126519,-47.67126519,4.9144627486015375,-3.0780407526220457,0.0,0.0,3.4927,225,10,173.8945279435539,514.6510616,mp-1113614,Cs2AlAgF6,https://materialsproject.org/materials/mp-1113614,-18.161093733584327,-49.73763153641641,-25.279661002538056,-8.40277157330797
-4.274813018,-21.37406509,1.4193977940854108,-1.2349177875739996,7.2999999999999996e-06,1.3348988472008951e-06,5.3864,160,5,63.73117560036553,54.47622000000001,mp-34078,H3ClO,https://materialsproject.org/materials/mp-34078,-14.6417074995481,23.757501323451446,19.799074964013084,-21.789451525012545
-3.1976437325,-38.37172479,6.667264482502879,-0.16599460583333325,0.0,0.0,1.2280000000000002,14,12,447.20244928430026,1795.57176,mp-28319,PtI2,https://materialsproject.org/materials/mp-28319,37.48867191186081,-33.86113236471058,23.210528487952036,-51.930643100827
-3.786843367692308,-49.22896378,2.88812511159721,-1.0944607720192312,0.274756,0.005887789410379969,0.0,123,13,543.8414993247471,945.887,mp-1214078,Ca4Bi2Br4O3,https://materialsproject.org/materials/mp-1214078,9.64017636962402,-26.79580482003437,22.468208943535227,-14.050498109019244
-7.853131378235294,-267.00646686,6.302925236111183,-2.7710111594117652,0.0,0.0,4.051,15,34,538.1462984939943,2042.64748,mp-16808,La2(WO4)3,https://materialsproject.org/materials/mp-16808,11.247244267116878,21.13404637335837,44.57527215728537,-5.8255325241188025
-5.223188993,-52.23188993,4.6516963503834186,-3.14859796945538,0.0,0.0,1.8078000000000003,225,10,174.31201953002792,488.303235,mp-1112591,Cs2ScCuF6,https://materialsproject.org/materials/mp-1112591,-18.157732769490348,-49.80977014827354,-25.145155073142533,-8.07869409899408
-7.192879396,-575.43035168,8.730492656053617,-2.4172490797499995,0.0,0.0,1.5265000000000004,62,80,1454.0788909700739,7645.002479999999,mp-650598,U(PbO2)3,https://materialsproject.org/materials/mp-650598,7.047847315463026,21.030864416927113,1.2009248923743885,26.50315963746164
-7.110836041000001,-213.32508123,2.462636155734978,-1.9672489326666664,2.00000025,0.07028483612127986,0.02030000000000001,40,30,331.62391413158133,491.8096,mp-780684,Li2Cr(CO3)3,https://materialsproject.org/materials/mp-780684,29.108270160948766,-30.725984606143093,1.3928917193918575,-43.58405013250779
-7.168118587,-71.68118587,2.8989728158043544,-2.466307764,0.0,0.0,4.9659,167,10,96.59043493018022,168.62779999999995,mp-5348,MgCO3,https://materialsproject.org/materials/mp-5348,-29.931204699365093,19.855468259714453,-14.687241043300546,48.92606180861607