energy_per_atom,energy,density,formation_energy_per_atom,total_magnetization_uB,total_magnetization_T,band_gap,sgr,num_sites,cell_volume,weight,mp_id,formula,URL,tsne_xrd_lin1_0,tsne_xrd_lin1_1,tsne_xrd_lin2_0,tsne_xrd_lin2_1
-6.685052684210527,-127.016001,4.564285717817988,-2.175434852044211,10.0017456,0.4749276129615315,0.0,164,19,245.4289619721589,674.6049800000002,mp-705675,Sr3Mn4O12,https://materialsproject.org/materials/mp-705675,-9.357781096826006,12.473458510905454,-0.15110892922364036,63.017120993908385
-9.701348081,-291.04044243,5.700421323526797,-2.2560673837019984,0.0,0.0,1.5286,15,30,395.80968993741874,1358.7648000000004,mp-776239,Zr2N2O,https://materialsproject.org/materials/mp-776239,-17.654116687829088,41.83671225342741,-10.912562601453683,59.4178586130205
-8.073265092,-40.36632546,6.827893892618174,-1.8206470426707495,7.000000000000001e-06,8.663068233979593e-07,0.9140000000000006,164,5,94.168083644936,387.2054,mp-1069558,Ce2SeN2,https://materialsproject.org/materials/mp-1069558,-13.417738641104494,23.58211935790229,-18.21898892111102,38.64303980806062
-7.3230245588461536,-380.79727706,4.377364787284279,-2.5157801127243578,0.0,0.0,1.0376,5,52,690.5052874454988,1820.2484,mvc-2651,Ti5(TeO6)3,https://materialsproject.org/materials/mvc-2651,36.297464549815395,-4.4799044326411765,52.6178030011936,0.01647691862780176
-6.166446855833333,-73.99736227,5.834431177263209,-1.5176428759722214,0.0,0.0,1.4901,82,12,156.20436283643653,548.836,mp-559885,Cr2AgBiO8,https://materialsproject.org/materials/mp-559885,25.588363600292865,58.046504182469384,-14.340510893373384,37.591005672489416
-8.703622235125,-696.28977881,6.945736629145534,-4.0295335220625015,2.5e-06,2.4096687728776348e-08,4.0092,1,80,1209.0940572137606,5057.42333,mp-758033,Y13Ho19O48,https://materialsproject.org/materials/mp-758033,18.224792465705303,59.61073004126187,-5.6965467647775485,36.59981992774699
-7.878850947875001,-630.30807583,5.962931936615506,-3.711856334625,0.0,0.0,4.473000000000001,230,80,895.2215382429514,3214.7061719999997,mp-14387,Tb3Al5O12,https://materialsproject.org/materials/mp-14387,-12.550185768136144,8.71745597705349,-21.471954141588572,50.16288950690522
-7.30246509,-146.04930180000002,5.056239405249629,-3.100778024375,9.4475e-05,2.341543492772346e-06,2.1692,62,20,470.2102578005037,1431.76136,mp-754794,La2S2O,https://materialsproject.org/materials/mp-754794,16.543517576551768,-6.2230468972469195,14.4091226537171,-18.00756555460174
-7.499501805185185,-404.97309748,6.954469789675648,-3.079751726296296,0.4632626,0.007257011147565448,0.0,2,54,743.9553608672093,3115.74432,mp-1178189,La8Cu3O16,https://materialsproject.org/materials/mp-1178189,-7.818112233820593,20.387564081665612,3.170939119692665,59.23635884799557
-8.050764166499999,-322.03056666,7.139476072837367,-3.1820802197500004,3.000000125,0.062260237569937815,2.1562,194,40,561.5493473689952,2414.37752,mp-31630,Ba2TaCrO6,https://materialsproject.org/materials/mp-31630,-16.89360558454888,19.58234703222615,-13.778270731158399,46.789536914642866
-4.489530233571427,-62.85342327,5.552715908029903,-1.0370526804761906,1.0660955,0.06832357939566745,0.0,160,14,181.84565446701802,608.078,mvc-9558,Mg(AgO2)2,https://materialsproject.org/materials/mvc-9558,11.159417315073583,49.58899835389953,24.201057044125548,67.58711558577345
-2.9502957866666666,-17.70177472,6.05044139321766,-0.4741923422222222,0.0,0.0,0.0,74,6,201.425432669619,733.9259999999998,mp-22141,BaIn2,https://materialsproject.org/materials/mp-22141,17.113859308766376,61.36318467595309,2.2707078765450515,22.98225705725372
-7.680478149166667,-829.49164011,5.193145957619371,-2.5392309068750003,0.9999999833333332,0.008944802262238628,0.07269999999999999,174,108,1302.8867756556308,4074.6294,mp-1201399,SmCO4,https://materialsproject.org/materials/mp-1201399,-13.199863110535775,-17.97108202198555,-2.9662290432295366,-17.488512345670458
-7.130688816666668,-299.48893030000005,3.054139865012576,-3.264771935484694,1.00000025,0.02137896356230977,0.5092000000000001,176,42,545.1184596535599,1002.606972,mp-1195767,Ca5P3O13,https://materialsproject.org/materials/mp-1195767,-0.6833324892470848,46.02148239160222,3.0695908113481294,53.546447662136565
-7.841908707999999,-156.83817416,6.589067205476452,-2.97382877325,4.0015773,0.18962967166711586,0.6730999999999998,62,20,245.92481037708592,975.8368,mp-756062,CeFeO3,https://materialsproject.org/materials/mp-756062,-20.41253491266369,44.795773192580214,-5.4508747562038025,63.462094942651866
-3.1211232672222216,-56.18021881,3.4192205366525705,-1.7254528602193104,8.25e-05,1.5428179146125622e-06,0.9129,123,18,623.184586223592,1283.2011076,mp-1226134,Cs4TlSbCl12,https://materialsproject.org/materials/mp-1226134,-2.7572228665932768,-7.099122483231891,-3.741510385671847,-16.241797480183198
-7.0968022797619055,-298.06569575,3.3011821460623185,-2.4411352017404075,14.999998999999999,0.3788300536399248,3.4445,15,42,461.44955569044464,917.370202,mp-780879,LiMn3P3(HO6)2,https://materialsproject.org/materials/mp-780879,25.19845230126695,5.558689125883385,56.448012959265384,31.54056152901753
-7.1624564263636366,-157.57404138,4.523144069999896,-3.11797230689394,0.0,0.0,3.1069,58,22,388.8536229006724,1059.1988,mp-779608,Ba3(BO3)2,https://materialsproject.org/materials/mp-779608,5.908394653157169,-20.771538186555226,16.888018064304358,-16.782475356901962
-6.759614967222222,-243.34613882,4.480733326709564,-2.2286120971088894,23.0000002,0.6739250372445015,0.0,7,36,397.73487745112396,1073.2321720000002,mp-849629,Mn6O7F5,https://materialsproject.org/materials/mp-849629,16.10659531970026,6.002639898230628,38.961139042043634,58.20922712648871
-6.063490780873016,-763.99983839,5.380429509256387,-2.2500990449206357,3.361365466666667,0.024433143972921817,0.0,165,126,1603.2963631775353,5194.95348,mp-704141,Sr5(CoO3)4,https://materialsproject.org/materials/mp-704141,-13.169884391461249,19.608625293534274,-12.626374150032744,26.07835057275581
-4.63155816,-27.78934896,6.575262346804687,-1.6250726739599999,2e-07,2.182624591781617e-08,0.0,166,6,106.78945721075009,422.85587999999996,mp-23896,LuHCl,https://materialsproject.org/materials/mp-23896,-18.698940525615555,32.66100438043478,-15.663320703608127,53.60569559426322
-5.126309768421053,-97.39988559999999,5.414550509858265,-1.8268858926126328,2.9999862,0.12842837739075738,0.0,217,19,272.22981557424345,887.6648192,mp-1232328,Cu3Sb4(OF)6,https://materialsproject.org/materials/mp-1232328,-6.6268050037734625,-28.194822207231997,11.094634119038718,34.02875178283517
-10.521633150454548,-231.47592931,7.70851056638385,-3.148801231477275,17.9999987,0.7109965859909338,0.3637000000000001,63,22,295.04100988533463,1369.6316,mp-17237,Gd3RuO7,https://materialsproject.org/materials/mp-17237,16.018152628622545,59.749879870833865,-3.112657313465536,38.49390190279645
-7.2887572225,-262.39526001,5.989449156017606,-3.027191740000001,0.0,0.0,2.9619,19,36,556.0487726495066,2005.6293600000001,mp-17350,La2TeO6,https://materialsproject.org/materials/mp-17350,12.815343397679872,15.87447720789392,37.38116586128263,1.4065416529409562
-11.20193281473684,-212.83672348,7.984229255968558,-3.632140198157895,42.0000001,1.7838415171990492,2.7848,148,19,274.39137215590233,1319.3328,mp-753421,Gd6WO12,https://materialsproject.org/materials/mp-753421,18.011694968776215,61.57848078413452,-5.8930198733380115,38.545731797185404
-9.225783417,-92.25783417,5.411485902285781,-1.9329020507645,0.0,0.0,0.5637999999999996,194,10,148.8406558577737,485.0528000000001,mp-11583,Zr2SN2,https://materialsproject.org/materials/mp-11583,-10.363805921305216,11.638225983650392,-9.195172392671195,45.50937953667278
-8.7255714465,-174.51142893,7.634371998551968,-3.9910717377499996,5.25e-07,2.2548928243530164e-08,4.7574000000000005,62,20,271.33812922347437,1247.4842,mp-1101170,YLuO3,https://materialsproject.org/materials/mp-1101170,-22.55576883467629,31.50701380326357,-22.21803203738253,57.53195835240712
-6.3544620935714295,-88.96246931,4.3629830624644725,-2.477965709330357,2.00014115,0.09965083504830673,0.0,129,14,233.91449258867118,614.5986,mvc-3234,Sr2CrSO3,https://materialsproject.org/materials/mvc-3234,-33.0398709879179,13.873101735134853,-14.624719133086211,61.764149382825536
-7.034260659166668,-168.82225582,11.127726537179537,-0.4576547994444447,8.2875e-05,3.9803643199772176e-06,0.0,55,24,242.6487980455549,1626.056,mp-865902,YbB4Os,https://materialsproject.org/materials/mp-865902,-37.62700942973475,-11.70223568547866,-38.12797809615581,-10.620629176124442
-4.2211354399999985,-42.2113544,4.578004514006927,-2.345640411782965,0.0,0.0,0.0,140,10,149.44764776263702,412.01801919999997,mp-8858,RbCuF3,https://materialsproject.org/materials/mp-8858,-22.917957970421863,28.759578770051032,-45.49798832246075,18.734894010750693
-7.512063518333334,-45.07238111,5.987772291420987,-4.087253513313335,0.0,0.0,3.3231,12,6,107.55818724431869,387.8463064,mp-1179151,TbOF,https://materialsproject.org/materials/mp-1179151,13.132534260691298,-8.190643878100747,20.31017988135188,-7.4125636161733555
-6.18249586125,-49.45996689,7.730756106315093,-2.2931400024999995,0.0,0.0,1.2288000000000006,123,8,150.9525185013239,702.77005,mp-551900,PrBi2BrO4,https://materialsproject.org/materials/mp-551900,-15.47841734373179,24.62520372708739,-12.984798184429286,52.39066087642619
-5.7891560207894734,-219.98792879,4.387990127288351,-1.6218637067763164,3.99340315,0.05286475052091977,0.0,161,38,880.3480299150798,2326.328,mp-606703,Ce4(GeS4)3,https://materialsproject.org/materials/mp-606703,15.399254948906375,-5.4724028576717485,21.21849203689964,-5.7640036109432575
-8.6836956485,-173.67391297,7.023941774785151,-3.3400996457500005,5.999996075,0.3258232038222417,0.0,62,20,214.60823561020015,907.7749544,mp-21455,EuAlO3,https://materialsproject.org/materials/mp-21455,-19.983724496760548,72.03334290074194,-6.600998901732984,57.146503145718015
-6.32609927075,-253.04397083,6.83770154522061,0.01932103419100031,0.0,0.0,1.5234999999999994,100,40,591.0275709175023,2433.7098,mp-1245416,Ge6Bi3N11,https://materialsproject.org/materials/mp-1245416,0.08712801586587811,18.253810389928574,4.1637351864115955,25.75092755146129
-3.92339649,-31.38717192,4.888204897811284,-1.552454176875,0.0,0.0,2.0652,63,8,353.0324338684816,1039.23776,mp-27979,LaI3,https://materialsproject.org/materials/mp-27979,7.504115385377793,1.701975956376943,7.935128291516915,12.919666291293655
-5.824426696428572,-81.54197375,3.9307881514667953,-1.9165860257142864,2.9999964,0.1024015628547843,1.0115000000000005,166,14,341.42205830027945,808.2061,mp-1247295,Sm3Mg2CrS8,https://materialsproject.org/materials/mp-1247295,-12.928566641188393,-15.478314347848134,-6.160694210527356,-13.279782696915754
-6.022255185333332,-90.33382778,7.74894139511407,-2.1727942616666662,8.8e-06,4.7125216451106384e-07,0.0,139,15,217.6239765496452,1015.547,mp-1208931,Sr2ErCu2(BiO4)2,https://materialsproject.org/materials/mp-1208931,-5.964423131862312,21.315092373595004,-10.822675488831463,45.28441859989064
-8.1808558325,-163.61711665,5.706466119640013,-3.224788400596,5.0000002,0.2128626243624065,2.0164,7,20,273.74616078398066,940.73259,mp-1218213,SrLaMnNbO6,https://materialsproject.org/materials/mp-1218213,-23.765750483077174,30.52256381382245,-21.082385940112406,56.595662918601455
-5.9621435504999996,-238.48574202,8.985680007418766,-2.3408778767500005,0.0,0.0,0.3542000000000001,1,40,635.7338989473017,3440.1488,mp-676312,YbBiO3,https://materialsproject.org/materials/mp-676312,12.207593470124145,36.307354939429786,26.70203622397089,34.725854367246605
-7.180311479318181,-315.93370509,5.074992657224574,-2.8746584444318186,3.5e-07,7.3301745118033705e-09,3.2783999999999995,14,44,556.4564204887388,1700.6599544,mp-1209642,PrAlGe2O7,https://materialsproject.org/materials/mp-1209642,15.741614964226162,25.658971981297388,26.53812586276969,36.79929186980837
-7.17978078625,-57.43824629,6.5888851790102505,-1.7381598486775005,5.2767802,0.36658815024584346,0.0004999999999997229,129,8,167.7521169195451,665.62689,mp-510487,CeMnSbO,https://materialsproject.org/materials/mp-510487,-14.975191847855392,21.30455900381311,-15.009249978825846,41.93805946187813
-4.3064369996875,-137.80598399,2.81674760282315,-1.3058037531962068,2.00000015,0.0362155447290726,0.752,113,32,643.5946626675515,1091.7200255999999,mp-1209321,RbO2F,https://materialsproject.org/materials/mp-1209321,11.021485972222106,7.591270340388887,6.471137004242633,13.303290022700427
-7.637182536,-38.18591268,9.354653162202423,-3.438369049218751,1e-07,1.424479171229547e-08,2.0223000000000004,164,5,81.81281276651045,460.8928,mp-1206825,Lu2SeO2,https://materialsproject.org/materials/mp-1206825,-16.20176826265764,28.926697822793273,-23.306968095850028,42.692179077155416
-4.39921853875,-35.19374831,8.132728021912591,-0.7414550256249997,5e-08,2.5308938053036977e-09,0.0,129,8,230.23614716938408,1127.61454,mp-1095149,LiLaBi2,https://materialsproject.org/materials/mp-1095149,-50.89815518295367,21.970328307712975,-28.464547523797798,26.54787952598503
-6.991888065714287,-97.88643292,6.161299464670488,-2.8501201014285726,4.0000008000000005,0.2486072331672456,0.9087999999999998,38,14,187.50970283366783,695.7399999999999,mp-1218722,Sr2Pr2CrNiO8,https://materialsproject.org/materials/mp-1218722,-23.125990105370676,39.49185787825728,-13.903020171843114,59.69470152221261
-7.341374328000001,-73.41374328,8.741749513806445,-3.195360747500001,4.7e-06,2.917863270176118e-07,0.5423999999999998,194,10,187.71991474338157,988.2336,mp-754469,Er2TeO2,https://materialsproject.org/materials/mp-754469,-9.620431366354882,21.08534762273489,-25.11791207020154,35.099482642635664
-6.53047032125,-156.73128771,3.9894151173909447,-2.1256745949404756,0.62616955,0.02336040085184501,0.0,11,24,312.3842155186391,750.4974480000002,mp-755148,CuSb(PO4)2,https://materialsproject.org/materials/mp-755148,30.229869658312744,10.924587967164664,53.98526677392418,4.686168488805225
-6.8702383845,-137.40476769,6.814832675145508,-0.9681801195000006,5e-08,1.6448111850971156e-09,0.0,72,20,354.26755600131685,1453.9098800000004,mp-8620,La2Si5Rh3,https://materialsproject.org/materials/mp-8620,-34.66708544319499,18.365617643279272,-27.61605332722275,30.4550064153943
-8.353532230833332,-300.72716031,7.5034792001161215,-3.260669594444445,2.003825975,0.04710315103851593,0.0,15,36,495.7782481790277,2240.2736,mp-1214437,Ce2WO6,https://materialsproject.org/materials/mp-1214437,22.01729439322137,55.555089667683546,-1.4054601149787789,35.22000543238343
-5.14313292625,-41.14506341,5.206360107457624,-2.3386285159375,1.9e-06,8.299399415305152e-08,1.7805,129,8,266.79910147509474,836.5068,mp-1078191,Ba2TeO,https://materialsproject.org/materials/mp-1078191,-8.953127944990744,17.16598374368242,-5.7368832184488205,0.6128094993542321
-5.656525011166668,-339.39150067,4.683314339720075,-3.307512926626667,11.9999996,0.15597928320834348,3.4795,14,60,896.585557598009,2528.692128,mp-28359,Ba2Fe3F10,https://materialsproject.org/materials/mp-28359,9.62657589046091,-8.974954534098703,23.98787992926773,11.269177294259519
-6.5570819445,-131.14163889,7.211269382749991,-2.29922659075,13.420717800000002,0.659988347485806,0.0,99,20,236.98284239602964,1029.152025,mp-1228474,Ba2Ho2Fe(CoO4)3,https://materialsproject.org/materials/mp-1228474,-25.860551868031262,52.10769855506742,-15.37644839729388,64.068124398942
-1.4603977075,-5.84159083,1.9554796861827968,0.060317618166666476,0.002283,0.00013498586058472654,0.0,139,4,197.10382821209527,232.1129,mp-982664,K3In,https://materialsproject.org/materials/mp-982664,-8.089349968274483,-33.215217884247416,-12.158715575567989,-29.001752151753138
-9.530370813269233,-495.57928229,9.09898624682509,-3.5171770181730766,0.0,0.0,2.6546000000000003,62,52,623.4812417575084,3416.38896,mp-773069,ErTa3O9,https://materialsproject.org/materials/mp-773069,20.517222714056725,30.397844941042727,30.249980780090226,37.109606830611774
-3.86832443,-23.20994658,6.495768068532361,0.28649848111111115,0.25113025,0.012575947093026715,0.0,164,6,232.72109672534637,910.3684,mp-1227171,CeAgPb,https://materialsproject.org/materials/mp-1227171,14.76511338806335,21.997742278387328,5.798753218254364,17.030557083734966
-4.4481752829999985,-88.96350566,2.510086333589975,-1.9926084857,2.5e-08,8.18603199247529e-10,2.5286,60,20,355.91312076694373,538.0015999999998,mp-755802,K2MgO2,https://materialsproject.org/materials/mp-755802,-3.268688091208492,36.70986663729389,-1.7275791377374554,48.54148808941464
-5.954225162608696,-136.94717874,5.173161007542097,-2.082223143994565,1.11e-05,2.676050377520161e-07,2.5448000000000004,143,23,483.39941602776497,1505.9585772,mp-1225400,Dy6Al2SiS14,https://materialsproject.org/materials/mp-1225400,8.22441230104379,-6.137303767021798,11.996124282940427,-11.589779637657712
-6.572727282857144,-92.01818196,5.493041170044296,-2.5868091085714293,4.9999997,0.3225378149784595,0.5142000000000002,38,14,180.66198027189643,597.6274400000001,mp-1218489,Sr3Y(CoO4)2,https://materialsproject.org/materials/mp-1218489,-23.3768492288028,41.083916382488596,-12.838099857307544,59.49785709435866
-7.963442105252525,-788.38076842,6.541117977006117,-2.971236146519696,81.9999985,0.7639444107730209,0.05849999999999955,1,99,1250.9199365721001,4927.5655,mp-1173621,Nd20Mn20O59,https://materialsproject.org/materials/mp-1173621,-16.922920857862113,53.806813950693815,13.34899178651964,63.180215665578785
-7.215274637916668,-346.33318262,4.460415997884401,-2.935280378270834,3.0000001,0.05445755399667602,2.8758000000000004,5,48,642.0081865083322,1724.51446,mp-562568,KHoCoSi2O7,https://materialsproject.org/materials/mp-562568,24.042475968852703,12.948526026871358,48.78069234023114,33.89905733932318
-7.62772867,-99.16047271,3.1707939958785563,-3.467516679230769,1e-07,5.927028213630826e-09,4.911199999999999,147,13,196.6257684712547,375.4562772,mp-1019535,BaAl2(SiO4)2,https://materialsproject.org/materials/mp-1019535,4.868121203484394,-3.3270838663192963,14.934897655020757,-18.886229792721533
-5.1296375,-20.51855,6.796557942522713,-1.5484070399479175,5.3e-06,7.451850903850202e-07,0.0,123,4,82.88751894197588,339.2572,mp-1225499,ErAgS2,https://materialsproject.org/materials/mp-1225499,31.793192128154914,63.47839132452172,-15.199052004028445,35.136947546582284
-6.4715237555555545,-116.48742759999999,4.715070094917272,-2.2205105705902795,5.00000015,0.13123196418285346,0.5769000000000002,140,18,444.02540169037337,1260.80197,mp-6770,BaLa2MnS5,https://materialsproject.org/materials/mp-6770,-8.306959664192501,8.869703591480247,-0.5019532572610342,20.094625595133397
-6.588659164347826,-151.53916078,6.155978050833462,-1.6774838905421745,11.999998800000002,0.4710219600835097,0.8834,149,23,296.90497500593,1100.69108,mp-565428,Mn4Bi3NO15,https://materialsproject.org/materials/mp-565428,2.7491268775930258,16.788555659623512,17.805152289932717,-22.580518260339733
-6.601670949,-66.01670949,5.9360004504433945,-0.7450973901428568,2.94e-05,1.8393977580202202e-06,0.0,38,10,186.2726551771129,665.876886,mp-1228429,Ba2Fe4AsP3,https://materialsproject.org/materials/mp-1228429,-16.092965775368803,32.37566901649377,-9.096571125803669,51.370415650135314
-3.68076496,-22.08458976,2.8698563215200417,-1.2323931083333333,3.07e-05,2.0067644861064214e-06,0.5895999999999999,71,6,178.2868846815984,308.1275,mp-568050,Ca3SiBr2,https://materialsproject.org/materials/mp-568050,-0.03036033280875553,-12.961584394445953,0.3943195908745721,-0.4394723137605021
-8.06069083111111,-72.54621748,6.959311817723884,-2.977142681604405,3.8099785,0.2559696472123826,0.0,123,9,173.46484907337043,726.99042,mp-867940,Rb2U2O5,https://materialsproject.org/materials/mp-867940,-19.415597108518604,6.183770314716532,-12.457589300590149,29.39528988349069
-6.221256875069446,-895.86099001,7.059824609804969,-1.8510376947916671,0.0,0.0,2.5321,60,144,2129.5819843197837,9053.9728,mp-554090,Bi7Mo2(AsO8)3,https://materialsproject.org/materials/mp-554090,5.2189478093145585,22.79731716487484,30.15603867694568,0.551298554925411