energy_per_atom,energy,density,formation_energy_per_atom,total_magnetization_uB,total_magnetization_T,band_gap,sgr,num_sites,cell_volume,weight,mp_id,formula,URL,tsne_cry_lin1_0,tsne_cry_lin1_1,tsne_cry_lin2_0,tsne_cry_lin2_1
-4.692442714583334,-112.61862515,4.730927540712892,-0.0529661495833332,0.0,0.0,0.7103999999999999,55,24,624.726607904813,1779.8656,mp-17524,GeAs2,https://materialsproject.org/materials/mp-17524,39.630053253587604,11.912391976442168,6.043846279651924,-6.261131208673798
-3.2941342682142856,-92.23575951,4.786173474233282,-0.5822504349876846,5e-08,4.946469894048353e-10,0.5657999999999999,62,28,1178.0183668541067,3395.4036151999994,mp-662549,Cs2GeTe4,https://materialsproject.org/materials/mp-662549,75.65261149313362,14.931375566734165,8.003021483679925,-6.900016555573707
-4.662396075,-46.62396075,7.716515354236572,-0.2686581870000005,0.0,0.0,0.0,194,10,212.75980750777248,988.6936,mp-3250,Ni2SbTe2,https://materialsproject.org/materials/mp-3250,51.53417487895978,27.516927708183605,-8.604250342815693,-0.5045126942092143
-3.3832779966666666,-40.59933596,4.469477770654605,-0.4318721016666665,0.0,0.0,0.9145,2,12,540.5212272957361,1454.85746,mp-569578,NbI5,https://materialsproject.org/materials/mp-569578,10.301550180880783,-5.024716657359902,6.116103551075384,-5.685893610109494
-6.008158229814813,-324.44054441,4.266073697300276,-2.2168928314614806,4.991495738888889,0.0913954053333944,0.0,6,54,636.4785455107774,1635.1704576,mp-758710,FeOF,https://materialsproject.org/materials/mp-758710,-42.24547884546233,-76.75059742114772,2.225432235817544,-1.9943882129801755
-6.4659510650000005,-129.3190213,5.590836095330293,-0.5175698741562499,6.00000005,0.17266518429319805,0.0,2,20,404.9709818704662,1363.4888,mp-1226371,Cr2Se3,https://materialsproject.org/materials/mp-1226371,23.954096478894392,17.117991559689425,-8.604250342815693,-0.5045126942092143
-2.9619295145833333,-71.08630835,8.302304796024098,-0.2595376240277775,2.5e-08,3.730440968649325e-10,0.5350999999999999,14,24,781.0112042048517,3904.8724,mp-650442,Tl3AgTe2,https://materialsproject.org/materials/mp-650442,58.432978122038975,23.829263134760662,5.330105462899018,-5.844264534074579
-4.337657290357143,-121.45440413,4.29669481523454,-0.2059289800714288,4e-07,6.259091250115724e-09,0.7339000000000002,62,28,744.7767931067767,1927.1324,mp-1192374,K(GeAs)3,https://materialsproject.org/materials/mp-1192374,39.56631734274943,12.058817265934978,4.130675268670948,-5.568818758252696
-8.2432478565,-164.86495713,7.797746047981891,-3.3323220197500008,1.999999675,0.10214966370114133,1.5817999999999994,62,20,228.1762358586004,1071.49564,mp-755258,TmVO3,https://materialsproject.org/materials/mp-755258,-13.63432674797918,-28.98337773915177,8.060737854863008,-1.7613432833932825
-4.4698738525,-35.75899082,6.10116559962187,-0.8099472407812507,1.4999999999999999e-05,8.233666374769588e-07,1.0034,26,8,212.3124300057486,780.0799999999998,mp-1218951,SnPbS2,https://materialsproject.org/materials/mp-1218951,72.58762231746536,21.346145290209105,7.72718719538308,-6.6601874569637625
-6.176441478571428,-43.23509035,6.643340876958042,-0.5726696691964283,0.6118670999999999,0.05985035547708303,0.0,12,7,119.1427980461812,476.656195,mp-1078200,V2CoSe4,https://materialsproject.org/materials/mp-1078200,49.83119795596834,26.781168677130427,-8.604250342815693,-0.5045126942092143
-6.15901991375,-147.81647793,4.725029030300905,-1.926362244869792,5.00000015,0.10741034797697753,0.43040000000000056,173,24,542.5019721879862,1543.6779899999995,mp-1191521,Pr3MnGaS7,https://materialsproject.org/materials/mp-1191521,28.06469855588782,2.862805700463438,4.672886140926988,-6.009668689992987
-6.004350963541667,-288.20884625,4.326168660372668,-2.213085565188333,4.99999860625,0.10444584250365076,1.2819,2,48,557.8997327529712,1453.4848512,mp-758773,FeOF,https://materialsproject.org/materials/mp-758773,-41.16264376662739,-76.21322847546527,6.511131780881943,-1.154607609510762
-8.465615576666666,-203.17477384,3.531955346763896,-1.539008256745556,0.000804575,3.445849137015289e-05,0.18409999999999996,63,24,272.11200466262926,578.7804,mp-1029424,LiTi2N3,https://materialsproject.org/materials/mp-1029424,35.598452974504816,-9.547045494460695,5.12720674396016,-5.670748748163282
-3.656096883333333,-32.90487195,7.694723073978715,-0.19962106277777794,0.0041613,0.00015265143486114404,0.0,156,9,317.69147654698435,1472.1412,mp-1227656,Bi3Te5Pb,https://materialsproject.org/materials/mp-1227656,66.52130408334462,23.81705661232089,4.7649700322878745,-6.547292785841509
-6.837752792962962,-184.61932541,4.582008149671807,-1.1498361042592595,0.0256877,0.0006067227738769228,0.0,115,27,493.41500360230384,1361.5046158,mp-1228605,Al3(MoS2)8,https://materialsproject.org/materials/mp-1228605,18.90004266868528,3.5688461192149883,-8.604250342815693,-0.5045126942092143
-5.9169965435,-236.67986174,8.378490081233835,-0.4712896065000002,0.0458418375,0.0005641076367226053,0.0,223,40,947.0599381033824,4778.528,mp-1198476,CeSn3Ru,https://materialsproject.org/materials/mp-1198476,0.6958996983749841,49.80496379343505,-8.604250342815693,-0.5045126942092143
-8.0952362325,-323.80944930000004,6.732734665358613,-3.0707586841250007,22.999996499999998,0.5589050863821746,1.4113000000000009,8,40,479.5867053468903,1944.50715,mp-1099724,La5Sm3VCr7O24,https://materialsproject.org/materials/mp-1099724,-4.648722787627227,-7.0685914494393165,7.085475336751316,-2.7816189052076234
-6.014355635,-144.34453524,4.341113111600449,-2.2230902366466663,5.000119175,0.20961834148808275,1.7402999999999995,6,24,277.9895705800182,726.7424255999998,mp-752880,FeOF,https://materialsproject.org/materials/mp-752880,-41.872620400053954,-76.35781955749839,4.589216848727181,-0.4310245211390011
-6.6986628433333335,-80.38395412,3.374839557078201,-2.2817063171527785,3.00000005,0.2849470171348009,2.6238,2,12,122.69717806465972,249.36679,mp-756840,LiCoBO3,https://materialsproject.org/materials/mp-756840,-8.940788621177443,-69.05920889193555,9.18043071627442,1.7808953798661455
-5.3074427815625,-169.83816901,5.728915098436363,-0.4380215237109377,8.285e-05,1.601738847513693e-06,0.0,200,32,602.806923179352,2079.704,mp-1204792,Ge3Rh2S3,https://materialsproject.org/materials/mp-1204792,25.16981326609817,3.7072777021316496,-8.604250342815693,-0.5045126942092143
-3.5704618910000003,-35.70461891,5.496743462617181,-0.3299159315000004,0.00031099999999999997,1.2393671887721065e-05,0.055500000000000334,160,10,292.44070499049803,968.0419999999999,mp-1222750,Li2GeSb2Te5,https://materialsproject.org/materials/mp-1222750,67.03074226851703,25.85059296877207,2.493172876109542,-4.748934044914439
-4.429689245,-35.43751396,7.386608358598451,-0.9215169224999996,7.235e-05,3.439113051239255e-06,0.0,63,8,245.17123273713383,1090.6,mp-1086673,DyTe3,https://materialsproject.org/materials/mp-1086673,-9.847825680282071,24.163154793574773,-8.604250342815693,-0.5045126942092143
-2.8488258110714284,-79.76712271,5.516807622937464,-0.13180123571428531,0.0092313,0.0001309391998584,0.0,8,28,821.6192572680418,2729.66505,mp-684621,Cu13I15,https://materialsproject.org/materials/mp-684621,16.919469137974804,-11.227516628429363,5.355550858754098,-5.037387938783384
-5.60819232,-22.43276928,10.824897704730349,-0.8972274162499998,1e-07,1.517964998774774e-08,0.0,225,4,76.7742654275051,500.48420999999996,mp-3942,TmSnPd2,https://materialsproject.org/materials/mp-3942,29.125134512038827,41.39080114976635,-8.604250342815693,-0.5045126942092143
-5.169929681666667,-31.01957809,4.566548788330438,-0.10507363833333312,4.15804525,0.36283621592345777,0.0,129,6,133.55372629328892,367.27808999999996,mp-1018786,LiMnSb,https://materialsproject.org/materials/mp-1018786,32.58215438050491,26.374498110004225,-8.604250342815693,-0.5045126942092143
-3.977756242,-39.77756242,2.3190926226963087,-1.8154912385904831,3.0000001,0.10337824569225154,1.6363,225,10,338.196834826982,472.3224,mp-1114351,K2RbMoCl6,https://materialsproject.org/materials/mp-1114351,11.601608740676891,-8.947413328212715,8.570475212905178,-2.8044900379792166
-6.016857929722222,-216.60688547,4.336217128187184,-2.225592531368889,4.99999975,0.1395846195215537,1.4674,6,36,417.4551691225878,1090.1136384000001,mp-1178228,FeOF,https://materialsproject.org/materials/mp-1178228,-41.39739882607662,-76.65267685917401,5.938868977231138,0.24054807427155214
-6.120559429038463,-318.26909031,4.7146449175599,-1.5963295798076926,8.938489575,0.162635651955375,1.7380000000000002,14,52,640.5098465401812,1818.55194,mp-21664,Co3(AsO4)2,https://materialsproject.org/materials/mp-21664,-12.167781629529527,-36.84487448146805,7.819881693927384,-0.6525207706401126
-3.9639873160000003,-39.63987316,5.9277758188488665,-0.04669822035937514,3.2e-06,1.3975834383831936e-07,0.2858999999999998,139,10,266.8392186682875,952.56,mp-1224356,Ge5Te4Se,https://materialsproject.org/materials/mp-1224356,68.38874900106362,26.594800618557077,6.278753056822096,-7.230114538439313
-5.326213645,-63.91456374,9.924329145069473,-0.2766612616666665,0.0,0.0,0.0,62,12,299.44730159571066,1789.668,mp-569322,Te2Ir,https://materialsproject.org/materials/mp-569322,52.38860785647915,30.408766343394237,-8.604250342815693,-0.5045126942092143
-4.243829537,-42.43829537,5.344518668188505,-0.8351577611041663,5.95e-06,2.656938119636893e-07,1.3794000000000004,11,10,260.9834413689946,839.9868,mp-1078776,InBiS3,https://materialsproject.org/materials/mp-1078776,39.491528562926895,-2.3790556681379758,7.510952399468168,-4.62823264064782
-7.3058877607142865,-102.28242865,3.6211874393800114,-2.786436915,2.0,0.16946799562539408,1.7447999999999997,74,14,137.53705800971164,299.9312,mp-753223,LiVSiO4,https://materialsproject.org/materials/mp-753223,-22.43823747101641,-51.43671464527999,7.997373003785253,0.98900987339317
-4.287815929,-42.87815929,5.57614095016211,-0.6868237350000002,1.1174985,0.055007541434647464,0.0,129,10,236.7566257748666,795.0360000000002,mp-20779,Li2CeSb2,https://materialsproject.org/materials/mp-20779,32.1162263460994,24.20079736691285,-11.335890295743985,-0.3259841721384822
-4.484617036666667,-13.45385111,7.843570944956948,-0.19790492333333332,7.82e-05,1.0602334264859528e-05,0.0,21,3,85.95728473066046,406.02,mp-1018158,DySb2,https://materialsproject.org/materials/mp-1018158,-3.807354335908125,39.12832645713668,-8.604250342815693,-0.5045126942092143
-5.519406965499999,-220.77627862,8.375133580891982,-0.5537625577500002,2.1704287,0.026855634830835882,0.0,223,40,941.8625481524408,4750.4000000000015,mp-7203,Ce3Sn13Rh4,https://materialsproject.org/materials/mp-7203,0.5855493141920994,49.886777209594975,-8.604250342815693,-0.5045126942092143
-4.602502795,-18.41001118,4.305241868499195,-0.4638993344999998,4.000018799999999,0.34607361563241146,0.0,119,4,134.7010464853555,349.2363450000001,mp-10286,KMnTe2,https://materialsproject.org/materials/mp-10286,26.56822402458248,16.499796065361913,-8.604250342815693,-0.5045126942092143
-3.9439470671428567,-138.03814735,6.884500245075821,-0.4255992366428578,0.0,0.0,0.5462999999999996,148,35,1167.658497647666,4841.0456,mp-557619,Bi14Te13S8,https://materialsproject.org/materials/mp-557619,67.53367831552916,23.957606469215307,5.658331221857722,-6.988165493180728
-5.7186671275,-22.87466851,5.235444239777894,-1.3600437692968752,0.009126299999999999,0.0013094607206867134,0.0,164,4,81.2231246448038,256.085,mp-1001615,LiZrSe2,https://materialsproject.org/materials/mp-1001615,28.774086190274897,8.463664389291122,-5.734821421951414,-3.045888329787944
-5.932402469285713,-83.05363457,3.9384167567740667,-1.768594134464286,2.00000005,0.0755198676612748,0.0,74,14,308.63573851010074,732.0129999999998,mp-1247138,DyMgVS4,https://materialsproject.org/materials/mp-1247138,23.432040668795718,10.372909486328886,-8.604250342815693,-0.5045126942092143
-4.164153084545455,-91.61136786,4.446169675796412,-0.85393823707,0.0,0.0,1.1683000000000003,2,22,592.1212916359757,1585.4319999999998,mp-1013760,Sn5(S2Cl)2,https://materialsproject.org/materials/mp-1013760,72.11835594006814,15.995540855971086,9.262889214512217,-6.357594343658157
-5.238025095555555,-141.42667758,3.4276856885977582,-1.733281743506666,4.9999998,0.090523967425269,1.0408,148,27,643.7004827488355,1328.726925,mp-570972,K2Mn(NbCl3)6,https://materialsproject.org/materials/mp-570972,12.040496091347649,-3.000944862123452,5.018018069163838,-5.794544437539588
-4.955818189268292,-406.37709152,8.342463631019406,-0.351113649115854,0.00014199999999999998,9.69149911678238e-07,0.0,12,82,1707.5554336457526,8578.6716,mp-1219586,Sm9Ni24Sn49,https://materialsproject.org/materials/mp-1219586,2.2905129698654885,54.76829999301195,-8.604250342815693,-0.5045126942092143
-5.180853295,-41.44682636,6.844257691326956,-0.9715659800000004,0.0,0.0,0.7904,11,8,298.3413681812786,1229.67612,mp-1025522,ThTe3,https://materialsproject.org/materials/mp-1025522,3.4422293912400472,30.228920598165608,-8.604250342815693,-0.5045126942092143
-5.33883485875,-42.71067887,7.5715155010374655,-0.6579241331250003,2.75e-06,1.6795995711159474e-07,0.0,63,8,190.81142122015186,870.03774,mp-1084757,LaNiSn2,https://materialsproject.org/materials/mp-1084757,0.7328279590815954,52.14903913720242,-8.604250342815693,-0.5045126942092143
-5.640594417291666,-270.74853203,2.588874266434523,-3.1426979964183333,2.0000001125,0.03392940431443495,0.0,59,48,686.9596247607992,1071.0089024000001,mp-778314,LiVF4,https://materialsproject.org/materials/mp-778314,-22.55692097489989,-51.2919205554313,6.548986884787,0.507436886102255
-8.158497706,-40.79248853,6.560108088048531,-3.1125895127499996,2.9999994,0.5781556423502557,1.9217999999999995,221,5,60.47192964011511,238.89977000000002,mp-18841,LaCrO3,https://materialsproject.org/materials/mp-18841,-4.585443997629115,-7.151006505941638,7.604172952812287,-3.1293764635797032
-5.16819783,-51.6819783,8.79697599632291,-0.2791424174374996,0.0017420000000000003,0.00012514728236220812,0.0,72,10,162.2199096185055,859.3863899999999,mp-12464,Co(PdSe)2,https://materialsproject.org/materials/mp-12464,51.9301614475275,28.08482846430463,-8.604250342815693,-0.5045126942092143
-6.8681511660000005,-68.68151166,2.6414921747103457,-2.405166530226,8.00000035,0.4693668974909498,2.2269,141,10,198.63463477672687,315.97681279999995,mp-760395,Cr2OF2,https://materialsproject.org/materials/mp-760395,14.537494863347233,-9.751046510046622,3.384051433100158,-4.000873185987997
-5.7418909525,-160.77294667,3.1414100684968447,-3.4412779569214282,2.0000002,0.06475378982981371,2.4842,14,28,359.95008071637056,680.954064,mvc-3736,MgVF5,https://materialsproject.org/materials/mvc-3736,-22.851612780309697,-50.7794796490484,7.903030874855668,0.6544746268774213
-6.047332453974359,-471.69193141,11.516794337849385,-0.9149819247435894,0.00459195,3.0262365871206493e-05,0.0,108,78,1768.3641444330326,12264.62352,mp-1211963,La8Sb14Pt17,https://materialsproject.org/materials/mp-1211963,23.94640079057918,28.30805701583007,-8.604250342815693,-0.5045126942092143
-3.4172904883333337,-20.50374293,4.229756287209605,-0.29561490100000043,3e-06,1.575558964349268e-07,0.20910000000000029,12,6,221.9034330595113,565.2366000000002,mp-29055,KSb2,https://materialsproject.org/materials/mp-29055,37.798368930256096,21.682027961331077,3.5903899013361875,-5.570951884133819
-4.302884261785715,-120.48075933,3.947851695440248,-0.7859963596540176,4.99999745,0.07935847173831549,1.0585,9,28,734.2668384174478,1745.6840899999993,mp-1192737,Li4MnSn2Se7,https://materialsproject.org/materials/mp-1192737,39.33116168949411,2.2925588164003634,6.6984668297960726,-6.129995218041084
-3.4541267220000003,-17.27063361,3.779666693855701,-0.7173985512000002,1.3e-06,7.840677231947317e-08,0.7552999999999999,71,5,193.2267297344781,439.8166,mp-1068813,K2Te2Pd,https://materialsproject.org/materials/mp-1068813,64.90899843629934,17.460940327252224,6.618184798370613,-5.9230756074298565
-6.681230582857142,-46.76861408,5.063331515832627,-0.6290057614062496,10.9575477,0.9100408959719088,0.0,8,7,140.32333185184058,427.875245,mp-1221770,MnCr2Se3S,https://materialsproject.org/materials/mp-1221770,23.859153935472225,17.08924335115314,-8.604250342815693,-0.5045126942092143
-3.881321305714286,-27.16924914,3.6133343625533163,-1.3515536886699506,4.999999400000001,0.2324448506105125,1.1516,139,7,250.6844815762259,545.489645,mp-27263,Rb2MnBr4,https://materialsproject.org/materials/mp-27263,17.49927141702529,-8.150964510938973,7.1885918602319805,-1.4774287780222746
-6.0581514553333315,-363.48908732,2.481607019276117,-1.1901500637013338,0.0,0.0,2.074,14,60,986.6812629011732,1474.5544,mp-14131,K2Pd(NO2)4,https://materialsproject.org/materials/mp-14131,-1.9497981493584915,-23.58480082981994,8.559331310446293,1.2700412494767954
-5.864848212999999,-117.29696426,3.3578555323688466,-1.2822223797708332,0.0007700000000000001,2.0934286261290527e-05,0.4299,62,20,428.65707303640215,866.808,mp-1105715,TiGeS3,https://materialsproject.org/materials/mp-1105715,19.940389827385907,14.432558844744925,3.603550438160585,-5.2775612675135815
-2.989947888333333,-35.87937466,5.4567154939304015,-0.2511944116666669,0.0,0.0,0.9081,14,12,438.48664558244036,1440.9157599999999,mp-27747,PdI2,https://materialsproject.org/materials/mp-27747,9.492665297845116,-5.7317391493010055,5.816150471131802,-5.509591236324341
-6.010871960925926,-324.58708589,4.301850829164485,-2.2196065625725936,4.999999611111111,0.09231890021439897,0.35089999999999977,6,54,631.1851548852587,1635.1704576,mp-759971,FeOF,https://materialsproject.org/materials/mp-759971,-41.7691640039444,-76.83053955597262,4.181062617581674,-0.5615476310355891
-7.0924081449999985,-1106.41567062,7.814459933486439,-0.8142561573958329,0.021186611538461537,6.594092884002008e-05,0.0,176,156,3744.4140918809667,17621.12976,mp-680184,TaSe2,https://materialsproject.org/materials/mp-680184,47.46145296951453,25.823906200202842,-8.604250342815693,-0.5045126942092143
-5.965397129078947,-453.37018181,2.2919457166874797,-1.2324665164747377,0.0,0.0,1.9067,14,76,1253.7981069735906,1730.5448,mp-556518,K2Pd(NO3)4,https://materialsproject.org/materials/mp-556518,-2.057357697235295,-23.562413608169603,8.546397301938086,0.4350027703181665
-5.55759671825,-222.30386873,8.429233138204387,-0.4637298742500001,0.0509280375,0.0006492585294681653,0.0,57,40,914.1484028720038,4640.4028,mp-1199267,TbFeSb3,https://materialsproject.org/materials/mp-1199267,3.7557298080755754,34.407070789905966,-8.604250342815693,-0.5045126942092143
-6.9385851785714285,-48.57009625,6.155611905711582,-1.2813618177678572,6e-07,4.397017240126562e-08,0.0,65,7,159.02686939054502,589.512,mp-1215400,Zr3Se4,https://materialsproject.org/materials/mp-1215400,28.875213358308443,8.585246531696475,-8.604250342815693,-0.5045126942092143
-2.7077071633333336,-24.36936447,5.019903502707232,-0.8230444469348659,4e-06,1.1529173287012682e-07,0.6483999999999999,225,9,404.33305953299174,1222.3217238,mp-23060,Cs2PtI6,https://materialsproject.org/materials/mp-23060,9.812862968917896,-6.5743006914903805,6.088146811256458,-5.6926113399466525
-5.422940704,-216.91762816,7.723877754852053,-0.567797813,1.8625e-06,2.2332055378870305e-08,0.0,57,40,971.9524365602947,4520.96676,mp-569153,PrCoSb3,https://materialsproject.org/materials/mp-569153,3.754803868816999,34.511682355212244,-8.604250342815693,-0.5045126942092143
-8.093656521666666,-291.37163478,9.959712552263543,-0.5760770427777779,2.5e-08,3.282056905156273e-10,0.0,62,36,887.7104441920692,5324.38,mp-29068,Hf5FeTe3,https://materialsproject.org/materials/mp-29068,43.50221332312011,27.556756829569267,-8.604250342815693,-0.5045126942092143
-8.786973439126985,-1107.15865333,1.7294803033905068,0.27979987577380894,0.0,0.0,1.2893,14,126,1468.3412875594463,1529.303,mp-1197923,C61O2,https://materialsproject.org/materials/mp-1197923,46.4026294357429,-26.196626975435453,4.6651783531296935,-5.00235618716447