energy_per_atom,energy,density,formation_energy_per_atom,total_magnetization_uB,total_magnetization_T,band_gap,sgr,num_sites,cell_volume,weight,mp_id,formula,URL,tsne_cry_lin1_0,tsne_cry_lin1_1,tsne_cry_lin2_0,tsne_cry_lin2_1
-6.356496164166668,-76.27795397,7.237269058329086,-0.4942375191666658,0.15529720000000002,0.007398259473660113,0.0,62,12,244.6310019594082,1066.1961800000001,mp-1095491,YCoSn,https://materialsproject.org/materials/mp-1095491,25.581386834182624,72.78550901566301,-8.604250342815693,-0.5045126942092143
-6.319228255714287,-88.46919558,3.9517948669064267,-1.239138230892859,5.0753026,0.2193252735551252,0.0,166,14,269.6812103867017,641.7945,mp-1246743,Mg2V3WS8,https://materialsproject.org/materials/mp-1246743,22.580742766034763,11.194082942261288,-8.604250342815693,-0.5045126942092143
-5.365751290897436,-418.52860069,2.7603597700237565,-3.1947327339374363,7.0,0.09211658595785673,0.0,88,78,885.6000530158591,1472.1573536,mp-760823,Li11V4F24,https://materialsproject.org/materials/mp-760823,-20.985642735676933,-52.25390421479974,8.586894047550722,3.087077379172681
-6.21843406,-87.05807684,3.1255416261407194,-1.3804871213690484,9.9837704,0.4302718852837857,0.0,166,14,270.41391942033255,508.9853,mp-1247026,Mg2TiCr3S8,https://materialsproject.org/materials/mp-1247026,19.20314851914703,9.375446051887591,-5.263251008895166,-3.58415324535341
-4.81963326,-19.27853304,8.846710862387617,-0.4131219475000005,9.63e-05,1.2936193896381304e-05,0.0,187,4,86.75553617911062,462.2000000000001,mp-1219442,SbTePd2,https://materialsproject.org/materials/mp-1219442,51.822399130903165,32.03798511379052,-8.604250342815693,-0.5045126942092143
-6.956218407346939,-340.85470196,4.597771127787844,-2.325888485816328,51.9999996,1.0609291723273324,1.5073999999999996,12,49,571.2081252154534,1581.5853544,mp-1133344,Al4Fe13Si2(SbO14)2,https://materialsproject.org/materials/mp-1133344,-24.998288961928605,-38.56634534843671,6.526792719026452,-0.07193809328010642
-4.789210055714285,-67.04894078,6.808234503907813,-1.0464752078571429,1.05e-06,2.90869571717794e-08,0.0,4,14,420.69605077357386,1724.86,mp-1220509,Nd2CuTe4,https://materialsproject.org/materials/mp-1220509,56.14931176437618,21.321797631250245,-8.604250342815693,-0.5045126942092143
-7.414941615,-133.46894907,11.582132320534386,-0.8299029599999999,2.6666666666666667e-07,1.0104098208958603e-08,0.0,11,18,307.5732778666473,2145.3,mp-17746,HfGePd,https://materialsproject.org/materials/mp-17746,33.65481929161053,48.804890816958896,-8.604250342815693,-0.5045126942092143
-6.918548537,-69.18548537,6.679859654770245,-2.299728820749999,5.0000003,0.4720289228341568,0.04599999999999982,146,10,123.44651893182964,496.589,mp-1218365,SrCr2BiO6,https://materialsproject.org/materials/mp-1218365,-15.2383027092342,-33.94952633000792,6.987836927469176,-0.9964221615045884
-3.810488318,-38.10488318,4.9012749339490895,-0.6406829562968752,5.0000106,0.2417743983094297,0.17830000000000013,160,10,241.0116530258464,711.374045,mp-1221510,MnZn4Se5,https://materialsproject.org/materials/mp-1221510,39.33429541719628,3.8480971509612822,4.878429767892615,-6.54077232249053
-7.729955448888888,-278.27839616,7.564655986425049,-3.3137380571899997,4.999999525,0.11111241180529853,1.6974999999999998,62,36,524.4267258749127,2389.0481800000002,mp-541007,BaDy2MnO5,https://materialsproject.org/materials/mp-541007,-27.17765197928789,-27.266020286520227,8.675887585192271,-3.8782156850287652
-6.058628102857143,-169.64158688,3.431540435333277,-1.1344161901071428,5.0001072,0.1179464014986157,0.0,62,28,494.05130159249495,1020.96787712,mp-1238843,Na(CrS2)2,https://materialsproject.org/materials/mp-1238843,16.826870862981224,7.580569445491662,-8.604250342815693,-0.5045126942092143
-6.162946384333334,-184.88839153,6.461491205244863,-1.5801763795833332,12.0424579,0.34768908840621243,1.895,55,30,403.64678981083483,1570.6708,mp-504615,Fe4Bi2O9,https://materialsproject.org/materials/mp-504615,-17.784981934037727,-33.69596227182967,7.9837161141629185,-1.4334478360152942
-3.1929356139999996,-31.92935614,3.616114309029512,-1.4416885631973797,1.00000005,0.04190536736454318,0.0,194,10,278.10435961297947,605.6209038,mp-675287,CsCuCl3,https://materialsproject.org/materials/mp-675287,3.9045562522600026,-6.9916995914594855,-6.115887767174269,-3.4639239589760007
-5.93954556,-83.15363784,3.2073831439221925,-1.968749120178572,2.8999999999999998e-06,1.1509867434430545e-07,0.5765000000000002,227,14,293.63316330928023,567.161648,mp-1001012,Sc2ZnS4,https://materialsproject.org/materials/mp-1001012,56.37349009853148,3.825924175874192,7.961495091066892,-4.363971577304463
-6.291617169285713,-264.24792111,4.0109820208792595,-2.0715150840476197,9.0002152,0.24557452596951898,0.0,2,42,427.11714699917707,1031.6886,mp-769574,Li7V6Ni5O24,https://materialsproject.org/materials/mp-769574,-8.179810175745287,-37.644660902067216,8.835253604911559,-0.9275953569964728
-2.9708367795833333,-142.60016542,4.809675227673406,-0.6392987570067051,9.89875e-05,5.621910915225238e-07,1.199,15,48,2051.983309713356,5943.475615199999,mp-1195350,CsCdInTe3,https://materialsproject.org/materials/mp-1195350,60.099419651082364,16.687776036389838,7.410501222090549,-6.101634476050594
-5.59578206,-33.57469236,8.054635638328453,-0.02427429000000103,0.8525176,0.08049086054431517,0.0,58,6,123.43383165442916,598.73,mp-20714,FeSb2,https://materialsproject.org/materials/mp-20714,43.7901579588157,23.659540749892788,-8.604250342815693,-0.5045126942092143
-6.489253424802632,-986.36652057,3.884443256120567,-1.9943234880131582,6.0000011875,0.030251824888424386,2.1587,14,152,2311.411054786188,5407.00632,mp-705159,K2Co2(MoO4)3,https://materialsproject.org/materials/mp-705159,-10.746258012525963,-40.38248014885111,8.504665102361836,1.2015660688487615
-9.863325825,-98.63325825,6.517844953995696,-1.2064404584279984,1.555e-05,1.1299130221171292e-06,1.4073000000000002,11,10,160.38465232814838,629.5319000000002,mp-989645,YWN3,https://materialsproject.org/materials/mp-989645,34.61329444955943,-10.281662177264264,8.732238116031603,-3.7318784206596542
-8.0058764208,-400.29382104,6.099868295221857,-3.6988289235166665,2.8e-06,5.768334027598032e-08,2.1,51,50,565.6985397698103,2078.0520688,mp-39226,SrLa4TiAl4O15,https://materialsproject.org/materials/mp-39226,33.85235068592816,-25.0354500664954,8.254295559987174,-0.68628749851671
-7.3578640817857135,-206.02019429,3.5076879365366076,-2.8384132360714287,1.999997025,0.08207804340490768,2.1745,62,28,283.97478676840666,599.8624,mp-753374,LiVSiO4,https://materialsproject.org/materials/mp-753374,-17.527598342576066,-51.1505649107941,8.860476887237327,1.4833721515287956
-7.019595149,-280.78380596,2.523843355595131,-0.7537994099999992,1.0,0.013223158863179586,0.30389999999999995,2,40,881.3374242225058,1339.5394800000001,mp-1201209,MoC4IO4,https://materialsproject.org/materials/mp-1201209,-7.4522668558094045,-29.795410207864762,2.927626460364724,0.030425392009075805
-4.578405304166667,-164.82259095,3.9918109688658423,-1.4991063743141382,0.0,0.0,1.0283,63,36,1032.029290885614,2480.9208,mp-504957,RbReCl4,https://materialsproject.org/materials/mp-504957,6.747120078415749,-9.788744691641032,7.2826562012866525,-2.0319507571412108
-5.473229202857143,-38.31260442,6.979774048767698,-0.2366697934821431,2.9725344,0.2994751107167644,0.0,8,7,115.67608524578009,486.2234,mp-1224725,Fe2NiSe4,https://materialsproject.org/materials/mp-1224725,17.546939055628034,13.01695044008842,-8.604250342815693,-0.5045126942092143
-6.008774875568181,-528.77218905,3.5644677760711514,-1.912444237680908,4.00022115,0.039260309269524785,2.2165,59,88,1187.4291683904378,2548.9030399999997,mp-1197782,K3V5Te4(HO3)8,https://materialsproject.org/materials/mp-1197782,-12.372387568072314,-44.57657110686306,8.314003201600293,0.4698387431681706
-4.9393899,-138.30291719999997,2.8807398059187066,-1.7689307833214283,4.999965275,0.13377009737640755,2.1790000000000003,62,28,435.5974938960914,755.68415424,mp-504863,KNa2FeO3,https://materialsproject.org/materials/mp-504863,-34.60761454508959,-31.06291953108124,6.213653540850498,-3.9643788819729733
-4.044312021428572,-113.24073659999999,3.7934758141395317,-1.1849665224553567,2.2575e-05,4.609119367059621e-07,1.0128,14,28,570.8042931601773,1303.9936,mp-753477,Li3BiS3,https://materialsproject.org/materials/mp-753477,50.53839140246443,10.491482948121627,7.087840638739888,-6.1801696401673265
-8.224468151111111,-148.04042672,9.083307216955957,0.05475841783111138,0.961945,0.06501250092916963,0.0,2,18,172.43713404986096,943.2476,mp-1247371,Fe4IrN4,https://materialsproject.org/materials/mp-1247371,0.9261601970465906,14.06835260929811,-8.604250342815693,-0.5045126942092143
-7.746900239722222,-278.88840863,5.893037022458709,-3.1660744334722235,2.965102675,0.06751892193077166,1.8631,62,36,511.7898456253547,1816.27558,mp-541574,BaY2CoO5,https://materialsproject.org/materials/mp-541574,-31.617592966559357,-28.428096585274748,9.340131035646037,-0.11816760949617194
-5.310824010999999,-53.10824011,7.057469967641195,-0.4570372564374999,6.9995494,0.4383992621562009,0.0,12,10,186.07057339724025,790.8199999999998,mp-1224581,GdCu5Se4,https://materialsproject.org/materials/mp-1224581,16.102549152978803,-0.7901279507001763,-4.90273497209837,-3.1660830157128306
-6.0265012705555545,-216.95404574,4.344270846764538,-2.2352358722022214,3.333333108333333,0.093229246400127,0.6735000000000002,6,36,416.68126101018754,1090.1136384000001,mp-759697,FeOF,https://materialsproject.org/materials/mp-759697,-42.16450381732774,-76.9240403194208,2.9825544568259286,-0.6741105757263689
-9.24358769076923,-240.33327996,7.2472984221996475,-3.5807186552884613,0.00011499999999999999,3.7203361061375176e-06,1.5227,14,26,360.24095958249023,1572.24472,mp-1213882,Ce2Ta2O9,https://materialsproject.org/materials/mp-1213882,-5.206061935504847,-14.811162139422514,6.933157273002178,-0.2590632705775653
-6.707369759166667,-80.48843711,5.571266703287251,-0.3109389703566663,4.9275032,0.4059393510624405,0.0,36,12,141.46310602679694,474.6222,mp-1245395,Ga2FeN3,https://materialsproject.org/materials/mp-1245395,-22.37310543703072,-31.488140974988532,-8.604250342815693,-0.5045126942092143
-7.283046122499999,-203.92529143,3.905978720920261,-2.763595276785714,2.000000175,0.0913979811581829,1.3800999999999997,62,28,255.01801340930308,599.8624,mp-767620,LiVSiO4,https://materialsproject.org/materials/mp-767620,-17.46671197722233,-49.676655366616714,7.845250238206309,2.4278397022558904
-6.326533263571428,-88.57146569,4.688270251191085,-1.9024449457142851,22.0000002,1.6664805063425192,1.443,12,14,153.85084094972862,434.3736,mp-1222083,MgFe4NiO8,https://materialsproject.org/materials/mp-1222083,-27.949731181588394,-35.09479089700181,7.094814831578512,-1.0119860266526601
-4.069585965,-40.69585965,2.595464951756971,-2.0520255820560003,0.0,0.0,1.8614,225,10,255.54061554468345,399.416512,mp-1112159,K2ScCuCl6,https://materialsproject.org/materials/mp-1112159,12.794214498140477,-12.46631552388758,8.952586784354189,-2.5608336837721652
-3.1749013628571428,-22.22430954,3.307793882400597,-1.1870628322857142,0.0,0.0,1.2038,123,7,253.12880648205436,504.2326,mp-27138,K2PdBr4,https://materialsproject.org/materials/mp-27138,9.745219861355206,-8.559893592189901,8.371073966994935,-5.4886970024659645
-7.0272335825,-56.21786866,5.6936769877593445,-1.0087228967968755,3.45e-06,2.0251702499836769e-07,0.0,2,8,198.53404159800888,680.7360000000001,mp-1215280,ZrSe,https://materialsproject.org/materials/mp-1215280,43.80884881969524,26.56967200217197,-8.604250342815693,-0.5045126942092143
-7.7435353795138875,-1115.06909465,6.045307454326864,-2.8879757868161104,34.999992600000006,0.19676415714740195,0.9491000000000004,1,144,2073.000421992231,7546.901700000001,mp-1076455,La7SmMn3(FeO4)5,https://materialsproject.org/materials/mp-1076455,-23.14001380278676,-29.537158204229765,4.992730697697938,-1.308188283987492
-6.0248891817857135,-168.69689709,5.193526924061956,-2.4796998276785716,3.365e-05,6.057426495548283e-07,1.5597,62,28,647.4024569424638,2024.8256800000001,mp-1194132,Ca(TmS2)2,https://materialsproject.org/materials/mp-1194132,54.211757898071326,4.8589212057257285,7.249338809702603,-4.60519922072542
-6.1937601443181824,-272.52544635,3.9655824899645182,-1.7053677496330686,5.000000675,0.10120553895715803,2.2563,15,44,575.7622787223038,1374.99496,mp-1202896,FeMoHSeO7,https://materialsproject.org/materials/mp-1202896,-20.818905773067023,-66.35329512273225,7.54286082075143,-0.3848591652887336
-6.864876750555557,-123.56778151,3.203742835302054,-2.3661141360416678,4.000000166666667,0.2465518742389251,2.6364,174,18,189.07283173766774,364.7856,mp-756046,LiFeBO3,https://materialsproject.org/materials/mp-756046,-5.9014490382260565,-88.19692554929031,8.89578142704366,-0.6925154127288733
-7.3460216845,-587.68173476,6.5857973586250305,-2.691755584500001,25.0000021,0.2990444107615855,1.8604,230,80,974.2755032456024,3864.03504,mp-781609,Ho3Fe5O12,https://materialsproject.org/materials/mp-781609,-23.353377293082023,-33.61190943792337,7.5127959687000025,-1.999818403043363
-4.762727955555556,-85.7291032,8.201075533667312,-0.15288603444444485,0.00065895,2.171608009358074e-05,0.0,2,18,353.6294740480465,1746.50638,mp-1226586,Co2Ni2Te5,https://materialsproject.org/materials/mp-1226586,53.42747840441068,28.68368045538458,-8.604250342815693,-0.5045126942092143
-4.398919998333334,-105.57407996,2.462491140442772,-1.6486860265266667,2.0,0.03381086353760277,2.6315,15,24,689.3680641784625,1022.2962,mp-558030,KMo2Cl7O2,https://materialsproject.org/materials/mp-558030,14.762254132901928,-7.948330393883883,7.510522673103344,-0.7707000749322142
-5.9529656343333315,-178.58896903,4.293950800207447,-2.2552290712280003,48.9999998,1.6201662184782342,0.9263,1,30,352.46332444888196,911.4270352,mp-849307,Fe10O9F11,https://materialsproject.org/materials/mp-849307,-39.77157286009261,-79.4068739648587,4.986715201672198,1.881831870875018
-6.2156015810000005,-62.15601581,8.417580641841809,-1.9831080614166663,0.0106494,0.0010030249234994073,0.0,123,10,123.73450996202541,627.2332,mp-1084749,TiZn(BiO3)2,https://materialsproject.org/materials/mp-1084749,8.144378920085233,-38.43339976185028,3.3808603594229507,-3.5803258594962117
-5.264914556,-210.59658224,8.218936863283313,-0.34665886425,1.69618805,0.022243410761433352,0.0,223,40,888.6894916051045,4398.621560000001,mp-21915,Ce3Co4Sn13,https://materialsproject.org/materials/mp-21915,-0.09910833102224616,47.839034797645844,-8.604250342815693,-0.5045126942092143
-4.5253904375,-181.0156175,2.5201176442222284,-1.5319074348429995,3.5e-07,4.003735205695279e-09,1.7946000000000002,62,40,1018.7793300100516,1546.1508,mp-541361,K2RuNCl5O,https://materialsproject.org/materials/mp-541361,-1.1696492520160315,-22.07414739073239,9.542712551424481,-0.21313557596820634
-5.784646075,-161.9700901,8.872244898758732,-0.6867195429464285,0.0036850000000000003,6.900715405477355e-05,0.0,6,28,622.3300942507387,3325.1040000000003,mp-1220346,Nd5Sn15Rh8,https://materialsproject.org/materials/mp-1220346,2.207043066614087,50.08476762911509,-8.604250342815693,-0.5045126942092143
-8.485683195227272,-373.37006059,4.1216783988858054,-2.9240309383645458,0.0,0.0,2.0193,62,44,686.7770199224456,1704.6717600000002,mp-29698,Nb3ClO7,https://materialsproject.org/materials/mp-29698,-0.2686998670249543,-46.95913819998767,6.993323673160992,-0.4900739203301698
-6.905786556875,-773.44809437,3.961615044608872,-2.164855911753167,0.0,0.0,2.2622,224,112,1742.547661230635,4157.266324,mp-560115,Rb3Mo12PO40,https://materialsproject.org/materials/mp-560115,-4.750742932722912,-41.15047830841925,8.089635124717276,1.6894695172180887
-4.8589054125,-194.35621650000002,4.532977759983152,-0.6607177309062501,16.781465899999997,0.2470534407954995,0.0,82,40,791.6193757406046,2160.980825,mp-1222130,MnCo4Cu10(SnS4)5,https://materialsproject.org/materials/mp-1222130,31.23371383230657,1.971140065846612,-8.604250342815693,-0.5045126942092143
-6.071761995357143,-170.00933587,4.7558056139608516,-0.9006229822023814,8.749871800000001,0.2024873367428548,0.0,31,28,503.5948141206009,1442.30216,mp-1246997,NbCr3(AgS4)2,https://materialsproject.org/materials/mp-1246997,16.172610628867528,5.921943945790953,-8.604250342815693,-0.5045126942092143
-6.15361767607143,-172.30129493,4.379495850025768,-0.9824786629166676,8.99962845,0.19178771380854726,0.13089999999999954,17,28,546.8663805543356,1442.30216,mp-1239267,NbCr3(AgS4)2,https://materialsproject.org/materials/mp-1239267,14.49547559718008,3.5448837074840687,-8.604250342815693,-0.5045126942092143
-4.371105223,-43.71105223,5.6586597756401575,-1.0245347009999997,5e-07,1.339788282476449e-08,0.9783,12,10,434.92188000847625,1482.094,mp-542180,Th(TeI)2,https://materialsproject.org/materials/mp-542180,38.79582099506101,16.04600591751612,7.8777075249634025,-4.968140734660123
-3.131182059,-31.31182059,3.9744509841822713,-1.0815585877666667,0.0,0.0,2.0819,225,10,414.6479296376877,992.447532,mp-1112086,K2ScAgI6,https://materialsproject.org/materials/mp-1112086,48.416369418996624,-13.582467257455887,8.913112351237839,0.5399411786823224
-3.997970425,-87.95534935,6.356100654306136,-0.8592263669278999,5.645e-05,9.024169243467235e-07,1.1140999999999996,63,22,729.0111019219197,2790.4601038,mp-1190516,CsSm2Ag3Te5,https://materialsproject.org/materials/mp-1190516,55.882462903104326,19.24524571808469,6.5659264449617964,-6.044060384298817
-4.08327661,-24.49965966,3.5359351680934386,-1.2824627066178156,1.9999997,0.16432614209709553,1.6715999999999998,139,6,141.84064538634308,302.03404689999996,mp-551244,CsK2CoO2,https://materialsproject.org/materials/mp-551244,-33.30400427142405,-29.326099686052327,7.343644087052307,-0.5130259863435763
-4.488304123125,-143.62573194,3.1629437358432595,-1.0704063275390636,0.0,0.0,1.2572,14,32,919.4247445771797,1751.2920000000001,mp-866506,CaSn2S5,https://materialsproject.org/materials/mp-866506,43.1604633326249,0.7322233172754387,6.7000849216602765,-6.265122522964054
-6.544754309259258,-176.70836635,5.896128137152225,-0.6388477064788887,2.09e-05,8.371334134954978e-07,0.0,160,27,290.95715189465136,1033.1107,mp-754512,Ge11N11O5,https://materialsproject.org/materials/mp-754512,21.87900125608107,-12.289364627629624,8.354496555115182,0.2256585579581129
-6.001403309814815,-324.07577873,4.349317209057141,-2.210137911461482,4.957944805555557,0.09255248326759076,0.0,6,54,624.2967002372512,1635.1704576,mp-1178238,FeOF,https://materialsproject.org/materials/mp-1178238,-42.765495701962365,-76.82560413104676,-8.604250342815693,-0.5045126942092143
-3.5773561535000002,-71.54712307,5.121685618932488,-1.63643680025,0.0,0.0,1.8583,15,20,844.1909924357532,2603.7815200000005,mp-755770,Ba2LaI7,https://materialsproject.org/materials/mp-755770,69.28055185680968,-18.62412716836174,8.796835517206517,-1.5634004831195962
-5.089884084545455,-55.98872493,2.2579271307491764,-0.8521390884293822,2.9999999,0.13766168701795445,1.2417000000000002,5,11,253.97184873749714,345.339624,mp-1176770,LiCrP2S7,https://materialsproject.org/materials/mp-1176770,23.945674124107786,-1.7706237698758742,7.562660924652292,-4.670548645631743
-7.365235811428571,-206.22660272,3.4390872154087537,-2.8457849657142855,2.0000001,0.08047294652286556,1.8513,62,28,289.63933492733605,599.8624,mp-766923,LiVSiO4,https://materialsproject.org/materials/mp-766923,-17.032610822916006,-50.91325161239815,8.967581029903293,-0.484156139665442
-5.65570146375,-45.24561171,7.802227185665637,-0.6232558756249995,0.69524225,0.04261297044478316,0.0,129,8,190.1392493775816,893.39039,mp-1078695,NdCoSb2,https://materialsproject.org/materials/mp-1078695,3.2285194264719785,34.93704161413704,-8.604250342815693,-0.5045126942092143
-5.131720181111111,-184.74192652,4.81553137196611,-1.1456080992733335,5.001925025,0.10441670404800517,2.5178,60,36,558.2704296243386,1618.97354,mp-771047,Mn(IO3)2,https://materialsproject.org/materials/mp-771047,3.2601514590415586,-75.57607053346804,9.543416386773924,-0.7440105132106299