energy_per_atom,energy,density,formation_energy_per_atom,total_magnetization_uB,total_magnetization_T,band_gap,sgr,num_sites,cell_volume,weight,mp_id,formula,URL,tsne_cry_lin1_0,tsne_cry_lin1_1,tsne_cry_lin2_0,tsne_cry_lin2_1
-8.369570196956522,-385.00022906,5.095839683334542,-3.1121101886712887,0.0,0.0,1.9456,127,46,661.0847584012616,2028.7279399999998,mp-1209583,Rb2LaNb5O15,https://materialsproject.org/materials/mp-1209583,0.5757548603707703,-40.84197459437763,7.448316414150747,0.2868584035674737
-6.981816826341463,-286.25448988,2.549856260867129,-2.650470427682928,24.9999978,0.5001460188304677,2.3908,1,41,582.5330657561586,894.5141,mp-863356,Li5Fe5Si7O24,https://materialsproject.org/materials/mp-863356,-28.670060536267687,-72.92594297609713,8.873571636764867,0.7502484135116675
-7.179827069705883,-244.11412037,2.8872166294353243,-2.6092267784761667,4.0,0.107309026344414,2.4307,13,34,434.41135082729596,755.3208,mp-772424,RbLi2V2(BO3)3,https://materialsproject.org/materials/mp-772424,-21.660862813093424,-54.695622537980654,8.861571506486914,3.50031164524655
-5.990800475277778,-215.66881711,4.320881622478085,-2.1995350769244437,4.999997483333334,0.13909090020708978,0.3136000000000001,6,36,418.9367848410255,1090.1136384000001,mp-759058,FeOF,https://materialsproject.org/materials/mp-759058,-42.48945195180082,-76.96361536219464,0.9770973674561764,-2.353841396398356
-6.001946450925926,-324.10510835,4.333431327463764,-2.2106810525725935,4.967613166666666,0.0923942603192658,0.0,6,54,626.5853031271256,1635.1704576,mp-1178245,FeOF,https://materialsproject.org/materials/mp-1178245,-42.6283083302677,-76.87208443185942,-4.737326821018395,-2.6613459814202898
-5.234587913030302,-345.48280226,10.24187366653442,-0.5168604650000008,0.028638599999999997,0.0002803306795543167,0.0,5,66,1190.5799961889638,7343.26,mp-1219223,Sn13Pd20,https://materialsproject.org/materials/mp-1219223,44.924670042141926,37.44208102561138,-8.604250342815693,-0.5045126942092143
-5.421581408333334,-32.52948845,7.699011510790763,-1.5601005007291668,6.900000000000001e-06,5.817853552701343e-07,0.0,129,6,138.21772274299437,640.8399999999998,mp-1018683,DySe2,https://materialsproject.org/materials/mp-1018683,49.23875544133869,4.029625769711385,-8.604250342815693,-0.5045126942092143
-5.7110508410000005,-114.22101682,8.025466584346805,-0.4977132610000005,0.6908581,0.016809619127624333,0.0,57,20,478.970105444941,2314.886,mp-1181506,DyVSb3,https://materialsproject.org/materials/mp-1181506,3.380212677835578,35.086510454747625,-8.604250342815693,-0.5045126942092143
-4.206336871875,-201.90416985,4.979406030367947,-0.7732391365972221,2.8975e-05,4.105652089820817e-07,2.2958,82,48,822.4674653318087,2466.3072399999996,mp-1194592,AgI3O8,https://materialsproject.org/materials/mp-1194592,4.054870869990976,-18.957375319824397,8.790040302590395,-0.17725204032228295
-7.3364670115,-146.72934023,7.003596103581634,-2.7383332233459994,5.000001,0.2466963112479049,1.5419,14,20,236.2027029188427,996.22369,mp-18899,Nd2MnNiO6,https://materialsproject.org/materials/mp-18899,-34.72966330863612,-22.741619196996695,5.227002236255308,0.483320619590771
-8.275580051625,-1986.13921239,1.839817998142603,0.15273126917399982,0.0009111458333333334,3.414906150840365e-06,1.3653,2,240,3109.471267988273,3445.1832000000004,mp-1196206,C9Cl,https://materialsproject.org/materials/mp-1196206,46.69741552168314,-26.454574343857725,7.4489758960600225,-5.173590413995195
-4.863111063888889,-87.53599915,7.600845512319294,-0.20853553910527803,0.0003106,8.62842758422316e-06,0.6145000000000005,58,18,419.5147357990994,1920.26,mp-1246658,Bi4S3N2,https://materialsproject.org/materials/mp-1246658,31.834981425761928,-4.0317748736262375,5.3146890711288615,-6.789378024811274
-5.83941786482143,-327.00740043,4.2201457775566285,-1.5237546214285729,7.0000000125,0.061752695477161224,0.3843999999999994,70,56,1321.0508937826826,3357.36,mp-1181942,Eu(GaS2)2,https://materialsproject.org/materials/mp-1181942,-15.655837936880234,11.476816559705822,5.095436322115947,-6.585765602654987
-2.866702235,-17.20021341,3.134764363060109,-0.586030401,0.0,0.0,1.2673,129,6,196.1684214918684,370.3266,mp-7089,KMgSb,https://materialsproject.org/materials/mp-7089,36.525033364248046,14.895206621238476,7.424119342293965,-5.979741606280912
-2.5987572983333336,-46.77763137,6.406997972440917,-0.3870814450000001,7e-07,1.1527365413095141e-08,0.5696000000000003,128,18,707.693826685188,2730.55484,mp-1208181,Tl2PtI6,https://materialsproject.org/materials/mp-1208181,9.357037132039428,-6.2091406469112815,5.729672008639428,-5.8058000428548935
-9.442874783571428,-264.40049394,3.3191097356617334,-1.5141218106457135,0.0,0.0,1.7576999999999998,159,28,399.4923720751554,798.5112,mp-1080190,Ti3N4,https://materialsproject.org/materials/mp-1080190,35.36056607798115,-14.791272964408856,8.710335726452291,-3.166549256176464
-7.071622068333332,-84.85946482,4.718797066382106,-2.4361462617708347,4.999999900000001,0.3069438055360117,0.0,6,12,189.8403605038887,539.4743,mvc-1364,Ba2V3O7,https://materialsproject.org/materials/mvc-1364,23.218977315235392,10.114202286857363,-8.604250342815693,-0.5045126942092143
-4.9538267566071434,-277.41429837,7.623478992150176,-1.28103678375,5.5e-07,3.786216671208623e-09,0.23850000000000016,81,56,1692.913053193476,7772.107,mp-1217665,Tb5Te9,https://materialsproject.org/materials/mp-1217665,-9.996832104740363,24.498119532132343,-8.604250342815693,-0.5045126942092143
-5.06338228375,-202.53529135,5.354105616060831,-1.26185533170625,3.35e-06,3.6736993629631063e-08,0.08139999999999993,70,40,1062.719431580963,3426.5452,mp-669330,KCe2CuSe6,https://materialsproject.org/materials/mp-669330,47.186472203030384,2.9112072440835863,-5.213714312571019,-2.315598275568425
-4.017641362142856,-56.24697907,4.1555683769062215,-0.9902358951785716,0.0,0.0,1.4322000000000004,227,14,266.2213262491976,666.23,mp-1094002,Zn(GaS2)2,https://materialsproject.org/materials/mp-1094002,38.349102814174636,-3.202848216683857,7.153725041227148,-2.063908458931919
-5.092668405,-244.44808344,9.176812095061752,-0.5119383575,5e-08,5.696576045964948e-10,0.0,62,48,1022.9008336344957,5652.9648,mp-7736,LuNiSn2,https://materialsproject.org/materials/mp-7736,2.4087746722378744,54.88015466092058,-8.604250342815693,-0.5045126942092143
-5.076045139285714,-71.06463195,6.2500763952629725,-1.5437715584821434,7.15e-06,2.2209915555786838e-07,1.0990000000000002,122,14,375.1773072459562,1412.12388,mp-36733,La2CdSe4,https://materialsproject.org/materials/mp-36733,54.855851390209786,0.5773127423428523,6.715799067001875,-4.684836363378508
-7.8891307820000005,-157.78261564,6.9163287569481735,-3.09760822475,6.99999935,0.33741935692562325,1.2710999999999997,14,20,241.7716830951045,1007.0058,mp-1219215,Sm2VFeO6,https://materialsproject.org/materials/mp-1219215,-14.219146748930731,-29.206184767677808,7.938859216870033,-1.1631051652782545
-6.476721804285715,-45.33705263,3.1145910423188905,-1.9546898549404768,0.2201641,0.018224411659677052,0.0,10,7,140.78954810208543,264.072,mp-1227354,Ca(TiS2)2,https://materialsproject.org/materials/mp-1227354,21.739643685019523,13.539678649773693,-8.604250342815693,-0.5045126942092143
-4.130640979,-41.30640979,2.6555239670507937,-2.099595886556,0.0,0.0,2.3935000000000004,225,10,277.24370345971937,443.36645,mp-1112158,K2YCuCl6,https://materialsproject.org/materials/mp-1112158,13.167733057697367,-12.36947598887799,9.299231399283649,0.12990790970675134
-5.76534414625,-230.61376585,8.379777384110561,-0.41588349849999984,2.1304661,0.026457560419579633,0.0,223,40,938.4308126447104,4735.715999999999,mp-1198582,Ce3Sn13Ru4,https://materialsproject.org/materials/mp-1198582,0.9969066190713352,49.573168476225796,-8.604250342815693,-0.5045126942092143
-6.608272208875,-528.66177671,4.296366882362264,-1.6868470966250009,36.499999675,0.43336573683456703,0.6828000000000003,1,80,981.5574334923475,2539.6156,mp-1245166,CrFe7O12,https://materialsproject.org/materials/mp-1245166,-29.222064225805997,-33.57647505717359,-5.0838978691560754,-3.1352727771267013
-5.7635561157142865,-80.68978562,4.7139399334686445,-0.8415460529017855,5.98247205,0.252804869607875,0.07460000000000022,216,14,275.78628876441604,782.9024,mp-1215673,ZnCr2(SeS)2,https://materialsproject.org/materials/mp-1215673,21.685479803131965,10.073974112975677,-6.211295961577318,-3.7061341747833128
-4.577649700769231,-59.50944611,2.570160662778725,-1.5585924985961543,7.999999400000001,0.3385219756477956,1.3129,8,13,275.41051362951833,426.2768,mp-36915,K6Fe2O5,https://materialsproject.org/materials/mp-36915,-33.38156133541902,-30.14930084291787,7.181435913339076,-1.6179904600273205
-7.023705146551722,-203.68744925,6.918516915933355,-0.7860798861206898,1e-07,1.8780513316712407e-09,0.0,2,29,620.5402683103966,2585.43656,mp-1220882,Nb12PbSe16,https://materialsproject.org/materials/mp-1220882,48.016561718812206,23.106926484142967,-8.604250342815693,-0.5045126942092143
-7.659495508749999,-183.82789221,3.517096764037356,-2.7073854332738088,2.000000225,0.08458417763059219,2.0763000000000003,62,24,275.56137353582227,583.6514480000001,mp-767632,VPO4,https://materialsproject.org/materials/mp-767632,-14.799096923892716,-48.90894438921305,8.415235396155028,1.5078590869318684
-6.266065814545455,-137.85344792,3.1426269601053893,-1.2064818651263642,0.0,0.0,2.6253,166,22,283.862400798656,537.21930784,mp-22102,Na3Ir(NO2)6,https://materialsproject.org/materials/mp-22102,-3.0111978608995646,-23.99956485880937,9.725559156419251,-0.1646688946083195
-7.322413652105262,-556.50343756,2.5768642916149047,-2.674974827706765,10.00000115,0.1069667809916346,1.9084,15,76,1089.503302309205,1690.7173440000001,mp-1177556,Li3V5(PO4)6,https://materialsproject.org/materials/mp-1177556,-15.78174974234265,-49.78735762171995,8.659757640554918,1.7623231660285903
-3.527092001296296,-190.46296807,4.978431380275472,-0.14989432414814774,2.5e-07,1.5709673028580376e-09,0.4203000000000001,40,54,1854.6001484813885,5560.2424,mp-1224111,K4Zn2Sn21,https://materialsproject.org/materials/mp-1224111,8.704642863029672,31.340958299628397,-8.604250342815693,-0.5045126942092143
-7.484150636875,-119.74641019,7.55551200797174,-0.1135173212499998,13.0185661,0.6993959584632214,0.0,162,16,216.92892379392865,987.03436,mp-1222161,Mn4FeGe3,https://materialsproject.org/materials/mp-1222161,50.56566919265582,45.317676631142966,-8.604250342815693,-0.5045126942092143
-8.3559326795,-167.11865359,3.683221079551821,-0.6623601189279995,6.815e-05,2.67012558786934e-06,1.5102000000000002,2,20,297.4483739110207,659.7665543999998,mp-1246835,AlMoN3,https://materialsproject.org/materials/mp-1246835,35.125017603443126,-14.34509525044237,8.4400950891727,-2.980787338643148
-5.620080427916666,-134.88193027,7.7121943182008055,-1.6290269562499995,0.0,0.0,2.3955,5,24,344.9992985759208,1602.3120000000001,mp-1227462,BiTeO4,https://materialsproject.org/materials/mp-1227462,-1.6719464373001258,-31.1318372089562,8.03526490815481,0.10296388509607812
-4.188029692,-83.76059384,6.974727609924782,-0.5425563337968754,0.0,0.0,1.2567000000000004,26,20,556.6280435568716,2337.9932,mp-1227512,Bi4(SeS)3,https://materialsproject.org/materials/mp-1227512,70.80608270897189,16.735708761461233,9.233840495423667,-6.47251284696069
-4.323490733888889,-155.64566642,5.131208650981772,-0.9367001261781612,1e-07,1.7490368631894954e-09,1.8683,2,36,666.3132731981224,2058.9654018,mp-1200560,CsAu(IO3)4,https://materialsproject.org/materials/mp-1200560,-0.27298312983555106,-23.182809378395252,8.57581518138648,-0.7296478808261024
-7.193888917857144,-402.85777939999997,3.5004839865878017,-2.8428846621428585,9.9999996,0.2213240576212002,1.7645,5,56,526.561117289076,1110.0123,mp-863437,Li9V5(Si5O16)2,https://materialsproject.org/materials/mp-863437,-22.364659983339237,-51.47164431573154,9.32481280473374,2.564099080261871
-7.3966893740625,-710.08217991,5.622309746097787,-2.7966094885212502,0.0,0.0,2.338,62,96,1502.9265502760925,5088.66,mp-667283,Sr5Re3ClO15,https://materialsproject.org/materials/mp-667283,-3.804013225148721,-43.00673360457598,9.21404429221497,-0.09176895118464376
-5.070208898374999,-405.61671187,3.4759310639357426,-0.8613758631339294,6.000561275,0.0306281236327185,1.3506999999999998,14,80,2283.2260509703456,4779.373544,mp-1208541,Tl3Cr2(PS4)3,https://materialsproject.org/materials/mp-1208541,24.01335302212466,-1.7791171303731388,3.576054318145022,-5.112112453156242
-3.9916985857142855,-27.941890100000002,5.2388071013409405,-0.16608024419642828,1.18e-05,8.414986595089604e-07,0.0,121,7,163.4203011047578,515.572,mvc-13140,Cu2GeSe4,https://materialsproject.org/materials/mvc-13140,31.906588051405016,0.4524171918323905,-6.1023916595974885,-3.773937163625847
-6.108053919375,-195.45772542,6.733021363622401,-1.679589265371094,0.000302525,4.542617485679033e-06,0.7784000000000004,62,32,776.1265297889383,3146.976,mp-1198078,Sm2ZrSe5,https://materialsproject.org/materials/mp-1198078,56.23988132516944,1.5608815021395357,6.143936129025294,-5.802959605826504
-3.949155255,-7.89831051,7.258143798288115,0.11921657750000048,4.8e-06,1.0167969602648877e-06,0.0,221,2,55.01541909971253,240.47,mp-1625,SnSb,https://materialsproject.org/materials/mp-1625,2.2345219945203003,32.79495594472825,-8.604250342815693,-0.5045126942092143
-5.888680466607143,-329.76610613,5.360745054478021,-1.40464881357143,17.00000055,0.33868052184059666,0.6192000000000002,8,56,584.9734329761577,1888.4792,mp-1203466,ZnFe8Ni3O16,https://materialsproject.org/materials/mp-1203466,-27.8972261223342,-33.307197445446754,7.531318582349802,-3.1516421384176034
-3.86653210375,-30.93225683,5.714305899421847,-0.11708367554687492,2.0300000000000002e-05,1.029644032413565e-06,0.0,59,8,229.76631479949998,790.68,mp-1205370,SnSe,https://materialsproject.org/materials/mp-1205370,70.3007245794775,24.135565001833548,3.3948126119325965,-5.358673322482155
-1.7996504843333334,-53.98951453,3.910161457976669,0.04407993366666669,0.00446095,3.2120065243097475e-05,0.0,2,30,1618.558363866409,3811.3072799999995,mp-1101136,TeI4,https://materialsproject.org/materials/mp-1101136,66.97295320255964,-10.471216876156443,9.06317876409044,-5.8315799286924825
-6.860182631153847,-178.36474841,6.432501017723535,-0.9026628379807692,1.7419044999999997,0.03729582032912293,0.0,194,26,544.3040987293011,2108.49404,mp-1209978,Nb4VSe8,https://materialsproject.org/materials/mp-1209978,48.1426920512021,24.217946405805662,-8.604250342815693,-0.5045126942092143
-4.065020788,-40.65020788,3.114148866461774,-2.066220775524966,0.0,0.0,1.8655,225,10,262.4291504586041,492.155512,mp-1113560,Rb2ScCuCl6,https://materialsproject.org/materials/mp-1113560,12.923204765657635,-12.448102712992823,8.898973663482689,-1.5033399106375331
-6.0230291745,-120.46058349,9.62233402522662,-0.3874069061666667,21.254291600000002,0.7476042547365831,0.0,166,20,331.32354374915593,1919.922225,mp-1221408,Mn5In4SbPd10,https://materialsproject.org/materials/mp-1221408,44.488836289835994,37.94018472825081,-8.604250342815693,-0.5045126942092143
-7.023188305,-561.8550644,2.609632045875022,-2.649953606571428,4.000000125,0.044931617295232484,2.036,5,80,1037.4934924041368,1630.480344,mp-757678,Li3V2(PO4)3,https://materialsproject.org/materials/mp-757678,-16.01610194923595,-50.39415118796165,8.947710896018176,1.6516247128453687
-3.469017301,-34.69017301,3.824931594393874,-0.4013881261379311,0.0,0.0,0.6866999999999999,72,10,381.59548323028207,878.9775999999998,mp-8931,Rb2SnAs2,https://materialsproject.org/materials/mp-8931,37.65760876134009,15.385673607163774,6.808712157332322,-6.630182544486688
-6.681457790357142,-187.08081813,4.5317362609442045,-2.531548342410715,0.9999416999999999,0.030578641382136087,1.8171,9,28,381.0955887461799,1040.0386,mp-1218545,Sr2VAs2O9,https://materialsproject.org/materials/mp-1218545,-13.430965753217833,-44.33242847232118,9.343524351398075,1.3447990795025313
-4.4988693528571435,-62.98417094,6.569042775778625,-1.1649296471428572,1.9e-06,4.863081071015504e-08,0.5282,122,14,455.32292685467394,1801.24388,mp-674329,La2CdTe4,https://materialsproject.org/materials/mp-674329,56.68032475798975,21.686786493099838,4.497428323736418,-5.3555798511239034
-7.4248661702380945,-311.84437915,4.029033502454724,-2.667093826666667,4.0000001166666665,0.09911978202351543,1.5459000000000005,8,42,470.302289797412,1141.1136,mvc-5342,MgV2O4,https://materialsproject.org/materials/mvc-5342,-12.229591489473094,-26.95823100042881,8.256854735829075,-0.8961584081806208
-8.267299434545455,-545.64176268,2.0640205396999907,0.22043421404545385,0.0,0.0,0.6144000000000003,204,66,768.4999570692396,955.2318,mp-16791,KC10,https://materialsproject.org/materials/mp-16791,59.67403990163787,37.47233506865998,-8.604250342815693,-0.5045126942092143
-7.429065516363636,-326.87888272,3.4766634174937128,-2.5762603055681823,2.99999885,0.06329450173401882,2.4078,62,44,552.3731123190673,1156.5012000000004,mp-773444,MgV3O7,https://materialsproject.org/materials/mp-773444,-23.755967397721363,-54.62090181984291,9.01209927330869,1.6852114587206075
-3.782456453,-37.82456453,2.7340921805723446,-1.8760267776060005,0.0,0.0,1.3084,225,10,283.31797072480185,466.48553856,mp-1113374,Na2NdCuCl6,https://materialsproject.org/materials/mp-1113374,12.774728713812802,-12.542786302806961,9.10287884267995,-2.9967628435464198
-5.5554027725,-222.21611090000002,3.84086874548776,-1.6379372562687502,5.000000900000001,0.09658664736134624,2.1843,62,40,603.2959621577716,1395.4388,mp-654225,KFe(SeO3)2,https://materialsproject.org/materials/mp-654225,-21.21025351690869,-66.22129398154401,7.99634273062997,0.0633253647085686
-6.198805755,-86.78328057,3.0504901505793365,-1.4851142811309532,3.9917828,0.16927669554332356,0.0,74,14,274.8192547111929,504.8562,mp-1247182,MgTiCrS4,https://materialsproject.org/materials/mp-1247182,19.593097717725858,9.445017882053158,-6.191684873102603,-3.3388973043675176
-4.743213474285715,-33.20249432,6.766841656577947,-0.7952999357142859,5.9999999999999995e-05,3.4320334960081606e-06,0.0,115,7,203.74040264084846,830.25994,mp-1223048,La2ZnSb4,https://materialsproject.org/materials/mp-1223048,3.2826484842362516,32.92456880362365,-8.604250342815693,-0.5045126942092143
-3.9695717207142858,-55.57400409,3.844402063070573,-1.1851069092857143,5.0000002,0.1736511409674245,1.5633999999999997,74,14,335.5597082114332,776.8720900000001,mp-1222679,Li2MnBr4,https://materialsproject.org/materials/mp-1222679,17.214481348985373,-8.016637374598117,6.922748772453527,-0.4913824324626679
-7.287997077000001,-72.87997077,6.964970893660152,-2.7585267073460003,5.0000003,0.4010467047805745,2.2303,225,10,145.29561436217125,609.428445,mp-19085,Ba2MnWO6,https://materialsproject.org/materials/mp-19085,-3.1338185034996764,-37.96826773444224,6.7310929498920276,-1.1359632148126353
-5.1346231675,-61.61547801,7.146841484304282,-0.7915961829166663,2.45e-06,7.957096024823941e-08,0.0,12,12,358.8301385793946,1544.3793,mp-1219753,PrNdSb4,https://materialsproject.org/materials/mp-1219753,3.1600147761846573,33.4578469582904,-8.604250342815693,-0.5045126942092143
-5.709721875,-22.8388875,8.770745811324913,-0.815840278333333,2.8e-06,4.137531512921141e-07,0.0,225,4,78.86678629821245,416.56385,mp-568880,YInPd2,https://materialsproject.org/materials/mp-568880,30.561330023079535,40.770985385080884,-8.604250342815693,-0.5045126942092143
-5.590279249999999,-67.08335100000001,8.482934937137994,-1.3692092578645827,3.445e-05,1.5592211269557376e-06,0.1377000000000006,62,12,257.48915562640303,1315.3944,mp-1095656,LuAsSe,https://materialsproject.org/materials/mp-1095656,46.42283506513674,19.917310023545607,-6.161622583624061,-3.7893132610436266
-5.527028622857144,-77.37840072,3.2638381057604904,-1.1389975773214291,11.921764199999998,0.5060244509928723,0.0,166,14,274.5658078722767,539.6671349999999,mp-1246443,Mg2Mn3GaS8,https://materialsproject.org/materials/mp-1246443,19.65971747503172,10.890994504764961,-6.023910956855848,0.3851129027497617