energy_per_atom,energy,density,formation_energy_per_atom,total_magnetization_uB,total_magnetization_T,band_gap,sgr,num_sites,cell_volume,weight,mp_id,formula,URL,tsne_cry_lin1_0,tsne_cry_lin1_1,tsne_cry_lin2_0,tsne_cry_lin2_1
-5.717112628333332,-68.60535154,7.4606079704488915,-1.4505648041796877,6.8e-06,2.8073345801214147e-07,0.1269,8,12,282.2878363503737,1268.2862799999998,mp-1224242,Ho4FeSe7,https://materialsproject.org/materials/mp-1224242,27.09382620690594,6.2532615295998655,-8.13928540526207,2.224142030010732
-4.257695429166667,-51.09234515,7.342954160033423,-0.3924068784635419,1.05e-06,4.1363008314674064e-08,0.18909999999999985,164,12,295.83844381179904,1308.2066,mp-7038,TlPd2Se3,https://materialsproject.org/materials/mp-7038,64.4858034708247,15.592073531961221,4.996175921807928,-6.18141034350913
-5.429468182857144,-38.00627728,7.647838617442664,-0.3206299220535708,1.4181286,0.1311044577798268,0.0,12,7,126.05950125642805,580.5841949999998,mp-1078249,Co(RhSe2)2,https://materialsproject.org/materials/mp-1078249,22.132374212914534,15.11177152237211,-8.604250342815693,-0.5045126942092143
-6.205690214727273,-341.31296181,5.229508651805922,-0.6223406051567395,59.0000005,0.5460831761360145,0.0,2,55,1259.1302157911455,3965.3583557,mp-1228215,Cs3(Cr5Se8)4,https://materialsproject.org/materials/mp-1228215,23.971976220255748,17.1276038908674,-8.604250342815693,-0.5045126942092143
-5.391480840625,-86.26369345,7.556666789041968,-0.2256991681250007,0.0,0.0,0.02349999999999941,71,16,415.0453903483584,1888.76,mp-1219496,Sb2TeRu,https://materialsproject.org/materials/mp-1219496,50.40190883311984,21.147198398008467,-8.604250342815693,-0.5045126942092143
-3.6248592669999997,-36.24859267,3.5797470971852454,-1.5378193741973796,2.00000025,0.0843190883422658,0.8211000000000002,194,10,276.42770951251066,595.9157038000002,mp-22950,CsNiCl3,https://materialsproject.org/materials/mp-22950,21.625248372545162,-1.3759302653306682,5.525178138610686,-4.4526928515761846
-6.595367267948718,-257.21932345,8.054950643949995,-0.6382184666025632,3.0125526000000002,0.036509157366360366,0.1299999999999999,1,39,961.6349886916906,4664.70356,mp-1217809,Ta12Ga3(TeSe2)8,https://materialsproject.org/materials/mp-1217809,55.34978120832493,27.080325780085968,-8.604250342815693,-0.5045126942092143
-4.610212726666666,-69.15319090000001,3.3380824530969506,-1.8469742778640457,4.999999966666667,0.13271737686696872,1.4850000000000003,166,15,439.0557201317939,882.6074907,mp-23336,CsMnCl3,https://materialsproject.org/materials/mp-23336,17.970904144279388,-7.8585889630113375,7.836153363429668,-4.329111378375856
-4.4622605525,-17.84904221,1.2825759163152513,-0.7253525620312509,1e-07,2.9850532638897256e-09,1.5861999999999998,39,4,390.4139639161299,301.5499999999999,mp-554134,SnS,https://materialsproject.org/materials/mp-554134,70.48897567022195,24.462798645801357,7.299169559863138,-1.8521977648415142
-6.43076882,-25.72307528,6.358734257732597,-0.04120932499999963,3.9420858999999995,0.4897767880691519,0.0,194,4,93.8005343183144,359.1922,mp-794,CrTe,https://materialsproject.org/materials/mp-794,53.86291030151847,33.94612795278207,-8.604250342815693,-0.5045126942092143
-3.6193849666666655,-108.581549,2.775236174577162,-1.489356220222667,1.99999995,0.03180212541047945,0.7032,185,30,732.9110448302188,1224.9042,mp-27366,KNiCl3,https://materialsproject.org/materials/mp-27366,21.55303348644207,-1.5304271860809484,6.259722045268638,-5.0747171885727465
-3.0472363422222215,-27.42512708,4.6267910821674265,-0.6576922045210729,0.010289399999999999,0.0003242711166951076,0.0,225,9,369.7934472021538,1030.36242,mp-1206836,Rb2TcI6,https://materialsproject.org/materials/mp-1206836,9.628545332810946,-7.516511104402754,5.911803576299308,-4.830917954300928
-4.006594363333334,-12.01978309,5.120499523397653,-0.3437956073958333,0.0,0.0,0.7030000000000003,164,3,89.70900447040756,276.63,mp-665,SnSe2,https://materialsproject.org/materials/mp-665,70.16466054807265,24.8028199261376,6.673239251683091,-6.258862954508906
-5.518741394615384,-143.48727626,6.214696731961308,-0.6205337422115382,5e-08,9.592289310712446e-10,0.4941,55,26,607.470458566377,2273.50552,mp-504898,Nb2Pd3Se8,https://materialsproject.org/materials/mp-504898,50.932217633766406,24.62463779934453,4.105141467327468,-6.045051597105818
-5.93898294375,-47.51186355,6.632730339625327,-0.09447440857421883,8.3260463,0.5656921814142865,0.0,99,8,171.5284143347017,685.14,mp-1225000,Fe4Te3Se,https://materialsproject.org/materials/mp-1225000,54.95292219832453,35.318512979201934,-8.604250342815693,-0.5045126942092143
-3.512567428333333,-63.22621371,4.579943393135164,-0.6408551081898151,0.0,0.0,0.8444,13,18,528.2486518455621,1456.9660000000001,mp-570887,K2Ag2SnSe4,https://materialsproject.org/materials/mp-570887,66.75665099278633,12.970107110322678,6.076732245928646,-6.1420287997903875
-5.17140891375,-330.97017048,4.817153701390491,-0.5631295583203118,2.5e-08,1.5615466644618098e-10,0.07420000000000028,128,64,1865.788746149365,5412.5744399999985,mp-23410,Nb3Se12I,https://materialsproject.org/materials/mp-23410,51.514840547323715,24.670928497429045,-6.350027059719088,-3.286884799646746
-4.914764900000001,-39.318119200000005,8.85186833754016,0.06650197875000075,0.0,0.0,0.0,194,8,154.95243253171543,826.008,mp-1184728,Ge3Pt,https://materialsproject.org/materials/mp-1184728,47.922280266542685,44.63746932093718,-8.604250342815693,-0.5045126942092143
-5.3696421600000015,-16.10892648,2.6732347235633016,-1.4806584221733334,5.0000002,0.7454229902438503,1.7964000000000002,166,3,78.17081973088789,125.844045,mp-28233,MnCl2,https://materialsproject.org/materials/mp-28233,17.300531378435938,-7.258432235598482,7.509803232834612,-0.6009236442884802
-3.664535758333333,-21.98721455,5.684993616674057,-0.3169840141666669,2.2e-06,1.5026689391450017e-07,0.8464999999999998,156,6,170.62269560332786,584.141,mp-1222311,LiGeSbTe3,https://materialsproject.org/materials/mp-1222311,67.52082072038398,25.923924801287303,4.598828207668109,-6.3891466965498385
-4.495611645,-17.98244658,5.060458216697425,-0.7587036545312511,0.0,0.0,0.4176000000000002,63,4,98.9506337311074,301.5499999999999,mp-559676,SnS,https://materialsproject.org/materials/mp-559676,70.46701885030633,24.35273945965301,5.4244760460779125,-2.212413827117653
-5.685777624615384,-73.91510912,6.157725176739009,-0.7146270241025646,1.9313016,0.06623410394663283,0.0,12,13,339.8175954774489,1260.135,mp-1208221,Ti5Te8,https://materialsproject.org/materials/mp-1208221,54.99247525210218,33.16686203758603,-8.604250342815693,-0.5045126942092143
-3.611836855,-7.22367371,6.6853017918520345,0.023043819999999826,6.1e-06,1.147763474506302e-06,0.0,166,2,61.93766981754898,249.36,mp-1219463,SbTe,https://materialsproject.org/materials/mp-1219463,67.77943972881003,25.511036109982967,4.35848328708475,-6.240736309995543
-4.137665945740742,-223.43396107,5.761765754712268,-0.04811780740740748,2.585e-05,2.2008182399289199e-07,1.1349999999999998,218,54,1368.843500590025,4749.63576,mp-1212622,Ge19(SbI)4,https://materialsproject.org/materials/mp-1212622,39.50879203025137,12.250179076124727,6.505306485625496,-5.412725669254423
-3.72060958,-26.04426706,6.193925184741721,-0.1729309507142856,0.0,0.0,0.27059999999999995,166,7,233.9447344383161,872.63,mp-27947,Sn(SbTe2)2,https://materialsproject.org/materials/mp-27947,67.12902915600127,25.707319203997933,3.2635970270859063,-5.225157647571434
-4.513395877142857,-31.59377114,4.854774547939512,-0.4449436177678575,3.9999994,0.26663988171242525,0.0,111,7,174.8285057674762,511.131,mp-1078053,Ga2FeSe4,https://materialsproject.org/materials/mp-1078053,25.17635971056738,3.1773220468734498,-8.604250342815693,-0.5045126942092143
-4.42319345203125,-283.08438093,4.7813455263007265,-0.7056030465039065,0.0,0.0,0.6025,61,64,1563.7389624233026,4502.62,mp-29267,Sn5Sb2S9,https://materialsproject.org/materials/mp-29267,70.26422352486478,15.630403585338351,6.028929184303165,-7.0351770029267575
-4.4211127830555546,-159.16006019,4.520293419663811,-0.6882705597569448,0.0,0.0,1.045,62,36,942.2800412498848,2565.06,mp-17835,Sn2Sb2S5,https://materialsproject.org/materials/mp-17835,70.40162024147358,24.346759889850702,4.702628791774884,-5.8681745366859674
-3.7013926283333336,-44.41671154,6.98828379562046,-0.12378727458333395,0.0004717,1.3161035143516811e-05,0.4798,156,12,417.6892085820747,1757.8212,mp-1227463,BiSbTe2,https://materialsproject.org/materials/mp-1227463,66.85509733917253,24.500462032412,4.681252796653896,-6.461507186605113
-3.7480788888888887,-33.73271,5.937338940891192,-0.057827722222221996,0.0,0.0,0.052299999999999784,8,9,287.17267167100175,1026.8,mp-1224407,Ge2Sb2Te5,https://materialsproject.org/materials/mp-1224407,67.65337273359846,26.092889428228933,3.946256427678855,-5.894435952170263
-3.664504608,-18.32252304,6.121654615148331,-0.12811704200000024,0.0,0.0,0.15499999999999936,166,5,169.89341557414855,626.3199999999998,mp-1201,Sb2Te3,https://materialsproject.org/materials/mp-1201,67.337310376767,25.83685860655025,4.03249424614775,-5.958328701649866
-4.532891923928571,-126.92097387,5.340444068678411,-0.04490475877550994,0.0,0.0,0.24489999999999945,217,28,599.9751121047335,1929.574344,mp-17568,Ag3Sn2(GeP2)3,https://materialsproject.org/materials/mp-17568,39.55062832253113,11.674536052748618,4.81385729710146,-6.228375419299973
-6.871810453999999,-68.71810454,5.925073874640955,-1.3591020231562505,9.75e-06,4.834403146373779e-07,0.0,12,10,235.0385933735939,838.6560000000001,mp-1215598,Zr2Se3,https://materialsproject.org/materials/mp-1215598,28.833708011071852,8.516436941699652,-5.627676542786409,-2.3086628338009128
-6.604302194615384,-85.85592853,5.681756862475273,-1.1761549637500006,2.7324767000000003,0.10353279635151856,0.0,12,13,307.5784830846316,1052.4209999999996,mp-1215397,Zr4FeSe8,https://materialsproject.org/materials/mp-1215397,28.76461974252493,8.473797720643857,3.39793346930197,-4.783572024855243
-5.099215336428571,-142.77802942,3.03262026845464,-1.6122834875390637,19.99999965,0.3168462878676834,1.9101,88,28,735.6289162826082,1343.4692638,mp-567499,CsMn4Cl9,https://materialsproject.org/materials/mp-567499,17.33406816017163,-7.305462112422902,7.521692085691117,-0.5625591523424341
-2.456370485,-4.91274097,3.387098444031799,-0.3768966851724138,1.0,0.11156766266142973,0.0,225,2,104.45737137942787,213.0678,mp-1009489,RbTe,https://materialsproject.org/materials/mp-1009489,53.50253332455946,28.569052729070386,-8.944479972117874,0.2395256857105351
-5.333418834166667,-192.00307803,6.401642830488733,-0.5552956740972227,0.00013135,1.231594391223283e-06,0.3817000000000004,15,36,1242.9103435225004,4791.617600000001,mp-680836,Ta4Te9I4O,https://materialsproject.org/materials/mp-680836,56.42241014869746,27.206310113902713,-5.797628993047072,-2.611400256607086
-3.735434936666667,-44.82521924,6.1855879217370395,-0.1005542616666671,6.9666666666666655e-06,2.0214188586655895e-07,0.043099999999999916,164,12,401.64849671859815,1496.16,mp-7716,SbTe,https://materialsproject.org/materials/mp-7716,67.13762671423794,25.77893351660539,2.5129834296494256,-4.75718437635466
-5.668007065,-68.01608478,8.478685879304086,-0.4674636116666668,0.0,0.0,0.0,14,12,271.38784259276537,1385.7020000000002,mp-2682,Sb2Rh,https://materialsproject.org/materials/mp-2682,34.70525420405803,28.91981551297441,-8.604250342815693,-0.5045126942092143
-6.953745202,-104.30617803,6.817016811778193,-0.4804484622499994,3.1e-06,1.1184872718443194e-07,0.0,148,15,323.0041298133217,1326.03,mp-1104129,Sn(Mo3Se4)2,https://materialsproject.org/materials/mp-1104129,63.35050459886405,33.40404581901076,-8.604250342815693,-0.5045126942092143
-7.225927734,-216.77783202,6.599242079501929,-0.45593543258333297,3.9708474000000002,0.07279734073727223,0.0,2,30,635.6896053190122,2526.33,mp-686056,Fe(Mo3Se4)2,https://materialsproject.org/materials/mp-686056,63.001984765209464,33.03224730328778,-8.604250342815693,-0.5045126942092143
-5.5076487475,-66.09178497,5.219947759832389,-1.3258906236646917,4.9999968,0.15471248373420746,0.5453999999999999,63,12,376.63597121159415,1183.9649938,mp-1213650,CsErMnSe3,https://materialsproject.org/materials/mp-1213650,25.979877168757504,1.0316006416022527,5.108142898075292,-6.319858647924731
-3.8075390075,-30.46031206,5.690760435345746,-0.30277277804687497,5.485e-05,3.1624693347291337e-06,0.0,26,8,202.1285853289227,692.7059999999999,mp-1224842,GaSnSe2,https://materialsproject.org/materials/mp-1224842,51.48182200469293,24.294678744573087,-6.1754151144047364,-3.7732400080164457
-3.662753238,-18.31376619,6.8548355013859545,-0.17218592899999974,0.0006781000000000001,4.57194030440482e-05,0.2035,160,5,172.8504922660292,713.5404,mp-1227340,BiSbTe3,https://materialsproject.org/materials/mp-1227340,66.99982255607779,25.035982559744703,4.86144149780312,-6.558791966484
-4.159580419895833,-399.31972031,4.977267453873874,-0.6802070708125001,1.2425e-05,4.1745063788238377e-08,0.8644000000000003,14,96,3468.715619494439,10397.0608,mp-1212265,K4Zr3Te17,https://materialsproject.org/materials/mp-1212265,65.29380526866613,18.384612401109397,6.590480854701352,-6.033303870395135
-4.968576569090909,-109.30868452,2.6669333138095985,-1.077811649940942,4.9999995,0.09744245153697698,1.1690999999999998,14,22,597.9972498295976,960.4223380000001,mp-559643,Rb2Mn(PS3)2,https://materialsproject.org/materials/mp-559643,23.799170249739852,-0.19755066283046832,3.1035231476192293,-4.996895832618517
-5.9430159065,-237.72063626,6.3822147997307574,-0.481093361,0.000781575,8.161157087509906e-06,0.0,62,40,1116.082631046683,4289.61856,mp-505137,Nb3SiTe6,https://materialsproject.org/materials/mp-505137,56.64525928994589,31.740835740186935,-8.604250342815693,-0.5045126942092143
-5.93484073,-71.21808876,6.911438048944089,-1.6008806683463543,5.0000015,0.1928431948887997,0.5857999999999999,8,12,302.16436404456164,1257.658045,mp-1225351,Dy4MnSe7,https://materialsproject.org/materials/mp-1225351,27.33887342950559,6.361110613767363,4.306679685234832,-6.210774901958213
-4.76488528923077,-61.94350876,2.5610196839797683,-1.6737038550061538,15.000000199999997,0.5453038093993958,1.9223,166,13,320.5753763424965,494.41767356,mp-27126,Na2Mn3Cl8,https://materialsproject.org/materials/mp-27126,17.352144698818268,-7.327158348725653,7.4252069750760175,-0.5221787572787859
-5.531163028333333,-66.37395634,5.0463333813944,-1.3393959886646918,4.9999923,0.15170223648170614,0.5093000000000001,63,12,384.10926218300375,1167.2976938,mp-1213063,CsTbMnSe3,https://materialsproject.org/materials/mp-1213063,25.94070284072677,1.0641665407078778,4.7684965587385015,-6.251340578136423
-4.6521134925,-18.60845397,7.1710555291033256,-0.19177768750000013,0.0,0.0,0.0,166,4,86.27668893062305,372.5868,mp-10264,NiTe,https://materialsproject.org/materials/mp-10264,54.7225968056393,34.82372942174677,-8.604250342815693,-0.5045126942092143
-4.16195472,-29.13368304,5.272365480555389,-0.2715795123809528,5.0000004,0.2327292309446844,0.0726,121,7,250.37821114217581,794.9740449999998,mp-675577,Mn(InTe2)2,https://materialsproject.org/materials/mp-675577,57.47397336885655,17.538913412550748,-8.521539316242961,-3.2807567040374583
-3.1322095843333333,-93.96628753,5.310664793497337,-0.31462050033333305,0.0,0.0,1.1926,2,30,1028.5579638500183,3289.49,mp-1193453,Te7IrBr7,https://materialsproject.org/materials/mp-1193453,65.83549279327744,17.906506057100085,8.554344809997849,-6.436041704322841
-5.522975069615384,-287.19470362,8.410397379320871,-0.7097502880769228,0.57235385,0.0054200306691860635,0.0,62,52,1230.666254094389,6233.152000000001,mp-1215117,Ce3(Sn3Pd2)2,https://materialsproject.org/materials/mp-1215117,2.9116426470508108,48.45513691596743,-8.604250342815693,-0.5045126942092143
-6.613410434285713,-46.29387304,6.122050477994781,-0.6486801220535716,3.9415782,0.360543084933777,0.0,12,7,127.4061535734251,469.7191,mp-1025232,V2CrSe4,https://materialsproject.org/materials/mp-1025232,49.85207278565146,26.66764392193057,-8.604250342815693,-0.5045126942092143
-5.295047659090909,-116.4910485,6.711423968517195,-0.7210025793181827,3.0463703,0.05285578467670243,0.0,8,22,671.6880094498114,2714.770865,mp-1223337,La6MnSb15,https://materialsproject.org/materials/mp-1223337,2.948021901146087,33.13484417960721,-8.604250342815693,-0.5045126942092143
-5.5129664358333335,-66.15559723,5.171463554256364,-1.3294332136646905,4.99999975,0.15388088601410774,0.5471999999999997,63,12,378.6715976144045,1179.3076337999998,mp-1213649,CsHoMnSe3,https://materialsproject.org/materials/mp-1213649,25.978176360222005,1.0329767131395662,5.083432751573887,-6.3167228378171245
-3.2777680833333336,-98.3330425,4.315584102917112,-0.7363813721880007,6.645e-05,8.087532006057174e-07,1.3417,2,30,957.5388431929463,2488.553,mp-1193541,Te7RhCl7,https://materialsproject.org/materials/mp-1193541,65.87528666086426,18.109121277518963,8.919593287551672,-6.4326493922978205
-5.190445710377358,-550.1872453,4.7883107701621626,-0.5627372976179245,2.8e-06,1.052951367029831e-08,0.0,124,106,3099.0397453221285,8936.35442,mp-569026,Nb10Se40I3,https://materialsproject.org/materials/mp-569026,51.49370988307654,24.66364518192032,-5.935725682677151,-3.7045435182714113
-3.824699155,-15.29879662,6.974976969304602,-0.17243705624999972,0.0,0.0,0.8598999999999997,123,4,127.37745398608506,535.04,mp-1224318,GeTe2Pb,https://materialsproject.org/materials/mp-1224318,67.01498035543976,23.326076353994914,6.610203010058865,-7.060115179105478
-2.94691252375,-23.57530019,5.226493720209193,-0.5589853913749998,0.0,0.0,1.1023999999999998,121,8,288.4529914871727,907.8966,mp-1223855,K2SnHgTe4,https://materialsproject.org/materials/mp-1223855,64.82597032179741,17.199738932813098,6.4997992954776835,-6.466355802586179
-6.299820522307693,-81.89766679,6.600197194084713,-0.577048508365385,1.0,0.04268647282934177,0.0,216,13,273.0154074606262,1085.163,mp-5584,Ga(MoSe2)4,https://materialsproject.org/materials/mp-5584,49.52995884391863,24.47020617672632,-8.604250342815693,-0.5045126942092143
-6.67970047,-40.07820282,9.111583992249985,-0.27832108000000017,7.9999999000000015,0.8425572115018617,0.0,160,6,110.65422708670872,607.17349,mp-1221816,Mn2NiSb2Pt,https://materialsproject.org/materials/mp-1221816,48.02648931856728,42.04389207333365,-8.604250342815693,-0.5045126942092143
-5.837627765588236,-198.47934403,4.955843994861252,-0.5491296695698525,29.043805699999997,0.4550108825128871,0.0,8,34,743.8907636672882,2220.12640784,mp-676009,Na3Cr11Se20,https://materialsproject.org/materials/mp-676009,23.982322215159265,17.11692454903931,-5.587617185229586,-2.8898397429730553
-3.74019199,-26.18134393,5.817817217769977,-0.10489210928571477,0.0002998,1.4809679285633044e-05,0.42079999999999984,160,7,235.9192627623501,826.56,mp-1224348,Ge(SbTe2)2,https://materialsproject.org/materials/mp-1224348,67.35592943873272,25.884577353161436,3.56675002294115,-5.529919082098142
-5.488032266666668,-65.8563872,5.265595833909548,-1.3211462969980243,4.99999945,0.1556251234919549,0.5388000000000002,63,12,374.4274455536426,1187.3154138,mp-1213648,CsTmMnSe3,https://materialsproject.org/materials/mp-1213648,25.974402363771095,1.0123535159025048,5.178514044639986,-6.276515003587992
-4.404545540833333,-52.85454649,2.3909115659032256,-1.869007347235,10.000001,0.35300894753357537,1.4235,139,12,330.1351430152554,475.34199,mp-28076,K3Mn2Cl7,https://materialsproject.org/materials/mp-28076,17.891550838278025,-7.953690927121996,7.375012938665744,-4.9436504844941815
-4.606870307045455,-202.70229351,4.829314814561321,-0.5963399512460815,4.2925e-05,2.7784698918338406e-07,1.887,163,44,1800.4540262696537,5236.226967600001,mp-1199497,CsMo3I7,https://materialsproject.org/materials/mp-1199497,42.33167388101764,-9.052917473263037,8.561382420169684,-4.15543185377332
-6.50850794,-13.01701588,6.718894735602569,0.13478980000000007,3.8436241,1.0257353843707808,0.0,225,2,43.669980489411934,176.698045,mp-1009217,MnSb,https://materialsproject.org/materials/mp-1009217,48.21613759800836,40.61866282274824,-8.604250342815693,-0.5045126942092143