energy_per_atom,energy,density,formation_energy_per_atom,total_magnetization_uB,total_magnetization_T,band_gap,sgr,num_sites,cell_volume,weight,mp_id,formula,URL,tsne_xrd_lin1_0,tsne_xrd_lin1_1,tsne_xrd_lin2_0,tsne_xrd_lin2_1
-7.4928537864285705,-104.89995301,6.951866328240527,-2.669703701428572,6.0202372,0.3848422574173849,0.0,38,14,182.30907059377398,763.23908,mp-1218839,Sr2EuTa(CuO4)2,https://materialsproject.org/materials/mp-1218839,-24.752211677963434,46.24158121442878,-8.5403819086407,65.9871868601214
-3.9879190184375,-255.22681718,3.7540272996270176,-0.5523634151495633,0.0,0.0,1.7605,14,64,2259.80157673543,5108.796966800001,mp-1201199,Cs3As(PSe3)3,https://materialsproject.org/materials/mp-1201199,8.36320813478385,23.32538583069131,33.04724167244829,1.3851990561848972
-7.373211096785715,-206.44991071,7.813035489492814,-1.6719417925446447,3.999999875,0.08616475822072908,0.0,60,28,541.0130382315165,2545.53128,mp-1194185,U2S5,https://materialsproject.org/materials/mp-1194185,-0.2832571679523805,-20.66368955329495,14.592250336936464,-15.331827659001574
-6.649929567916666,-159.59830963,5.798816671917481,-2.1897681612499995,0.0,0.0,1.3762,13,24,374.1731676142072,1306.6609999999996,mp-554878,PrSbO4,https://materialsproject.org/materials/mp-554878,10.922443920567348,-13.937307881672591,16.229830790872526,-10.832588447522166
-6.608396802666666,-198.25190408,2.8084067933877446,-2.5368658729243805,5.000000099999999,0.184750782746257,4.417,4,30,315.3996110979156,533.423418,mp-759656,Li3MnP2HO8,https://materialsproject.org/materials/mp-759656,31.83738083026908,-14.604532766954572,49.08599211278331,-18.37010636022254
-4.638504794642857,-259.75626850000003,1.6871343149703355,-1.2319115448271432,9.95e-06,1.9254228919703923e-07,4.0408,4,56,602.2466283669388,611.89224,mp-625632,H9BrO4,https://materialsproject.org/materials/mp-625632,46.21139866294074,-8.934889783080576,47.978723823593086,-18.989932644932967
-7.4453412753125,-476.50184162,3.2109728592567586,-2.89146932171875,4.00008235,0.057822612015325785,3.2562,130,64,806.2108780232371,1558.9643999999996,mvc-8667,ZnCr(Si2O5)2,https://materialsproject.org/materials/mvc-8667,20.471777001090327,-4.679451081464665,50.7298823197083,1.1105153141311468
-4.0979587025,-81.95917405,6.0383556145846375,-1.16493769675,1.0000095,0.01541329840011412,0.0,148,20,756.1117149388832,2749.51164,mp-1106187,Er7FeI12,https://materialsproject.org/materials/mp-1106187,-24.967794662318138,-38.03871775471168,-34.21291494172693,-23.70675496292922
-7.4373455020967745,-461.11542113,4.250590066672354,-1.867441316980484,8.03168555,0.08506902726928715,0.0,1,62,1100.3039136233922,2816.51968,mp-1179503,U4S2N4O21,https://materialsproject.org/materials/mp-1179503,44.67252627322143,-42.14199581483856,41.82817064014858,-62.78721189381078
-7.432715833409091,-327.03949667,3.1711200989951096,-2.9050799089123376,3.000000425,0.06299664317141564,2.8816,14,44,554.9851152469105,1059.8512959999996,mvc-1288,CaVP2O7,https://materialsproject.org/materials/mvc-1288,3.2674902185101726,27.601150587164256,31.38993740864681,-1.4130512403603568
-7.88499179,-31.53996716,8.231612342688504,-0.33789024187499983,1e-07,2.3884347737357618e-08,0.0,38,4,48.79373261816782,241.879945,mp-5106,TbCoC2,https://materialsproject.org/materials/mp-5106,-36.130790247069726,28.76639682229736,-40.04393024270954,35.71807061971065
-8.204875120555558,-295.37550434,9.425810418834287,-0.8685079287698427,6.15e-05,1.3180622049252457e-06,0.0,189,36,543.7717437266706,3086.6418940000003,mp-1198536,Tb5P12Ru19,https://materialsproject.org/materials/mp-1198536,-51.024302476654775,2.4533161302319395,-55.049015736477976,20.69416209104234
-5.228631727,-52.28631727,4.48878825742788,-2.326078755608,0.99999995,0.04224698895750843,0.01610000000000067,141,10,275.85549828362883,745.6957600000002,mp-27291,PaCl4,https://materialsproject.org/materials/mp-27291,25.317313773229323,-20.895481689737426,2.348330014174413,-25.10784712379301
-7.7990268011764705,-265.16691124,6.909587685211309,-2.7416409852941173,0.0,0.0,3.9789999999999996,15,34,501.90819199235114,2088.4656,mp-773126,Sm2(WO4)3,https://materialsproject.org/materials/mp-773126,11.20296387153734,21.748227919219165,40.0893358209976,-4.169531801898169
-3.9213311304166663,-94.11194713,5.956641975479563,-0.5016637896250901,0.0004349,6.16679527573147e-06,1.0642999999999998,12,24,821.8779030223329,2948.2188,mp-1219645,RbBi4Se7,https://materialsproject.org/materials/mp-1219645,-0.44787571175935337,-11.690543935691858,-0.2009999476132376,-0.7011772674429012
-5.464423845750001,-218.57695383,4.261201397957956,-3.5444628030830003,4.999999725,0.10666568217851384,3.7149,14,40,546.289298186932,1401.8632896,mvc-10595,BaMgFeF7,https://materialsproject.org/materials/mvc-10595,11.715119045382373,-17.1566881389863,10.273631591407248,-13.65270910246771
-6.83248427,-218.63949664,3.3466035744485385,-2.341454012106607,2.9999999,0.10191191387252224,0.0,14,32,343.06286501503143,691.399228,mp-757764,LiMnPO5,https://materialsproject.org/materials/mp-757764,63.8705197261551,-29.100841608303515,70.8679159956828,-17.97729831199824
-3.550949144285714,-49.71328802,5.276566312102663,-0.7284590652380954,1.24e-05,2.774096466548025e-07,0.9243,66,14,520.9278225265293,1655.3120000000001,mp-20397,Sr(InTe2)2,https://materialsproject.org/materials/mp-20397,-8.26477316401447,13.895592777853132,-0.5602234936140473,-2.6673677845119945
-3.74923663359375,-239.95114455,3.949152179430043,-0.3439640248327822,2.5e-08,1.358335998522929e-10,1.7388,114,64,2144.9156882451143,5101.1137112,mp-1194666,CsPSe6,https://materialsproject.org/materials/mp-1194666,6.5580319789759836,17.43928956554789,18.084424693467817,-15.242236599152172
-6.1144262761363635,-538.0695122999999,4.846999247489272,-2.016436465795456,3.0000042875,0.028065546029070732,0.6996000000000002,14,88,1245.7354026986454,3636.2159600000014,mvc-7614,CaCoSb2O7,https://materialsproject.org/materials/mvc-7614,11.992446270657087,27.483713505460305,49.58073644661602,7.65647967261833
-12.08199120875,-483.27964835,7.507104057720099,-3.912778674000001,13.9999991,0.2543507011530105,2.8858,206,40,641.4643073031144,2899.9856,mp-504886,Gd2O3,https://materialsproject.org/materials/mp-504886,25.64511910378157,63.960229605483725,-8.081969136563398,33.951799043751556
-5.33645069340909,-234.80383051,2.8229998123955617,-3.171405715984545,3.9999995999999998,0.06450496088563949,0.0,128,44,722.6770435727971,1228.5872896,mp-21564,K5V3F14,https://materialsproject.org/materials/mp-21564,-9.159084142363373,-28.009067643650642,29.310804222763238,-40.05664752934271
-6.037198905238094,-253.56235402,5.700884395814071,-2.1789434820599998,0.0,0.0,3.435,176,42,672.2488853003426,2307.9331999999995,mp-557347,Ca2As3Pb3ClO12,https://materialsproject.org/materials/mp-557347,3.984397965578556,25.385801839743408,0.6764061413879339,16.833981788264953
-5.504996673636364,-60.55496341,4.746963226231465,-1.7389745392045464,0.0,0.0,1.7692,12,11,137.3556622950521,392.657,mp-754262,Zn2As2O7,https://materialsproject.org/materials/mp-754262,5.788634126263224,25.92397402081782,31.21326106093983,-1.6432189851733132
-3.87852209875,-31.02817679,4.3407812690756815,-0.9717122986979168,0.0,0.0,0.7195,121,8,167.34073285622063,437.44199999999995,mp-1215696,Zn2InCuS4,https://materialsproject.org/materials/mp-1215696,29.94340920096755,64.88128990016013,-12.734419057872405,8.232451495760442
-7.299943242499999,-145.99886485,7.778697019393838,-2.5374127090833327,1e-07,4.2691379291070855e-09,2.479,25,20,272.98403017391394,1278.77756,mp-1222224,MgTiNb2(PbO3)4,https://materialsproject.org/materials/mp-1222224,-25.79484021700475,30.706563021844378,-22.273477249490828,59.11542626121714
-4.875561439375,-390.04491515,2.7425674465479015,-1.2757082695039998,0.00037755,5.219075070153391e-06,4.4331999999999985,186,80,843.0597559407387,1392.40824,mp-1219120,SmH18(BrO6)3,https://materialsproject.org/materials/mp-1219120,6.420795731337937,-29.095549434536018,18.814132187840976,-17.698884802437032
-6.154268277142857,-86.15975588,6.27943624014809,-2.697918225238096,3.8e-06,1.8324951987785526e-07,2.3915,65,14,241.66746065826112,913.8812,mp-1228129,Ba4InSbO8,https://materialsproject.org/materials/mp-1228129,-20.76378831016011,14.02637981429945,-27.57486782721561,49.56551747224022
-8.679714068500001,-173.59428137,7.141933839661622,-3.9369058847500007,0.0,0.0,4.5444,62,20,282.87835221638056,1216.6522,mp-755109,YErO3,https://materialsproject.org/materials/mp-755109,-22.165352770494533,30.52243585817252,-22.703483613573212,56.33429698871084
-6.9052388224999985,-248.58859761,2.4390735224205287,-2.118155582162037,2.0,0.046255635756945884,0.7183,9,36,503.8981556235418,740.148,mp-1201387,K2GeB4O11,https://materialsproject.org/materials/mp-1201387,31.924515803124844,-17.37402679226927,34.073417263830805,-29.02154467472763
-7.080777345555557,-254.90798444,2.6206357985542783,-1.0112554101066675,5.009522325,0.13165667272035084,0.03610000000000002,19,36,443.4359189612842,699.8233799999999,mp-1199524,Mn(CO3)2,https://materialsproject.org/materials/mp-1199524,31.61455612844131,-26.289771859930454,27.541850510775486,-27.950423720743267
-6.681885025750001,-267.27540103,8.131420306030966,-2.464022311125001,0.0,0.0,2.5489999999999995,1,40,689.4116767909003,3375.9496,mp-757507,Sm3Bi5O12,https://materialsproject.org/materials/mp-757507,-11.856872039157867,-23.72042410063975,33.63333639720707,-0.1216865995016975
-5.951212253333334,-142.82909408,3.1664765189723347,-2.9856716562200005,0.99999995,0.04245031338684407,1.8467,14,24,274.5342321422816,523.5084383999998,mp-764845,LiVOF3,https://materialsproject.org/materials/mp-764845,16.868093495219053,-34.30106547426011,28.892346949597822,-38.76601312812002
-4.408982152916667,-105.81557167,3.894189229814906,-1.1889638097844824,0.0,0.0,2.5289,62,24,552.3049855347292,1295.2300876,mp-23489,CsIO4,https://materialsproject.org/materials/mp-23489,7.969951232607545,-25.87735492908313,-1.4671163678121977,-31.561472348040763
-5.0205142475,-140.57439893,5.780014838574803,-1.051162165357143,2.984264675,0.036500864506390125,0.0,214,28,952.8216465893062,3316.587640000001,mp-1214037,Ce3SiI3,https://materialsproject.org/materials/mp-1214037,-24.48709011836221,-38.64712702928149,-35.37536138814568,-18.36299091413733
-6.88319350875,-330.39328842,2.3171357092292646,-1.8582204999999992,3.0000002,0.06082936645021748,0.0389,14,48,574.7585202470418,802.0247999999998,mp-1182261,CaB3O8,https://materialsproject.org/materials/mp-1182261,9.864308157183256,-25.707297747374174,44.94065655216074,-38.0442945426109
-6.875394146842106,-130.63248879,2.7134962964810727,-2.8616635315563914,0.0,0.0,5.6047,82,19,294.78169647143613,481.704448,mp-558990,K2Sr(PO3)4,https://materialsproject.org/materials/mp-558990,30.813781965172712,-27.75415791656918,43.15363697428978,-29.571444334604923
-3.1236842875,-12.49473715,0.536141996410586,8.881784197001252e-16,6.0000012,0.40296161945627856,2.9915,198,4,173.5262100509369,56.0268,mp-672234,N2,https://materialsproject.org/materials/mp-672234,-10.849455639612836,-24.25180015643472,65.35685635100657,-48.84261236996346
-8.594870924,-85.94870924,3.3469113058135567,-3.456809079583333,0.0,0.0,4.1348,167,10,102.9641981648443,207.530224,mp-8697,ScBO3,https://materialsproject.org/materials/mp-8697,-29.85428087042117,20.50204389512205,-14.846719562382589,49.34167401186284
-5.862307622,-29.31153811,2.055139926516691,-1.5138972053260005,0.0,0.0,2.9587000000000003,160,5,81.69069585129509,101.1032,mp-6920,KNO3,https://materialsproject.org/materials/mp-6920,7.74502675402071,-26.20015400768048,-7.379734877279402,-27.33111987184206
-2.07405425625,-33.1848681,5.550622973626604,-0.3430225337500001,0.0,0.0,1.6871,62,16,700.1563130819247,2340.3868399999997,mp-28329,TlI3,https://materialsproject.org/materials/mp-28329,9.957043240110858,-23.048697709896068,29.03188146452932,-7.456729235024892
-3.128334314166666,-37.54001177,4.276752452226133,-0.7779740892241378,0.0,0.0,1.6366000000000005,63,12,351.20806685930773,904.5436,mp-567644,RbCu2Br3,https://materialsproject.org/materials/mp-567644,0.03741240314869535,-14.864895803797555,-10.547851770366151,-24.92891866304371
-3.919513390208333,-188.13664273,3.5009331259097416,-0.8764778785416668,0.0,0.0,1.5583,62,48,1868.5149333799786,3939.41104,mp-28601,NbBr5,https://materialsproject.org/materials/mp-28601,36.715027512986524,-27.414410341046395,7.960354608282588,-46.657440517304615
-6.740030238928571,-188.72084669,3.8259708240239196,-2.891409427978536,0.0,0.0,5.1938,62,28,411.25606433625074,947.5559836000001,mp-15395,CsBePO4,https://materialsproject.org/materials/mp-15395,3.984532838129693,26.032101100248408,50.13885129758216,-16.402905469873044
-6.932998717083334,-166.39196921,7.907486737995032,-2.0637055812500003,0.0,0.0,2.9616,14,24,382.223947761936,1820.1504,mp-504591,PbWO4,https://materialsproject.org/materials/mp-504591,12.999538722717304,15.133919340961851,38.27332271915088,2.0772572617165155
-6.7118845445833335,-161.08522907,2.6275164924623264,-2.5496119442113088,3.9999995000000004,0.15135650414386762,3.6677,113,24,307.9897591906366,487.340648,mp-756604,Li2FeP2O7,https://materialsproject.org/materials/mp-756604,27.405584480481554,-35.59593488947592,41.53584401343368,-31.304526130168696
-4.634794600625,-296.62685444,7.214219230639817,-0.9933169394270828,0.3457118125,0.004733263293467217,0.0,61,64,851.1987619777476,3698.0368,mvc-7494,ZnAgBiO5,https://materialsproject.org/materials/mvc-7494,-8.025085310780447,39.29585491284554,-5.825855887269156,31.747542272568914
-5.0743053699999985,-71.04027518,6.35041023266765,-0.9416531091071434,0.11872065,0.005312927002413454,0.0,55,14,260.4173075052384,995.9156,mvc-13490,Bi2O5,https://materialsproject.org/materials/mvc-13490,11.207761439007035,-26.92451711874229,30.44040603314393,-8.062336807206835
-6.963275067307693,-181.04515175,6.014728332135266,-2.3116596450961544,6.9438527,0.2324460619895176,0.0,46,26,348.14145029724307,1261.0219900000004,mp-560285,Sr2GdCoCu2O7,https://materialsproject.org/materials/mp-560285,-22.56620120214172,46.773285142389014,-9.325072935194301,66.88996422124083
-7.052460386900001,-705.24603869,8.289887304897066,-2.3089546709499995,0.5064272,0.004118786136903832,0.08900000000000041,2,100,1432.9307701862467,7153.60152,mp-1228736,Ba5NbIr4O15,https://materialsproject.org/materials/mp-1228736,-17.886931503672507,27.882733531068002,-5.242063212871024,29.95930189570737
-6.8289044219230775,-177.55151497,2.998444416264036,-2.9883192966876666,0.0,0.0,4.3938,34,26,395.55372821601526,714.2535280000001,mp-557027,Rb2Be2Si2O7,https://materialsproject.org/materials/mp-557027,18.874294032473138,59.823320336593525,69.26781513167299,-23.10099421715215
-6.753486827272727,-148.5767102,3.9400699768468495,-2.552512952775976,0.0,0.0,4.156000000000001,4,22,328.6162927689488,779.729448,mp-26209,LiBiP2O7,https://materialsproject.org/materials/mp-26209,39.265203474172885,-35.58532081555902,45.99609328678371,-34.06341673411161
-7.6007816396875,-729.67503741,5.329589935223373,-3.3242091855468754,0.0,0.0,3.8221,185,96,1408.305744587091,4520.03352,mp-14384,Ba3Ho(BO3)3,https://materialsproject.org/materials/mp-14384,4.672386725720507,-23.58626114976685,19.846107562823182,-18.496317932041844
-6.108065712,-30.54032856,6.203914169528754,-0.438099519,6.9981941999999995,0.7715612129349351,0.0,156,5,105.70439147338165,394.92053860000004,mp-1224639,GdAlZnGe2,https://materialsproject.org/materials/mp-1224639,-30.132861223264946,-17.67687096572623,-18.58880499444813,-19.42728289903661
-4.9806787525,-39.84543002,4.4552926210114165,-0.6649928776562515,3.9272763,0.2856416352558405,0.0,121,8,160.2313064023209,429.907,mp-22648,FeCu2SnS4,https://materialsproject.org/materials/mp-22648,25.67903019117044,65.81115895789995,-13.207671056197348,7.683341266165947
-5.407465624347826,-124.37170936,4.100060724708039,-2.4184417792934783,0.0012735,1.9301862160673346e-05,2.2419,12,23,768.9129351515909,1898.5339399999998,mp-675219,Ba9(LaS6)2,https://materialsproject.org/materials/mp-675219,-26.92567273839914,-49.811706701592996,-11.72052141049615,-29.552273859604433
-5.870436325526316,-223.07658037,5.3170703013785205,-2.481416476381579,4e-06,6.665597173181223e-08,1.0428000000000002,129,38,699.3560798692955,2239.3484000000008,mp-675103,Sr6Bi2O11,https://materialsproject.org/materials/mp-675103,5.61445284056192,24.626921129693308,34.750243210568684,-5.327713237240247
-2.72048223,-27.2048223,3.825742924470564,-1.1441249250413792,0.0,0.0,1.7447,225,10,474.5474359686828,1093.3175624000003,mp-1113057,Cs2KAlI6,https://materialsproject.org/materials/mp-1113057,-21.236688200795328,-44.81382721975197,-14.600959960734356,-29.06929692495305
-8.463452216785715,-236.97666207,5.276293831008696,-3.1775390698809525,6.000003275,0.2051393157997939,0.0,57,28,340.86311797326636,1083.0784,mp-619100,LiEuTiO4,https://materialsproject.org/materials/mp-619100,6.492419316716324,28.527372431163567,32.53071564587421,-2.5529315223438966
-4.744014756666666,-14.23204427,6.1786940313113945,-0.5331923499999996,3e-07,5.568701286566687e-08,0.0,187,3,62.78338973221275,233.61050000000003,mp-1226464,CeZnSi,https://materialsproject.org/materials/mp-1226464,-56.3926425816644,22.770619341229533,-53.59868590908125,31.39085194120211
-7.124814781,-71.24814781,3.149959583172788,-1.980390598000001,5.0,0.6046695563756179,2.1145,148,10,96.36721949765436,182.8038,mp-753899,LiFe(CO3)2,https://materialsproject.org/materials/mp-753899,-4.951559287003441,-5.162396106062012,0.7537390297843897,-24.887547736193422
-8.40888444,-336.3553776,8.144288885270791,-4.0308577652499995,0.0,0.0,3.925100000000001,206,40,608.4048163565445,2983.9856,mp-2345,Dy2O3,https://materialsproject.org/materials/mp-2345,18.24558697623264,60.00339593352045,-5.856924970765575,36.48253355102368
-4.800320193999999,-48.00320194,4.304682216077912,-3.0870059444496314,0.0,0.0,3.2430000000000003,225,10,161.9292665249481,419.7757578,mp-1113857,Rb2AlAgF6,https://materialsproject.org/materials/mp-1113857,-22.64198069505665,9.32981267547913,-32.88500775269929,50.25558920376722
-5.8228753775,-69.87450453,1.8638868160611808,-1.9185771383571424,0.0,0.0,0.045400000000000114,122,12,238.88565111594932,268.13932400000004,mp-1102824,KPO4,https://materialsproject.org/materials/mp-1102824,5.459492317102939,-29.54387789961289,56.46783753578205,-55.121506043897455
-3.91593149,-46.99117788,1.135663487633709,-0.4199523626077776,0.0,0.0,6.3332,137,12,110.6355756532792,75.66505855999998,mp-38725,NaBH4,https://materialsproject.org/materials/mp-38725,-26.788912513845123,-38.47435739124213,-34.066406410333464,-20.157083800794986
-2.4757974238888893,-89.12870726,5.823734753315593,-0.5769376861527777,0.0013950999999999998,1.4315293959148074e-05,1.1021,60,36,1135.7493468590703,3983.2264,mp-1212008,K2Hg3Se4,https://materialsproject.org/materials/mp-1212008,11.172828371202645,-48.306435111526355,3.7157071526312135,-45.070813277494395
-7.741766574750001,-309.67066299,4.452425913351553,-3.009127320008333,0.0,0.0,1.5699999999999998,13,40,503.6100570454085,1350.33649568,mp-677431,Na3SrTiNb3O12,https://materialsproject.org/materials/mp-677431,-11.760076128136532,49.435395853554354,25.932433704201532,54.4312609741605
-5.6103408329999995,-112.20681666,3.238886952916883,-3.0402640665060003,5.00000075,0.18813366350738625,2.6742,127,20,309.7283682091234,604.1262184,mp-560382,KMnF3,https://materialsproject.org/materials/mp-560382,-27.313762405276503,10.57183630565994,-30.60957681987496,-11.176152930888524
-7.71219125607143,-431.88271034,2.7919686591624755,-2.847952359610016,0.0,0.0,5.897,14,56,749.2865711544007,1259.8226075999999,mp-510535,CsB5O8,https://materialsproject.org/materials/mp-510535,34.82883501132712,-7.591914793819869,44.51477637114114,-6.695207238296269
-5.0559368550000015,-424.69869582,2.879887434597264,-1.825104166370536,0.0,0.0,3.6435,33,84,1530.2064041040844,2653.8504000000007,mp-557025,K2SeO4,https://materialsproject.org/materials/mp-557025,60.131520859184,-20.181284363970754,67.15095487008472,-21.76881994055225