energy_per_atom,energy,density,formation_energy_per_atom,total_magnetization_uB,total_magnetization_T,band_gap,sgr,num_sites,cell_volume,weight,mp_id,formula,URL,tsne_cry_lin1_0,tsne_cry_lin1_1,tsne_cry_lin2_0,tsne_cry_lin2_1
-4.761545092222223,-85.70781166,3.289631695521797,-1.7239479244791676,2.7000000000000004e-06,7.806273999099605e-08,0.02550000000000008,185,18,403.0857088739203,798.538,mp-866509,Ca3SnS5,https://materialsproject.org/materials/mp-866509,42.967942589990514,1.7241458199475692,6.413237744234816,-4.82610260437388
-5.660666442291666,-271.71198923,2.564917731573662,-3.1627700214183334,1.99999985,0.033615429089765,2.0206,62,48,693.3758820917855,1071.0089024000001,mp-760794,LiVF4,https://materialsproject.org/materials/mp-760794,-22.329978500262516,-51.687733102848206,8.244633831487214,2.1166546942328224
-4.38191793125,-105.16603035,4.06726315613852,-1.01601193225,2.5e-08,3.2307103536853017e-10,0.411,14,24,901.8190658337564,2208.8824,mp-29602,K2ZrTe3,https://materialsproject.org/materials/mp-29602,64.9472960487025,17.318262094243472,5.927529383374268,-5.739693583552798
-4.9586488584375,-158.67676347,6.935576102668442,-0.3690639522851562,0.0,0.0,0.3412000000000006,148,32,680.8016987976504,2843.50556,mp-570152,Co2(SnSe)3,https://materialsproject.org/materials/mp-570152,19.647864089840656,11.626010643739411,-8.604250342815693,-0.5045126942092143
-5.184161497142857,-72.57826096,4.604211974035195,-0.8509544939880952,2.9989237,0.11909718780269485,0.0,74,14,293.4548807790872,813.6686,mp-1226291,CrAgSnS4,https://materialsproject.org/materials/mp-1226291,15.133660666709092,2.4310800210456014,-8.604250342815693,-0.5045126942092143
-5.874041396666668,-70.48849676,8.597844281132996,-0.8334205216666669,0.534560975,0.0220785070410179,0.0,62,12,282.16619067397977,1460.984,mp-21490,CeSnPd,https://materialsproject.org/materials/mp-21490,3.6674944854732527,48.63355866325876,-8.604250342815693,-0.5045126942092143
-8.097222630500001,-323.88890522,6.704747000626758,-3.0784075451250015,21.999996399999997,0.5326714249844208,0.4632000000000005,38,40,481.32745819653985,1943.45255,mp-1099675,La5Sm3V2Cr6O24,https://materialsproject.org/materials/mp-1099675,-4.676151278270365,-6.908352022811473,6.168710011734025,-3.5366406626798366
-2.7725449455555555,-24.95290451,4.30463025472718,-0.9097244467432948,1.1e-06,3.906063761189297e-08,0.5428,139,9,328.19411135041116,850.7805400000001,mp-567948,Rb2Pd(IBr2)2,https://materialsproject.org/materials/mp-567948,9.182252728514486,-5.812931570571256,6.230263164710527,-6.06817825178224
-6.728133809310345,-195.11588047,7.526476854372334,-0.5203763006896553,0.006453699999999999,0.00010821765589881906,0.0,8,29,695.0052391911887,3150.14626,mp-1220812,Nb12Tl(Te3As)4,https://materialsproject.org/materials/mp-1220812,57.18002984948324,32.27176655090331,-8.604250342815693,-0.5045126942092143
-6.289549454583334,-150.94918691,6.720010161944561,-0.6962794803125002,3.2e-06,6.843746337863343e-08,0.0,9,24,544.9209457963942,2205.23228,mp-675066,Nb3IrSe8,https://materialsproject.org/materials/mp-675066,48.811560751095065,24.70195228797937,-8.604250342815693,-0.5045126942092143
-5.449892347352941,-185.29633981,3.0371715479102463,-1.0962072118566193,3.9999998,0.05250362081738491,0.6585000000000001,129,34,887.8674657803851,1623.934,mp-559911,V4S9Br4,https://materialsproject.org/materials/mp-559911,19.091271065824653,3.6811113867665632,3.4874775291912545,-5.212871844499146
-5.7583010975,-161.23243073,5.1458990459850025,-1.1293014055357151,6.99328805,0.12055686995559918,0.0,62,28,676.031419344945,2094.976,mp-1194437,Eu(SbS2)2,https://materialsproject.org/materials/mp-1194437,-14.608385289721275,12.337139574583006,2.2430984778542418,-4.693493404797595
-6.650962546666666,-39.90577528,6.9763819759635695,0.3470626699999997,8.5069232,0.8974970232235301,0.0,160,6,110.46302263143994,464.08559,mp-1221891,Mn2CrNiSb2,https://materialsproject.org/materials/mp-1221891,48.247436245047815,42.42189218390932,-8.604250342815693,-0.5045126942092143
-6.067202876666666,-72.80643452,5.187026302006356,-1.624286296666667,6.999999925,0.15700075815762024,1.1898999999999995,62,12,519.6054687325947,1623.09176,mp-1102093,EuI2,https://materialsproject.org/materials/mp-1102093,-17.47136405830292,10.682204780756123,7.430670733680799,-5.271668244980479
-3.748859269285714,-104.96805954,2.7547366824275583,-1.7262216712470937,2.999999925,0.039012120803161465,0.7291000000000001,33,28,896.187972451653,1486.7231800000002,mp-571242,Rb2CoCl4,https://materialsproject.org/materials/mp-571242,20.80858696597872,-1.6421212761872992,5.002899647262418,-6.256247334963143
-5.095985105,-20.38394042,8.969188910361769,-0.4432410199999994,1.55e-06,2.1379898300325804e-07,0.0,194,4,84.4896460391126,456.36,mp-1769,SbPd,https://materialsproject.org/materials/mp-1769,51.52383814002439,32.07824508890521,-8.604250342815693,-0.5045126942092143
-3.1882732277777777,-28.69445905,3.0842461675943817,-1.5511273666944059,0.0,0.0,1.2844,225,9,263.85259186625575,490.0736,mp-28145,Rb2PdCl6,https://materialsproject.org/materials/mp-28145,7.392755218609722,-8.038807363501727,7.953007093265609,-4.470197205825581
-4.368396363703703,-235.89340364,5.470406751892844,-0.08885591013227491,0.0,0.0,1.0766000000000004,218,54,1221.2844799883514,4023.345856,mp-23420,Ge19(PI)4,https://materialsproject.org/materials/mp-23420,39.54562115515269,12.336690155463181,7.6055204116889765,-4.760883276635716
-5.705377704285715,-39.93764393,7.0428634382218265,-0.14065447857142846,7.1470401,0.5246610556855852,0.0,12,7,158.75405150596148,673.3253950000001,mp-1025239,Cr2CoTe4,https://materialsproject.org/materials/mp-1025239,53.721300846146924,33.39900141171466,-8.604250342815693,-0.5045126942092143
-4.2277964925,-84.55592985,3.699734003234029,-1.1964709080999996,5.000000125,0.0972500293762857,1.7885,62,20,599.180542085941,1334.9933800000001,mp-29636,KMnBr3,https://materialsproject.org/materials/mp-29636,17.24263421141674,-8.131143827876759,7.065475273275054,-0.8907139931500072
-3.012919075833333,-36.15502891,6.3214773611797614,-0.4018789035344825,1.085e-05,3.3817661042223874e-07,0.4057,12,12,373.90700268831324,1423.4201037999999,mp-1213692,CsAg3Te2,https://materialsproject.org/materials/mp-1213692,53.38315464907632,19.637253242400934,5.5057145204496365,-5.979516625906294
-6.913450620000001,-103.7017593,7.009393408236645,-0.7398354362500006,5.85e-05,2.200462211252894e-06,0.0,147,15,309.82708346832334,1307.8282800000002,mp-1220424,Nb6SnSe8,https://materialsproject.org/materials/mp-1220424,48.05150142440185,23.153587808050908,-8.604250342815693,-0.5045126942092143
-3.862591156,-19.31295578,5.728494677883567,-0.18736987743750005,0.0,0.0,0.5521000000000003,166,5,153.3546984189859,529.04,mp-571550,Sb2TeSe2,https://materialsproject.org/materials/mp-571550,68.32396295610856,26.31970739487244,6.406922430556213,-7.215057484813758
-4.3863811875,-35.0910495,5.534952796334673,-0.22688444117187426,2.9529612999999997,0.184844103593912,0.0,82,8,186.17852337160264,620.5751949999999,mp-1226100,CoCu2SnSe4,https://materialsproject.org/materials/mp-1226100,31.786147940856196,2.5673156777376707,-8.604250342815693,-0.5045126942092143
-3.020215850833333,-108.72777063,6.764513322109138,-0.3017710385600252,0.0,0.0,0.020099999999999785,136,36,1035.9626710571308,4220.1858076,mp-9206,CsAg5Te3,https://materialsproject.org/materials/mp-9206,52.72280187727155,19.633967932935718,-8.604250342815693,-0.5045126942092143
-4.660330183125,-74.56528293,7.474292718311785,-0.3265095024218745,7.5e-08,2.652814226343146e-09,0.0,84,16,329.48212101035244,1483.04,mp-21165,PdSe,https://materialsproject.org/materials/mp-21165,51.092824142698795,24.71662409420479,2.640643663373192,-4.857101090744322
-6.011626575,-108.20927835,4.306281293143762,-2.220361176646667,4.9999998,0.27724194803799285,1.0136999999999998,6,18,210.17858929486468,545.0568192000001,mp-763342,FeOF,https://materialsproject.org/materials/mp-763342,-41.37201191485924,-76.62340793179776,5.90584873450047,-0.3022013416258528
-6.0248925290476185,-126.52274311,6.124487550799923,-0.40520219348214176,19.011427899999997,0.5671217181592272,0.0,12,21,390.67523790940834,1440.9089900000001,mp-1226097,Cr6Co2CuSe12,https://materialsproject.org/materials/mp-1226097,23.903857084963995,17.060595962634196,-8.604250342815693,-0.5045126942092143
-4.076503268,-40.76503268,4.902812311210081,-0.12366692315624946,3.805e-05,1.6927703510157102e-06,0.6339000000000001,12,10,261.95943491674547,773.4464,mp-1078443,As2Se3,https://materialsproject.org/materials/mp-1078443,69.66979938961524,17.621330192803665,6.48334080107766,-6.168074319658599
-6.488146992142857,-90.83405789,5.473295766071897,-1.3056785082738094,3.0004302000000003,0.1235016450502137,0.7101999999999999,8,14,283.13151522902507,933.2286,mp-1246783,HfCrAgS4,https://materialsproject.org/materials/mp-1246783,17.832818769586954,4.360526751500428,5.844330708612257,-6.118298682390787
-6.663970764285715,-186.5911814,7.110344934412613,-1.9204014149107151,7.003208575,0.10844201513505312,0.3281999999999998,62,28,752.6220003118857,3222.68968,mp-542964,Eu(TmSe2)2,https://materialsproject.org/materials/mp-542964,-14.523957067060087,11.515611293404579,3.587096114794264,-5.550047615448147
-4.375032656086956,-201.25150218,4.484357364931473,-0.6428975227309776,0.0039647,3.845850897483113e-05,0.6013999999999999,12,46,1201.4212676317175,3244.49,mp-684021,Sn4Sb6S13,https://materialsproject.org/materials/mp-684021,70.218304763049,15.315943490153327,6.4907056524337605,-6.693527784283793
-3.6331595757142856,-25.43211703,6.057373070625457,0.002140304999999541,2.3e-06,1.1829492439452985e-07,0.0,119,7,226.58917205518557,826.56,mp-1224362,Ge(SbTe2)2,https://materialsproject.org/materials/mp-1224362,67.57599316183199,26.066022346713453,3.5237643592087813,-5.494306660989965
-4.530943073333334,-54.37131688,5.328951813942086,-0.4869231075520837,4.35e-06,1.8704666536717557e-07,0.5293999999999999,19,12,271.0295939311145,869.78,mp-1219871,PdSeS,https://materialsproject.org/materials/mp-1219871,35.9277850774778,7.774108431813237,6.082517111881925,-6.991079150930885
-4.908035278333333,-29.44821167,6.671713926801812,-0.1312889008333329,8.6883409,0.6723334500816466,0.0,164,6,150.60159152037355,605.08709,mp-1221890,Mn2CdTe3,https://materialsproject.org/materials/mp-1221890,51.369693800494176,33.412725882191054,-8.604250342815693,-0.5045126942092143
-5.30965782,-15.92897346,9.731599525603807,-0.26010543666666663,0.0,0.0,0.0,164,3,76.34442762517837,447.417,mp-2285,Te2Ir,https://materialsproject.org/materials/mp-2285,52.68315946332838,31.67445277810761,-8.604250342815693,-0.5045126942092143
-6.37148733,-82.82933529,5.569655567463879,-0.5176785152884619,14.000887900000002,0.6137799905386502,0.0,12,13,265.8399703071984,891.6605,mp-1104327,Cr5Se8,https://materialsproject.org/materials/mp-1104327,23.956166351169838,17.112008834760125,-8.604250342815693,-0.5045126942092143
-3.7804011933333337,-34.02361074,6.46345744481171,-0.14106142333333338,0.0009974,3.766452720135927e-05,0.1543000000000001,160,9,308.6130390541993,1201.2408,mp-1224417,Ge2Bi2Te5,https://materialsproject.org/materials/mp-1224417,66.91195534262452,24.47231621518725,4.180438591492615,-6.1152285916671225
-5.505277971428571,-77.0738916,6.2785773858160985,-1.9181132273214283,2.84e-05,1.1981539488971951e-06,0.0,229,14,276.2378239001188,1044.4684,mp-1147711,Ba4Pd3BrO6,https://materialsproject.org/materials/mp-1147711,25.924963450071672,18.122418622343968,-8.604250342815693,-0.5045126942092143
-4.637627901428573,-32.46339531,5.128871875320656,-0.0005413878571433528,1.59e-05,1.1057263873681817e-06,0.15409999999999968,215,7,167.58181047369595,517.6064,mp-569600,Ge3As4,https://materialsproject.org/materials/mp-569600,39.51182237537381,12.03771800032985,5.63347992578995,-6.869849944097867
-5.61952421225,-224.78096849,7.687690210300793,-0.4944140152500005,0.464956875,0.005579372434506843,0.0,57,40,971.1912229024537,4496.2612,mp-1200999,PrFeSb3,https://materialsproject.org/materials/mp-1200999,3.3439338538164307,34.260745799150946,-8.604250342815693,-0.5045126942092143
-6.057477035263157,-115.09206367,6.047275518912274,-0.7035464959539477,6e-07,1.6498781398791675e-08,0.0,12,19,423.8154742778713,1543.4319099999998,mp-624253,Nb4Co2PdSe12,https://materialsproject.org/materials/mp-624253,49.13502618482028,24.853170586550103,-8.604250342815693,-0.5045126942092143
-6.02030502,-36.12183012,4.3338673671845465,-2.2290396216466672,4.99999945,0.8370538282455809,1.6773,31,6,69.613584559065,181.6856064,mp-758560,FeOF,https://materialsproject.org/materials/mp-758560,-41.48946926740397,-76.55370662411131,5.9775273358416285,0.22127724511741687
-5.967608205,-71.61129846,6.751035461580873,-0.10863782476562517,5.9798773,0.2823717404585507,0.0,99,12,246.80188347809946,1003.39,mp-1225183,Fe3Te2Se,https://materialsproject.org/materials/mp-1225183,54.97557824868869,35.34679477433989,-8.604250342815693,-0.5045126942092143
-6.151786322142858,-86.12500851,5.009306008272798,-0.6367971140535715,14.9999981,0.5665783205399484,0.1187999999999998,12,14,308.53801338370613,930.7588,mp-1104473,KCr5Se8,https://materialsproject.org/materials/mp-1104473,23.973689338779288,17.136434284569436,-8.604250342815693,-0.5045126942092143
-7.788702923666666,-233.66108771,9.913919265442354,-0.6121987556666663,0.18245585,0.00282303799610118,0.0,59,30,753.2141958305493,4496.9160900000015,mp-616615,Hf8MnTe6,https://materialsproject.org/materials/mp-616615,43.581109950509024,27.52008545495081,-8.604250342815693,-0.5045126942092143
-7.575900473333332,-45.45540284,7.357414759296222,-0.4530940270138887,3e-07,5.312082821904841e-08,0.0,139,6,65.81635770720554,291.61509,mp-1025095,CeCo2B2C,https://materialsproject.org/materials/mp-1025095,8.635215353461655,39.24299945487389,-8.604250342815693,-0.5045126942092143
-5.59415437325,-223.76617493,7.9924281313471885,-0.4825106457500006,2.92375e-05,3.5871743773744493e-07,0.0,57,40,949.8721917084716,4571.88,mp-1201728,SmFeSb3,https://materialsproject.org/materials/mp-1201728,3.611905931538614,34.42855131937371,-8.604250342815693,-0.5045126942092143
-4.218281337666666,-126.54844013,3.857048124422687,-1.2217249077356322,2.9999991833333333,0.035985318610104136,0.5946000000000002,165,30,971.5680213645793,2256.7278,mp-568136,RbVBr3,https://materialsproject.org/materials/mp-568136,9.950497134007026,-6.036224639283597,5.756316830229451,-5.513341417703263
-3.860541611111112,-34.7448745,6.281420658884742,-0.06150575444444525,0.0,0.0,0.0,164,9,294.32477873606507,1113.36,mp-6997,Sb2Te,https://materialsproject.org/materials/mp-6997,66.72808368882792,25.90194887888075,-8.604250342815693,-0.5045126942092143
-4.31305485125,-34.50443881,7.747458097939088,-0.8247762987500007,0.00036899999999999997,1.798585664966973e-05,0.0,63,8,239.09619568515203,1115.534,mp-1080689,LuTe3,https://materialsproject.org/materials/mp-1080689,-9.791188243731613,24.12871164648561,-8.604250342815693,-0.5045126942092143
-3.3957607425,-27.16608594,5.7441267924099995,-0.7380187864166667,0.0002545,1.1367454930984026e-05,0.0,107,8,260.91675776362143,902.5617,mp-1223499,KBa(AgTe2)2,https://materialsproject.org/materials/mp-1223499,54.590507837171,20.23661839258513,6.189533792070304,-6.078744122212754
-5.4635233452500005,-218.54093381,9.162836664204896,-0.3239305575000003,2.175e-05,2.8255229566600407e-07,0.0,223,40,897.0937864996112,4950.153920000002,mp-1208367,Th3Co4Sn13,https://materialsproject.org/materials/mp-1208367,0.0927830562415832,48.11367645253378,-8.604250342815693,-0.5045126942092143
-4.720961262,-23.60480631,10.58350482424509,-0.39122117799999995,1e-07,1.1476289947922758e-08,0.0,156,5,101.54906180868244,647.2265689999998,mp-1219001,Sn2Pd2Au,https://materialsproject.org/materials/mp-1219001,38.13050684817159,32.88751528931522,-8.604250342815693,-0.5045126942092143
-4.458095232,-22.29047616,4.661369816655285,-1.4005449599560005,5.000000900000001,0.4473118064805888,1.1483999999999996,221,5,130.26782103053077,365.68034500000005,mp-570290,MnTlCl3,https://materialsproject.org/materials/mp-570290,17.86009036720976,-7.877116753841412,7.856789769061318,-4.117898097631395
-6.157567189285714,-86.20594065,3.0028088457465967,-1.5508406691071437,5.9999946,0.251429514041507,0.0,166,14,278.107070961705,502.910412,mp-1247211,Mg2ScV3S8,https://materialsproject.org/materials/mp-1247211,22.69239801341712,11.0108500624912,-8.604250342815693,-0.5045126942092143
-4.4822909875,-35.8583279,5.279707926266184,-0.1540646749218748,3.6553489000000003,0.2193508150975208,0.0,160,8,194.2079532641149,617.487,mp-1225270,FeCu2SnSe4,https://materialsproject.org/materials/mp-1225270,31.38557703770194,1.3444114281418498,-8.604250342815693,-0.5045126942092143
-3.4172499907142857,-95.68299974,3.695269524039967,-1.2148451953448276,3.0000155,0.030186261163077783,0.8219000000000001,62,28,1158.2214427551287,2577.4403952,mp-1214168,Cs2CoBr4,https://materialsproject.org/materials/mp-1214168,21.0351036503136,-1.6093121185821964,5.651284366246216,-6.296832433467102
-5.518205312,-55.18205312,2.4654794434727507,-1.2421185924374996,0.99999995,0.056151386234729365,0.029399999999999867,2,10,207.54722138361862,308.155,mp-1176510,LiVS3,https://materialsproject.org/materials/mp-1176510,19.66113801349196,4.1215600903337535,4.3452346604425856,-5.3834836455562245
-3.8806295,-38.806295,6.542171561516821,-0.33551576400000016,0.00028199999999999997,9.808718767537207e-06,0.9574999999999996,139,10,335.0535726173135,1320.04,mp-1219009,Sn4Te5Pb,https://materialsproject.org/materials/mp-1219009,66.88087272560243,23.540535763790746,6.085307931151777,-6.715459571938808
-6.022484047222222,-108.40471285,4.318077447216262,-2.231218648868889,4.999999533333333,0.27800137935788893,1.855,6,18,209.6044219594313,545.0568192000001,mp-759562,FeOF,https://materialsproject.org/materials/mp-759562,-41.59417533851771,-76.61985779428737,5.417512107142666,0.15776037386250172
-6.1731385692857135,-172.84787994,4.643878660279003,-1.191628063988096,2.99997775,0.06443607832956877,0.19289999999999985,31,28,542.5832223357759,1517.3932,mp-1247010,ZrCrAgS4,https://materialsproject.org/materials/mp-1247010,17.90095518885462,4.47889097098175,4.327086857474462,-5.448318006694336
-3.28566557,-105.14129824,6.8213074288363975,-0.1520755456249998,1e-06,1.069173302243368e-08,0.0,127,32,1090.0070875420124,4477.6264,mp-28639,Tl2GeTe5,https://materialsproject.org/materials/mp-28639,58.25622672682592,23.76316213741969,5.284337296480884,-5.636930368483336
-7.757155305333332,-232.71465916,9.963037985584076,-0.6272790299999997,0.00878775,0.00013658653493906948,0.0,59,30,749.8031028515903,4498.73,mp-623814,Hf8FeTe6,https://materialsproject.org/materials/mp-623814,43.58145996221692,27.51232974744131,-8.604250342815693,-0.5045126942092143
-6.608353623571429,-92.51695073,7.259357121535682,-0.7381276899107151,0.0572788,0.002238920784593967,0.0,12,14,298.1484873818572,1303.4119,mp-1104699,Nb5PbSe8,https://materialsproject.org/materials/mp-1104699,48.509191935046395,23.96499080558692,-8.604250342815693,-0.5045126942092143
-2.8321020968,-212.40765726,4.186744598628368,-0.8170002136000001,0.02378282,8.276472553664599e-05,0.0,38,75,3348.848473271457,8443.50715,mp-685901,K4Pt2I9,https://materialsproject.org/materials/mp-685901,10.038531069941364,-7.343709312566178,6.149102902274356,-4.844173856939476
-2.7730996325,-44.36959412,4.4188020289856365,-0.7890004145000002,5.5e-07,9.394506817546e-09,0.0,63,16,682.2854833567687,1815.6059,mp-1224094,K2PtI5,https://materialsproject.org/materials/mp-1224094,9.964044273241713,-7.0188838779361005,5.1733001509712055,-5.04992937951682
-5.613052677142859,-157.16547496,8.877900588694331,-0.8947221653571437,0.0,0.0,0.0,59,28,624.7358796703122,3340.0859,mp-542566,Pr3Sb5Pd6,https://materialsproject.org/materials/mp-542566,23.939008056518283,28.248790280897023,-8.604250342815693,-0.5045126942092143