energy_per_atom,energy,density,formation_energy_per_atom,total_magnetization_uB,total_magnetization_T,band_gap,sgr,num_sites,cell_volume,weight,mp_id,formula,URL,tsne_xrd_lin1_0,tsne_xrd_lin1_1,tsne_xrd_lin2_0,tsne_xrd_lin2_1
-6.071395399375,-97.14232639,4.275722006331447,-1.8918954601199989,7.285297999999999,0.5700564294051432,0.0,12,16,148.93847415771916,383.50167999999996,mp-1173905,Li2MnCoO4,https://materialsproject.org/materials/mp-1173905,2.860202188161157,-67.28434030515389,-11.669070823672495,-64.33383596446872
-5.5133929553571415,-154.37500275,4.287282515102588,-1.7330515297321436,9.00000015,0.4277280849298977,0.7572999999999999,2,28,245.2179045440453,633.11877,mp-1174197,Li4Co3O7,https://materialsproject.org/materials/mp-1174197,19.515625547355786,-73.55696956836674,-8.511736456775504,-77.44578781373303
-5.7992349815625,-185.57551941,4.190571188458958,-1.8638860181849992,24.0000009,0.9762783095474667,0.9062,1,32,286.493679409654,723.001465,mp-1175850,Li9Mn2Co5O16,https://materialsproject.org/materials/mp-1175850,16.36365404718467,-75.0522236419693,-9.977087635898068,-80.99819665735117
-6.339339831875,-101.42943731,4.146560275747362,-2.0196895945550004,15.999998300000001,1.2269221397332108,0.3804999999999996,12,16,151.97787252383512,379.50653000000005,mp-1174189,Li4Mn3CoO8,https://materialsproject.org/materials/mp-1174189,5.555626134827267,-75.01472694079872,-27.01479056184607,-75.17886914439279
-5.7780851540625,-184.89872493,4.203646794570432,-1.8427361906849988,18.0000016,0.7344934400714801,0.12959999999999994,1,32,285.60252972737675,723.001465,mp-1176224,Li9Mn2Co5O16,https://materialsproject.org/materials/mp-1176224,17.129267304903653,-79.50846428067308,-15.312521620958336,-85.92978133797254
-6.9002618675,-110.40418988,4.035981585654152,-2.4182913018750005,10.999998699999999,0.8590842616918763,1.9163999999999997,2,16,149.22249546907818,362.689,mp-753616,Li4VCr3O8,https://materialsproject.org/materials/mp-753616,2.011970056544322,-67.37916794211307,-10.916681041725429,-65.762222098086
-6.368730776666666,-76.42476932,4.23812793149631,-2.2477703490972227,6.9999999000000015,0.736886894991097,0.0145000000000004,12,12,110.70688432245358,282.55279,mp-771220,Li3Ti(CoO3)2,https://materialsproject.org/materials/mp-771220,3.7381718189343935,-67.36881175294104,-13.030937965794251,-67.06634478169973
-6.4406287759375,-206.10012083,3.923008251982152,-2.1549040673975,26.0003393,1.0182522148370086,0.7636000000000003,2,32,297.5781774844772,703.025715,mp-1100551,Li9Mn7O16,https://materialsproject.org/materials/mp-1100551,2.3691624834390383,-78.41168652663369,-28.85638749748797,-78.6755679220474
-5.804373283214286,-162.52245193,4.122047969475189,-1.8638600883721423,8.0000003,0.3702218984816649,0.0,8,28,251.82876015453814,625.12847,mp-1174832,Li4MnCo2O7,https://materialsproject.org/materials/mp-1174832,13.066959035811758,-76.18465374733056,-14.51938004319376,-81.47963461933892
-5.790312443125,-185.28999818,4.228445264782011,-1.8549634797474992,21.999999600000002,0.9030099711872994,0.6071999999999997,1,32,283.9275628347495,723.001465,mp-1176045,Li9Mn2Co5O16,https://materialsproject.org/materials/mp-1176045,21.88276334177106,-75.31919342087261,-10.811320219119256,-80.30021779926362
-5.345639712727274,-117.60407368,4.542007714034535,-1.412850475681819,4.6566602,0.25911337813951085,0.0,2,22,209.4412105784112,572.8763799999998,mp-754376,Li2Co2NiO6,https://materialsproject.org/materials/mp-754376,9.001087682105371,-67.92122335144667,-4.313351164997886,-70.19200036955071
-5.83296666875,-93.3274667,4.346593526127763,-1.79361702756,15.9999997,1.2595899485990478,0.4346999999999999,12,16,148.03629790165238,387.49683,mp-867618,Li4MnCo3O8,https://materialsproject.org/materials/mp-867618,4.432177153359312,-76.54989327744488,-27.257480069166302,-76.18689325195372
-5.832945297916668,-139.99068715,4.043542344411181,-1.8855464611216668,16.0000002,0.8611706548510456,0.3767,1,24,216.52507274997703,527.2554749999998,mp-1175080,Li7Mn2(CoO4)3,https://materialsproject.org/materials/mp-1175080,14.779042306851167,-80.61103658327613,-13.426647806546454,-86.33151588320486
-5.749609646875,-183.98750869999998,4.16819535680121,-1.8142606834974997,21.1470344,0.8556313665419505,0.0,1,32,288.03164339471994,723.001465,mp-1176202,Li9Mn2Co5O16,https://materialsproject.org/materials/mp-1176202,18.531643355824766,-79.76604978442217,-12.658692130065674,-86.76067600028179
-5.80765663125,-185.84501219999999,4.247596020261342,-1.8723076678725,19.9999992,0.8246361005913534,0.6534,1,32,282.64744407963406,723.001465,mp-1175764,Li9Mn2Co5O16,https://materialsproject.org/materials/mp-1175764,16.701029076138717,-73.54968766617408,-10.143467902016317,-81.26213933082559
-7.149467304444443,-128.69041148,3.9999210952756985,-1.822912501602222,8.0000008,0.4354530637298365,0.6961999999999999,64,18,214.1046539095489,515.73718,mp-753734,Mn2CrO6,https://materialsproject.org/materials/mp-753734,21.99131124864865,-66.47999887311622,-2.9747118126858734,-71.50148059572756
-5.784694608928571,-161.97144905,4.080539066291955,-1.8441814140864283,9.0000004,0.4123054994345136,0.039899999999999824,1,28,254.39046473674858,625.12847,mp-1174742,Li4MnCo2O7,https://materialsproject.org/materials/mp-1174742,14.07677289437692,-83.89582624217222,-17.022719706802494,-87.8001429672707
-5.489103649285715,-153.69490218,4.185577940983387,-1.7087622236607156,11.00010105,0.5103818902732815,0.0,12,28,251.1764084590854,633.11877,mp-1174353,Li4Co3O7,https://materialsproject.org/materials/mp-1174353,15.273916286769389,-78.8910973030642,-13.021579231008015,-84.24278011308284
-5.7779106503125,-184.89314081,4.133277420474537,-1.8425616869349997,24.0000003,0.9629305434982448,0.17810000000000015,6,32,290.464935322889,723.001465,mp-1100597,Li9Mn2Co5O16,https://materialsproject.org/materials/mp-1100597,2.117496086168218,-72.77211022007407,-21.82099399516376,-75.39510398159368
-5.829791736250002,-139.91500167,4.037129112649859,-1.882392899455,17.3056274,0.9299663337901044,0.0,1,24,216.86903635256076,527.2554749999998,mp-1175086,Li7Mn2(CoO4)3,https://materialsproject.org/materials/mp-1175086,10.959679000863847,-80.15998066288448,-14.206761911254079,-85.88955481094631
-6.9165489646875,-221.32956687,3.9428226693301465,-2.4628907140625005,8.99999955,0.34533983761786674,1.024,2,32,303.71989062197207,721.1596000000002,mp-867720,Li4V3CrO8,https://materialsproject.org/materials/mp-867720,2.918483110280844,-65.97398031794775,-10.197603207035046,-65.23847071642332
-4.4604441575000005,-160.57598967,4.6771499308198035,-0.4380818700000009,5e-08,1.5080941320415573e-09,0.0,156,36,386.383864407164,1088.3064,mvc-10289,NiO2,https://materialsproject.org/materials/mvc-10289,26.654258120234104,-69.2396281157079,-14.012795995947645,-72.98064304036092
-5.763087263125,-184.41879242,4.179513836934265,-1.827738299747499,24.000000600000003,0.9737022637117736,0.0,2,32,287.25162912496324,723.001465,mp-1175763,Li9Mn2Co5O16,https://materialsproject.org/materials/mp-1175763,12.599880474138429,-72.85477576684572,-11.878586765418625,-83.81910472006872
-5.5041256309375,-176.13202019,4.273885849783136,-1.7089269656249997,23.9999999,0.9848044696322298,0.0,12,32,284.01328588656565,730.991765,mp-1175445,Li9Co7O16,https://materialsproject.org/materials/mp-1175445,21.838253620061305,-75.11748259361386,-9.798696589122402,-78.26656446426891
-6.210145671666666,-149.04349612,3.9680700134354394,-2.075879770784999,15.9999853,0.8581002920905926,0.6393999999999997,1,24,217.29961726492127,519.265175,mp-1175186,Li7Mn4CoO12,https://materialsproject.org/materials/mp-1175186,18.723394293635266,-83.41153329735447,-16.064462157376457,-84.25811254187309
-5.881169691666668,-141.1480726,4.1419394740367,-1.9337708548716663,13.9999995,0.7718608392695271,0.9918999999999998,1,24,211.3812395809737,527.2554749999998,mp-1175034,Li7Mn2(CoO4)3,https://materialsproject.org/materials/mp-1175034,19.116436449040712,-73.60071978402212,-9.6207734537217,-77.80751662410286
-5.7599162034375,-184.31731851,4.137944172772465,-1.8245672400599997,22.0000014,0.8836829898387655,0.0,1,32,290.13735045277275,723.001465,mp-1176164,Li9Mn2Co5O16,https://materialsproject.org/materials/mp-1176164,13.77161035887521,-82.93980100772349,-15.105465540354695,-87.50645789367395
-6.085277358125,-97.36443773,4.288252640328151,-1.90577741887,7.5982983,0.596290333949306,0.0,12,16,148.50326344038712,383.50167999999996,mp-1173884,Li2MnCoO4,https://materialsproject.org/materials/mp-1173884,6.199334152204961,-79.19384964416894,-26.30285056997536,-75.68095022491926
-5.7858924209375,-185.14855747,4.210518453797532,-1.8505434575599988,24.780721399999997,1.0128349518528041,0.0,1,32,285.1364200831085,723.001465,mp-1175844,Li9Mn2Co5O16,https://materialsproject.org/materials/mp-1175844,14.016430796952655,-74.46639519752668,-9.712366237140778,-78.53829305742795
-5.765560113125,-184.49792362,4.181705594094522,-1.8302111497474989,22.7386171,0.9230105437416232,0.0,1,32,287.10107194183223,723.001465,mp-1176141,Li9Mn2Co5O16,https://materialsproject.org/materials/mp-1176141,16.232493982582955,-75.4533054820238,-10.083700366144313,-81.89195039127237
-6.909834266250002,-165.83602239,3.9916001742053187,-2.442019858125001,5.000000099999999,0.2582167367964816,1.9311,1,24,225.66440019003034,542.4516,mp-769620,Li2VCrO4,https://materialsproject.org/materials/mp-769620,2.60373339850938,-66.81501721603665,-10.404609991174473,-65.41091461591732
-5.792445656875,-185.35826102,4.191253247276018,-1.8570966934974988,23.9999995,0.9764371519842,0.5662000000000003,1,32,286.447057187482,723.001465,mp-1175822,Li9Mn2Co5O16,https://materialsproject.org/materials/mp-1175822,15.756012695841514,-75.5926031363909,-10.891887458625526,-82.21736633931577
-5.826132834166668,-139.82718802,4.094450645721795,-1.8787339973716672,14.0000005,0.7630112311644793,0.0,10,24,213.8329109440029,527.2554749999998,mp-1174892,Li7Mn2(CoO4)3,https://materialsproject.org/materials/mp-1174892,18.80487515568968,-70.62018963815197,-9.728775024787852,-74.51002956960689
-5.825971476875,-93.21554363,4.341525474386015,-1.7866218356849997,15.9999994,1.258121265242835,0.4586999999999999,2,16,148.20910711856212,387.49683,mp-1174071,Li4MnCo3O8,https://materialsproject.org/materials/mp-1174071,4.972503828382562,-74.34837118740191,-26.32364050394999,-76.21374130872904
-5.7793436296875,-184.93899615,4.214438092117443,-1.8439946663099995,22.0000012,0.9000187204992776,0.49200000000000005,1,32,284.87122894395037,723.001465,mp-1175781,Li9Mn2Co5O16,https://materialsproject.org/materials/mp-1175781,18.8958427471282,-73.73766462018334,-9.015177695893328,-77.94305345427685
-5.7604118925,-184.33318056,4.125641911370408,-1.825062929122499,22.0000147,0.881056300193742,0.0,1,32,291.0025117063302,723.001465,mp-1176194,Li9Mn2Co5O16,https://materialsproject.org/materials/mp-1176194,12.761636843143473,-83.65869693734786,-15.40856686486798,-87.17719960175853
-5.7883737290625,-185.22795933,4.212859665939791,-1.8530247656849996,20.000000399999998,0.8178923699740189,0.4699,2,32,284.9779612447342,723.001465,mp-1175387,Li9Mn2Co5O16,https://materialsproject.org/materials/mp-1175387,17.309085634061166,-79.6369961403724,-11.345095476398974,-86.18424663810225
-5.795806138125,-185.46579642,4.208129278376683,-1.8604571747474996,22.0000017,0.8986714556280032,0.37280000000000013,2,32,285.29830696475733,723.001465,mp-1175628,Li9Mn2Co5O16,https://materialsproject.org/materials/mp-1175628,13.989176328971247,-74.59986575612008,-10.419852853748274,-80.22351760681664
-5.8039727325,-185.72712744,4.257465218454282,-1.8686237691224996,19.9999995,0.8265521372713633,0.7174,1,32,281.99224115930036,723.001465,mp-1175794,Li9Mn2Co5O16,https://materialsproject.org/materials/mp-1175794,21.95111888344048,-75.17396526700676,-10.12527928337489,-80.48932860832124
-6.4378673265625,-206.01175445,3.936759543862863,-2.1521426180225003,26.0000381,1.0218096495583104,0.8569999999999998,12,32,296.53872248847716,703.025715,mp-1100499,Li9Mn7O16,https://materialsproject.org/materials/mp-1100499,11.601929593174429,-83.24901478718931,-19.31968360238297,-86.42283160912953
-5.796038786875,-185.47324118,4.220536867456051,-1.8606898234974996,22.0000003,0.9013211139527288,0.3735,2,32,284.4595832978339,723.001465,mp-1232429,Li9Mn2Co5O16,https://materialsproject.org/materials/mp-1232429,16.354647084386393,-73.81388937646182,-10.261198581016595,-78.93996163621884
-5.127649459285714,-287.14836972,5.034724309361902,-1.3791184796428573,1.99999955,0.04045974747859225,0.5037000000000003,96,56,576.0818036030219,1746.6696,mp-760774,Li2Ni3SnO8,https://materialsproject.org/materials/mp-760774,22.9906551316361,-78.73924862914009,-7.432777336895697,-72.82166715681859
-5.8528379345833335,-140.46811043,4.044505084087266,-1.9054390977883329,17.9717444,0.9675264753469888,0.0,2,24,216.4735318879755,527.2554749999998,mp-1174851,Li7Mn2(CoO4)3,https://materialsproject.org/materials/mp-1174851,16.097444633051225,-75.9520209690437,-12.796390516370268,-84.46412142777476
-5.872399886666668,-140.93759728,4.111398780551948,-1.9250010498716663,14.0,0.7661695315823744,0.6545000000000001,1,24,212.9514423248687,527.2554749999998,mp-1174943,Li7Mn2(CoO4)3,https://materialsproject.org/materials/mp-1174943,19.996806873855427,-72.9273278262209,-9.538233490028015,-78.20290714213495
-6.680414934666668,-100.20622402,4.1476995950486675,-2.1709252413333333,9.9999993,0.8002854159840206,0.9904000000000002,166,15,145.62384524333075,363.73969500000004,mp-759061,Li3Cr3CoO8,https://materialsproject.org/materials/mp-759061,15.141311607460947,-68.76224635466251,-11.399948186529784,-70.58634261927041
-6.380729305416666,-153.13750333,3.8721924525087714,-2.153029872491666,17.9999967,0.949342268485996,0.7311000000000001,10,24,220.96680450371747,515.270025,mp-1175363,Li7Mn5O12,https://materialsproject.org/materials/mp-1175363,12.676313765651503,-81.29756622331742,-18.632579285926553,-84.02777318113252
-6.19448602375,-148.66766457,3.954554562184629,-2.060220122868333,16.0000042,0.8551785683901179,0.4394999999999998,12,24,218.04228052516498,519.265175,mp-1175279,Li7Mn4CoO12,https://materialsproject.org/materials/mp-1175279,13.436314646461087,-80.23453620668244,-18.01286406581764,-83.87858125993219
-5.787606533571428,-162.05298294,4.1985198517384905,-1.8470933387292852,7.00000025,0.32995394502349096,0.2775000000000003,12,28,247.24194861687766,625.12847,mp-1174548,Li4MnCo2O7,https://materialsproject.org/materials/mp-1174548,21.96881768942481,-80.31365070470248,-9.63798058418219,-88.22026670372253
-5.785731903214287,-162.00049329,4.0736735748588435,-1.8452187083721432,9.0000001,0.4116117832821125,0.1604000000000001,1,28,254.81919706500736,625.12847,mp-1174731,Li4MnCo2O7,https://materialsproject.org/materials/mp-1174731,14.454147998763075,-83.77600202060263,-16.822645933833293,-87.62066134324967
-5.783609866875,-185.07551574,4.168281631981685,-1.8482609034974988,22.0000009,0.8901617173962769,0.4512999999999998,1,32,288.02568170973547,723.001465,mp-1176008,Li9Mn2Co5O16,https://materialsproject.org/materials/mp-1176008,16.22369745433385,-75.52520520012071,-11.1223325424178,-82.94596773124087
-6.3979927759375,-204.73576883,4.209867617216426,-2.1524565140625,9.99999905,0.3987932591281734,0.0,2,32,292.2332160503717,740.8818,mp-753765,Li4Cr3NiO8,https://materialsproject.org/materials/mp-753765,14.796023975427758,-68.6989521006305,-11.277940160003956,-69.71002552626896
-5.825528890357143,-163.11480893,4.160856812378727,-1.8850156955150013,10.000000199999999,0.4671343870931597,0.9219999999999996,1,28,249.47992114562192,625.12847,mp-1174594,Li4MnCo2O7,https://materialsproject.org/materials/mp-1174594,13.495676609852481,-75.56345390087509,-11.989188803073889,-81.16502729812319
-5.839942062857142,-163.51837776,4.181625447201027,-1.8994288680150009,8.9999999,0.4225194379132081,0.9198999999999996,1,28,248.24084379563166,625.12847,mp-1174630,Li4MnCo2O7,https://materialsproject.org/materials/mp-1174630,13.814824372245909,-74.82650025199733,-10.222213775297345,-81.00551691478917
-6.82239542,-109.15832672,3.9105998589356648,-2.5684937393750005,9.0000001,0.7292254247154604,3.1242,12,16,143.83286781226786,338.7290386,mp-754006,Li4AlCr3O8,https://materialsproject.org/materials/mp-754006,16.39814883320573,-69.6605133822448,-11.52680703837016,-70.85072080614901
-5.7585870971875,-184.27478711,4.149329222009763,-1.8232381338099997,25.999999300000002,1.0472259385239853,0.0,8,32,289.34126321945257,723.001465,mp-1100626,Li9Mn2Co5O16,https://materialsproject.org/materials/mp-1100626,16.484352371552514,-76.54295144075864,-13.451878836434355,-83.73155502618323
-5.7947331240625,-185.43145997,4.1962741053144486,-1.859384160684999,24.0000001,0.9776068867793232,0.6528999999999998,1,32,286.10432218648606,723.001465,mp-1175838,Li9Mn2Co5O16,https://materialsproject.org/materials/mp-1175838,17.70230673580532,-75.25363091497351,-11.567705321303842,-81.19370679015431
-5.7488476115625,-183.96312357,4.110723508615365,-1.8134986481849988,26.0036576,1.0376284367451558,0.0,2,32,292.0586013857419,723.001465,mp-1175673,Li9Mn2Co5O16,https://materialsproject.org/materials/mp-1175673,10.922950599762627,-80.22500240886805,-14.752128222349448,-85.92138596499962
-5.7755731321875,-184.81834023,4.132808726027562,-1.840224168809999,26.0000002,1.0430564592734062,0.22840000000000016,8,32,290.4978764317695,723.001465,mp-1100664,Li9Mn2Co5O16,https://materialsproject.org/materials/mp-1100664,5.6803737451668885,-70.81254619755676,-21.98525420955459,-74.04299148857797
-7.141902191475411,-435.65603368,4.151273218217777,-1.7959515531173766,57.0000004,0.9258503000781609,0.0,82,61,717.4828335006741,1793.6749450000002,mp-766493,Mn21O40,https://materialsproject.org/materials/mp-766493,16.943628282328376,-69.20141957084711,-9.505638118085779,-70.74515893877494
-6.61154409625,-105.78470554,4.227254227331553,-2.2339719350000005,9.9999999,0.8070864533951713,2.1129,166,16,144.39673230784487,367.5925,mp-759199,Li4Cr3FeO8,https://materialsproject.org/materials/mp-759199,15.768635087746134,-69.09469478213133,-10.857386171142576,-70.56883086785325
-6.950410721578948,-132.05780371,3.8147290719068647,-2.5253473449968418,10.000000199999999,0.6010061855653123,1.4687000000000006,8,19,193.90923563755103,445.4645032,mp-765807,Li4V5O9F,https://materialsproject.org/materials/mp-765807,3.651071785782469,-63.914758931274,-8.924489808225387,-65.28453502595184
-6.243762122142857,-87.41266971,4.269291456881035,-1.7397582844228572,7.00000035,0.5674493676492396,0.6197999999999999,74,14,143.76341245174675,369.61967999999996,mp-1176646,LiMnCoO4,https://materialsproject.org/materials/mp-1176646,16.434137741574446,-71.05743702812994,-12.584291858238867,-78.8879241979933
-6.4221379015625,-205.50841285,3.9350546623257663,-2.1364131930225003,25.9994205,1.0213428759250611,0.488,2,32,296.6671993296873,703.025715,mp-1100501,Li9Mn7O16,https://materialsproject.org/materials/mp-1100501,2.4020653223545576,-78.31685159866477,-28.75595950039865,-78.67706798175655
-5.802547118125,-185.68150778,4.244422296286894,-1.8671981547474996,20.0000008,0.8240200139056518,0.5220000000000002,3,32,282.85879085593774,723.001465,mp-1176280,Li9Mn2Co5O16,https://materialsproject.org/materials/mp-1176280,21.87431483968328,-75.15188172528897,-10.148484603829516,-80.6006239293061
-5.850225223333332,-140.40540536,4.079642486901344,-1.902826386538333,18.000000699999998,0.9774664659482024,0.4411000000000001,2,24,214.6090749624101,527.2554749999998,mp-1174864,Li7Mn2(CoO4)3,https://materialsproject.org/materials/mp-1174864,13.98735424725225,-74.49805076105815,-10.572939771459858,-79.16259953166569
-5.8500922808333335,-140.40221474,4.17480314014122,-1.9026934440383327,10.0000006,0.5557036718391904,0.3047999999999997,12,24,209.71726591678944,527.2554749999998,mp-1174508,Li7Mn2(CoO4)3,https://materialsproject.org/materials/mp-1174508,18.9716356994932,-78.57186274939455,-8.712795200186902,-81.75814684887568