energy_per_atom,energy,density,formation_energy_per_atom,total_magnetization_uB,total_magnetization_T,band_gap,sgr,num_sites,cell_volume,weight,mp_id,formula,URL,tsne_cry_lin1_0,tsne_cry_lin1_1,tsne_cry_lin2_0,tsne_cry_lin2_1
-5.097617973999999,-25.48808987,3.5094127402182043,-1.3193281668663794,5.0000012,0.4756379802351337,0.7254,119,5,122.50985049358336,258.9144969,mp-1225894,CsLiMnS2,https://materialsproject.org/materials/mp-1225894,25.6688466878792,1.0899345269055625,3.801837462795989,-5.457639081270544
-6.894054221666668,-41.36432533,8.01826784733449,-0.7200675200000006,6.5e-07,5.472901742122034e-08,0.0,129,6,138.41180527437453,668.3510000000001,mp-13963,HfSiTe,https://materialsproject.org/materials/mp-13963,43.723352419245,27.472522682448048,-8.604250342815693,-0.5045126942092143
-4.726065088125,-226.85112423,4.192521425581666,-0.8604773340486117,0.0,0.0,0.9116,14,48,1225.2771386941206,3093.57415424,mp-28566,NaTiSe4,https://materialsproject.org/materials/mp-28566,65.69125438515394,14.38322396095585,6.528396294496582,-6.229356266274499
-8.11900432025,-324.76017281,6.579398296697531,-3.10059563725,20.9999959,0.5021855090446132,0.5922999999999989,6,40,487.34045095742925,1930.9434199999998,mp-1076584,La6Sm2V3Cr5O24,https://materialsproject.org/materials/mp-1076584,-4.685594568746853,-6.79144366933834,4.373493516500592,-3.7279960745302536
-3.4826358120000003,-17.41317906,4.830612210258502,-0.7834283821379315,9.000000000000001e-07,5.729385775136522e-08,0.5736000000000003,71,5,183.06776165816476,532.5555999999998,mp-1070356,Rb2Te2Pd,https://materialsproject.org/materials/mp-1070356,64.8645933712745,17.55911047840599,6.138299150745684,-6.3816327999856926
-6.603851213076923,-85.85006577,2.8604722874240225,-1.8879933287820525,0.732336,0.0301229784213831,0.0,12,13,283.32826388836895,488.066,mvc-16037,Ca(TiS2)4,https://materialsproject.org/materials/mvc-16037,20.10767730601353,14.325843382176304,-8.604250342815693,-0.5045126942092143
-6.0972522575,-24.38900903,8.832463291335808,-0.8594986899999997,2e-06,2.9273911806571386e-07,0.0,225,4,79.62082313811982,423.50585,mp-865513,YSbPd2,https://materialsproject.org/materials/mp-865513,28.644901341062173,41.40400065967087,-8.604250342815693,-0.5045126942092143
-4.085165246428572,-57.19231345,6.692072086168077,-0.4364935225000001,6.775e-05,1.7594029902762332e-06,0.0,122,14,448.7675039229952,1808.56,mp-35197,Sm(SbTe2)2,https://materialsproject.org/materials/mp-35197,67.00862270681122,25.37857722731162,-8.604250342815693,-0.5045126942092143
-3.290461345,-59.22830421,4.468774751178503,-0.6483634242777774,3.0,0.045859834928888336,0.8526,14,18,762.3706969702906,2051.66084,mp-30216,K2ReI6,https://materialsproject.org/materials/mp-30216,9.498480553759958,-8.154348018432733,6.9636485440442195,-4.440795229005782
-6.284686699444443,-226.24872118,5.813536942771593,-1.03199203421875,13.823545075,0.1670635294080065,0.0,14,36,964.3067536123044,3376.032,mp-628758,Eu2Ge2Se5,https://materialsproject.org/materials/mp-628758,-14.841966011200874,11.67504637326383,4.053321997535623,-5.9717483136936025
-4.233843095,-59.27380333,2.476018838526977,-1.8264922067200002,4.9999997,0.17897795993247412,2.0864000000000003,55,14,325.5726034007965,485.45916712000013,mp-27280,Na2MnCl4,https://materialsproject.org/materials/mp-27280,17.301659501617202,-7.91839215229617,8.214961174994615,-0.7615760586090728
-5.7851952199999985,-98.34831874,8.077415645215106,-0.3424567288235293,0.1002331,0.0028332558851176465,0.0,204,17,412.2899897218245,2005.516,mp-1189811,Ce(Sb3Ru)4,https://materialsproject.org/materials/mp-1189811,34.48887936386825,28.761823054634,-8.604250342815693,-0.5045126942092143
-4.218066957,-42.18066957,3.8812680670120048,-1.2215105270689657,3.0000004000000002,0.10863389836519728,0.5905999999999998,194,10,321.8350763936657,752.2426,mp-570099,RbVBr3,https://materialsproject.org/materials/mp-570099,9.945029895855956,-6.0193226081984506,5.710622772068629,-5.500744062861875
-5.835065575000002,-70.0207869,4.47234314766347,-1.3366452919980247,4.9999997,0.1527754627936974,0.5653999999999999,63,12,381.4115126934044,1027.2586938,mp-1213646,CsYMnSe3,https://materialsproject.org/materials/mp-1213646,25.97480706912427,1.0549972635896248,4.185864416882764,-5.8020197468208154
-5.453322639545455,-119.97309807,7.153258696694987,-0.6044416422727278,4.6648739,0.08603568569530214,0.0,8,22,631.8859685614344,2722.034045000001,mp-1227432,Ce6MnSb15,https://materialsproject.org/materials/mp-1227432,3.1152600954271192,33.07466570290637,-8.604250342815693,-0.5045126942092143
-5.0268101473170725,-206.09921604,8.376277374329682,-0.4875435023170729,3.2987242999999995,0.040356087787098524,0.0,204,41,952.6083613909344,4805.254,mp-1202847,Ce4Sn25Pd12,https://materialsproject.org/materials/mp-1202847,2.9042144059564774,48.54238529011125,-8.604250342815693,-0.5045126942092143
-5.357244990714285,-75.00142987,6.846850880209029,-0.3670399827678565,3.9953752999999996,0.16512458113823664,0.0,216,14,281.9832287592887,1162.693,mp-1225080,FeCu(RhSe2)4,https://materialsproject.org/materials/mp-1225080,22.079299667466678,9.893245609924078,-8.604250342815693,-0.5045126942092143
-6.011647794999999,-72.13977354,4.293144056768724,-2.220382396646667,5.00000005,0.414594263586536,1.6596000000000002,14,12,140.5478308875329,363.3712128,mp-759543,FeOF,https://materialsproject.org/materials/mp-759543,-41.171355840298595,-76.1793380535573,6.885743753754133,-1.737019834308229
-4.37729798375,-175.09191935,9.662677657023425,-0.5715473802500007,3.75e-08,4.607679084374528e-10,0.0,223,40,948.4762739944873,5519.184,mp-1209783,SmIn3Pt,https://materialsproject.org/materials/mp-1209783,6.09403047880834,53.792479428679975,-8.604250342815693,-0.5045126942092143
-6.013872605555557,-108.2497069,2.990379750180076,-1.3821384374791674,1.9840830000000003,0.06011725924715,0.0,1,18,384.62551496358736,692.6524,mp-675593,K3(VS2)5,https://materialsproject.org/materials/mp-675593,19.707223560854747,13.444602300564377,-8.604250342815693,-0.5045126942092143
-6.612709404444446,-59.51438464,8.464876043116424,-0.2926635994444445,3.2353965,0.27380600425639195,0.0,189,9,137.70888800745757,701.9941349999999,mp-610972,MnGePd,https://materialsproject.org/materials/mp-610972,46.39917313924894,38.77808871806898,-8.604250342815693,-0.5045126942092143
-6.25608446142857,-87.58518246,4.4204242148003665,-1.2745739561309526,2.99999845,0.1226719245555779,0.5796000000000001,8,14,285.00552494420737,758.6966,mp-1246416,ZrCrAgS4,https://materialsproject.org/materials/mp-1246416,17.85298243311042,4.370438546674765,5.802180587842376,-6.113774983409165
-5.169181879047619,-217.10563892,3.6028768353828355,-1.0151446356547624,4.99999995,0.06530897215885634,0.41110000000000013,15,42,892.2253919164365,1935.86427,mp-662815,Mn(GaS2)2,https://materialsproject.org/materials/mp-662815,26.24630649211877,2.647565907912385,5.332794377583835,-5.762575343960749
-6.21698387975,-248.67935519,10.513327320321537,-0.25605177499999954,0.00018235,2.2422539507475707e-06,0.0,223,40,947.7600476822628,6000.52836,mp-1208301,Th3Sn13Os4,https://materialsproject.org/materials/mp-1208301,0.3090147109691543,49.82077811843714,-8.604250342815693,-0.5045126942092143
-3.269665461,-32.69665461,4.40737667897919,-0.9575272862413796,2.00000015,0.07171634597416028,0.8212,194,10,325.00444601049713,862.6217037999999,mp-1080570,CsNiBr3,https://materialsproject.org/materials/mp-1080570,19.940645979008416,-1.6651826912780459,2.9552787336587314,-4.9435801460039634
-4.607502542083333,-110.58006101,7.09201995457474,-1.1046219675694449,0.0,0.0,2.2744,45,24,456.9042262661618,1951.3988,mp-1191720,TlAgTeO3,https://materialsproject.org/materials/mp-1191720,13.4274478761329,-17.581385630439975,7.2478372355035665,-1.8261742503746008
-5.3480303375,-21.39212135,5.128736083897009,-0.8564861342968753,0.05101169999999999,0.008508480620504973,0.0,164,4,69.87071869514352,215.8025,mp-1206637,LiVSe2,https://materialsproject.org/materials/mp-1206637,23.18293263986721,15.832889598922256,2.3314022857489154,-4.567231701020174
-6.9773304475,-111.63728716,7.390216641279781,-0.6124703218749996,20.9842328,0.5185494352234459,0.0,63,16,471.6071248796037,2098.884,mp-1212891,Eu3Sn5,https://materialsproject.org/materials/mp-1212891,-0.3070635080019933,51.62699311914289,-8.604250342815693,-0.5045126942092143
-4.77083037375,-38.16664299,6.627205293394907,-0.053416667916666334,9.2174901,0.5368096741720663,0.0,139,8,200.11045224083543,798.64009,mp-1221863,Mn2InCuTe4,https://materialsproject.org/materials/mp-1221863,54.114221057775325,21.60777910155301,-8.604250342815693,-0.5045126942092143
-6.134358225714286,-85.88101516,5.931264870038391,-0.5296108141964291,15.0000005,0.5696905551828028,0.000399999999999956,12,14,306.85251111339613,1096.0438,mp-3407,TlCr5Se8,https://materialsproject.org/materials/mp-3407,23.95873846855108,17.116223538014406,-8.604250342815693,-0.5045126942092143
-5.702793732142857,-79.83911225,4.732225480464561,-0.7262593999107148,6.00000065,0.2243354556589812,0.6377999999999999,227,14,311.69569698690134,888.2744,mp-996957,Mg(CrSe2)2,https://materialsproject.org/materials/mp-996957,21.916865901035738,10.027953730890074,4.418037026901558,-3.8694484775485467
-4.2185288225,-16.87411529,3.928457562710096,-1.0069770307812504,9.6e-06,1.3946617991109293e-06,0.0,164,4,80.2194638785502,189.78099999999998,mp-27683,LiSnS2,https://materialsproject.org/materials/mp-27683,42.483220485154405,-0.6098244024044147,-8.604250342815693,-0.5045126942092143
-7.66810057075,-306.72402283,3.8832730503180266,-2.9031897520000016,1.999999725,0.05410871595827037,1.0816999999999997,8,40,430.7647285185482,1007.3699088,mp-765647,AlVO3,https://materialsproject.org/materials/mp-765647,-30.457419875116734,-54.428963873912565,6.6302690251308505,-2.96331294222225
-5.0173627028571435,-70.24307784,11.825302122627935,-0.3107947895982142,5.5e-07,1.9655829795462576e-08,0.0,199,14,326.09844975293174,2322.2656,mp-1103724,Bi2Pt3Se2,https://materialsproject.org/materials/mp-1103724,26.581350650130148,39.27712975977289,-8.604250342815693,-0.5045126942092143
-6.019019238235295,-102.32332705,8.048355687072181,-0.3200273335294124,6.430626999999999,0.18005473691694346,0.0,204,17,416.2231156447791,2017.364,mp-20855,Eu(Sb3Ru)4,https://materialsproject.org/materials/mp-20855,34.50463679960857,28.775456676936173,-8.604250342815693,-0.5045126942092143
-5.357502325714286,-150.01006512,3.461350754581898,-1.6195062895628092,8.000015,0.14695035665806386,1.0686999999999998,62,28,634.4502668230375,1322.4951999999996,mp-755676,Rb2Fe2O3,https://materialsproject.org/materials/mp-755676,-32.54087617091002,-30.548997412362127,-8.604250342815693,-0.5045126942092143
-6.77985855,-88.13816115,4.7006741453745375,-1.2096853609615392,2.0000001,0.09921878782274493,0.25729999999999986,160,13,234.9165034364863,665.0045,mp-1216339,VGaMo3S8,https://materialsproject.org/materials/mp-1216339,18.878109226336264,3.6318121294653096,-6.164559367788201,-3.154662960350247
-4.1170069300000005,-82.34013859999999,4.556818855603961,-0.7573765426666661,5.000000175,0.09762928640683796,1.6256000000000002,62,20,596.8529326275865,1637.8721799999996,mp-28912,MnInBr3,https://materialsproject.org/materials/mp-28912,17.156543534600974,-8.326214497056593,7.202833363624023,-2.4522124353164285
-6.225556361428572,-174.31557812,4.29093943475021,-1.2440458561309526,2.99986265,0.05953659034230741,0.3803999999999999,59,28,587.2118881997708,1517.3932,mp-1247006,ZrCrAgS4,https://materialsproject.org/materials/mp-1247006,17.80821124811359,4.362585626918678,5.661378824480963,-6.0677184159092405
-6.3893710675,-51.11496854,8.178081734887465,0.05132660124999955,5.495227,0.4463849573307602,0.0,164,8,143.4674944712923,706.5711,mp-1226271,CrFe3Sb4,https://materialsproject.org/materials/mp-1226271,3.5811291641125225,37.57246637972288,-8.604250342815693,-0.5045126942092143
-5.1316857309375,-164.21394339,6.416127204442955,-0.2781596715625003,6.954621775,0.0786743679458423,0.0,62,32,1030.1908328046159,3980.5359999999996,mp-1195875,EuSn3Sb4,https://materialsproject.org/materials/mp-1195875,36.818977389724886,28.142291104234523,-8.604250342815693,-0.5045126942092143
-5.5894458425,-22.35778337,9.568017628437897,-0.8114099081250004,6.43e-05,9.060513314034473e-06,0.0,225,4,82.7057296759177,476.55,mp-862963,PmSnPd2,https://materialsproject.org/materials/mp-862963,29.15947043227211,41.304873524729864,-8.604250342815693,-0.5045126942092143
-6.818102264,-102.27153396,6.975800471943161,-0.7232020050277773,0.0563241,0.0021260878175597053,0.0,147,15,308.7382864596542,1296.98648,mp-1220427,Nb6AgSe8,https://materialsproject.org/materials/mp-1220427,48.439003021018564,23.29542062567721,-8.604250342815693,-0.5045126942092143
-4.014871749999998,-40.1487175,2.7902888875500653,-1.9617441314749653,3.0016768,0.12816516733614824,1.6058,225,10,272.9426144448478,458.63946928,mp-1206059,Rb2NaCrCl6,https://materialsproject.org/materials/mp-1206059,21.025642515415644,-2.5264583459334378,7.277828553115863,-4.176753646712168
-3.8248408455555554,-34.42356761,6.288936771821313,-0.08019733388888915,0.0009605000000000001,3.96174654226486e-05,0.0964999999999998,164,9,282.5453141594548,1070.08,mp-1224378,Ge(SbTe)4,https://materialsproject.org/materials/mp-1224378,67.12906193799377,25.91310540378965,-8.604250342815693,-0.5045126942092143
-3.200865297,-32.00865297,2.949554570370331,-1.668434655556,0.0,0.0,1.0131,225,10,289.14677081839915,513.6007999999998,mp-1111985,K2InAgCl6,https://materialsproject.org/materials/mp-1111985,6.792633973225508,-8.415759944716603,7.8922932572628515,-3.552699938205545
-4.408557707941177,-299.78192414,3.93472699653542,-0.8698585364522065,0.00042825,2.9974528173132293e-06,0.28719999999999946,14,68,1665.031459384987,3945.372,mp-1100384,CaSn5S11,https://materialsproject.org/materials/mp-1100384,43.08166861780217,0.4179043668686963,4.056192497907073,-5.875920829566491
-3.745209967142857,-26.21646977,7.393515564432904,-0.10543458142857123,1.63e-05,8.099340172023127e-07,0.7423000000000002,166,7,234.5391744983008,1044.2808,mp-1227407,Bi2Sb2Te3,https://materialsproject.org/materials/mp-1227407,66.75914178393506,24.884800826060353,-8.604250342815693,-0.5045126942092143
-6.620688951111112,-59.58620056,7.951334261806233,-0.5734204133333338,13.6776593,0.7892816547590027,0.0,115,9,201.95620468066542,967.0482,mp-1225511,Eu2Ni3Sb4,https://materialsproject.org/materials/mp-1225511,1.9217046060712877,35.663687194537566,-8.604250342815693,-0.5045126942092143
-4.895388094166667,-58.74465713,5.408786184574891,-0.9832150492672409,0.0,0.0,0.5930999999999997,12,12,356.2717554937587,1160.4651878999996,mp-607477,CsSc3(CuTe3)2,https://materialsproject.org/materials/mp-607477,54.825308798796215,21.07981558187917,-11.336891649340508,-0.3431742317041844
-6.207385520181817,-341.40620361,5.145310706570633,-0.6174281424733542,58.999999800000005,0.5572916001018439,0.0,2,55,1233.806178174143,3823.0454,mp-1220065,Rb3(Cr5Se8)4,https://materialsproject.org/materials/mp-1220065,23.973569611162105,17.135862720752787,-8.604250342815693,-0.5045126942092143
-6.0002288607142855,-84.00320405,6.2317332060085775,-0.6119031132812499,2e-07,7.215906286618517e-09,0.0,6,14,323.01042473823367,1212.2056400000001,mp-1217949,TaNb2FeSe10,https://materialsproject.org/materials/mp-1217949,49.1870300590641,24.990304887684523,-8.604250342815693,-0.5045126942092143
-4.223170935333333,-126.69512806,3.803881695367005,-1.2106057214022987,4.9999948000000005,0.058526881258349164,1.2465000000000002,185,30,995.6153823479036,2280.70707,mp-568231,RbMnBr3,https://materialsproject.org/materials/mp-568231,17.124415284496664,-8.008824963273284,6.509306789524446,-3.0555133600172915
-5.1691126,-217.1027292,3.6006473512433885,-1.0150753566071435,4.999999900000001,0.06526855787999239,0.5010000000000003,2,42,892.7778487848944,1935.86427,mp-622375,Mn(GaS2)2,https://materialsproject.org/materials/mp-622375,26.243841923126613,2.6481327418037273,5.296884168490132,-5.753068361521626
-2.7894014988888887,-25.10461349,4.541991545986941,-0.9535015369348656,1.7e-06,5.730472982041028e-08,0.7008999999999999,12,9,345.7290554451764,945.6558438,mp-23099,Cs2Pd(IBr2)2,https://materialsproject.org/materials/mp-23099,9.171155165418336,-5.823163793735907,6.253334392496481,-5.999814617019438
-3.838185365,-15.35274146,6.09107754273999,-0.58731419125,3e-07,5.365670679304361e-08,0.0,216,4,65.15903865015397,239.012,mp-1222608,Li2SnPd,https://materialsproject.org/materials/mp-1222608,32.600146171383344,36.50707564094753,-8.604250342815693,-0.5045126942092143
-3.263926056666667,-78.33422536,3.9086805482619336,-0.6920164093678162,5.0000005,0.04924130544910741,0.6385000000000001,14,24,1183.3628121426484,2785.4733276,mp-568620,CsFeI4,https://materialsproject.org/materials/mp-568620,21.611294207840434,-1.4132975802728316,4.939480298372367,-5.334202126810578
-4.216795826666666,-75.90232488,5.165584216518671,-0.7139637783405175,7.5e-07,1.6866494442539135e-08,0.9187,70,18,518.2196341508378,1612.0712,mp-14340,Rb2Pd3Se4,https://materialsproject.org/materials/mp-14340,65.2200177619818,16.154297560548326,7.0779381847470155,-6.111623138807241
-6.150954286428571,-86.11336001,5.044938368984728,-0.6359650783392853,14.9999992,0.5706085659807852,0.04370000000000029,5,14,306.35881177961534,930.7588,mp-1223478,KCr5Se8,https://materialsproject.org/materials/mp-1223478,23.972415165397738,17.130488362169736,-8.604250342815693,-0.5045126942092143
-4.165091586363636,-91.63201490000002,6.569617669718075,-0.6493298728977276,6e-07,1.2741201140074544e-08,0.9070999999999998,12,22,548.8053117333416,2171.2474,mp-1229165,Ag3Bi7S12,https://materialsproject.org/materials/mp-1229165,70.57729984350748,23.214086250648517,5.279045429099981,-6.829763781652543
-5.695934646666667,-136.70243152,2.8224687829761432,-3.198038225793334,2.000000125,0.07398171965522914,2.1321,15,24,315.05257123649506,535.5044512000001,mp-1176538,LiVF4,https://materialsproject.org/materials/mp-1176538,-21.419048676964138,-51.46029279634993,9.085593969825776,1.4041640793931265
-5.218252873928571,-146.11108047,5.210276466701712,-1.3727117324999998,1.075e-06,1.4285392512438616e-08,0.4486000000000008,62,28,876.988127529093,2751.727296,mp-18660,Sr(ScTe2)2,https://materialsproject.org/materials/mp-18660,59.0142654758628,21.424035325713227,5.460529952313854,-6.589639177026439
-3.6602415396428567,-204.97352622,4.8298550826042685,-0.7244413892892858,1.000499875,0.0066743915724126225,0.6478999999999999,54,56,1746.9592878520798,5081.2176,mp-697593,Te7WCl5O,https://materialsproject.org/materials/mp-697593,66.58780454885057,19.74138068855638,7.398210929841616,-7.170036155608979
-6.581292828333333,-39.48775697,6.4746379978049715,-0.9628624718402784,1e-07,8.34300357222046e-09,0.0,10,6,139.6866808419453,544.6548799999998,mp-1217829,TaTiSe4,https://materialsproject.org/materials/mp-1217829,47.36715785044801,25.839012267536415,-8.604250342815693,-0.5045126942092143
-5.4243595475,-21.69743819,11.927670631099026,-0.7411827712500001,1.18e-05,1.6720869717630718e-06,0.0,225,4,82.24330829586188,590.7546100000002,mp-972400,TmBiPd2,https://materialsproject.org/materials/mp-972400,28.105901327877856,40.80116161057211,-8.604250342815693,-0.5045126942092143
-6.017973563333332,-324.97057242,4.317396976842452,-2.22670816498,4.9999997,0.0926525264601745,1.3161,6,54,628.912373928905,1635.1704576,mp-759427,FeOF,https://materialsproject.org/materials/mp-759427,-41.46855200250001,-76.6213926443809,5.723358162726995,0.002579192089427345
-6.8723754293333315,-103.08563144,6.662251930632863,-0.4829146301388884,5e-07,1.7682456774929405e-08,0.005399999999999849,148,15,329.53748794350486,1322.138,mp-20511,In(Mo3Se4)2,https://materialsproject.org/materials/mp-20511,63.56583202886388,33.650196854247845,-8.604250342815693,-0.5045126942092143