energy_per_atom,energy,density,formation_energy_per_atom,total_magnetization_uB,total_magnetization_T,band_gap,sgr,num_sites,cell_volume,weight,mp_id,formula,URL,tsne_xrd_lin1_0,tsne_xrd_lin1_1,tsne_xrd_lin2_0,tsne_xrd_lin2_1
-7.63732360909091,-84.0105597,3.5980637927659966,-2.6044787679505204,10.0000007,0.8897236348106089,3.3199,5,11,130.9852310580124,283.81941400000005,mp-1221802,Mn2P2O7,https://materialsproject.org/materials/mp-1221802,2.0373924267765795,27.312907172800106,-5.931858236861558,28.9445353122422
-5.6675976575,-22.67039063,8.01635496464833,-2.4336343570312504,6.500000000000001e-05,9.004946593557724e-06,0.0,166,4,84.12201031356669,406.10421,mp-1215472,YbTmS2,https://materialsproject.org/materials/mp-1215472,31.608751858756584,63.22938567967051,-14.973822610637555,34.91724019386126
-7.080629496071429,-198.25762589,8.124442685420108,-1.7894454845535717,8.00000965,0.2523931505377045,1.0433,85,28,369.39445640096636,1807.3192,mvc-10730,MgW4O9,https://materialsproject.org/materials/mvc-10730,-0.02142727191194437,6.769329352313372,10.809303078091268,8.182287542637559
-7.774220109500001,-310.96880438,7.251204195049001,-3.2110415951666673,0.000875225,2.1540179212274104e-05,1.8590000000000009,51,40,473.5303611007748,2067.8016344000002,mp-686726,LaTiAlPbO6,https://materialsproject.org/materials/mp-686726,-25.708934964495725,51.75023332865945,-11.037105994249165,65.89568541601737
-7.99176400857143,-111.88469612,4.862618808101524,-3.472142251309524,0.0,0.0,2.2644999999999995,129,14,176.0118609594446,515.42214,mp-6521,LiLaTiO4,https://materialsproject.org/materials/mp-6521,-0.662420598076128,25.009136306904363,-7.746974845658827,30.372563525588173
-9.246330940833333,-110.95597129,8.025094124534306,-3.6667531054166664,0.0,0.0,3.4736,36,12,163.59189613966825,790.61096,mp-768230,SmTaO4,https://materialsproject.org/materials/mp-768230,3.4024422603911533,21.238506844852765,2.5712512236758904,36.95277758074275
-4.25100017,-29.75700119,3.5957085713293284,-0.9569231749107142,0.0,0.0,1.0608,166,7,182.00358432496415,394.1080772,mp-9479,Mg(AlSe2)2,https://materialsproject.org/materials/mp-9479,-0.912943519102586,16.852773822759694,5.7139641671610475,22.56391725971539
-7.74387351875,-247.8039526,5.970468529398308,-2.64322060852125,7.00000115,0.21552533118620207,1.1011000000000002,55,32,378.50987798558594,1360.93236,mp-19358,SmMn2O5,https://materialsproject.org/materials/mp-19358,-3.0817690567435343,27.14609809500441,0.2554683734635114,49.41975189263693
-7.588482567777778,-68.29634311,7.046235206409303,-3.1642169376388884,0.13404939999999999,0.009492539413306692,0.0,123,9,164.5734952791278,698.34164,mp-1186245,Nd2Ho2O5,https://materialsproject.org/materials/mp-1186245,27.93968907993689,64.23114100904769,-11.539073070140185,35.403777571594645
-7.87652549,-23.62957647,7.39795790593294,-0.1910618024999996,7e-05,1.9485410807415592e-05,0.0,139,3,41.8664272538054,186.5214,mp-541840,DyC2,https://materialsproject.org/materials/mp-541840,26.937868219288372,60.12014644593117,-12.120587890294207,38.257757220905546
-6.35824900642857,-89.01548609,5.1355713388663435,-0.8167566060199992,0.9255761,0.032774296910754216,0.0,176,14,329.1214408262025,1017.87829,mp-9324,Ba3MnN3,https://materialsproject.org/materials/mp-9324,3.9328132414649057,15.542972289929068,1.769612071860922,22.524198209273962
-5.8925224,-11.7850448,6.436365239465201,0.0172121599999997,7.157992699999999,0.994881975600916,0.0,166,2,83.84885103273011,325.004,mp-1215556,YbEu,https://materialsproject.org/materials/mp-1215556,30.712832113466263,63.34287172433425,-12.0833789897076,33.69056411523877
-8.213125775357144,-229.96752171,5.601834851738286,-3.675265386071428,0.0,0.0,3.2492,62,28,449.5460107580944,1516.5452,mp-3952,BaY2O4,https://materialsproject.org/materials/mp-3952,-0.4666503274330816,24.01193175608102,-13.07292386160975,46.7922166213404
-6.19252422,-30.9626211,4.546801685504065,-1.6923309025833337,0.4315549,0.059054960278498624,0.014399999999999746,123,5,85.1642052386016,233.1922,mp-19990,BaTiO3,https://materialsproject.org/materials/mp-19990,3.88162174380086,18.562420576762378,1.2270385976310294,21.49642239146463
-4.57116266875,-109.70790405,6.885495974795827,-1.900884045625,0.0,0.0,2.1683,182,24,535.2639487362824,2219.4948,mp-556118,BaHgO2,https://materialsproject.org/materials/mp-556118,-1.932428715869005,15.706696999535804,6.093733473087344,32.967186379575026
-9.627337421235957,-856.83303049,7.866637893968541,-3.4757558864044933,0.00014110000000000001,1.3745640256899564e-06,0.0,8,89,1196.2982507000931,5667.3435100000015,mp-757779,La5Ta22O62,https://materialsproject.org/materials/mp-757779,14.196836438668528,15.339158910000785,30.48210319157357,36.92045364984834
-6.476286892142857,-90.66801649,4.879113165786354,-0.9462293374485712,1.5e-07,5.086141983978785e-09,0.0,176,14,343.70053399815697,1009.8852,mp-1245925,Ba3VN3,https://materialsproject.org/materials/mp-1245925,4.073785165910099,16.127586265171143,2.000251394707779,22.55838352441963
-7.644554540500001,-152.89109081,6.8652864393770185,-0.5256552283333334,1.33785895,0.07796020091114686,0.0,65,20,199.99300511832573,826.84552,mp-1215753,YUB8,https://materialsproject.org/materials/mp-1215753,-1.8057015830781944,16.799578242365918,9.91930990812403,24.568607161638266
-5.35605061625,-42.84840493,8.503511278343746,-1.5773743225,3e-06,2.3226408688299195e-07,0.9164000000000004,123,8,150.5277668488286,770.8428,mp-866311,Bi3BrO4,https://materialsproject.org/materials/mp-866311,1.4651238669587554,23.861340564212128,1.0638688138121095,46.79748333841537
-6.36715805125,-101.87452882,5.862230852061646,-1.939966275625,3.9999998999999997,0.1550993514320561,0.2875000000000001,141,16,300.5574007525965,1061.0632,mp-1214454,BaMoO2,https://materialsproject.org/materials/mp-1214454,-12.372507141584489,25.081532913882192,-22.336208890857392,41.583049010418776
-5.264804582857144,-73.70726416,4.713777877289025,-2.2768817613585712,1.00000095,0.052117313085330234,0.0,129,14,223.61236898073253,634.7692,mp-1104703,Sr2NiClO3,https://materialsproject.org/materials/mp-1104703,-33.14512283655551,13.89739292418301,-13.993645363514762,61.58719019582502
-6.830250622142858,-95.62350871,7.306618757482441,-2.7678981098214286,2.9999974999999997,0.19620234481362264,0.6455999999999995,38,14,178.1944309367381,784.082,mp-1218013,SrSm3(NiO4)2,https://materialsproject.org/materials/mp-1218013,-23.399403185245728,41.29103957052264,-11.960222426684663,60.01152576516504
-4.681536941428571,-32.77075859,3.76813566082212,-3.3501654507785217,0.0,0.0,6.2289,139,7,119.52727817655108,271.2342128,mp-8861,Rb2MgF4,https://materialsproject.org/materials/mp-8861,-36.10389886495057,-5.207937471086766,-40.42841384545832,-8.874095897097648
-5.0932713675,-20.37308547,7.0953801291489045,-1.5224265011979168,9.000000000000001e-07,1.291696836237343e-07,0.0,123,4,81.2006192246838,346.9652,mp-1222295,LuAgS2,https://materialsproject.org/materials/mp-1222295,25.08588523380973,65.4605225532445,-14.81521543475033,35.42012186224552
-6.918308137,-138.36616274,5.745850609674179,-2.636596351143999,9.9996279,0.3851327556886136,0.0,166,20,302.58737935631905,1047.022585,mp-556632,Ba4PrMn3O12,https://materialsproject.org/materials/mp-556632,-17.52039097890856,16.842118959339828,-16.228928890853307,46.708859712724774
-6.389882576875,-102.23812123,7.256442283447059,-0.5020594543149999,0.0,0.0,1.5764000000000005,33,16,241.62879726470678,1055.9013544,mp-1245799,AlBiN2,https://materialsproject.org/materials/mp-1245799,5.0603357728508485,5.687673779793648,7.8025551187363265,25.695573858417138
-8.718609428854167,-836.98650517,7.0010858652754475,-1.6091330562048602,2.48117935,0.024013895384991213,0.0,167,96,1204.1288759552967,5076.791,mp-28370,Ce15B8N25,https://materialsproject.org/materials/mp-28370,18.843384072321484,54.159945732860635,25.057208000932242,40.734207243368225
-5.839446618695653,-134.30727223,6.286928199639312,-1.7693003634782607,12.9858334,0.4477689925751937,0.042999999999999705,139,23,337.98174076078965,1279.6248,mvc-141,Ba2Tl2Zn3Cr4O12,https://materialsproject.org/materials/mvc-141,-4.587946688506622,19.783735962325228,4.661730583163314,48.43080257914591
-7.774841668,-38.87420834,6.173818369109149,-3.4157390962187515,0.0,0.0,2.4101,164,5,104.56532606640349,388.76974,mp-7233,La2SeO2,https://materialsproject.org/materials/mp-7233,-30.538647835297347,-16.51242672792829,-32.66527571395858,-19.535695197816796
-2.4910433050000003,-69.74921254,3.743733005400572,-0.4224124943743843,0.0,0.0,0.6537000000000002,194,28,1267.4481532306622,2857.4983,mp-17120,Cs6K3AlSb4,https://materialsproject.org/materials/mp-17120,7.504207214720028,18.2442499681327,29.81909364144777,-0.8841468224129785
-5.1153697608333335,-61.38443713,6.7151133955224145,-0.8683261551302094,0.0,0.0,0.2375999999999996,63,12,294.7788087837743,1192.0666,mp-7050,ZrTlCuSe3,https://materialsproject.org/materials/mp-7050,-2.1089296172676484,29.64827085589719,-1.7399171881600828,48.727114331200895
-8.392142753888889,-302.11713914,6.3725580879474695,-2.831865960575186,0.0,0.0,1.2114000000000011,62,36,524.8417811047455,2014.15604,mp-1019895,La3BN2O3,https://materialsproject.org/materials/mp-1019895,8.055527756486692,19.82238328520679,22.732495272668338,37.12229284931989
-7.8539521275,-251.32646808,6.690288838589108,-2.8751029660937513,1.99999995,0.04872906979752144,0.0,62,32,478.320826957417,1927.148,mp-1209143,Sm2RuO5,https://materialsproject.org/materials/mp-1209143,20.827938639772523,56.338243800276786,-1.8096536717219531,36.58917530077849
-3.3436352978571433,-93.62178834,4.557512327008912,-1.3256034846428568,1.305e-05,1.3081250111621394e-07,1.9829,62,28,1162.622409816865,3190.9312800000002,mp-756448,LaMgI5,https://materialsproject.org/materials/mp-756448,6.4610961560127125,-5.3290303309558045,9.454697190699317,-2.4781670443178143
-8.163621054642856,-228.58138953,6.619480508958807,-3.3296257832440475,0.0,0.0,3.8016,173,28,381.9883446720968,1522.7370999999996,mp-558051,Pr3BWO9,https://materialsproject.org/materials/mp-558051,5.309854428578924,19.84976942400272,2.2674041363505317,36.839315102750994
-8.112749524,-81.12749524,6.809760060286743,-0.3118630765000006,3.6087425000000004,0.26646274288053234,0.0,123,10,157.83264252197873,647.2611599999998,mp-1215978,YU(CrSi)4,https://materialsproject.org/materials/mp-1215978,-60.931206056222926,14.686662195559805,-60.38432894233974,24.59536431106028
-7.984921935,-127.75875096,5.38691375256283,-3.1506627602316817,0.0,0.0,1.4197000000000002,123,16,260.86712018795174,846.2725919000002,mp-505814,CsBa2Nb3O10,https://materialsproject.org/materials/mp-505814,4.018677062417302,19.04255403034096,-7.327405874683879,30.62630701437432
-6.156745934999999,-86.19444309,5.196240541531169,-0.7151704474485712,2.05297885,0.073423141439289,0.0,176,14,325.85841501181613,1019.6922,mp-8306,Ba3FeN3,https://materialsproject.org/materials/mp-8306,4.536934489314987,16.088102284212304,-0.21486897690069467,20.043242147815693
-4.983923357619047,-104.66239051,4.54418792283674,-3.53428546293619,0.0,0.0,4.7912,189,21,296.9715607748241,812.6846448000001,mp-28802,Sr4Zn3F14,https://materialsproject.org/materials/mp-28802,2.3801142874825736,12.008741613448446,1.2796305384048978,45.67951036204874
-7.711956158333333,-46.27173695,8.377107291236168,-4.303613788313334,0.0,0.0,5.0999,166,6,79.26088140588678,399.8562464,mp-1072114,HoOF,https://materialsproject.org/materials/mp-1072114,22.132762806846277,64.69362639819678,-8.929727367691365,37.71704633242858
-5.21680217875,-41.73441743,6.408094666664049,-1.6355717186979173,5.5e-07,3.645531678121758e-08,0.7083999999999997,141,8,175.82443909005443,678.5144,mp-36029,ErAgS2,https://materialsproject.org/materials/mp-36029,-6.752773019142063,17.93546262313771,-4.084774756179715,22.802478882463635
-5.751310619999999,-132.28014426,6.071234235797305,-1.9678151280434777,15.502544400000001,0.5637528706245287,0.0,139,23,320.4731469960195,1171.7084,mvc-28,Ba2Mg3Tl2(FeO3)4,https://materialsproject.org/materials/mvc-28,-4.921003788367132,19.385865377246933,4.538761904328823,47.77275979881739
-3.71680187125,-29.73441497,3.628694710728415,-0.4614476731249999,0.001113,5.61885245259839e-05,0.0,25,8,230.84738745650142,504.45950000000005,mp-1218379,Sr4GaSi3,https://materialsproject.org/materials/mp-1218379,-38.75075485908865,11.072513537390288,-12.001182647036376,23.67995376415004
-5.590717812142856,-78.27004937,5.593632651049068,-2.6572689254061896,8.885e-05,3.687729824303586e-06,1.9408,129,14,280.78620299616784,945.8464,mp-558243,Ba2InClO3,https://materialsproject.org/materials/mp-558243,-4.046510757087161,18.476119961699506,4.4693526928584335,26.559658586663517
-8.824853271,-176.49706542,7.0568986667311755,-2.7722423699760013,0.0,0.0,1.6121999999999996,26,20,251.33762143163653,1068.1255199999998,mp-556340,CaTaNO2,https://materialsproject.org/materials/mp-556340,-11.711554413946347,49.834244600095204,10.297359671717773,36.654395498216154
-6.0613671286666655,-181.84101386,6.991609564397043,-2.1879608491666667,0.00038480000000000003,9.563311424061643e-06,0.0,66,30,468.92586946377617,1974.3869399999999,mp-1209034,Sr2LaCu2(BiO4)2,https://materialsproject.org/materials/mp-1209034,-5.816814168414643,20.421873904620675,-0.4444278193641025,22.84380763756204
-7.039894503571429,-98.55852305,6.060428187504008,-2.85344431114,3.7463199,0.2277875830492284,0.0,123,14,191.66916031544082,699.530185,mp-1218754,Sr2La2MnCuO8,https://materialsproject.org/materials/mp-1218754,-22.888713985580047,38.516823315965134,-14.71425797549956,58.75055361968828
-4.481432954000001,-44.81432954,6.451232211206928,-0.5465049376250007,4.294647400000001,0.2481728125611959,0.0,115,10,201.67438350066416,783.5096,mp-1216837,Tl2FeCu3S4,https://materialsproject.org/materials/mp-1216837,-9.761220570905571,20.51044462199248,-1.5755247718010186,20.781383409015405
-7.071435012173914,-162.64300528,5.554556159695549,-2.858588848985508,0.0485101,0.0015930042338345707,0.0,139,23,354.8891054498334,1187.1154,mvc-16441,Ba2Ca3Ti4Tl2O12,https://materialsproject.org/materials/mvc-16441,17.35417895450435,52.495008805716864,3.8721621502898778,47.639637766917225
-7.141586152,-35.70793076,7.429724448844979,-0.6577393615000006,1.55e-05,1.9551077891379125e-06,0.0,107,5,92.39286190677292,413.39197,mp-1069882,LaSi3Os,https://materialsproject.org/materials/mp-1069882,-47.12909703987687,30.475610009989317,-25.89313606703369,33.64868199378516
-9.124212470909091,-200.73267436,7.022143133374603,-2.9616540001136373,19.0,0.7052874952170147,0.0,63,22,313.9531498577069,1327.6556,mp-1212986,Eu3MoO7,https://materialsproject.org/materials/mp-1212986,19.847103138768162,55.904912888190495,-3.023313890599101,37.382434755504214
-5.827153646923077,-75.75299741,6.824211275937125,-2.103788047019232,0.6143094,0.036628902396488264,0.0,123,13,195.4522540833399,803.23765,mp-1214583,Ba2YCu2HgO7,https://materialsproject.org/materials/mp-1214583,-18.915380304243747,36.51080441689938,-13.74066294216778,54.287429488518654
-8.17081213909091,-179.75786706,9.108792320815759,-2.962643791022728,0.0,0.0,2.7710000000000004,5,22,323.3782917498692,1773.8732000000002,mp-35799,Hf2Bi2O7,https://materialsproject.org/materials/mp-35799,22.00756089247444,57.09721688441435,-8.03287326799983,37.07568214227658
-4.596170495,-64.34638693,5.754255932998447,-0.703092377142857,2.8999999999999998e-06,1.1401076767401893e-07,0.0,63,14,296.4350519685591,1027.2346,mp-1104368,Li2Pr2Ge3,https://materialsproject.org/materials/mp-1104368,-47.39245950064108,19.057871600143685,-26.71924110752855,27.724861634139597
-6.0205448960000005,-90.30817344,7.570725948320549,-2.167080406,0.00024870000000000003,1.3119587318475533e-05,0.0,139,15,220.9189846127248,1007.21335,mp-1208746,Sr2TbCu2(BiO4)2,https://materialsproject.org/materials/mp-1208746,-5.885043762401454,21.192095557970998,-10.881208848281407,45.26039924481076
-7.870492066666666,-23.6114762,7.635544078732281,-0.19415575083333303,1.6e-05,4.5377175390641034e-06,0.0,139,3,41.092252824404135,188.95172,mp-1423,HoC2,https://materialsproject.org/materials/mp-1423,26.78599458637865,60.1631879126695,-12.181475613977554,38.2438259563825
-5.7719720233333325,-173.15916069999997,6.266669651313671,-2.0935188596666667,0.00014125,3.4964850092487304e-06,0.0,37,30,470.79757092330635,1776.7320000000002,mp-1218930,Sr2CaCu2(BiO4)2,https://materialsproject.org/materials/mp-1218930,4.8206093829836725,15.925739217505562,8.031056651519611,21.17874718261661
-9.603118658333333,-57.61871195,9.116144439129783,-3.914221955,1.9999997999999999,0.289405789323928,0.0,123,6,80.53787475625778,442.14251,mp-1226476,CeUO4,https://materialsproject.org/materials/mp-1226476,25.263421336953396,64.64761038860962,-11.054225363823814,36.289042650628474
-4.684241081666666,-84.31633947,5.717286786594862,-2.4830002616333333,1.9994971999999998,0.07337170725001779,0.0,63,18,317.5920358776453,1093.4791092,mp-1182863,AlTl2OF5,https://materialsproject.org/materials/mp-1182863,6.93784988397913,-0.7982385365293295,11.072668738106312,-2.0653704662454757
-10.094489817608695,-464.34653161,8.446793880677363,-3.4186025415760875,20.73763655,0.38402598021513,0.0,127,46,629.3265873525388,3201.2448,mp-1213410,Eu3Ta5O15,https://materialsproject.org/materials/mp-1213410,9.395164375386317,32.686550520055725,31.02920373814845,36.49911008408595
-7.16051679875,-171.85240317,6.658085839152991,-2.805256082916667,0.0,0.0,3.6679,14,24,303.12255049535224,1215.3980800000002,mp-777787,HoAsO4,https://materialsproject.org/materials/mp-777787,9.200228055070463,17.109287410159645,22.508405290490604,36.826828749026106
-5.19534346875,-41.56274775,6.7036324039515724,-1.6244986024479169,1.5e-07,1.0169834232359209e-08,0.8084999999999996,141,8,171.89166272953355,693.9304,mp-1173065,LuAgS2,https://materialsproject.org/materials/mp-1173065,-6.403433570505578,17.92131819955204,1.156748280664269,18.963182780408033
-10.252574385,-41.01029754,5.781435787285447,0.03805687499999877,7.469302675,0.4985898051650034,0.0,194,4,174.5878802144697,607.856,mp-1184367,Eu,https://materialsproject.org/materials/mp-1184367,-14.27352574537354,25.970610257015306,-20.093303409706333,39.559629033787886
-2.730091181666667,-32.76109418,9.652838275407161,-1.6818276091266668,0.0,0.0,0.7638,62,12,164.17252424729375,954.3472256000001,mp-1102332,HgF2,https://materialsproject.org/materials/mp-1102332,-7.164445135465486,18.717382028333088,-35.075039310784256,-16.087694795062845
-6.8850233815384625,-358.02121584,8.45590527260631,-2.0349096252884613,0.000121275,1.935472856641297e-06,1.9680000000000002,33,52,730.2332866319881,3718.5416,mp-1197485,Bi2W2O9,https://materialsproject.org/materials/mp-1197485,6.324340185720155,19.57932644871319,36.76692966297684,0.28130461785133065
-6.508578744499999,-130.17157489,8.212663248914042,-2.3326869972499997,0.0,0.0,1.8007,57,20,310.4627567618423,1535.480956,mp-28853,LaAuO3,https://materialsproject.org/materials/mp-28853,-3.476708427248384,25.26035606801425,7.5008345458086785,25.96779267090209
-3.45893803625,-27.67150429,5.086664401262946,-0.6142835831250002,0.6294509,0.023043421154467825,0.0,25,8,318.34081886420347,975.1610000000001,mp-1228036,Ba4GaSn3,https://materialsproject.org/materials/mp-1228036,8.924054470758154,16.010122116913898,10.352058986715118,29.91272707434269
-6.142829521666666,-36.85697713,3.680480726584565,-1.5460641102377768,0.0,0.0,2.4109,166,6,132.63104496116426,293.9684000000001,mp-1077553,Sr2BBrN2,https://materialsproject.org/materials/mp-1077553,-30.7531379481677,-16.824597726048776,-32.81669638100302,-19.685770767564406
-5.283796046363637,-116.24351302,5.177502193322403,-2.2487298428654543,1.9999999,0.053914277353910633,0.16810000000000036,51,22,432.3182934774562,1347.9532000000004,mp-559757,Ba3Cu2(ClO2)2,https://materialsproject.org/materials/mp-559757,4.444859102948588,11.024923159024489,6.967488617410735,25.91267620426209