energy_per_atom,energy,density,formation_energy_per_atom,total_magnetization_uB,total_magnetization_T,band_gap,sgr,num_sites,cell_volume,weight,mp_id,formula,URL,tsne_xrd_lin1_0,tsne_xrd_lin1_1,tsne_xrd_lin2_0,tsne_xrd_lin2_1
-7.500238603500001,-150.00477207,6.303741778916521,-2.815893305442,6.9999999000000015,0.3678729186745683,0.0,26,20,221.75715607562344,841.8349800000002,mp-1227180,CaLuMn2O6,https://materialsproject.org/materials/mp-1227180,-4.412864998004278,12.601444642885461,8.344127136626236,54.851120462604726
-4.1839580217500005,-167.35832087,5.338089335382906,-0.9147784225829746,6.5e-07,6.961389861711588e-09,0.5187000000000004,58,40,1088.1651872175582,3498.0948,mp-555113,Rb3Cu2(BiS2)5,https://materialsproject.org/materials/mp-555113,35.56291783461903,26.015115638553453,15.7391575814298,12.751530087611373
-7.2525292002777775,-261.09105121,3.1909565745490713,-2.5104932192305562,28.999999900000002,0.8957512065433019,2.615,8,36,377.30105722440544,725.036425,mp-850228,Li6Mn5Fe(BO3)6,https://materialsproject.org/materials/mp-850228,13.124680407795127,3.7179764312696473,66.51589873016077,38.455701214667954
-7.468971783333332,-896.2766140000001,4.378947418238534,-2.9560146773779987,8.0,0.05256155133732235,1.9934,61,120,1773.7779005444988,4677.56552,mp-558695,Ba2Mn2Si2O9,https://materialsproject.org/materials/mp-558695,4.863274249844878,25.501592318187672,20.104020861354677,-18.235358413584155
-9.43359988375,-75.46879907,6.6373292353183375,-2.9896059852800008,6.9999996,0.8569385224440143,3.071400000000001,11,8,95.19755106075493,380.51348,mp-625147,GdHO2,https://materialsproject.org/materials/mp-625147,1.2139640903308389,12.54806793539762,0.1989988492715214,49.143335396181094
-5.200216538,-52.00216538,4.007109066648323,-3.228458900949632,0.0,0.0,3.2753,225,10,181.40289433916644,437.7501312,mp-1113625,Rb2ScAgF6,https://materialsproject.org/materials/mp-1113625,-14.862682399398894,-50.61571775354021,-24.36210065807974,-8.192130032548398
-7.374910065277778,-265.49676235,4.381449492186792,-2.2328071484027783,10.0,0.2700869817418607,0.0,194,36,431.4930211519126,1138.5248,mp-555227,SrV6O11,https://materialsproject.org/materials/mp-555227,2.7953182494435973,54.560628269200706,17.897613719999427,58.56996548646097
-7.5276277885,-150.55255577,6.665602658117563,-2.89339338525,4.999999900000001,0.23570940221145986,1.4749,62,20,247.21255134793674,992.3408,mp-20407,NdFeO3,https://materialsproject.org/materials/mp-20407,-20.78797006383917,44.64555653179613,-7.073199193574816,62.80203506137928
-4.44563837,-35.56510696,4.593964776257913,-0.3957857806640624,0.0,0.0,1.1316000000000002,26,8,185.28851629284054,512.61,mp-1224376,Ge2SeS,https://materialsproject.org/materials/mp-1224376,-13.030802715914712,32.583469989827016,-17.01509046342558,53.94683676853136
-5.097617973999999,-25.48808987,3.5094127402182043,-1.3193281668663794,5.0000012,0.4756379802351337,0.7254,119,5,122.50985049358336,258.9144969,mp-1225894,CsLiMnS2,https://materialsproject.org/materials/mp-1225894,4.72351086436312,17.858027060579623,-15.784590061947913,15.784534104672833
-5.986527092999999,-119.73054186,6.955044914199209,-2.38090776625,4.6e-06,1.5943540185780876e-07,0.0,229,20,336.24086827080663,1408.32,mp-1147549,Ba4Ca(BiO4)3,https://materialsproject.org/materials/mp-1147549,-21.21534257842047,6.424573795006814,-33.82038958084844,48.18441001368026
-6.396394750714286,-89.54952651,6.314504127848336,-2.395434541250001,1.35e-06,5.1634246811745723e-08,0.0,220,14,304.7006282538948,1158.68,mp-2038,Sm3S4,https://materialsproject.org/materials/mp-2038,-1.3258474493492205,-5.848052686842738,-10.87377458940549,25.23835410112245
-5.285146739,-52.85146739,8.174522869307248,-1.2467973412500002,2.0,0.18174174279939576,0.7130000000000001,146,10,128.2486300951048,631.344,mp-998527,NiBiO3,https://materialsproject.org/materials/mp-998527,-6.450101444273272,14.925928698240748,6.084886962604263,58.443154824057686
-6.275159669,-62.75159669,5.790144766761086,-2.3383156689375,0.0,0.0,0.7775999999999996,63,10,238.26504764854784,830.808,mp-1205870,NdLuS3,https://materialsproject.org/materials/mp-1205870,8.657114541805669,-7.206269101128679,13.624972054497073,4.509458868961752
-6.1324108775,-49.05928702,8.140189324240978,-2.2652160046875,0.0,0.0,1.3084000000000002,123,8,154.87590834546089,759.2228700000002,mp-552292,SmBi2IO4,https://materialsproject.org/materials/mp-552292,22.41811264116004,59.69306301458015,-14.563288472262387,38.99513302795115
-4.899532308,-97.99064616,4.703974563221598,-2.7588586580513788,7.0,0.2341711340539734,3.743,160,20,348.37109081563864,986.8655359999999,mp-1226311,Cs2MnNiF6,https://materialsproject.org/materials/mp-1226311,1.6602795376280428,-7.7769591981734125,11.597466814521107,8.131682415513954
-8.6879128265625,-278.01321045,6.54874377169168,-2.9585496211718736,0.00020140000000000002,5.2454189109096126e-06,0.0,139,32,447.46257354429383,1764.67862,mp-1228044,Ba4ZrNb9O18,https://materialsproject.org/materials/mp-1228044,-24.01913913928329,18.504545595413354,-2.1198739998328877,59.43163938345932
-8.88892745638889,-320.00138843,8.879448086494467,-3.0254966388888898,0.0,0.0,2.6067,62,36,497.5135779250617,2660.36864,mp-771957,Ta2PbO6,https://materialsproject.org/materials/mp-771957,17.267571128633996,54.6804843941129,-2.4773361200279096,35.439170722692225
-8.008212950499999,-160.16425901,7.514645666402522,-3.0555952339419994,3.999998475,0.19869020317784475,0.4139999999999997,62,20,234.61771427182282,1061.7449800000002,mp-22103,DyMnO3,https://materialsproject.org/materials/mp-22103,-9.82381728192346,44.415155841260884,8.910538489016165,54.91606288820197
-6.628131616666668,-159.07515880000003,3.690840691884765,-2.6214448592600577,0.0,0.0,3.8486,167,24,474.3342670057905,1054.2915114,mp-561725,CsBO2,https://materialsproject.org/materials/mp-561725,-4.842164082078062,-7.122744379745997,26.29292461161826,-3.1644577863747974
-6.954913714,-34.77456857,6.515877522476938,-3.1086529292500003,0.9999536,0.13283314488545053,0.0,221,5,87.73054371334604,344.25055,mp-2929,BaTbO3,https://materialsproject.org/materials/mp-2929,-17.961586900775682,-50.55162838648714,-24.86165926278135,-5.967439684215447
-7.0125940645833325,-504.90677265,7.1938999414163876,-1.8424955761458333,12.00000035,0.12454740234024232,1.7194999999999996,176,72,1122.855866295757,4864.5124,mp-27357,Sn5W8O23,https://materialsproject.org/materials/mp-27357,3.4604297308555982,11.741745056248085,7.212874639433793,33.44265858422442
-7.454396375499999,-149.08792751,8.307321106465174,-3.13333862075,1.000000225,0.053591134477866606,0.3637999999999999,62,20,217.46259914571232,1087.9188,mp-703673,YbVO3,https://materialsproject.org/materials/mp-703673,-8.49974755250963,45.433708146752345,-3.5752936755807805,64.06951437791925
-7.0274277513636365,-154.60341053,7.471193496920668,-2.7501107896590917,1.4800000000000002e-05,5.701798011297923e-07,0.0,227,22,302.5013483327886,1361.0316,mp-755316,Dy2Sb2O7,https://materialsproject.org/materials/mp-755316,16.00120437532695,66.6214150589534,-10.75613066090492,39.608297956772425
-3.750196203,-225.01177218,5.404144669026656,-0.7238976052222222,0.001572425,7.94555651653011e-06,0.4504999999999999,59,60,2306.338487665168,7505.868,mp-1195424,Ba5(In2Sb3)2,https://materialsproject.org/materials/mp-1195424,2.8871631492886074,24.121980544527645,30.858192177983497,-0.16336690523227598
-8.1306131745,-162.61226349,6.347380227464857,-3.221133700208333,9.0000004,0.4220766961641699,1.7832,47,20,248.50125242135312,949.89151,mp-1227949,BaLa3TiCr3O12,https://materialsproject.org/materials/mp-1227949,-28.93940389944757,46.808244984148864,-13.775800822404582,64.85410239400626
-6.7743142135714285,-284.52119697,3.7656403555183973,-3.0251869270204086,0.0,0.0,4.9447,147,42,637.9150910525202,1446.613872,mp-18150,K3Lu(PO4)2,https://materialsproject.org/materials/mp-18150,4.293773485356174,7.79389922619245,36.068386166177525,-7.920658726090834
-7.401038406666667,-44.40623044,5.033084832712731,-0.0058392466666674645,14.80578965,0.796676349438793,0.0,63,6,216.58435286994842,656.466,mp-1183936,Eu2Mg,https://materialsproject.org/materials/mp-1183936,-9.917081164347014,37.014846534734296,-2.9110356340341346,43.97335688851053
-3.6389231344444446,-32.75030821,2.2780698639703534,-1.3166103340600006,1.0,0.05066668752453241,0.5265,139,9,230.0143416108836,315.55340000000007,mp-1078646,K2Cu(Cl2O)2,https://materialsproject.org/materials/mp-1078646,-31.80551368492479,-24.687873904693603,-21.875902191389006,-19.051565990245788
-2.7160770855555563,-24.44469377,3.754616408726211,-1.0550138911877396,6.5000000000000004e-06,2.201659852744495e-07,2.1286,87,9,344.06505131666694,777.9595999999998,mp-570324,Rb2TeBr6,https://materialsproject.org/materials/mp-570324,1.1668040675052391,19.548219890287193,38.50209832337665,-7.754676799750634
-7.504326713333334,-45.02596028,5.496517609653707,-1.7645039360416668,6.38787945,0.5701642305051093,0.0,129,6,130.56722412006144,432.18800000000005,mp-1232117,EuS2,https://materialsproject.org/materials/mp-1232117,-4.7721926057636415,-22.99865801790041,-0.8121472261187127,-19.50924674955405
-6.9143447618867935,-366.46027238,5.785590975512857,-2.5533845351179245,0.7139934,0.010360361188198743,0.0,5,53,803.1501199261568,2798.3070399999997,mp-675164,La12Cu10O31,https://materialsproject.org/materials/mp-675164,-5.932353067419853,12.06245072823806,6.208426631860492,28.71488642373702
-6.37772125909091,-70.15493385,4.03329613811541,-2.2162108836850662,1.0,0.09345264058888676,0.4166000000000003,5,11,124.70556957109224,302.898324,mp-1215559,ZnCuP2O7,https://materialsproject.org/materials/mp-1215559,5.717792461252787,34.5393184972704,-5.835532662577891,68.3429906423878
-6.253642946590909,-550.3205793,3.221864692270177,-1.984139838511624,12.000184625,0.16484237492930445,3.4540000000000006,60,88,848.3918589646775,1646.094256,mp-1182551,Fe3P2H6O11,https://materialsproject.org/materials/mp-1182551,21.004679130779067,5.528619071522372,52.65723048030807,28.141955047192912
-6.250718185555557,-56.25646367,5.226619576614934,-2.4190993716070373,0.1085408,0.007003566532685508,0.0,139,9,180.61390689472145,568.4902063999999,mp-1079717,Sr2Ti2Sb2OF2,https://materialsproject.org/materials/mp-1079717,-25.66281055855766,28.438582649591236,-13.879346680897374,52.917725543766956
-4.961013443000001,-49.61013443,8.052207722900858,-1.4625684702500004,0.0,0.0,0.7610000000000001,146,10,152.35221764721388,738.7792,mp-755478,CdBiO3,https://materialsproject.org/materials/mp-755478,-23.217513845528334,14.9952124954673,-26.49481132271202,46.162733147093526
-8.378454175454545,-184.32599186,5.528973130150118,-3.5370130675757583,1.0000009,0.043558333474091035,0.0,166,22,267.55099040118137,890.8446000000001,mp-1219216,Sm3MgTi4O14,https://materialsproject.org/materials/mp-1219216,4.179292424155326,60.43842354339794,-28.789137147248496,69.33014460010668
-7.857859378214287,-220.02006259,7.067104454189497,-2.770059790267858,0.0,0.0,1.5824,36,28,475.3254631798739,2022.9423199999999,mp-556569,SrTa2Bi2O9,https://materialsproject.org/materials/mp-556569,-0.5566583800564703,16.43571950846782,9.418158112124377,29.30812523349939
-3.4879855141666667,-41.85582617,4.956260224288162,-0.22500034857142856,0.0,0.0,1.0424000000000002,15,12,297.94842259011523,889.2955119999999,mp-29244,Cd2P3I,https://materialsproject.org/materials/mp-29244,-3.2855747616526965,30.065235142145053,-0.7169087488091274,-2.0401389533824528
-8.300116195,-33.20046478,5.953716714281622,-1.4225871680357134,14.002603699999998,1.2669676085885473,0.0,166,4,128.80143848829815,461.806232,mp-569689,Eu2PI,https://materialsproject.org/materials/mp-569689,-0.013236486270331523,-14.867568037253015,-2.125312827481901,-24.100106820576745
-7.707698276145834,-739.93903451,4.758923088178982,-3.31304317419271,0.0,0.0,3.8154,185,96,1418.0188236807596,4063.8867,mp-6310,Ba3Y(BO3)3,https://materialsproject.org/materials/mp-6310,4.564913125728914,-23.444483344496685,11.367952490647546,7.388261104616755
-2.999124456666667,-35.98949348,4.749955350237094,-0.1332838666666666,2.0866666666666668e-05,7.937313415767195e-07,0.0,38,12,306.3775766214222,876.3900000000001,mp-1094552,MgSb,https://materialsproject.org/materials/mp-1094552,-8.289040777914657,12.70018166560068,25.16422056003687,50.80464851010954
-7.021036426470588,-119.35761925,9.50011793394882,-0.5944907464705877,5.7999999999999995e-06,2.892163893940557e-07,0.0,191,17,233.71281213510468,1337.0955,mp-1215951,Yb2(B2Rh3)3,https://materialsproject.org/materials/mp-1215951,-47.57122923139363,-0.36702387649816176,-57.98703521991235,20.80687273990196
-8.043517372166669,-482.61104233,5.581997522941308,-3.737229014083333,0.0,0.0,4.0823,14,60,922.1031251271429,3099.7027088000004,mp-561084,Nd4Al2O9,https://materialsproject.org/materials/mp-561084,10.153073639465237,23.95206807739264,-1.360621058868129,38.01784762328634
-5.34927667,-26.74638335,6.42731733782097,-0.5826966049999995,0.0,0.0,0.0,139,5,83.75158587232184,324.17065,mp-4014,Pr(CuSi)2,https://materialsproject.org/materials/mp-4014,-59.95477503922964,26.020200743321094,-59.67289826835545,28.576186221742372
-5.422940704,-216.91762816,7.723877754852053,-0.567797813,1.8625e-06,2.2332055378870305e-08,0.0,57,40,971.9524365602947,4520.96676,mp-569153,PrCoSb3,https://materialsproject.org/materials/mp-569153,-38.48814163320166,25.0289548656039,-25.164114524664267,24.843730116442643
-7.0956616005,-141.91323201,3.7151021240857,-0.7260624278389998,5e-08,1.630222953171064e-09,1.1048,176,20,357.43775874000954,799.6907900000001,mp-862670,Sr3Co(CN)3,https://materialsproject.org/materials/mp-862670,-2.902322338034545,12.963746301432991,8.556793117279888,33.33696202801066
-6.891841212692308,-179.18787153,3.4139157347435534,-2.6068298504807697,8.001020599999999,0.326313627296911,3.1306,40,26,285.7508988864318,587.4775999999998,mp-757107,Li2Fe2Si2O7,https://materialsproject.org/materials/mp-757107,-5.308000827521968,47.12486222084862,7.935495687084089,38.20849868186749
-5.609380324,-28.04690162,5.637928290030423,-0.14445609874999973,3e-07,2.5709579772941246e-08,0.0,221,5,135.98897619663157,461.7151886,mp-10039,Pr3AlC,https://materialsproject.org/materials/mp-10039,1.4915895087574862,66.60999474296858,-36.9535222863444,65.01925651391426
-6.038127036086958,-416.63076549,7.1422851828172185,-1.8485855481304343,0.9166116,0.008966331493382268,0.0,12,69,1191.3736365383954,5124.31810784,mp-1210725,Na3V4(Bi10O21)2,https://materialsproject.org/materials/mp-1210725,11.861346207250245,23.00564091251046,32.77651904630487,0.4722543268890992
-3.97946572,-39.7946572,2.96891364277537,-2.4747889654818627,0.0,0.0,4.9056,225,10,399.5458736336732,714.3567038000001,mp-1112118,Cs2RbSmCl6,https://materialsproject.org/materials/mp-1112118,-26.98737507063817,-28.32097303035941,-20.24797625594149,-20.84992322168096
-4.353641854,-87.07283708,6.335738350123117,-1.05915476696875,0.0,0.0,2.2443,14,20,343.38954263864673,1310.1928,mp-10798,HgSeO3,https://materialsproject.org/materials/mp-10798,29.945036181255297,12.552488145551742,42.94673644274349,20.652686869303647
-8.186995313333332,-49.12197188,8.85961893590983,-0.25649863958333324,3.88378735,0.4118582961870788,0.0,141,6,109.89680129980582,586.342,mp-21298,NpSi2,https://materialsproject.org/materials/mp-21298,-35.65899908961293,26.284552023009372,-24.091473349893075,32.806578200841386
-8.14940726,-89.64347986,5.327888025111369,-2.916093643219698,9.9e-06,6.79759294414077e-07,1.1594000000000002,119,11,169.72955308803742,544.58223,mp-1222828,LaNb2AgO7,https://materialsproject.org/materials/mp-1222828,-5.656916384952981,16.55602961604708,4.742739397791789,23.19265296269588
-7.402312302083334,-177.65549525,8.454608109930621,-0.6426144223611109,2.5e-06,1.1992234291900476e-07,0.0,55,24,242.9502394818708,1236.97728,mp-974392,HoB4Ru,https://materialsproject.org/materials/mp-974392,-37.57752580437767,-11.727729546548192,-37.94506754012043,-10.519727774263833
-5.663950252,-113.27900504,8.697008421889914,-1.7980804829166672,0.0,0.0,2.3885000000000005,62,20,283.95178631095445,1487.1864,mp-561102,InBiO3,https://materialsproject.org/materials/mp-561102,-21.913582412812385,30.67940472515428,-21.80352151384964,56.754140551306676
-5.943809683333334,-142.6514324,4.7170845212086165,-1.9377616725781253,1.99999985,0.04456535423489496,0.0990000000000002,173,24,523.010042154209,1485.7118772,mp-975614,Nd3AlNiS7,https://materialsproject.org/materials/mp-975614,7.723429151724273,-4.251014876266832,11.675737044550244,3.932664265690832
-5.345887524999998,-256.60260120000004,4.4317236260867645,-1.5126652467608324,0.0002002,1.159064756081784e-06,1.1943,136,48,2012.953767444054,5372.2644,mp-1211788,La4CI6N,https://materialsproject.org/materials/mp-1211788,15.282401741033144,30.77002095930657,34.796383449066234,11.82891075225518
-6.48476954357143,-90.78677361,6.3677081037312195,-0.6493569053057138,1.60579855,0.0556968794531397,0.0,176,14,335.99872195941305,1288.4622,mp-1029640,Ba3OsN3,https://materialsproject.org/materials/mp-1029640,-3.269431516453058,16.38259709134098,1.8418143884842535,20.45046929218996
-4.336764807142857,-30.35735365,4.227466746732917,-1.7460010611607142,2e-07,1.0555907809550709e-08,0.0,139,7,220.8064902199202,562.1379999999998,mp-1147542,Ba2Cu(SBr)2,https://materialsproject.org/materials/mp-1147542,-11.01818259815236,14.978894347339278,-18.260327093594015,44.8489970600812
-5.571075256666667,-33.42645154,3.535268059976753,-0.3758832308292277,1.74479425,0.1263007035220847,0.0,129,6,160.9962940605011,342.759214,mp-21413,RbMnP,https://materialsproject.org/materials/mp-21413,0.7079888896001263,7.1504555664698115,-20.177797577436415,14.174848360857544
-7.539520260666666,-452.37121564,5.767887762158424,-3.323933604583334,0.0,0.0,3.6092,14,60,975.4661361394316,3388.2848,mp-15577,Pr4Ga2O9,https://materialsproject.org/materials/mp-15577,10.108862031240179,23.989745940622164,34.48568849986481,-1.4369384836373116
-4.152433393333333,-12.45730018,8.20655168074083,-0.6095172283333335,1e-06,1.8778815272465427e-07,0.0,191,3,62.05963796687189,306.705,mp-2422,ErGa2,https://materialsproject.org/materials/mp-2422,-56.23260736282815,22.55944963371332,-50.812379845091435,27.25184804478794
-6.92224066,-62.30016594,7.083274108500594,-3.200366277083333,5.94e-05,6.4408048870868885e-06,2.2326,123,9,107.47902779634491,458.46764,mp-1184645,Ho2Mg2O5,https://materialsproject.org/materials/mp-1184645,-8.082640394918215,15.873803746337385,-25.054077258011183,40.23828209924073
-8.124316647666667,-243.72949943,5.4080568864031795,-2.8287220909166657,3.000000083333333,0.08150316238585965,0.6668000000000003,185,30,428.967346362954,1397.0643,mvc-3769,YMoO3,https://materialsproject.org/materials/mvc-3769,10.20791564212005,57.397625760383825,-1.0526747330251147,68.88344505478388
-6.7885978015384625,-88.25177142,6.61574608812885,-2.1670198469230773,3.0000001,0.2450221258176428,2.6651,2,13,142.68995245395143,568.490395,mp-552307,Li2Co(WO4)2,https://materialsproject.org/materials/mp-552307,29.518283676634965,11.644378887214248,41.99788529288044,14.43997472793129
-6.3079816671875,-201.85541335,4.734030194174609,-2.46176849811,1.00000125,0.02779104883059412,0.4411999999999998,57,32,419.3465101364264,1195.5148255999998,mp-556030,BaCuCO3F2,https://materialsproject.org/materials/mp-556030,-6.7307838704206615,8.048788907154696,1.8029842999506798,22.970819452327
-8.794111085714286,-123.11755520000001,9.044002829688678,-2.7993105739508937,8.7939304,0.4130346170914228,0.0,139,14,248.12698559912064,1351.40524,mp-556671,LuU4S5O4,https://materialsproject.org/materials/mp-556671,-1.9728133005320885,9.65720977440374,-8.429014228329557,29.78880499254024
-7.176673185,-143.5334637,7.071170131142289,-3.0708085453750003,2.4e-05,1.1535468676037942e-06,3.3499,6,20,242.4674388154115,1032.5132199999998,mp-1222864,LaPr3(GaO3)4,https://materialsproject.org/materials/mp-1222864,-26.723926889201604,49.77077951667178,-12.173752551087327,67.95457726638682