energy_per_atom,energy,density,formation_energy_per_atom,total_magnetization_uB,total_magnetization_T,band_gap,sgr,num_sites,cell_volume,weight,mp_id,formula,URL,tsne_xrd_lin1_0,tsne_xrd_lin1_1,tsne_xrd_lin2_0,tsne_xrd_lin2_1
-6.19587460625,-148.70099055,3.931279970358496,-2.0616087053683327,16.000000099999998,0.8501451838955386,0.5836999999999999,6,24,219.33316927344194,519.265175,mp-1175329,Li7Mn4CoO12,https://materialsproject.org/materials/mp-1175329,12.854774682744226,-80.77083090332276,-18.518201215290595,-84.11335396762534
-5.8672268416666675,-140.8134442,4.1090040131086045,-1.9198280048716672,17.9999999,0.9845013296259724,0.7652999999999999,1,24,213.07555249352902,527.2554749999998,mp-1174921,Li7Mn2(CoO4)3,https://materialsproject.org/materials/mp-1174921,19.876703748365408,-72.70060749288031,-8.948742907238016,-77.90264559817356
-6.4234719228125,-205.55110153,3.9172957502549517,-2.1377472142725003,25.9999733,1.0167551706333189,0.9015,10,32,298.0121288532872,703.025715,mp-1100477,Li9Mn7O16,https://materialsproject.org/materials/mp-1100477,10.774136976345094,-82.72396804468491,-19.28972409444966,-86.22944806684731
-5.7608213209375,-184.34628227,4.12236777663332,-1.825472357559999,24.1337088,0.9657394280766172,0.0,12,32,291.23363650736275,723.001465,mp-1100749,Li9Mn2Co5O16,https://materialsproject.org/materials/mp-1100749,5.323998322003547,-70.34189913285047,-22.765289207603164,-73.88954041343537
-5.798635310357143,-162.36178869,4.110256289511471,-1.8581221155150007,10.000000300000002,0.4614535318987567,0.2703000000000002,1,28,252.55121732904078,625.12847,mp-1174749,Li4MnCo2O7,https://materialsproject.org/materials/mp-1174749,14.375475569967964,-79.97101085777302,-13.331010334573431,-86.69889705122743
-5.466676387857143,-76.53346943,4.338639444673484,-1.444573421428571,3.0195111,0.2478554479900928,0.0,74,14,141.976213257453,370.954,mp-755275,LiFeNiO4,https://materialsproject.org/materials/mp-755275,20.897269815903407,-80.28611797543958,-20.607383285224657,-65.08710401470903
-6.310509432000001,-126.21018864,3.8340169893090863,-2.129230219567,6.999995299999999,0.44698571766124623,1.0313,12,20,182.50784177323231,421.39218000000005,mp-1173945,Li3Mn2O5,https://materialsproject.org/materials/mp-1173945,12.719026870379471,-80.79462494340383,-18.148500986413065,-84.30394553883714
-6.1071832189999995,-122.14366438,3.9370143582557713,-2.038024245019,12.0000004,0.7794567920313186,0.4321999999999999,8,20,179.41826071960517,425.38732999999996,mp-1174304,Li6Mn3CoO10,https://materialsproject.org/materials/mp-1174304,18.615646314878646,-77.48149717679884,-14.131937206513932,-82.20707106638464
-5.7942467578125,-185.41589625,4.165368055749348,-1.8588977944349996,24.0000003,0.9704067058079192,0.6584000000000003,1,32,288.2271488476451,723.001465,mp-1175597,Li9Mn2Co5O16,https://materialsproject.org/materials/mp-1175597,13.33866402888303,-75.77456294928851,-11.973756738520784,-82.4956238770836
-5.7605366009375,-184.33717123,4.206972335178241,-1.8251876375599991,22.0000005,0.8984243344065179,0.0,8,32,285.3767657492398,723.001465,mp-1100758,Li9Mn2Co5O16,https://materialsproject.org/materials/mp-1100758,18.16706055731245,-76.92327211092498,-10.569532903562678,-80.90832600348347
-7.1411432375,-85.69371885,4.0226594527717126,-1.81862467774,10.999999800000001,0.9006585568846431,0.7672,166,12,142.33441650825608,344.8054350000001,mp-756575,Mn3CrO8,https://materialsproject.org/materials/mp-756575,21.961051221452085,-67.2252876831276,-7.465768810555925,-70.80238173725958
-5.7984054471875,-185.54897431,4.16315553839052,-1.8630564838099997,25.9999999,1.0507155092433476,0.8306,1,32,288.3803277438526,723.001465,mp-1175841,Li9Mn2Co5O16,https://materialsproject.org/materials/mp-1175841,6.755811493317263,-71.83979572381888,-21.07782359765161,-75.14549697483848
-5.77365208125,-184.7568666,4.146039287917511,-1.8383031178724991,21.999999300000002,0.8854116660922249,0.21700000000000008,1,32,289.5708591349893,723.001465,mp-1176192,Li9Mn2Co5O16,https://materialsproject.org/materials/mp-1176192,10.822639522709832,-81.05647749248827,-14.172608782997287,-85.38053863835961
-5.797522406785713,-162.33062739,4.091665061154084,-1.857009211943572,9.99999995,0.459366300965321,0.08029999999999983,1,28,253.69872996341468,625.12847,mp-1174727,Li4MnCo2O7,https://materialsproject.org/materials/mp-1174727,10.892162177099737,-80.61691041671855,-14.328980186215912,-85.13644315217537
-7.0744952922352935,-601.33209984,4.130389544399752,-1.8041141344338816,85.000001,1.0093453419257978,0.0,146,85,981.4237765556186,2441.17266,mp-775739,LiMn28O56,https://materialsproject.org/materials/mp-775739,21.16845449185016,-68.96933537028032,-8.927833471415346,-71.90549680341114
-5.80416962125,-139.30007091,4.007973590069989,-1.8567707844550003,17.999999,0.9602947864370038,0.0,1,24,218.44662411459527,527.2554749999998,mp-1175057,Li7Mn2(CoO4)3,https://materialsproject.org/materials/mp-1175057,16.191492888211588,-79.37801610519514,-14.858232616954508,-85.25778027445655
-5.7950165934375,-185.44053099,4.170820265862311,-1.85966763006,23.9999999,0.9716768921942718,0.6785999999999999,1,32,287.8503704502061,723.001465,mp-1175923,Li9Mn2Co5O16,https://materialsproject.org/materials/mp-1175923,16.241570418499705,-75.63258043606186,-10.812461651899925,-83.09793145078555
-5.7905286103125,-185.29691553,4.228007635828505,-1.8551796469349997,20.0000003,0.8208332207700864,0.5368000000000004,1,32,283.9569513630819,723.001465,mp-1176001,Li9Mn2Co5O16,https://materialsproject.org/materials/mp-1176001,19.671179968688996,-82.44085094728041,-11.2367707402206,-88.35336997148693
-5.807685047333334,-87.11527571,4.674060313829472,-1.7749418413333338,3.9999998,0.31405753274788684,0.2675000000000001,12,15,148.43221989153028,417.80478,mp-757382,Li3NbNi3O8,https://materialsproject.org/materials/mp-757382,4.927363925448059,-74.10110042718297,-26.254757294881053,-76.10900740055908
-5.702281415625,-91.23650265,4.419139828840578,-1.7642903906850007,13.000000199999999,1.0411423768310315,0.7608999999999999,8,16,145.5159714420851,387.257035,mp-1222620,Li4MnCo2NiO8,https://materialsproject.org/materials/mp-1222620,5.758767434522564,-70.72452801782016,-22.733529933338872,-74.8780571237629
-5.8052788484375,-185.76892315,4.227723506887582,-1.8699298850599997,21.9999995,0.9028558313350101,0.6888000000000001,1,32,283.9760350112265,723.001465,mp-1175599,Li9Mn2Co5O16,https://materialsproject.org/materials/mp-1175599,14.007637132314306,-74.52931901526772,-9.838548998568763,-78.97580018230084
-5.5844736525,-44.67578922,3.5498103462203976,0.6729722438749999,0.95574585,0.07146526023141836,0.0,194,8,155.8564819597252,333.18153856,mp-1186192,NaTi3,https://materialsproject.org/materials/mp-1186192,-70.7302408052343,2.6866779606165863,-57.004617461048134,-29.70263599005048
-5.3846910221428566,-75.38567431,4.511864586086363,-1.2844379686399998,5.994168599999999,0.4898848914409153,0.0,166,14,142.59763945071327,387.453245,mp-754267,Li2MnCu3O8,https://materialsproject.org/materials/mp-754267,18.13402388796208,-67.2260145073366,-15.15039610454743,-70.99396261448524
-5.464402169583334,-131.14565207,4.146204039243786,-1.7038703968750006,17.887464,0.9724662376279544,0.0,12,24,214.3639090045025,535.245775,mp-1174401,Li7Co5O12,https://materialsproject.org/materials/mp-1174401,12.91746157713407,-72.71228359735149,-14.145292853933615,-78.8239349536709
-6.05817754,-18.17453262,4.064962259599124,-1.3316237891666678,3.9999995999999998,1.2990733942510513,0.0,12,3,35.88423458975412,87.8438,mp-1062652,FeO2,https://materialsproject.org/materials/mp-1062652,22.908526217040333,-79.28678637041916,-9.308885856314184,-86.29723598191885
-5.779586109375,-184.9467555,4.198379629238442,-1.8442371459974989,19.9999999,0.8150811684815287,0.1878000000000002,1,32,285.960838378846,723.001465,mp-1176298,Li9Mn2Co5O16,https://materialsproject.org/materials/mp-1176298,13.190324301081462,-76.96855809166672,-13.246057026059392,-84.39017603468388
-6.4001647025,-102.40263524,4.2282224575182425,-2.154628440625,9.999999699999998,0.8010640129675551,0.3064999999999998,12,16,145.48231145430032,370.4409,mp-755661,Li4Cr3NiO8,https://materialsproject.org/materials/mp-755661,15.74155490532116,-69.24118601661515,-11.078919726769037,-70.13751418720325
-5.7948482478125,-185.43514393,4.186452002525248,-1.859499284435,26.0000008,1.0565952099214222,0.5781000000000001,12,32,286.77556983467485,723.001465,mp-1176314,Li9Mn2Co5O16,https://materialsproject.org/materials/mp-1176314,1.537175295611377,-72.47012052515335,-20.6270738420127,-74.9116792545298
-7.068140831428572,-49.47698582,3.969450666525748,-2.202277812142858,4.999999900000001,0.7962738603689795,0.4636,10,7,73.17874615448324,174.9308,mp-1176774,LiCr2O4,https://materialsproject.org/materials/mp-1176774,6.161375955877162,-68.77343435540222,-8.185070989850233,-66.82891834497823
-6.202638164166667,-148.86331594,3.984942836293665,-2.068372263285,15.9999961,0.8617496436205656,0.4659999999999998,2,24,216.37953933660611,519.265175,mp-1175158,Li7Mn4CoO12,https://materialsproject.org/materials/mp-1175158,18.863514800860163,-79.78263725810528,-11.063882551190146,-86.13852568701256
-7.3058877607142865,-102.28242865,3.6211874393800114,-2.786436915,2.0,0.16946799562539408,1.7447999999999997,74,14,137.53705800971164,299.9312,mp-753223,LiVSiO4,https://materialsproject.org/materials/mp-753223,19.110342961501146,-75.70893884702711,-14.549819043901989,-71.18344237201326
-5.774958158125,-184.79866106,4.177014641201927,-1.8396091947474995,19.9999998,0.8109333262246851,0.0,8,32,287.423497817626,723.001465,mp-1100660,Li9Mn2Co5O16,https://materialsproject.org/materials/mp-1100660,18.138388787882267,-77.09218273655685,-14.129135035252984,-82.08070911162739
-6.345654084166667,-152.29569802,3.896178805018644,-2.1179546512416665,18.0000005,0.955223184644778,0.13169999999999993,12,24,219.6064491578645,515.270025,mp-1175362,Li7Mn5O12,https://materialsproject.org/materials/mp-1175362,15.23114591519947,-78.21107336767498,-18.034479055884248,-84.87256627249631
-5.7864629896875,-185.16681567,4.196422094416087,-1.8511140263099997,20.000000600000003,0.8147011575734211,0.5827,1,32,286.0942325623581,723.001465,mp-1175965,Li9Mn2Co5O16,https://materialsproject.org/materials/mp-1175965,17.162974117251373,-79.62021640778809,-13.75781564877553,-86.1962483888197
-6.20254282875,-148.86102789,3.9647262766303664,-2.068276927868333,16.0000141,0.8573787479457593,0.5981000000000001,2,24,217.48288155034237,519.265175,mp-1175159,Li7Mn4CoO12,https://materialsproject.org/materials/mp-1175159,14.328629950243158,-81.70758146874459,-16.601913009054442,-85.22590081281999
-6.9188088746875,-221.40188399,3.957999160003404,-2.4651506240625,9.0,0.3466691175797133,1.9346,2,32,302.55531177772,721.1596000000002,mp-769628,Li4V3CrO8,https://materialsproject.org/materials/mp-769628,2.483450553135364,-66.32915380434731,-11.486110424608045,-65.44655042589802
-7.148699545555554,-64.33829591,4.0924226047205625,-1.8221447427133333,8.0000004,0.8910465130448216,0.573,12,9,104.63261061817728,257.86859,mp-775006,Mn2CrO6,https://materialsproject.org/materials/mp-775006,22.28346316322497,-68.30705826428948,-7.383426929947821,-71.07264283643948
-6.202347284999999,-148.85633484,3.961488845170545,-2.0680813841183325,16.0000002,0.8566779036903661,0.3877999999999999,2,24,217.66061420344883,519.265175,mp-1175153,Li7Mn4CoO12,https://materialsproject.org/materials/mp-1175153,14.588337258643069,-81.289575042194,-14.165689659565668,-87.27564408462753
-5.7828156328125,-185.05010025,4.1776845613573625,-1.847466669435,24.0000003,0.9732760848097676,0.3892000000000002,2,32,287.37740750336064,723.001465,mp-1175660,Li9Mn2Co5O16,https://materialsproject.org/materials/mp-1175660,19.820177419887052,-82.19341561890135,-12.247818819593975,-81.84439130264252
-5.755389855,-184.17247536,4.1022921904928085,-1.8200408916224988,25.999996600000003,1.0353544183418053,0.16749999999999998,2,32,292.6588606711285,723.001465,mp-1175726,Li9Mn2Co5O16,https://materialsproject.org/materials/mp-1175726,13.61386721166919,-82.50680211403646,-14.182226249319706,-87.85162463755152
-5.5203842159375,-176.65229491,4.293222983797336,-1.7251855506249996,22.000000699999998,0.9068218854282056,0.5780000000000003,2,32,282.7340597686285,730.991765,mp-1175444,Li9Co7O16,https://materialsproject.org/materials/mp-1175444,20.123999585915612,-72.58634502703937,-8.5926084053774,-77.67686352847728
-5.798268709285713,-162.35152386,4.084672051334065,-1.857755514443571,10.00000055,0.4585812317028121,0.3048000000000002,1,28,254.13306537337272,625.12847,mp-1174765,Li4MnCo2O7,https://materialsproject.org/materials/mp-1174765,10.911239355482968,-81.19827158288568,-14.631267133939247,-85.9679899421224
-5.7874000746875,-185.19680239,4.224329202975742,-1.8520511113099989,20.0,0.8201190707121778,0.4360000000000004,1,32,284.2042134793792,723.001465,mp-1175910,Li9Mn2Co5O16,https://materialsproject.org/materials/mp-1175910,13.700609172535984,-75.23579161915389,-10.182090790622754,-80.94147760787453
-6.300917434375,-201.6293579,4.1510705284195115,-2.160454396875,17.9999997,0.6986563522000775,1.7176,2,32,300.25227960681485,750.5806,mp-771082,Li4CrFe3O8,https://materialsproject.org/materials/mp-771082,2.461511543045613,-66.34169024622895,-12.024601257118869,-64.97692343465921
-6.1054067665,-122.10813533,3.939529851541239,-2.0362477925189992,11.999999699999998,0.7799547681686892,0.10020000000000008,8,20,179.30369744755538,425.38732999999996,mp-1232438,Li6Mn3CoO10,https://materialsproject.org/materials/mp-1232438,18.775780316735016,-79.70724127271231,-17.40804485010974,-84.6227380701189
-6.458024845535713,-361.64939135,4.108280695039541,-1.940157011277143,41.000005,0.8385307544552192,0.0,155,56,569.8261052520389,1409.78654,mp-1176793,Li9Mn12Ni3O32,https://materialsproject.org/materials/mp-1176793,19.594954801059906,-69.2243274853426,-9.431679057800304,-72.16908693322428
-5.714226295,-91.42762072,3.9402707477037535,-1.882878009435,9.999999699999998,0.8242441324089849,0.0,12,16,141.3909297586006,335.504635,mp-1173992,Li5Mn(CoO4)2,https://materialsproject.org/materials/mp-1173992,19.21153741298718,-71.98224300690205,-12.174126365903987,-76.1823009063553
-6.417325396071428,-179.68511109,3.922284612887025,-2.156468662795,10.9999995,0.4970926900372604,0.9202,2,28,257.88893950847506,609.14787,mp-1174296,Li4Mn3O7,https://materialsproject.org/materials/mp-1174296,12.523474415616882,-83.44100671917522,-17.80666537497785,-86.56233974536423
-5.8674688845833325,-140.81925323,4.078059892962616,-1.9200700477883323,18.0000005,0.9770872717418404,0.8441999999999998,1,24,214.69235942368493,527.2554749999998,mp-1174955,Li7Mn2(CoO4)3,https://materialsproject.org/materials/mp-1174955,16.504383257130378,-73.11010604695602,-10.345180048291857,-79.54726861617299
-5.8021164134375,-185.66772523,4.203293320384746,-1.8667674500599996,22.0000002,0.8976386463512304,0.9993,2,32,285.6265473521129,723.001465,mp-1175674,Li9Mn2Co5O16,https://materialsproject.org/materials/mp-1175674,6.8914723606564925,-71.83654315691409,-21.097821312034075,-75.34961234571298
-5.616806557333334,-252.75629508,4.4018923951028945,-1.3048189490000008,13.0,0.3233939721495053,0.4614,1,45,468.4776312813776,1241.878735,mp-759373,Li4Co13O28,https://materialsproject.org/materials/mp-759373,9.00711160460965,-67.36501974443753,-4.079565373895733,-69.87403939262624
-5.867779754583334,-140.82671411,4.094464393071655,-1.9203809177883344,18.0000628,0.9810211215055438,0.8387000000000002,1,24,213.83219299030839,527.2554749999998,mp-1174930,Li7Mn2(CoO4)3,https://materialsproject.org/materials/mp-1174930,16.547193393195172,-72.98893835396464,-8.708001350872124,-78.77392556950521
-5.441874641875,-174.13998854,4.252785309408235,-1.6466759765624994,21.2224509,0.8665324864706901,0.0,12,32,285.4224409155299,730.991765,mp-1176084,Li9Co7O16,https://materialsproject.org/materials/mp-1176084,1.4770610308656082,-72.43307297977735,-21.258297216786303,-75.5710234261775
-5.5224048475,-176.71695512,4.273016873956708,-1.7272061821874996,22.0000003,0.9025539000139624,0.5825,12,32,284.0710438330236,730.991765,mp-1175382,Li9Co7O16,https://materialsproject.org/materials/mp-1175382,19.22619688473747,-72.06295097629659,-8.84554120655618,-79.03298831158124
-5.846399209583333,-140.31358103,4.07548981053196,-1.899000372788333,17.999951899999996,0.9764688535255536,0.3197000000000001,12,24,214.827748563789,527.2554749999998,mp-1174485,Li7Mn2(CoO4)3,https://materialsproject.org/materials/mp-1174485,21.563760154935576,-75.05373257147401,-13.416467326359449,-77.74792452832804
-5.838606201785715,-163.48097365,4.167744926794845,-1.898093006943572,8.99999985,0.4211169212275106,0.9965000000000002,1,28,249.0676007489664,625.12847,mp-1174769,Li4MnCo2O7,https://materialsproject.org/materials/mp-1174769,16.36574418002984,-74.77139667111632,-9.110177242913409,-80.99336214023452
-6.68034204625,-106.88547274,4.010090512988469,-2.2256161214300008,9.9999993,0.7575413117925159,0.8244000000000002,148,16,153.8406391223599,371.514835,mp-773098,Li4Mn3VO8,https://materialsproject.org/materials/mp-773098,3.4498082880270267,-64.7135960720211,-10.158989386826322,-65.06062790821802
-6.441099282916666,-154.58638279,4.202969556809885,-2.182081683541666,6.6666663,0.352948817977871,1.9368000000000003,1,24,220.1275565175914,557.1621,mp-755848,Li2CrFeO4,https://materialsproject.org/materials/mp-755848,1.679850247000621,-71.53951256369484,-11.924598105094216,-66.13849932516244
-5.815391610833332,-139.56939866,4.01161890723282,-1.8679927740383335,15.999999800000003,0.8543717613745883,0.0,2,24,218.24812389648838,527.2554749999998,mp-1174865,Li7Mn2(CoO4)3,https://materialsproject.org/materials/mp-1174865,14.385633263309689,-83.80083540943785,-16.771005846011725,-88.24463726783102
-5.74245417875,-183.75853372,4.177296614562944,-1.8071052153724996,23.5458207,0.9547689927357994,0.0,8,32,287.40409632972774,723.001465,mp-1100614,Li9Mn2Co5O16,https://materialsproject.org/materials/mp-1100614,18.127653156844822,-77.01641959619805,-13.699017170868304,-82.58106128914288
-6.295449584615384,-81.8408446,4.3860639639203445,-1.5917510401476922,8.9916042,0.7631650146443589,0.0,2,13,137.30809948730706,362.67868,mp-1176681,LiMn2(CoO4)2,https://materialsproject.org/materials/mp-1176681,22.513148464999414,-71.37539614324545,-14.668745155145107,-72.22437392724305
-5.75933794875,-184.29881436,4.09633502175566,-1.8239889853724989,22.000000399999998,0.8747970643697183,0.1424000000000003,1,32,293.084465072668,723.001465,mp-1176043,Li9Mn2Co5O16,https://materialsproject.org/materials/mp-1176043,13.605939904477092,-83.32541696262568,-16.885395790978347,-87.21734736706999
-5.75414513,-103.57461234,4.832870991692077,-1.252795118055556,2.0000049,0.11149669435435224,0.0,12,18,209.04823039829375,608.418775,mp-753116,Co5SbO12,https://materialsproject.org/materials/mp-753116,22.06606431547505,-65.923619889051,-2.6141927627097448,-71.57175115688955
-5.833118745357143,-163.32732487,4.1705350764466935,-1.8926055505150012,8.9999999,0.4213988456276157,0.8414000000000001,1,28,248.90097084014698,625.12847,mp-1174621,Li4MnCo2O7,https://materialsproject.org/materials/mp-1174621,13.169870061991825,-72.44962144818847,-11.295174203916304,-80.56387467494183
-5.8710577525000005,-140.90538606,4.119499264462597,-1.9236589157050008,14.0000003,0.7676790936385713,1.0259,3,24,212.53269974923992,527.2554749999998,mp-1175089,Li7Mn2(CoO4)3,https://materialsproject.org/materials/mp-1175089,14.661428994440131,-73.52153211799498,-13.118127349218588,-76.77181090879158
-6.609437723125,-105.75100357,4.229133004012971,-2.231865561875,7.9999994999999995,0.6459560924213317,2.3208,10,16,144.3325845940521,367.5925,mp-754241,Li4Cr3FeO8,https://materialsproject.org/materials/mp-754241,15.797600234069956,-69.48110644213551,-11.234670412128443,-70.76702155730554