energy_per_atom,energy,density,formation_energy_per_atom,total_magnetization_uB,total_magnetization_T,band_gap,sgr,num_sites,cell_volume,weight,mp_id,formula,URL,tsne_xrd_lin1_0,tsne_xrd_lin1_1,tsne_xrd_lin2_0,tsne_xrd_lin2_1
-5.576067625384615,-217.46663739,3.027033556217209,-3.4054202454391937,0.0,0.0,7.269,189,39,607.4243618918292,1107.287382,mp-1199844,BaBPF10,https://materialsproject.org/materials/mp-1199844,1.2757558024221576,-27.420895250856066,10.35657084145844,-24.84177176211903
-5.9853216189285705,-167.58900533,1.8525670497712317,-0.6341149210371425,0.99999995,0.01947157589173047,0.053499999999999985,14,28,598.5167433112542,667.7304,mp-1182482,As(NO2)2,https://materialsproject.org/materials/mp-1182482,32.88710139424297,-12.665210167069835,45.55956442790345,-20.060779046382734
-8.9733653775,-107.68038453,3.6159391848960634,-3.523379465555556,0.0,0.0,2.6786000000000003,12,12,146.7063156535295,319.4632,mp-554278,TiO2,https://materialsproject.org/materials/mp-554278,19.776108281429213,0.9373705382687164,54.43797704483529,-6.48854079906667
-7.808614490535715,-874.56482294,6.083147275000196,-3.2314163479464293,0.0,0.0,2.8314000000000004,14,112,1853.0170130032475,6788.2628,mp-583714,Pr5O9,https://materialsproject.org/materials/mp-583714,1.830790378912987,-17.61244708875399,28.07059623691834,-7.492737860634699
-6.415114479615385,-333.58595294,6.784220276051168,-2.097926298461539,0.0,0.0,1.8389,14,52,1008.4223183789903,4119.96284,mp-560464,UTl2(TeO4)2,https://materialsproject.org/materials/mp-560464,15.393357804773807,-16.15113208217933,25.873234479976702,-7.195608956179613
-6.099441841428572,-85.39218578,4.5854006472218085,-1.3116317883928577,0.04184705,0.001298798462492094,0.0,148,14,375.4918452126768,1036.8805,mp-1216138,Y3CBr3,https://materialsproject.org/materials/mp-1216138,-11.444917733546363,35.79779659769807,-6.413165568978652,31.63078959423159
-6.6635400166666665,-79.9624802,6.476951231411923,-2.0071273908333342,0.0,0.0,2.897,88,12,188.25101380885516,734.2752,mp-22169,MoPbO4,https://materialsproject.org/materials/mp-22169,-8.72533476365529,-26.833641564648246,-3.556366129838905,-19.703926789867715
-5.874112809,-117.48225618,5.621989768740743,-2.1221714639375,0.0,0.0,2.1036,36,20,451.2527483840374,1527.7799999999993,mp-7290,Er3GaS6,https://materialsproject.org/materials/mp-7290,10.277718518546553,-18.247918424713326,10.481902651584127,-13.339029652350133
-5.265518833888889,-94.77933901,5.146642681673879,-1.6378656122022224,1.7676244833333332,0.11328754740603432,0.0,31,18,181.8382575491413,563.5859892000001,mp-778833,CoOF,https://materialsproject.org/materials/mp-778833,44.73643443028351,61.110515746285245,69.63780305360844,25.880854814185824
-4.964575296666666,-44.68117767,3.5299435695176107,-0.2109647674733329,0.8427150999999999,0.08320540030046189,0.0,148,9,118.03388151189027,250.91427000000002,mp-1080477,I(NO3)2,https://materialsproject.org/materials/mp-1080477,25.05797932599243,-20.37990235028449,-1.5221674136141174,-35.744391234627045
-3.2753253260000004,-16.37662663,1.2387516243873469,-1.665988043238,0.0001196,2.9368621826535393e-06,0.0,123,5,474.597056351748,354.0464032,mp-1207250,Sr2Br2F,https://materialsproject.org/materials/mp-1207250,42.17195435965203,-41.03152656664179,38.77393178024792,-55.507968867080706
-6.06736362,-30.336818100000006,5.457869172200193,-2.147074950625,0.0,0.0,1.6167999999999996,164,5,146.10355605740983,480.214,mp-10933,Nd2TeS2,https://materialsproject.org/materials/mp-10933,-0.5952308639859398,-28.761465093012852,-4.6368871264810725,-26.77597465131668
-8.504973968636364,-187.10942731,3.879074137038171,-3.653127698750001,0.0,0.0,4.5955,11,22,296.2102738718482,691.957,mp-561531,Y2Si2O7,https://materialsproject.org/materials/mp-561531,5.691255437552451,19.582612197029714,8.978000190349329,29.95995146422429
-3.282065325555555,-29.53858793,3.835461882275111,-1.6372877266666663,3e-07,8.690739724054577e-09,3.7364,162,9,402.2925024541848,929.20282,mp-754517,SrCa2I6,https://materialsproject.org/materials/mp-754517,-2.135551566904996,-29.916493836798118,-8.510608171991308,-24.92055990503325
-8.335227958666668,-125.02841938,4.952262176071993,-2.6776167917500016,0.0,0.0,2.608,166,15,244.69830903201157,729.7691599999999,mp-1186878,Ta2Mo2O11,https://materialsproject.org/materials/mp-1186878,6.391523718535602,-34.52428857488712,48.341218458708866,-7.319052125726701
-7.47543713375,-119.60699414,4.369272512830571,-3.1383817250000003,0.0003122,1.8636320411426008e-05,0.0,21,16,195.231619851439,513.70075,mp-1177138,Li4Y3ZrO8,https://materialsproject.org/materials/mp-1177138,1.2193504297578048,-34.580296411261955,-0.2086715310258794,-30.961029104818024
-7.6951540365,-153.90308073,4.651390749930808,-2.3168186337500005,0.0,0.0,0.9521,12,20,291.95411703107794,817.80232,mp-17272,NbCuO3,https://materialsproject.org/materials/mp-17272,29.198967837038584,-3.690320180935188,54.7920898559109,-5.863661900129794
-5.29890745,-180.1628533,5.1180590107945845,-1.540866502132353,0.0023696999999999998,4.720376517383502e-05,0.19350000000000026,10,34,585.051577767838,1803.2268,mp-676528,SrTe5O11,https://materialsproject.org/materials/mp-676528,16.831415270060962,-25.15432526815208,11.776035531915053,-24.753628752351567
-5.064135856428571,-141.79580398,4.691465291191572,-0.6238102915642847,0.0,0.0,0.4832000000000001,105,28,556.684833169679,1572.783,mp-29136,Sr6Cu3N5,https://materialsproject.org/materials/mp-29136,-9.012836254851731,36.185051464596405,-17.895482300986128,29.25860649552148
-7.887142357828948,-1198.84563839,6.503367601341528,-2.401118000238487,6.9999864375,0.03455127141264173,0.0,61,152,2361.0794050205686,9246.9776,mp-680712,Np3Se3O13,https://materialsproject.org/materials/mp-680712,34.97655251664189,-8.680539783319178,48.31510910042459,-15.848223311851136
-8.077948349772727,-355.42972739,4.8994282989633104,-4.286351467873182,0.00072595,1.4034306057114847e-05,4.8169,5,44,602.8276914590074,1778.6459575999997,mp-1216198,Y7(O2F3)3,https://materialsproject.org/materials/mp-1216198,-11.586946137071294,-23.410280428682675,28.5865560615957,-4.986023706693973
-6.3799243245,-127.59848649,4.220670431030706,-2.2068500789375007,6.25e-07,1.4252334099750095e-08,0.9971,62,20,511.05948203792985,1298.984,mp-540771,BaZrS3,https://materialsproject.org/materials/mp-540771,-0.05312473106739726,-34.1669402609168,20.656072273850388,-20.330931323265425
-6.895112959090909,-227.53872765,6.6868918869964125,-2.176715702007576,5.000000099999999,0.13502643413115814,0.1684000000000001,12,33,431.54753662237687,1737.8162464000004,mp-766425,Na5(WO3)7,https://materialsproject.org/materials/mp-766425,-10.846416899922836,51.03005169921109,50.98593096649044,16.106231301433777
-3.74251365925,-149.70054637,3.1189621848404943,1.4868131802185522,13.00000515,0.13854644991508294,0.05900000000000005,14,40,1093.517027354853,2053.9344,mp-1199062,Rb3YbN6,https://materialsproject.org/materials/mp-1199062,23.724874953602015,-6.366465727343862,38.93465337591467,-18.857863100272976
-6.467580823194443,-931.33163854,3.838481289013535,-2.1983148448055547,5.5000000125,0.03296550333320699,0.0,1,144,1944.376694233187,4494.59686272,mp-1099868,KNa3V2(MoO5)2,https://materialsproject.org/materials/mp-1099868,21.848653967488584,0.6998151122193129,51.11744874999778,2.4890943199016498
-8.194495746666666,-245.8348724,2.386410538157852,-0.7289014236359994,0.0,0.0,3.6777,18,30,509.6068687267383,732.37134,mp-567129,KLaSi(CN2)4,https://materialsproject.org/materials/mp-567129,39.7113314203847,-36.83373968966222,32.20516611839371,-63.35103752394175
-7.137659048055554,-256.95572573,2.9937801797883,-3.0119564341018514,0.0,0.0,3.2091000000000003,26,36,448.0102501877827,807.7161542399998,mp-555976,Na2TiSiO5,https://materialsproject.org/materials/mp-555976,-11.953580470905298,39.553224045220816,-7.553204624433426,70.63874864833933
-6.89274904,-578.99091936,4.016597617068186,-1.8589424407850004,1.9999999833333333,0.016315624606014174,2.0105,15,84,1428.577202143598,3455.51634,mp-1208512,UMo2H2O9,https://materialsproject.org/materials/mp-1208512,43.357761342861636,-41.91641765726341,39.73895114793864,-53.04843731228193
-7.293868711428572,-306.34248588,3.8917079968657453,-2.574075829737144,1.99999995,0.0355483953947995,0.8674000000000001,4,42,655.6731662162723,1536.66276,mp-1214481,CaU2Si2(HO3)4,https://materialsproject.org/materials/mp-1214481,38.828643050644224,-37.09945886707901,47.142108645896386,-34.587101223896504
-4.043521173,-80.87042346,5.942579027243731,-1.2235601634999995,0.9974073,0.015440960289140384,0.0,148,20,752.7931593088107,2694.02449,mp-1106228,Tb7NiI12,https://materialsproject.org/materials/mp-1106228,-25.056705396143165,-38.17971780295448,-34.17184920954091,-23.66465964432621
-6.916091788846153,-179.81838651,6.6640582254872465,-2.2759381156730765,0.0,0.0,3.3998,4,26,387.0246122383408,1553.2032,mp-18311,BaTeW2O9,https://materialsproject.org/materials/mp-18311,9.761853444200357,19.577139887898284,38.59618872512872,2.1340161504586987
-7.05432927225,-1128.69268356,2.4620259644740687,-2.7374735186401784,1.999999975,0.011329186062312221,0.00219999999999998,213,160,2057.3524987205233,3050.3680719999998,mp-1212145,K3Be3B3P6O25,https://materialsproject.org/materials/mp-1212145,52.68869230137452,-37.59808867654293,68.90591681290165,-23.546421600353064
-7.0543289234375,-1128.69262775,2.4620341935006507,-2.737473169827678,1.999999975,0.011329223928758231,1.0359,212,160,2057.3456222894615,3050.3680719999998,mp-1204141,K3Be3B3P6O25,https://materialsproject.org/materials/mp-1204141,52.68867695807157,-37.598591110049455,68.90602389699865,-23.54654027847746
-5.44072127875,-130.57731069,6.129957083129572,-1.4246159276822912,0.0,0.0,3.1937999999999995,14,24,379.4156187833223,1400.6304,mp-22342,PbSeO4,https://materialsproject.org/materials/mp-22342,10.164398329382438,-15.216240441017751,14.385728167974582,-9.25293713601755
-5.125263841293104,-594.53060559,1.805211846028548,-1.3267975816277835,1.000000125,0.010664427676405935,1.974,142,116,1092.7980931504965,1188.007036,mp-542114,CoP2(H8O5)2,https://materialsproject.org/materials/mp-542114,29.765550593370158,-37.051251742486315,32.86252105584825,-53.37910234160165
-5.78181365625,-46.25450925,5.1334286745597755,-1.4373954459374998,0.0,0.0,0.8338999999999999,5,8,234.65874024024305,725.42944,mp-549720,NbI2O,https://materialsproject.org/materials/mp-549720,11.109386364601393,-17.296862136869162,27.03865591178093,-28.90003075486887
-7.176545444864866,-531.06436292,2.979049955555232,-2.5497803044691123,19.99999985,0.2532504232720663,1.9217,14,74,920.3589502106596,1651.1477439999999,mp-780109,Li4Cr5(P3O11)2,https://materialsproject.org/materials/mp-780109,49.19639524570098,-10.405140539165988,58.91289505584898,-9.165327493268276
-6.5575836449999985,-131.1516729,5.8755079720453445,-2.5176676612500004,6.05e-06,2.3964959068660247e-07,0.0,31,20,294.20910618700174,1041.0041,mvc-9278,CaPr(SbO3)2,https://materialsproject.org/materials/mvc-9278,-24.045020701070143,21.21792624401392,-23.17774015206575,54.33957453001852
-6.830038492222222,-122.94069286,4.504613455173861,-2.1431542300288893,10.999992599999999,0.651701222181938,0.0,31,18,196.70766586699557,533.6170827999999,mp-752630,Mn3(O2F)2,https://materialsproject.org/materials/mp-752630,46.71711954104666,55.92298321013595,71.04540034223608,25.076257291851768
-5.384799184749999,-430.78393478,5.014545424593804,-1.3586661143333332,6.25e-09,6.016190412016063e-11,0.0,55,80,1210.6981302157562,3656.1024,mp-1178571,AgGeO3,https://materialsproject.org/materials/mp-1178571,6.699408733615662,-33.77817677786701,15.12826593164259,-16.92374921746482
-3.945886647692308,-51.29652642,1.7083601518466676,-1.2137726749667304,0.0,0.0,2.4272,221,13,167.8372315721532,172.67069999999995,mp-557964,Li9S3N,https://materialsproject.org/materials/mp-557964,30.32238435146996,64.3117745055844,-14.090769302911507,-6.493777377975516
-8.490292876666668,-331.12142219,7.86133932665668,-3.3667309830769225,0.0048496,9.732371009506789e-05,0.0,156,39,580.7172010376293,2749.2367600000002,mp-773073,Ba8Ta7O24,https://materialsproject.org/materials/mp-773073,-17.66783096402838,19.238705745825573,-14.670716476710249,47.397067106325366
-7.4760538418,-373.80269209,4.83293279698112,-2.8664597412800004,0.00017350000000000002,2.305426089466821e-06,1.836,14,50,877.0527267290242,2552.6270600000003,mp-1194764,K4U3(AsO8)2,https://materialsproject.org/materials/mp-1194764,38.484141237452654,-33.716787295750656,46.26570298859208,-33.762327094847606
-7.426407095,-207.93939866,5.344725123975925,-3.015569946285713,2.5e-08,6.736695795891963e-10,2.0003,56,28,432.48445252887706,1392.0241942399996,mp-669528,Na2UO4,https://materialsproject.org/materials/mp-669528,21.530397566351763,-2.844701247816805,45.80482887135084,-3.050699477126744
-4.9985769205,-199.94307682,4.9089978916369565,-3.1475759383329995,5.000741025,0.0982098007665302,3.7621,15,40,593.4128708263091,1754.2872896,mp-1214477,BaCdFeF7,https://materialsproject.org/materials/mp-1214477,12.751257390116788,-16.993517824160836,17.071208593106295,-11.0987146486785
-6.99258724875,-55.94069799,5.680157819333202,-1.0198170122135408,7.00015265,0.32982735261080104,0.16789999999999994,109,8,247.34222845723386,846.0763999999998,mp-582282,GdAgSe2,https://materialsproject.org/materials/mp-582282,-5.8405676132685755,-23.390729199400244,-28.73579180990185,-22.122076885632577
-4.778223418333334,-28.66934051,7.24545247667824,-0.6522196480555559,1.65e-06,1.3133917956144414e-07,0.0,186,6,146.40876346975756,638.82734,mp-20568,LaAgGe,https://materialsproject.org/materials/mp-20568,-50.99507222855956,24.27827275001459,-48.10338720795714,30.255573139650387
-6.087938491973683,-462.68332539,4.19320273853162,-2.0705037397323047,0.0,0.0,4.1401,198,76,1537.2144662144144,3881.7828151999997,mp-1200495,Cs2Cd2(MoO4)3,https://materialsproject.org/materials/mp-1200495,10.213963758410916,-26.443706900249037,24.98677949305341,-14.55229842502813
-2.8910956558928573,-161.90135673,2.4399331762401704,-0.28704495587285705,2.7875e-06,2.6315126844119023e-08,1.7662,136,56,1234.4878953441234,1813.9097600000002,mp-707337,K3H3Pd,https://materialsproject.org/materials/mp-707337,5.967060051371187,29.950847721567484,30.46419664838012,-4.9127193859448415
-3.8608108425,-46.32973011,5.067595234430498,-1.1668172872844829,0.0,0.0,1.7300999999999995,63,12,502.6722881090234,1534.0438438,mp-12491,CsLaCdTe3,https://materialsproject.org/materials/mp-12491,7.030905985103432,-8.848426029176037,10.320578718082068,-2.9097209403663435
-3.6942072780303032,-243.81768035,4.643246550935019,-0.617132808311553,0.0,0.0,0.8491,148,66,2114.457115533946,5912.5052,mp-21836,K2In12Se19,https://materialsproject.org/materials/mp-21836,16.282642681762535,-12.073606385803311,9.930326607399506,-23.293095604441643
-5.0528635809375,-161.69163459,4.5205242250711635,-2.0229044970150865,0.0,0.0,3.3566000000000003,62,32,789.9657518308203,2150.5422228,mp-30119,Cs3AsO4,https://materialsproject.org/materials/mp-30119,9.95375115077108,-23.96959180618182,24.324094454030337,-15.739390825006074
-6.031535244230769,-313.6398327,3.997176641898645,-2.038608583309018,1.0,0.012840372534787849,0.0,220,52,907.61111026848,2184.7616,mp-1209384,Rb3Zn3(MoO4)4,https://materialsproject.org/materials/mp-1209384,8.545202631327298,-23.966827021051326,22.468121900873815,-20.11586945488117
-9.835679802068963,-285.23471426,9.201520856157805,-4.57651125400862,0.0011869,3.278220123799175e-05,2.721,115,29,421.94266877114893,2338.10478,mp-1173030,Y2Th8O19,https://materialsproject.org/materials/mp-1173030,30.33380657716528,63.549179257323274,-11.22090149656492,34.322626269045905
-3.662753238,-18.31376619,6.8548355013859545,-0.17218592899999974,0.0006781000000000001,4.57194030440482e-05,0.2035,160,5,172.8504922660292,713.5404,mp-1227340,BiSbTe3,https://materialsproject.org/materials/mp-1227340,-6.1226639522409645,-30.409630826364,-7.011016938464018,-28.027125994758066
-6.9081290783333325,-124.34632341,5.4936477537605874,-2.4705666900744445,8.0000004,0.3320000228699094,0.0,46,18,280.82083258962786,929.0541800000001,mp-1099904,Ba2Mn2O5,https://materialsproject.org/materials/mp-1099904,-25.64903534126029,28.274614636823696,-23.517593117010232,57.90999342832385
-6.862734221923077,-356.86217954,4.4983249279587785,-2.315326359326924,0.00020765,3.1698618986444383e-06,2.5056,57,52,763.4296469057206,2068.09628,mp-1196001,NdV2IO9,https://materialsproject.org/materials/mp-1196001,17.07440155276334,-4.262110617086618,35.02355223819567,-12.399530982392815
-7.781621341666668,-140.06918415,7.2833986435167635,-2.5731707666044055,0.0194178,0.0008098294961249484,0.0,74,18,279.43696793391973,1225.65672,mp-1076737,Rb2Ta2O5,https://materialsproject.org/materials/mp-1076737,-27.298681587293373,29.156974557640208,-23.645775758437253,58.57383090854982
-2.6675552700000003,-26.6755527,3.2931034457250568,-1.0482091113999998,0.0,0.0,1.7713,225,10,456.69856545590034,905.7032586000001,mp-1111183,K3AlI6,https://materialsproject.org/materials/mp-1111183,-21.859972115874783,-42.89782164742932,-10.157391479714633,-24.6129322682939
-3.68727648625,-29.49821189,5.898634772657188,0.98360953125,0.6966926,0.07046147169870977,0.0,194,8,115.23035910576496,409.32599999999996,mp-1185288,Li3W,https://materialsproject.org/materials/mp-1185288,-9.572732237142564,-24.31128939411201,-20.74956777157055,-8.826639472354922
-6.1580212048684215,-468.00961157,2.5362623865189247,-1.5314719538185968,4.75e-06,7.024978583677362e-08,3.7013,14,76,787.9996644869618,1203.56936,mp-600220,InH6(CO3)3,https://materialsproject.org/materials/mp-600220,38.50415226955794,-35.630645704254775,27.510654243024025,-57.97799845996667
-4.1314243529545465,-181.78267153,3.478657515490489,-1.2340489667509091,0.000539275,7.102034713663972e-06,0.0,29,44,884.9218616364377,1853.81976,mp-1201559,K2I2ClO6,https://materialsproject.org/materials/mp-1201559,35.563756931123855,-9.18932643601574,38.951141512321385,-18.59853923795837
-6.4330880005,-128.66176001,9.829332985668575,-2.52821339775,8.675e-06,3.5510290370989926e-07,0.7298999999999998,62,20,284.7034221509718,1685.26284,mp-1101279,TmTlO3,https://materialsproject.org/materials/mp-1101279,-22.119425025941414,29.928224384675183,-22.313186212868857,55.82229033773941
-5.647351629166668,-135.5364391,3.8152438038170247,-3.43477986446,0.0,0.0,3.8153,186,24,391.914404280138,900.4600111999999,mp-866663,K3TaF8,https://materialsproject.org/materials/mp-866663,15.972387607901533,-25.52213642338831,10.937384505277256,-24.47479410904202
-6.4770588758333325,-310.89882604,3.7831431400055937,-3.155894238075833,3.999999725,0.06893162608052225,1.3732,14,48,676.2680432188896,1540.7158439999996,mp-766465,Sr2MnCO3F5,https://materialsproject.org/materials/mp-766465,11.500454427726538,-17.38731769311951,16.425033126648824,-11.99282234270598
-2.373991295555556,-21.36592166,3.6388094727001534,1.9372153783866668,12.0002195,0.4533090375970548,0.153,12,9,308.512126912959,676.0556799999999,mp-1079041,Cd(IN)4,https://materialsproject.org/materials/mp-1079041,23.58262916383947,-20.93126525605393,9.675247334371562,-23.42296233222059
-4.184134006527779,-301.25764847,2.7452733024873104,-0.9703661989027776,2.875e-06,3.4926489997701704e-08,2.8622,55,72,959.3130092177572,1585.9768,mp-780171,HgH10N2Cl4O,https://materialsproject.org/materials/mp-780171,40.48027953660935,-34.059053986907294,23.69171896058626,-51.761339711207164
-5.793889288947367,-220.16779298,2.557214091454933,-2.012257531950789,5.0000002,0.12418782588615265,4.214,2,38,469.21125945976274,722.5808099999998,mp-697984,K2MnH4(SO5)2,https://materialsproject.org/materials/mp-697984,45.57488683977211,-8.400959431425662,48.21437445346302,-19.06031984305817
-7.675248567941176,-521.91690262,6.072270688574643,-3.2521511659558824,4.000000025,0.04172217108412213,0.0,2,68,1117.3018606246685,4085.7572,mp-8825,Pr6O11,https://materialsproject.org/materials/mp-8825,-10.627518058593683,-29.364731228049074,-0.6669812874714784,-28.96310802768485