energy_per_atom,energy,density,formation_energy_per_atom,total_magnetization_uB,total_magnetization_T,band_gap,sgr,num_sites,cell_volume,weight,mp_id,formula,URL,tsne_xrd_lin1_0,tsne_xrd_lin1_1,tsne_xrd_lin2_0,tsne_xrd_lin2_1
-6.867029509615384,-357.0855345,3.0841968455853883,-2.060690211710769,0.99958805,0.019124824044503143,0.6553000000000001,33,52,609.1174409484238,1131.34232,mp-626879,V3(HO4)2,https://materialsproject.org/materials/mp-626879,55.417896296398624,-16.36256149288042,53.488949980755386,-14.048331959045026
-6.606509896538461,-343.53851462,3.2436949220488867,-1.825486101875605,4.0008482,0.08474520857336967,2.4335,14,52,550.1920976170758,1074.7445679999996,mp-510517,Fe2PH2CO7,https://materialsproject.org/materials/mp-510517,27.78803220366495,-22.206380196014525,52.86853254016118,-0.7026090080423083
-4.78074858859375,-305.96790967,6.585104286508095,-1.0410730640624992,3.03688045,0.04247122083042496,0.0,61,64,833.3172623440713,3304.6384000000007,mvc-7971,ZnNiBiO5,https://materialsproject.org/materials/mvc-7971,-8.2024570104179,39.108858538188045,-5.420061018954088,31.462048441846715
-3.963680114545455,-174.40192504,2.961076223808936,-1.2338050721759095,0.0,0.0,1.3186,56,44,1390.2677668532556,2479.1279999999997,mp-30113,Zr(Se2Cl3)2,https://materialsproject.org/materials/mp-30113,36.52357670190174,-34.55763721061023,13.534635864218949,-58.80280513929798
-7.386961681111112,-199.44796539,3.705715824643162,-2.7116844047222233,0.0,0.0,2.8551,21,27,450.62007449920054,1005.6192,mp-18929,BaV2O6,https://materialsproject.org/materials/mp-18929,14.162012478228192,-10.75824674812266,34.814446995828234,-15.130468172059894
-6.927982318500001,-138.55964637,5.513082707685492,-2.99423044025,0.0,0.0,3.2729,59,20,298.28074622626605,990.3088,mp-18742,Sr2CaWO6,https://materialsproject.org/materials/mp-18742,-20.268840203122338,19.75772524683661,-21.96371613151105,53.05074403732462
-6.647354149615384,-691.32483156,5.07960668653674,-3.2027782004807697,3.75e-08,2.336316036052195e-10,3.5745,64,104,1870.5835264883872,5722.135017600001,mp-560978,Ba4Al2O7,https://materialsproject.org/materials/mp-560978,6.696001435247794,30.433363851851244,30.528299799564113,-4.0694035359291725
-5.5670031463636365,-122.47406922,2.1843883903171277,-1.2667390142857142,3.81936995,0.1049523251168522,0.0,15,22,424.1086106297317,557.901924,mp-1182012,CaPBrO8,https://materialsproject.org/materials/mp-1182012,34.943481399984194,-21.63058801575785,41.95417937835196,-30.25143309143646
-8.009328402647059,-544.63433138,6.087703114455838,-3.2528802053676484,2.000000125,0.023132211422629386,1.7542,86,68,1007.6049615851256,3693.98112,mp-14748,La4Mo2O11,https://materialsproject.org/materials/mp-14748,9.021048726969267,-17.617680216868454,19.739941407024666,-7.702039400900094
-5.72725139,-160.36303892,3.277752363324607,-2.416759675038485,0.0,0.0,5.2743,14,28,478.0546510499655,943.6362075999999,mp-6726,CsLiSO4,https://materialsproject.org/materials/mp-6726,8.59199573747467,-22.187649042640142,18.09983811378836,-18.278731355442012
-7.149571717727272,-157.29057779,5.658435910374973,-3.185525363818181,0.0,0.0,3.8935,167,22,330.3179553896171,1125.5880985600004,mp-13042,NaSr3TaO6,https://materialsproject.org/materials/mp-13042,-14.873861090577854,13.151853855065102,-14.990912086857453,23.829168081273945
-6.901105087666666,-207.03315263,5.441142225500915,-2.484657419108666,3.000000066666667,0.07946961164408117,2.0629,185,30,439.94420472571517,1441.57947,mp-19267,BaMnO3,https://materialsproject.org/materials/mp-19267,-5.295837537535761,-16.73803044296272,-0.6071958274643637,-18.97213485152058
-2.9421988619999997,-29.42198862,3.280130782575345,-0.14505421957429868,0.0,0.0,0.19890000000000008,225,10,161.38114125113154,318.78277860000003,mp-989528,Rb2AlInH6,https://materialsproject.org/materials/mp-989528,-22.764415296448192,10.062384862667454,-33.499797732724545,50.22977367840279
-6.175601555,-197.61924976,2.77088012526356,-1.3585959083173442,5.99999995,0.13788165629865887,1.9051,176,32,507.1333629848125,846.2347,mp-1209394,PrS3(NO3)3,https://materialsproject.org/materials/mp-1209394,24.782074494789647,-18.26834610633388,14.34282203379184,-22.03686658589966
-3.525068674,-17.62534337,7.776939352281572,-0.1549958799999999,2e-07,1.860669508662968e-08,0.0,139,5,125.26743431114772,586.6753,mp-569204,Tl(CuTe)2,https://materialsproject.org/materials/mp-569204,-15.148357847772054,21.396481168566023,-16.288063259502152,41.11017741392018
-5.027318794375,-80.43710071,6.4407082877277695,-1.4455250418749994,0.0,0.0,2.5808,173,16,387.7958899977581,1504.1382,mp-15573,Tl3AsO4,https://materialsproject.org/materials/mp-15573,8.580892631639928,20.926041784967946,2.0140594194160335,22.705524167986948
-4.204935155833334,-100.91844374,1.4970650771250433,-1.1428589735622223,1.25375e-05,2.0150116486643645e-07,2.9181,61,24,725.1215504526585,653.7360000000001,mp-23316,BCl2,https://materialsproject.org/materials/mp-23316,28.6476281156986,-17.88165874541228,43.53707396988629,-34.823537889495874
-8.357678447,-167.15356894,8.79859114158487,-3.9733857467500013,0.0,0.0,4.7807,62,20,281.82742406832324,1493.3008,mp-1101371,SmLuO3,https://materialsproject.org/materials/mp-1101371,-22.03479998252954,30.5969306172507,-22.638180949494444,56.55128718649478
-5.152865534230768,-133.97450389,3.0773200870218416,-1.646980312036923,1.24e-05,5.084658630114071e-07,3.0249,2,26,284.20866314185224,526.69705856,mp-976402,NaZnAs(H2O3)2,https://materialsproject.org/materials/mp-976402,43.02812993017884,-34.48875523991886,56.95089554339211,-14.440053613249605
-7.345002978999999,-146.90005958,6.670952057949809,-3.2157208872500007,0.0,0.0,1.8076000000000003,14,20,286.09683258114694,1149.34862,mp-554059,Sr2UZnO6,https://materialsproject.org/materials/mp-554059,-25.347627798535942,23.8404450521105,-23.757417594436234,52.6130699711893
-6.2711838192857146,-87.79657347,4.500003682702285,-2.223643992444285,1.00000045,0.08261603027435856,0.0,176,14,141.06305977407752,382.27603999999997,mp-625915,Ce(HO)3,https://materialsproject.org/materials/mp-625915,-8.048798429278639,-14.788329230211707,1.7284364030277577,-26.080155266716247
-3.7804011933333337,-34.02361074,6.46345744481171,-0.14106142333333338,0.0009974,3.766452720135927e-05,0.1543000000000001,160,9,308.6130390541993,1201.2408,mp-1224417,Ge2Bi2Te5,https://materialsproject.org/materials/mp-1224417,-23.08193463467985,-36.243246445981725,-33.3980691296828,-22.18826683847854
-4.672648567083333,-336.43069683,4.85378082457938,-0.7024720004625635,0.0,0.0,1.425,14,72,2290.3573955879033,6694.74944,mp-569378,Rb3Ta2AgSe12,https://materialsproject.org/materials/mp-569378,38.324486577308605,-43.37674171637838,27.22596604272247,-60.14213033521972
-3.8429981539999996,-38.42998154,5.938265459623376,-0.20248530357812486,1.89e-05,7.117246228130852e-07,0.2110999999999992,8,10,309.47618944360147,1106.7199999999998,mp-1219473,Sb4(TeSe)3,https://materialsproject.org/materials/mp-1219473,-24.168382050189052,-36.24163034635024,-33.15160928614445,-21.667459457776214
-7.648095695625,-122.36953113,3.2946555569086065,-0.2045618161996119,2.0000006999999997,0.08620575387560313,1.5419000000000005,225,16,270.37798122615925,536.4537038000002,mp-571284,Cs2FeNi(CN)6,https://materialsproject.org/materials/mp-571284,-3.3541380859993475,-35.265767714075686,-0.9762285576271048,-30.23619489928641
-5.152264112307692,-267.91773384,1.7402429730744935,-2.083483958003076,0.0,0.0,5.6661,14,52,523.803254411834,548.9451984,mp-759312,MgSiH12(OF)6,https://materialsproject.org/materials/mp-759312,28.29416662252449,-41.119594987805584,31.79268302772643,-51.260379755294245
-4.5935755725,-257.24023206,4.732899976013202,-1.5295971005357143,0.0,0.0,2.8668000000000005,70,56,1237.0866799350222,3525.968,mp-561799,Yb(GaS2)2,https://materialsproject.org/materials/mp-561799,3.4993506468485807,-4.817411584171946,14.43572063031374,-19.94968006986838
-5.8533895002083325,-280.96269601,1.5293213426640133,-0.4003991581970833,0.0,0.0,2.1418,4,48,587.2499650181761,540.8448,mp-1237314,H5C2S2N3,https://materialsproject.org/materials/mp-1237314,67.91080516264326,-33.59233041249238,62.28191274230291,-41.96812004729679
-5.33563732159091,-234.76804215,5.277824773789461,-1.8095188283748045,0.0,0.0,1.4727,31,44,1509.420546081537,4797.512711399999,mp-1226868,Cs3Sm7Se12,https://materialsproject.org/materials/mp-1226868,-0.440656153652914,-11.560396385993512,0.1967044965233578,0.4465942309893346
-5.59848892703125,-358.30329133,5.741852190992569,-1.6146576531249996,3.9999997875,0.0541322104655886,0.000199999999999978,61,64,861.1556079606906,2977.72476,mvc-7834,MgCoBiO5,https://materialsproject.org/materials/mvc-7834,4.5005562703379285,30.15149355740075,35.659438951151984,-6.362854427821691
-8.044465345263157,-611.37936624,4.939017202126768,-4.291792612277368,6.900000000000001e-06,7.811933757316879e-08,5.0589,18,76,1029.3616078777516,3061.6773024,mp-1216371,Y6O5F8,https://materialsproject.org/materials/mp-1216371,-11.274641576271687,-24.21927156431846,28.49419306444259,-5.009467004737983
-6.7709363839285714,-189.58621875,3.8543659699723882,-3.021809097377551,0.0,0.0,4.9847,11,28,415.4870656593396,964.409248,mp-1194079,K3Lu(PO4)2,https://materialsproject.org/materials/mp-1194079,25.493469258897814,0.5559469444074753,51.74752018840226,2.47296944437372
-4.79765616625,-38.38124933,4.156657326175323,-0.05234582119047637,8.609999999999999e-05,6.04542838827991e-06,0.0,166,8,165.97913538479426,415.47857200000004,mp-20050,InP3,https://materialsproject.org/materials/mp-20050,-17.667619801230558,16.88001001730516,-11.091534981828618,22.761289964526053
-6.991105215999999,-34.95552608,2.445740339894876,-0.8018950316186662,0.0,0.0,3.4352,12,5,93.18975789580853,137.2554,mp-1068850,Sr(BN)2,https://materialsproject.org/materials/mp-1068850,38.41512975590817,-35.334013058875094,24.687232855028682,-56.344298689019325
-6.3656511125,-101.8504178,4.073182975203574,-2.1710197604687504,4.0,0.2492981595305732,0.0,2,16,186.98998491612164,458.673,mp-1255391,ZnFeSiO5,https://materialsproject.org/materials/mp-1255391,7.101253849125844,25.168710305350885,42.77847759391089,-0.1475767982409321
-7.732358799166667,-371.15322236,3.976182060322276,-2.9559477535974987,10.00349145,0.16801621660355945,2.6446000000000005,15,48,693.8695541819342,1661.4795600000002,mp-1196057,BaMn2Si2O7,https://materialsproject.org/materials/mp-1196057,13.947793024633874,27.108961989254016,34.477762142707526,1.9951053812710071
-3.077538415,-12.31015366,7.016015928940053,-0.013558674166666672,3.27e-05,3.281547867330453e-06,0.0,229,4,116.13053762117384,490.6682,mp-28246,AgTe3,https://materialsproject.org/materials/mp-28246,-27.288208347341037,-40.93435342306304,-36.42245593166307,-21.546009709122416
-5.287313036666666,-95.17163466,3.184502173481248,-2.5205742416944443,6.99999985,0.3220869630961624,0.2269999999999999,15,18,253.28082476735347,485.72982479999996,mp-753435,Mn2F7,https://materialsproject.org/materials/mp-753435,28.175105746535053,-37.765876851288404,31.97255639882591,-50.814406212159525
-5.934829658333333,-71.2179559,3.4372648419456935,-1.9879646978609928,0.9999998999999999,0.06333708605607594,2.6763,147,12,184.0006279549269,380.8756519,mp-560628,CsFe(SO4)2,https://materialsproject.org/materials/mp-560628,-12.785584991314726,21.312211941685568,17.563504800801862,-19.33276187750463
-4.1015776505,-82.03155301,5.019111533438481,-0.3879588428689992,15.866648399999999,0.3977774023983796,0.0,108,20,464.8603642693603,1405.0774835999996,mp-1238368,AlFe4Hg2O2F,https://materialsproject.org/materials/mp-1238368,5.579796616543762,-27.60543044339563,18.93999534995362,-16.388045812253605
-5.292432050555556,-95.26377691,5.0750695192258535,-1.6647788288688892,2.0779001333333333,0.13132119185617716,0.0,4,18,184.40270304048423,563.5859892000001,mp-760931,CoOF,https://materialsproject.org/materials/mp-760931,44.66701199188263,61.04453445523164,69.43402213350022,26.007613219581213
-7.075845786458332,-339.64059775,5.367031236699688,-2.4460702925,0.0,0.0,3.5068,60,48,834.8975863573289,2698.474,mp-19480,SmTl(MoO4)2,https://materialsproject.org/materials/mp-19480,16.555572770744675,-3.976450624310457,34.34483208787107,-11.906328527200367
-4.733243083823528,-160.93026485,3.984989930154973,-1.6787347107352943,0.00026285,2.989238130386035e-06,2.1033,31,34,1024.7664427697232,2459.252,mp-1228355,Ba4SnGe2(S4Br)2,https://materialsproject.org/materials/mp-1228355,11.208748503940608,29.468896927395395,32.37286029638441,-0.7116951462089516
-7.487535109891303,-688.85323011,3.214844905157882,-2.529754354257247,0.0,0.0,3.2653,14,92,1054.152978635784,2040.8664,mp-554873,Ag2B8O13,https://materialsproject.org/materials/mp-554873,35.16369531939684,-20.32688505273161,37.36892522941957,-20.71703879929696
-6.3640764060000015,-127.28152812,5.858679006931733,-2.36395640575,8.685e-05,3.537606853163897e-06,0.0,31,20,286.1130610349132,1009.4581,mvc-9240,PrMg(SbO3)2,https://materialsproject.org/materials/mvc-9240,-9.01161492716666,35.11935518478752,-2.5931782986255416,44.166259394380205
-6.557207240833333,-157.37297378,4.241563267739872,-2.0812332248333334,0.0,0.0,2.5368,2,24,376.4068548298249,961.467,mp-618807,KSb(MoO4)2,https://materialsproject.org/materials/mp-618807,24.99727233059586,-7.953307887861202,48.580757928207895,-14.634595213667964
-6.213246358888888,-111.83843446,8.156335641103919,-0.08399097772444483,0.0,0.0,1.2307000000000006,15,18,397.4261309834642,1952.1016,mp-1246987,Zr(PbN)4,https://materialsproject.org/materials/mp-1246987,13.941109244133456,26.757835558886164,58.669448636140785,32.62996985246596
-8.422635122045454,-370.59594537,6.6586511072704875,-3.448160659431818,3.9802941,0.07401400524788597,0.28080000000000016,19,44,626.7274024676851,2513.1352,mp-639904,Ce3MoO7,https://materialsproject.org/materials/mp-639904,17.938921971014548,58.091761070985775,-2.3623575233399667,37.15061265520535
-6.5075513925,-130.15102785,2.9220795889040097,-2.6864369142475373,0.0,0.0,4.7607,62,20,373.7867312939618,657.7590479999999,mp-9138,RbPO3,https://materialsproject.org/materials/mp-9138,10.717309143136477,-18.529943327722812,18.163056667099575,-11.52332592115527
-7.599483073888888,-136.79069533,5.547732702814749,-3.132664794305556,0.0,0.0,3.5102,129,18,279.7280753269809,934.54989856,mp-861607,KNaNdTaO5,https://materialsproject.org/materials/mp-861607,-13.833885222312064,9.754372804391007,-21.020311762513145,48.86646002130206
-6.254163426666668,-150.09992224,6.5676456651312725,-1.7736220670684535,0.000118475,2.9640468489652144e-06,0.2385999999999999,62,24,465.8210191283025,1842.382096,mp-1191596,ErPS,https://materialsproject.org/materials/mp-1191596,-0.6640631713028528,-24.40480623912817,11.789851688123306,-13.027219871545801
-8.044993101666668,-96.53991722,3.7609599120382566,-2.719987693055557,3.0,0.24091628907751955,0.4233000000000002,8,12,145.1217535001517,328.6867,mp-755715,TiV3O8,https://materialsproject.org/materials/mp-755715,19.71481884822617,0.8299569355002677,54.47050949753178,-6.541462675292902
-4.621502462307691,-120.15906402,7.546175548267336,-2.3236747145784618,2e-07,4.458034964984318e-09,0.0,8,26,522.8341573853353,2375.9744512,mp-1173571,Pb5F8,https://materialsproject.org/materials/mp-1173571,1.8005358336803914,-20.69400188599021,10.844660770805143,-8.2803834844477
-3.777258045833333,-45.32709655,4.0015620412469755,-1.0306354608333332,3.5e-07,1.4499092713796735e-08,1.0549999999999995,62,12,281.32261451880765,677.9304,mp-1101989,SrLiAs,https://materialsproject.org/materials/mp-1101989,-45.634155460765115,21.361322511860262,2.088094308277011,27.50023995799745
-7.2278587118421065,-274.65863105,4.166177757953449,-2.4753321107988726,2.00000005,0.04328312603607711,3.1484,13,38,538.5038527114461,1351.068972,mp-758403,LiP3W2O13,https://materialsproject.org/materials/mp-758403,35.204415880844714,-34.65172051397583,50.901937852040255,-31.03278519079767
-7.046031831041668,-338.20952789,6.432189713025358,-3.7312820886425,6.000000099999999,0.09898492556180892,0.012500000000000178,62,48,706.414531342976,2736.3357152,mp-1211682,KNp2F9,https://materialsproject.org/materials/mp-1211682,23.91014541325839,-8.096022702368764,36.05381464707922,-10.1366128068575
-6.267136077603307,-758.32346539,7.8775334115424815,-2.042724906334121,0.0002198,1.3754860861374005e-06,2.2872000000000003,5,121,1862.2968729563293,8834.66482,mp-642320,Bi32P10Pb3O76,https://materialsproject.org/materials/mp-642320,11.09613403012208,23.921423123140602,33.99902971170529,-0.24652761850702865
-3.806016372,-38.06016372,4.338747689878842,-0.7639335620689653,4.0000004,0.11752882097901544,0.0,12,10,396.6368705441871,1036.3546199999998,mp-676553,RbCrI3,https://materialsproject.org/materials/mp-676553,16.442251803819975,-8.970088799649213,13.852431071363695,10.486985570695996
-4.082148133333333,-12.2464444,3.806506186365679,-0.3828101316666667,3e-06,4.165666719074399e-07,0.0,187,3,83.92940836478536,192.3940386,mp-13149,BaAlSi,https://materialsproject.org/materials/mp-13149,-18.17497140456746,12.513609877594716,-21.16946022886701,-8.558117108555098
-5.993490613541668,-287.68754945,5.5603425230938575,-1.5107716477083326,1.70625e-05,2.597892819186334e-07,1.8706000000000005,62,48,765.4183371740457,2563.016,mp-706518,TlCrO4,https://materialsproject.org/materials/mp-706518,15.340034772599015,-10.608196477340387,10.761041027907726,-22.207419283241414
-9.38733614,-56.32401684,8.470294430198024,-4.1657339320833335,0.0,0.0,2.342999999999999,123,6,85.07054546801177,433.93895,mp-1222782,LaPaO4,https://materialsproject.org/materials/mp-1222782,29.60360300255529,63.32951478686589,-11.855106788847653,35.694462597218276
-6.13499954,-122.69999080000001,3.8917122276170817,-1.852874306249999,9.000001199999998,0.511907053390256,0.0,3,20,204.89383032187664,480.19818,mp-774238,Li4Nb(FeO4)3,https://materialsproject.org/materials/mp-774238,7.2758030169738435,-25.266414684487597,20.947591892357725,-20.55611429045312
-7.863000248214285,-440.3280139,7.038802984175214,-2.8973568353571433,7.00000025,0.09459349210346836,1.9154,12,56,862.4108752872957,3655.6444,mp-1229259,Ba6Gd(ReO6)3,https://materialsproject.org/materials/mp-1229259,-16.90364097637753,18.112974448555576,-17.640666794442875,46.41753488511141
-4.016936189411766,-68.28791522,7.458842226410265,-0.3350859433731619,0.0020743000000000003,4.5576553243620944e-05,0.2393000000000001,166,17,530.4048866640446,2382.4832,mp-1190284,Bi8Se9,https://materialsproject.org/materials/mp-1190284,-23.28045592608782,-35.88940721818425,-32.74998799803607,-21.760791161131586
-7.54727376,-52.83091632,5.226704845529062,-2.9737020042857147,0.0,0.0,2.0658000000000003,139,7,100.36503484063316,315.90851000000004,mp-7724,Li2UO4,https://materialsproject.org/materials/mp-7724,3.702437971739193,-33.86497785284756,47.06059763425426,-27.842907283456984
-6.4833144675000005,-311.19909444,6.310361631362287,-1.9217143212499996,2.675e-06,4.039251390518841e-08,2.7477,14,48,771.7921033529136,2932.9556,mp-1208190,TlBi(MoO4)2,https://materialsproject.org/materials/mp-1208190,15.575275042090745,-16.388748839867812,15.199210505037927,-14.729614829977312
-6.300752747142857,-88.21053846,4.915311313482975,-1.0051624504166663,8.9997996,0.3836721833856352,0.0,166,14,273.36943364756763,809.1925799999998,mp-1239209,TaCr3(AgS4)2,https://materialsproject.org/materials/mp-1239209,-19.16440630051014,-6.237502959413347,-13.325887036096173,-1.304797379979238
-1.98819232,-7.95276928,1.6682376383810558,0.9814389114999996,3.594446,0.20182399136843288,0.0,139,4,207.55662506444745,208.51890000000003,mp-1185188,K3Zr,https://materialsproject.org/materials/mp-1185188,-8.460020961094585,-33.34480344179695,-13.056216037871742,-28.467730769560685
-4.0902781855555554,-36.81250367,2.4239558322652925,-0.4360441343355556,1.5544392,0.10389646451899387,0.0,5,9,174.36142033970822,254.5224,mp-1179368,Sr(ClO3)2,https://materialsproject.org/materials/mp-1179368,38.3921819837552,-34.95096506098396,24.10217397400692,-51.83362991223298