energy_per_atom,energy,density,formation_energy_per_atom,total_magnetization_uB,total_magnetization_T,band_gap,sgr,num_sites,cell_volume,weight,mp_id,formula,URL,tsne_xrd_lin1_0,tsne_xrd_lin1_1,tsne_xrd_lin2_0,tsne_xrd_lin2_1
-8.657913443333333,-51.94748066,7.20957972986609,0.057131663750000186,3.24454255,0.6635743757099414,0.0,58,6,56.982473132076244,247.4014,mp-1871,Fe2C,https://materialsproject.org/materials/mp-1871,-54.479014653382215,-47.18412905447811,-64.47188462175157,-34.43170337761725
-5.9982716542857135,-125.96370474,8.170621778807861,-0.7475424202380948,0.0,0.0,0.0,174,21,257.5401946301979,1267.217134,mp-542003,Yb2Ni12P7,https://materialsproject.org/materials/mp-542003,-63.53483705861307,-30.086515234593183,-65.94606723246238,-17.404556652456428
-4.814883097857143,-67.40836337,3.1373351424923097,-2.8283253568492865,1.9996580000000002,0.19115952418348856,1.9243,139,14,121.90940500876215,230.3292192,mp-753283,Li6NiOF6,https://materialsproject.org/materials/mp-753283,-9.319371244804408,-56.52568400167326,-32.13307451280025,-26.64982420480016
-6.98544416125,-167.65065987,7.527297742314517,-0.5768499273611111,5e-08,2.529101970591584e-09,0.0,55,24,230.39926638137254,1044.41018,mp-1208336,TbCoB4,https://materialsproject.org/materials/mp-1208336,-37.07710690454279,-12.60345205760508,-38.26371096697043,-11.133928070976221
-7.8540875275,-125.66540044,10.342060513056037,-0.4564665624999993,1e-07,3.9004216124969625e-09,0.0,193,16,298.78987274657777,1860.9035199999998,mp-30644,Hf3Nb2Ga3,https://materialsproject.org/materials/mp-30644,-54.697985583338756,-9.205342297523565,-56.905753607534606,-18.582805587889013
-5.2268071675,-62.72168601,6.147909458154688,-0.22159207916666665,0.5489415,0.04299955528057764,0.0,164,12,148.77827818455842,550.8304,mp-1101998,LiFeAs,https://materialsproject.org/materials/mp-1101998,-53.951106646172406,-20.822132616723405,-50.4641899069631,-26.68447347539383
-5.894148370344827,-170.93030274,10.294329902228759,-0.7355548687192118,5.7499999999999995e-05,1.4632108365571056e-06,0.0,225,29,457.9714062253185,2839.143572,mp-1210990,Lu3(P3Pd10)2,https://materialsproject.org/materials/mp-1210990,-69.39366523495653,-2.7307922945370584,-59.00141093140714,-17.344167035653488
-6.8949135099999985,-82.73896212,8.551089394744416,-0.06484199645833283,12.387383400000001,0.8561164543901064,0.0,47,12,168.62585430503677,868.3534199999999,mp-1223000,LaCeCo10,https://materialsproject.org/materials/mp-1223000,-52.521817530907,-17.20050227021138,-54.039866819711705,-14.577594866309353
-5.2487338714285725,-36.7411371,10.265678175785037,-0.4929610383333341,2e-07,1.9962056212236382e-08,0.0,123,7,116.76216767104346,721.8396,mp-1025293,InAsPd5,https://materialsproject.org/materials/mp-1025293,-51.241525827756604,-33.10218538142032,-60.23213058020687,-29.3633175157826
-8.297321653181818,-182.54107637,8.395973389334918,-0.09071787255682036,33.8883479,1.4954118698158163,0.0,166,22,264.09914849096384,1335.3311,mp-974000,Lu2Fe17C3,https://materialsproject.org/materials/mp-974000,-52.83783761638104,-23.878949982997693,-55.673567147712056,-11.334203013072253
-7.191274138611112,-258.88586899,8.60492745810606,-0.6920183330555558,0.000129775,3.951873346775159e-06,0.0,55,36,382.7061555738117,1983.18656,mp-1198017,Ho2B6Ru,https://materialsproject.org/materials/mp-1198017,-35.62263687622419,-10.518119211542091,-37.738338060173255,-12.257389505213876
-5.75183242625,-46.01465941,3.809338137908093,-2.826492550625,5.3299999999999995e-05,6.346374049831758e-06,2.1808,123,8,97.87662175284149,224.5326,mp-1218196,SrMg3O4,https://materialsproject.org/materials/mp-1218196,-33.22422788188952,-7.1138569382426535,-44.86384752550971,-10.00479627179766
-8.333731615,-66.66985292,18.50290357298596,0.39699328500000064,3.615e-05,3.6899613370221678e-06,0.0,194,8,114.17313165346637,1272.198,mp-1187960,ZnOs3,https://materialsproject.org/materials/mp-1187960,-54.86771059546209,-46.76777976827982,-65.97473211193703,-36.05201924757025
-7.9481671503571425,-445.09736042,6.625802223770485,0.02014680826571537,1.98520845,0.042145702429227265,0.0,60,56,548.9467853141919,2190.3808,mp-1245330,Fe7GeN6,https://materialsproject.org/materials/mp-1245330,-52.7479716453196,-7.264811415528313,-58.19321471543334,0.8297003354469399
-4.181738241428572,-29.27216769,7.967763689722463,0.06711229571428591,1e-07,1.2077426725658166e-08,0.0,160,7,96.49460135246315,463.01,mp-1225769,Cu5Ge2,https://materialsproject.org/materials/mp-1225769,-49.3514601650248,-51.46675622286662,-64.29436207617572,-28.356534187532787
-6.935202515,-83.22243018,8.371091363666027,-0.07822946020833399,13.629722899999999,0.9663927642428978,0.0,47,12,164.36554513431366,828.5978,mp-1219018,SmYCo10,https://materialsproject.org/materials/mp-1219018,-53.683319401288955,-17.07636175513345,-54.12353810952758,-5.1566526538882895
-7.842812199523809,-164.69905619,7.588993322833137,-0.6600870911904757,20.730144,0.9034191522446062,0.0,174,21,267.4178871681454,1222.152874,mp-1191843,Yb2Mn12P7,https://materialsproject.org/materials/mp-1191843,-62.952106804034635,-29.52203905224338,-65.67865615172288,-17.182812645510534
-6.270947259333334,-188.12841778,7.89087476060697,-0.3084982406666673,0.8131614,0.023525936677085163,0.0,65,30,402.8165065740314,1914.1824,mp-1216356,Y4ZrNi25,https://materialsproject.org/materials/mp-1216356,-54.29327282842702,-17.773010792180017,-55.91041018128958,-14.435153526191653
-8.71463462,-139.43415392,13.493733103717902,-0.168473163749999,3e-07,1.275270263418372e-08,0.0,193,16,274.1551757347704,2227.8168,mp-30668,Ta5Ga3,https://materialsproject.org/materials/mp-30668,-66.36953267120573,-11.735822036649411,-65.47662377564339,0.28282196751279803
-7.68494656,-46.10967936,8.640409066897586,-0.7074047105555555,2.4e-06,3.471416027151629e-07,0.0,191,6,80.57160315957012,419.24435,mp-1024941,YB2Rh3,https://materialsproject.org/materials/mp-1024941,-63.414986708150174,9.125175527090892,-55.56917532421947,7.720848659247062
-8.296786571428571,-116.15501200000001,7.857836463593999,-0.09777339967261968,22.2960288,1.4696138671737569,0.0,44,14,176.80791506530795,836.6727,mp-1225715,DyTiFe11C,https://materialsproject.org/materials/mp-1225715,-52.64842008607311,-24.296269128147124,-56.17704154266964,-11.37028051288899
-4.0931423925,-16.37256957,3.3020332374112167,0.7741375337378571,0.000557,0.00013742452008539606,0.0,225,4,47.23548660953682,93.929226,mp-1186360,P3H,https://materialsproject.org/materials/mp-1186360,-51.79435120540701,-52.28568840721623,-53.56976292445217,-31.693912443731858
-7.506632034444443,-270.23875324,10.309731118702098,-0.6764794452777778,5.7675e-05,1.771459340591853e-06,0.0,55,36,379.4319013457076,2355.76568,mp-1195760,Tm2ReB6,https://materialsproject.org/materials/mp-1195760,-35.67872704805561,-10.52684491196889,-37.72336244664221,-12.23944227299343
-7.414355050588234,-126.04403586,9.510096253914458,-0.6408281458823524,5e-06,2.51128618540874e-07,0.0,191,17,232.0337849240958,1328.88392,mp-1216756,Tm2(B2Rh3)3,https://materialsproject.org/materials/mp-1216756,-47.67509727200241,-0.4112664864640669,-58.15474763470095,20.772496118708645
-8.22446109095238,-172.71368291,7.7003442634599875,-0.16482964760761898,39.026686700000006,1.666148324328971,0.0,12,21,272.9766179991023,1265.8624,mp-1220542,Nd2Fe17N2,https://materialsproject.org/materials/mp-1220542,-51.0624304164105,-25.36098994780002,-50.62590393375021,-10.278079772723872
-8.811204437894737,-167.41288432,7.381370006563983,-0.4955142086842093,12.1305667,0.5600422599651208,0.0,174,19,252.42811151154945,1122.084604,mp-1210673,Mn6Mo6P7,https://materialsproject.org/materials/mp-1210673,-63.71262094405172,-31.57090822982656,-68.94770265086238,-15.528396973439738
-4.885519301428571,-34.19863511,10.209337835924929,-0.3921927514285711,0.0,0.0,0.0,123,7,117.01502469092043,719.4326000000002,mp-1025294,CdAsPd5,https://materialsproject.org/materials/mp-1025294,-51.257754048330895,-33.07397402517127,-60.11244603987992,-29.56318457970657
-7.475302979090909,-164.45666554,7.939994092763401,-0.06761966140272788,36.7520976,1.6343379328244747,0.0,166,22,262.07023489788605,1253.10882,mp-1190514,Sm2Fe17H3,https://materialsproject.org/materials/mp-1190514,-52.40229640180314,-23.370175321500675,-56.5825965531077,-11.117697469273486
-6.3939808276315775,-242.97127145,8.021182450663924,-0.3931555002631581,5.5e-07,1.6616114771445254e-08,0.0,36,38,385.7541737688851,1863.3736,mp-1202380,Dy(Ni2B)6,https://materialsproject.org/materials/mp-1202380,-69.47819270448115,-26.033501736343183,-43.90152177720466,0.14032551424118928
-7.140973462142857,-399.89451388,6.135928867881884,0.15242223148000075,0.94175555,0.017811987103758403,0.0,60,56,616.1738224760867,2276.85026,mp-1245898,Co7GeN6,https://materialsproject.org/materials/mp-1245898,-34.130268211207465,2.2641480825780183,-22.076071949002237,16.196336995329425
-7.165722198181817,-78.82294418,10.680587513765484,-0.6687500009090893,1.8000000000000001e-06,1.2719235254397427e-07,0.0,71,11,164.9259265281295,1060.8036,mp-10076,Hf3(NiGe)4,https://materialsproject.org/materials/mp-10076,-51.68387886999752,-8.815224474785621,-58.498515618060246,0.6848758504107093
-5.495669419166667,-65.94803303,8.674847257071013,-0.03907514708333319,5.7560337,0.38378461488337895,0.0,47,12,174.78863657215766,913.115975,mp-1219221,Sm2(CoCu)5,https://materialsproject.org/materials/mp-1219221,-51.221784478362544,-16.719565986435498,-53.91468994694891,-14.8911016862606
-9.284910914347826,-213.55295103,8.613323793558624,-0.5374324301863345,0.17486310000000002,0.005992327759527358,0.0,187,23,340.07917715958155,1764.012768,mp-30190,UMo13P9,https://materialsproject.org/materials/mp-30190,-58.04877449252306,-20.938511641771623,-59.87915188121379,-5.005846754935312
-6.9280981275,-471.11067267,8.361713775107024,-0.10035516171568637,18.486266925,0.2435285265763329,0.0,136,68,884.6608451813103,4454.746679999998,mp-1197631,La2Co14B,https://materialsproject.org/materials/mp-1197631,-61.813143765289055,-8.974690368753341,-51.18350731574806,-7.955858181635678
-8.294486135,-99.53383362,12.405796993335144,-0.4233883933333331,2.25e-07,1.5557403646659274e-08,0.0,62,12,168.54769814942753,1259.2107,mp-1208576,TaCoAs,https://materialsproject.org/materials/mp-1208576,-63.41744572250799,-24.931719264537932,-58.671718808424814,1.0138081987432264
-8.079766000526314,-153.51555401,7.906539960549869,-0.009370521842105229,34.806186700000005,1.5024891142371566,0.0,160,19,269.97437149057413,1285.464,mp-1219342,Sm2ZrFe16,https://materialsproject.org/materials/mp-1219342,-52.1407831489135,-23.24433060389465,-55.914629075505,-11.763688978517125
-9.173296575,-256.85230409999997,8.00204536209586,-1.0538057367685727,2.245e-05,5.390666077002907e-07,0.0,227,28,485.3458745295309,2338.8548,mp-1194108,Zr4Rh2N,https://materialsproject.org/materials/mp-1194108,-70.94721297593438,-2.8149817752269177,-65.2696874333766,7.301555255693313
-8.079566287894735,-307.02351894,7.933933412080816,0.01718421210526344,72.9002399,1.626093066929353,0.0,8,38,522.4695529475814,2496.3211,mp-1219321,Sm4CrFe33,https://materialsproject.org/materials/mp-1219321,-53.15116123959481,-24.439934176452688,-54.69065219266484,-11.29767243548877
-7.439746386,-37.19873193,5.968167522072908,0.410077179571428,9.364958300000001,1.5421869524295224,0.0,221,5,70.76952016004567,254.35376200000002,mp-20885,Fe4P,https://materialsproject.org/materials/mp-20885,-46.497331929167004,-43.900798237923745,-65.58503784176169,-22.90634775702791
-5.2728168225,-63.27380187,7.135529054889309,0.3862827720833337,2.8056427999999998,0.17494132307636467,0.0,107,12,186.90348480783425,803.145975,mp-22732,Co5Ge7,https://materialsproject.org/materials/mp-22732,-52.33146819213599,-51.987203268704974,-54.03363596778182,-25.52762931535799
-7.164735679444443,-257.93048446,8.22204269973124,-0.6545014505555555,2.8425e-05,8.476071706779723e-07,0.0,55,36,390.8258478925328,1935.1468,mp-1200192,Tb2B6Ru,https://materialsproject.org/materials/mp-1200192,-35.632744200746096,-10.405937309642095,-37.72262422485062,-12.287809476666865
-5.988465125,-35.93079075,8.181296144355839,-0.18505110625000046,3.1589549999999997,0.4175681814469753,0.0,187,6,88.16444312406547,434.37667000000005,mp-1222950,LaFeCuNi3,https://materialsproject.org/materials/mp-1222950,-51.99427410203349,-15.066702310184406,-54.231535282636386,-3.888311213500924
-4.621947327142856,-32.35363129,10.138138455160778,-0.2940982533705362,3.5000000000000004e-06,3.442179169341613e-07,0.0,123,7,118.49826722343651,723.471,mp-1025371,CdPd5Se,https://materialsproject.org/materials/mp-1025371,-51.396570835299215,-32.92195108625832,-60.19368301775164,-29.456901467926144
-7.3813533885,-147.62706777,6.877803546779155,-0.42147949849999977,0.00010295,3.461190841973037e-06,0.0,118,20,346.6396460390169,1435.7502772,mp-1215365,Zr5AlNi4,https://materialsproject.org/materials/mp-1215365,-62.27040004882181,-29.0725964633527,-65.12021090452758,-17.822729637498828
-6.329221708333333,-37.97533025,9.009410258977516,-0.8244312762500007,1.6e-06,1.7232817834283163e-07,0.0,191,6,108.20345120227492,587.0679700000002,mp-1071252,LaGa2Rh3,https://materialsproject.org/materials/mp-1071252,-46.64571715659911,-17.625055604753534,-55.109884059734384,-14.53347519115708
-3.9082508654166666,-93.79802077,7.383205818825982,-0.18077044541666668,0.0,0.0,0.0,194,24,350.6081523766687,1558.8987,mp-542933,TbMg2Cu9,https://materialsproject.org/materials/mp-542933,-56.95511834167564,-19.37957215517205,-57.374937456234996,-21.475012755601433
-7.680204788333333,-92.16245746,5.977219846628383,-0.17176589119000005,1.6e-06,1.5874732204435484e-07,0.0,36,12,117.46027205980567,422.806,mp-1246517,CrNi2N3,https://materialsproject.org/materials/mp-1246517,-51.09448756985195,4.610931302778206,-54.816092483978785,-12.409672613636475
-5.00323252,-50.0323252,10.296334328049227,-0.16281907771875054,1.65e-06,1.1813626875072269e-07,0.0,114,10,162.77140862895132,1009.28,mp-7818,Pd4Se,https://materialsproject.org/materials/mp-7818,-58.53325195406178,-23.64231424129633,-44.77952612080824,2.7894524261805858
-7.2003108594444445,-259.21119094,8.917329937115243,-0.7232513905555559,0.000949575,2.948970853488532e-05,0.0,55,36,375.2634090402144,2015.21768,mp-1196973,Tm2B6Ru,https://materialsproject.org/materials/mp-1196973,-35.73074537362427,-10.574550229005114,-37.76868880140176,-12.104753136225236
-5.842985222307693,-75.95880789,8.723010143999755,-0.17913183692307766,9.5901074,0.6456827096431432,0.0,139,13,173.09389139005097,909.28291,mp-1208588,Tb(GaCo2)4,https://materialsproject.org/materials/mp-1208588,-54.29771777822833,-22.94947948482009,-55.544605814922285,-9.14519033414834
-4.01194896,-28.08364272,5.764125988692817,-0.18292226114285728,0.0,0.0,0.0,166,7,127.65633398939464,443.1255,mp-8608,K(Cu2As)2,https://materialsproject.org/materials/mp-8608,32.66020572493623,-53.153081605677784,-60.51398651674197,-31.16917188423121
-3.87757859,-23.26547154,6.753957293456045,0.018449393802083474,5e-08,5.751085465880818e-09,0.0,31,6,101.3205667147462,412.10400000000004,mp-684653,Cu2Se,https://materialsproject.org/materials/mp-684653,-10.457337251156504,-35.409734127672785,-64.45454117020208,-30.754766456439715
-5.554559133194443,-399.92825759,4.888437727680093,-2.197937453236111,0.9927869916666668,0.01208418191841011,0.0,15,72,957.4503250907907,2818.62466272,mp-685712,Na2PrO3,https://materialsproject.org/materials/mp-685712,9.587745730174557,1.1802974618148745,5.436295691842169,-12.412809437144587
-7.334380759999998,-22.00314228,11.799782466877394,0.0673254166666671,6.579999999999999e-05,1.655670677344081e-05,0.0,139,3,46.31582068388978,329.12,mp-542595,Ge2W,https://materialsproject.org/materials/mp-542595,-76.48842804236483,-22.55653352626533,-65.8479846202134,-10.820399427800579
-5.207488986666667,-31.24493392,6.858600473615702,-0.19845956222222227,0.026933,0.0035786053307934494,0.0,164,6,87.70984713470956,362.272,mp-1216970,TiGaCu,https://materialsproject.org/materials/mp-1216970,-63.793828547360675,-34.483782804299175,-62.825803524678776,-30.573875854467353
-7.313048517692307,-95.06963073,7.2782669852605295,-0.4927305492307688,0.0,0.0,0.0,87,13,189.60613704403943,831.0579,mp-13967,Nb5(CuSi)4,https://materialsproject.org/materials/mp-13967,-65.37523902666763,-16.946289245114254,-55.6639335792889,-15.14711599022461
-6.036585606666668,-72.43902728,8.655814399954227,-0.3162956431250012,1.7633254,0.12370099022528624,0.0,47,12,166.1256582447231,865.9554699999999,mp-1223428,LaCeNi10,https://materialsproject.org/materials/mp-1223428,-53.41173244590908,-17.073920855654706,-54.149500091298044,-14.330785342110666
-4.340207622222222,-39.0618686,8.962772321467515,-0.45469855388888897,5.066666666666667e-05,3.7067385696103225e-06,0.0,189,9,159.2970758671818,859.8072000000002,mp-1079341,DyZnNi,https://materialsproject.org/materials/mp-1079341,-50.667067865768395,20.34659882690985,-41.440575832967404,24.060220221984306
-6.879703156666667,-82.55643788,8.241531346631112,-0.2055205756944455,3.24686345,0.24361446717835805,0.0,191,12,155.32393208098497,770.8984999999999,mp-1095566,LaCo4B,https://materialsproject.org/materials/mp-1095566,-59.630189338951645,-14.23449518750501,-54.93088877737132,-1.783240296381684
-7.985010476842105,-151.71519906,7.365984773061394,-0.28215649934210474,19.019788300000002,1.1182874302462305,0.0,166,19,198.21187184386682,879.2479999999998,mp-641957,Nd(Fe2B)6,https://materialsproject.org/materials/mp-641957,-68.32205967096047,-25.56220564999102,-61.131611356418965,5.425378095184642
-7.320730257962962,-395.31943393,9.940403972028824,-0.5843161609259263,6.833333333333333e-07,1.2615030809385807e-08,0.0,68,54,631.2795464590323,3778.998,mp-28001,Lu(BRh)4,https://materialsproject.org/materials/mp-28001,-58.076563817138826,-12.078302923799253,-47.01003409533044,-13.242301698906624
-5.333879859761905,-224.02295411,10.564632533613516,-0.4559652611904764,1.6666666666666667e-08,2.6554078377575525e-10,0.0,185,42,731.4673479310907,4653.72,mp-569451,Sb2Pd5,https://materialsproject.org/materials/mp-569451,-55.91800419941328,-31.052642035603817,-60.20108180545245,-30.046183217676912
-6.7176265850000005,-80.61151902,10.797881147552216,-0.4922044899999989,3.85e-06,2.3179496447027488e-07,0.0,62,12,193.56826614802785,1258.704,mp-1095504,HfCuGe,https://materialsproject.org/materials/mp-1095504,-51.78118293965621,-8.914133598713061,-57.881146726660354,1.9726576758860728
-8.224402430789473,-312.52729237,7.549119434190281,-0.0023586323684218033,38.38532825,0.8629229293973013,0.0,194,38,518.4067852431601,2356.7737,mp-1226946,CeYFe17,https://materialsproject.org/materials/mp-1226946,-54.35382449665517,-22.71180403456058,-55.350069877614146,-9.751257456501062
-6.5036441542857135,-91.05101816,7.604490496374867,-0.7382299678571432,9.000000000000001e-07,4.854377080654656e-08,0.0,63,14,216.0659981916616,989.4810000000001,mp-1207381,Zr(SiPd)3,https://materialsproject.org/materials/mp-1207381,-54.76450078569057,-7.881893920317607,-59.07158465910588,0.1340029929275628
-8.170075970000001,-147.06136746,8.22670337464416,-0.4770212718518521,7.551383900000001,0.4997334337296413,0.0,137,18,176.1025201701339,872.4535599999998,mp-1181496,Gd(CoB)4,https://materialsproject.org/materials/mp-1181496,-54.2069015645971,-30.76753048012103,-51.770696331674706,-13.688641268919302
-10.154254145,-20.30850829,14.218857398247852,-0.006306012499999625,0.5727757,0.2370017953505207,0.0,187,2,28.165040260879834,241.1715,mp-1216312,VOs,https://materialsproject.org/materials/mp-1216312,-54.612866703967505,-47.52811284447198,-52.46786592812188,-31.4095637664639
-2.2133973444444446,-79.6823044,6.114790489028385,-0.4896421434099619,6e-07,5.01693849767111e-09,1.0159,60,36,1393.7661118990684,5132.4224,mp-29107,Rb2Hg3Te4,https://materialsproject.org/materials/mp-29107,6.415898606308504,-3.2373350938148744,-6.065044863409812,-21.833787694819712