energy_per_atom,energy,density,formation_energy_per_atom,total_magnetization_uB,total_magnetization_T,band_gap,sgr,num_sites,cell_volume,weight,mp_id,formula,URL,tsne_cry_lin1_0,tsne_cry_lin1_1,tsne_cry_lin2_0,tsne_cry_lin2_1
-5.390390519722222,-194.05405871,1.5511091425120471,-1.085949835451389,1.13e-05,3.439530509614439e-08,1.0094,166,36,3828.7473119314373,3576.432,mp-1080863,CeSe2,https://materialsproject.org/materials/mp-1080863,35.007526924119546,8.475518884077259,7.500617037892972,-6.343024570180951
-7.6271401561111105,-137.28852281,6.447923755168346,-3.0527423931944444,0.0,0.0,1.9952,127,18,258.33209330893624,1003.1114,mp-9656,BaY2PdO5,https://materialsproject.org/materials/mp-9656,-11.57313620305738,-24.04682761639637,8.085886588457015,-1.0149810896067306
-6.5449687369000005,-654.49687369,7.4317735635015785,-2.0168195893000007,0.999999925,0.007842374732724259,2.1746000000000003,62,100,1486.0376219814327,6650.789199999998,mp-29058,V3(Bi3O8)2,https://materialsproject.org/materials/mp-29058,9.880493845222269,-37.274209808113156,8.475412125673863,1.0648044853049379
-4.482171236071427,-125.50079461,5.221772651444058,-0.579438959131773,0.0,0.0,0.9885000000000002,12,28,917.8383940119054,2886.2576,mp-582648,RbRe3Br10,https://materialsproject.org/materials/mp-582648,6.639087054813799,-9.697411428734856,6.6821799065204415,-4.243435863981537
-5.91080071,-23.64320284,9.531789077927153,-0.3014630199999999,1e-06,2.233981697427807e-07,0.0,225,4,52.16723478969463,299.44919500000003,mp-865779,Ga2CoRu,https://materialsproject.org/materials/mp-865779,42.03918484503693,45.331243325840155,2.4426714444999256,-4.722701700589981
-5.902498835416666,-141.65997205,5.407554597524917,-1.9363637427864584,1.99999995,0.047580367550015205,0.3022,173,24,489.8686194030609,1595.2598772,mp-1192418,Dy3AlNiS7,https://materialsproject.org/materials/mp-1192418,28.061532165455365,3.3516084676153723,-8.139285404453151,2.2241420298394763
-6.576739191111113,-236.76261088,7.123130268394915,-0.0021266083066669877,1.59193425,0.031372031402199685,0.0,62,36,591.3708495732093,2536.7736,mp-1245513,Fe4Te3N2,https://materialsproject.org/materials/mp-1245513,17.442728449289632,11.337697946052494,-8.604250342815693,-0.5045126942092143
-5.388025291875,-258.62521401,1.8341013741914964,-1.0835846076041662,2.74375e-06,7.406405777405059e-09,0.9675000000000002,140,48,4317.322218188517,4768.576,mp-1080860,CeSe2,https://materialsproject.org/materials/mp-1080860,34.973157824883444,8.39245661873436,7.347333281529926,-6.3672776239413515
-7.86868409875,-314.74736395,6.290277578446061,-3.6514902470000017,0.0298954,0.0007725234107430269,0.0,221,40,450.9933591093127,1708.4051302,mp-997590,La8MgAl7O24,https://materialsproject.org/materials/mp-997590,33.863367441021914,-25.03567691222539,8.631494521142098,-0.941921294555056
-5.797492193888888,-104.35485949,7.5437292354153085,-0.9664322186111116,2.8999999999999998e-06,6.777169699214982e-08,0.0,193,18,498.6858724275104,2265.5,mp-1209864,Nd3ZrSb5,https://materialsproject.org/materials/mp-1209864,1.8433642430740536,33.58521689873831,-8.604250342815693,-0.5045126942092143
-7.022314637380951,-294.93721477,4.731564400485758,-2.1815797461904767,30.00000175,0.7794171649627651,1.1169000000000002,15,42,448.56846793732916,1278.1576,mp-763339,Fe7(SiO6)2,https://materialsproject.org/materials/mp-763339,-25.30712916107629,-38.533825300264546,6.910620106148831,-1.023106192194629
-5.4232271925,-21.69290877,4.683430944238307,-1.2272024859635415,0.8637143,0.13345594076941758,0.0,164,4,75.42401139397387,212.728,mp-1206595,LiTiSe2,https://materialsproject.org/materials/mp-1206595,23.15924286383423,15.580365695980456,-8.604250342815693,-0.5045126942092143
-4.713322611612903,-292.22600192,2.6851983481371917,-1.7005677253467737,20.000004,0.19254565827432665,2.2505,14,62,1210.5250471832176,1957.4968,mp-14679,K14Fe4O13,https://materialsproject.org/materials/mp-14679,-34.392238755401195,-30.793306577247964,7.541904233181325,-1.6579873032988055
-5.1278449,-20.5113796,8.625033982101769,-0.7269560725000002,0.00042229999999999996,6.905032233436071e-05,0.0,225,4,71.27427341498338,370.206912,mp-867911,ScCdPd2,https://materialsproject.org/materials/mp-867911,25.25397788886012,31.830522901145624,-8.604250342815693,-0.5045126942092143
-5.946270752857143,-41.62389527,7.144805096723576,-0.3993268614285717,0.0047037,0.0004997091014209066,0.0,139,7,109.69827108375259,471.999,mp-1025165,Zr(VGa2)2,https://materialsproject.org/materials/mp-1025165,37.330048093024615,44.625457704626534,-8.604250342815693,-0.5045126942092143
-5.911331491666666,-35.46798895,6.51538663724717,-2.2935690177083337,0.0,0.0,0.03059999999999974,71,6,109.35515860340776,429.0722,mp-29352,Ba2PdO3,https://materialsproject.org/materials/mp-29352,25.93932087163947,18.138844923512494,-6.568329711877947,-3.1931486349855387
-6.6026652850000005,-145.25863627,4.292614537386922,-2.7241823367936364,19.999999300000002,0.8613951568271395,1.7613,186,22,270.5857880045198,699.4839984,mp-754215,Mn4OF6,https://materialsproject.org/materials/mp-754215,-10.190316730079774,-82.77512657368634,7.609703343312866,1.6693197951376109
-7.8326708325,-156.65341665,3.7642923260614647,-0.5890331889279992,6.1e-05,2.237033006323519e-06,1.4072999999999998,15,20,317.78608054356584,720.3924,mp-989634,CaTcN3,https://materialsproject.org/materials/mp-989634,34.48357642726526,-8.180408976844722,5.053099804129356,-0.7041449494855964
-6.9974929581000005,-699.74929581,5.469721864755282,-2.5146326783250004,9.968839925,0.05126847740627947,0.0,142,100,2266.061175809357,7464.2776,mp-579209,Ce10S14O,https://materialsproject.org/materials/mp-579209,45.881130858076496,4.679622623669906,-8.604250342815693,-0.5045126942092143
-6.380420066666668,-19.141260199999998,7.59271415170967,0.6970902516666667,0.0018924,0.00037272752916567466,0.0,216,3,59.16963585962832,270.549575,mp-30560,NbCoSn,https://materialsproject.org/materials/mp-30560,46.911647896762105,43.98888368254385,-8.604250342815693,-0.5045126942092143
-6.3949200875,-51.1593607,6.758638481292759,-2.2094704862109382,0.0,0.0,1.5467999999999993,129,8,146.14255871869062,594.8217400000001,mp-552488,LaCuSeO,https://materialsproject.org/materials/mp-552488,43.156751034552926,-4.718798773297129,7.910020263493947,-3.923672309790829
-6.426683796818183,-141.38704353,9.293472946705494,0.09563528863636413,20.794840100000002,0.5124173527737474,0.0,216,22,472.94341643310105,2646.90365,mp-1221878,Mn5(Bi2Pd)2,https://materialsproject.org/materials/mp-1221878,49.07759581681135,39.64002919986982,-8.604250342815693,-0.5045126942092143
-6.5931636241666665,-158.23592698,3.9219432663173928,-1.938078936536458,0.0,0.0,0.35299999999999976,173,24,486.0589920974054,1147.9981772,mp-1191008,Y3AlFeS7,https://materialsproject.org/materials/mp-1191008,26.464512116408507,3.0428222749022438,5.228018624073153,-6.43046786454239
-4.09202762,-16.36811048,6.5285291151738445,-1.2347818492528733,0.0,0.0,1.163200000000001,225,4,144.3869709426594,567.6677999999998,mp-862797,RbAcTe2,https://materialsproject.org/materials/mp-862797,59.39142683101335,22.449249646493765,7.751713737684324,-6.0829803426513775
-5.2188423796875,-167.00295615,6.798490176232178,-1.3632236188281244,0.0,0.0,0.09370000000000013,61,32,729.9611691790487,2988.568,mp-561248,SmCuTeS,https://materialsproject.org/materials/mp-561248,55.42389403759905,21.13528183810434,3.6510593566456335,-4.884820967356
-5.8573403752777775,-210.86425351,2.8278448785180217,-1.02896109764,0.0,0.0,2.0173,14,36,568.5185672938577,968.168938,mp-555085,KAu(NO3)4,https://materialsproject.org/materials/mp-555085,-8.70782544213681,-52.94400844678058,9.280367258833962,0.8240076140657353
-3.187937349,-31.87937349,3.2879641184192585,-1.4124618150249653,0.9999998,0.0451804638850146,0.0,194,10,257.94472742481383,510.7456,mp-569526,RbCuCl3,https://materialsproject.org/materials/mp-569526,3.632592195855979,-6.9299509130270875,-8.604250342815693,-0.5045126942092143
-5.46734198,-21.86936792,10.965652171324468,-0.7246224943749997,1.83e-05,2.4613927428041942e-06,0.0,225,4,86.64581707300829,572.1804000000002,mp-862752,SmBiPd2,https://materialsproject.org/materials/mp-862752,27.113226159967837,40.101734012108295,-8.604250342815693,-0.5045126942092143
-5.4633486,-21.8533944,5.084104212971063,-0.6147949736979168,2.9975153999999997,0.477493250559118,0.0,160,4,73.15964903679854,223.9943,mp-1065204,CrAgS2,https://materialsproject.org/materials/mp-1065204,16.05929129428922,6.2413364850855215,-8.139285369434464,2.2241420224256743
-7.3685584564285715,-206.31963678,4.400955217122041,-2.6107861128571423,4.00000055,0.16240437147319686,1.4861000000000004,62,28,287.03824334967436,760.7424,mvc-12111,MgV2O4,https://materialsproject.org/materials/mvc-12111,-27.723026356681675,-51.124206965887204,8.572153611503126,-2.3325275015263798
-7.178490582,-35.89245291,4.7845415682396535,1.7394032635240009,7.8343058,1.1253848669804205,0.0,221,5,81.12914072340071,233.75887999999998,mp-637576,Mn4N,https://materialsproject.org/materials/mp-637576,16.13480234689967,-10.916211813868108,-6.145751291042955,-3.02213130594176
-6.608943074666668,-198.26829224,3.174791847874858,-2.3014191117777774,15.0000001,0.4588184054731035,2.111,1,30,381.0025288186689,728.4404,mp-758622,Li3TiFe3O8,https://materialsproject.org/materials/mp-758622,-30.482311889173108,-32.25289192267581,7.0237283334401255,-0.21181907304631825
-6.170281,-98.724496,3.4150111027306376,-1.909890046615,4.000000425,0.19016423374241806,1.7823,62,16,245.13686472903802,504.14058000000006,mp-1016120,KMnO2,https://materialsproject.org/materials/mp-1016120,-33.97339359906627,-27.14395224524645,6.135051286531402,-0.8202657733594374
-6.509218571666668,-39.05531143,6.062740266169131,-0.8041338200000006,2e-07,1.7232944925098275e-08,0.0,129,6,135.25331651918142,493.819,mp-19917,ZrSiTe,https://materialsproject.org/materials/mp-19917,44.16545876847089,27.04443363081718,-8.604250342815693,-0.5045126942092143
-3.263488333,-32.63488333,3.1766333950000822,-1.616419031722667,0.0,0.0,1.8139,225,10,317.6993990757004,607.7632000000001,mp-1112476,K2AgBiCl6,https://materialsproject.org/materials/mp-1112476,6.229460266306613,-7.867873216750438,9.457811196145986,-4.1332949335635805
-7.504004667,-225.12014001,3.739141640640234,-2.827283191007936,0.0,0.0,2.4001,43,30,340.2528541886935,766.1690480000001,mvc-8595,Ti2Zn(PO5)2,https://materialsproject.org/materials/mvc-8595,-2.160665263992478,-44.37282610661269,9.104639987581805,1.466284031212859
-4.457097679166666,-53.48517215,4.168977185189629,-0.8110195068749994,3.75e-07,1.50023025387512e-08,1.2238999999999995,227,12,291.306902951823,731.3599999999999,mp-1095397,SnS2,https://materialsproject.org/materials/mp-1095397,43.54905453737986,-0.7006787249015435,8.451638030414497,-3.925980475880862
-8.26705481109375,-529.09150791,9.97760012438593,-0.5085490247837505,0.001524825,1.644014354708591e-05,1.5034999999999998,61,64,1080.9157028296277,6494.845584000001,mp-1246762,TaAuN2,https://materialsproject.org/materials/mp-1246762,37.15284137604878,-10.302546960989604,8.54191679783462,-4.2337316788104555
-5.623533147068965,-326.16492253,6.366329301930634,-1.6877640654579746,0.0,0.0,0.3101999999999996,86,58,1517.682607621668,5818.633000000001,mp-14613,Pr10Se19,https://materialsproject.org/materials/mp-14613,48.691679123711005,3.613843222678791,4.065827730877452,-6.0119423611905995
-5.443745425,-32.66247255,10.320706538061637,-0.3429716549999995,5e-08,5.32027591919265e-09,0.0,58,6,109.52500349200115,680.7280000000002,mp-1543,Ge2Pt,https://materialsproject.org/materials/mp-1543,7.695592011331304,61.96493993926121,-8.604250342815693,-0.5045126942092143
-5.23291016909091,-57.56201186,2.463451765138209,-1.3495358338436363,0.0,0.0,1.9971,2,11,234.2619890831785,347.5336,mp-1180897,K2PdN2(ClO2)2,https://materialsproject.org/materials/mp-1180897,-1.6630040350339304,-23.19128910497068,9.954286666762494,0.5374383547564751
-4.256966095277779,-153.25077943,5.627651265273869,-0.9333863687799336,0.0,0.0,1.4289999999999998,62,36,1086.0523365474608,3680.6866076,mp-29531,CsBi3S5,https://materialsproject.org/materials/mp-29531,72.54301859701759,21.037341735303443,8.544231569462674,-5.0913874067648734
-4.212309915555555,-75.82157848,4.2806570566036335,-2.5223824030940616,0.0,0.0,1.8481,127,18,391.9923662342602,1010.5061357999999,mp-8202,CsRb2PdF5,https://materialsproject.org/materials/mp-8202,-8.12038117259928,-25.38001128021011,9.437175695758562,1.8043870837724163
-7.278303123333332,-43.66981874,7.850712305144207,0.16432886500000166,6.123165599999999,0.7379613386416701,0.0,194,6,96.69851898591033,457.17217999999997,mp-22514,Mn2Sn,https://materialsproject.org/materials/mp-22514,46.37043869805075,40.58092321371443,-8.604250342815693,-0.5045126942092143
-3.8458298175,-15.38331927,7.06339869180641,-0.3469049087499996,0.0075276000000000015,0.0006421555526023794,0.4078999999999997,166,4,136.6135317625147,581.1099999999999,mp-1218924,SnTe2Pb,https://materialsproject.org/materials/mp-1218924,66.79381538962025,22.9299115161236,6.4584336428156375,-7.196145830524988
-6.241113881,-62.41113881,5.804636945821697,-2.8058750417500007,0.0,0.0,2.9977000000000005,225,10,154.00021274098725,538.3284,mp-550685,Ba2CaTeO6,https://materialsproject.org/materials/mp-550685,0.6372587046920699,-28.913655397370672,8.350335242711315,-0.31267358021853164
-4.4261416730769225,-57.53984175,4.4352847447040835,-1.4876522230205569,8.0000009,0.27847335473566137,1.4904000000000002,12,13,334.7987413648105,894.2444075999999,mp-1213695,Cs4Rb2Fe2O5,https://materialsproject.org/materials/mp-1213695,-33.28709671842855,-30.179541709255748,5.4357081714667475,-2.630070732349904
-6.76469872047619,-284.11734626,7.333009097962288,-2.2972087492857143,0.58094705,0.012611105114596071,0.0,41,42,536.8597350196876,2370.7948,mp-630234,Li2Ti3(BiO3)4,https://materialsproject.org/materials/mp-630234,-10.749971975266089,26.97588657356864,-8.604250342815693,-0.5045126942092143
-6.937684014107143,-388.51030479,4.694329017219431,-2.0897702251785732,22.000233775,0.41626971213405695,1.2772,14,56,615.9279475580391,1741.2228000000002,mp-705744,Fe5SiO8,https://materialsproject.org/materials/mp-705744,-25.407937003348433,-38.46250711048372,6.510863539442631,-1.7196880932945589
-3.2900115442857145,-23.03008081,4.965293886381438,-0.4789098080952385,1.3300000000000001e-05,6.063701032171239e-07,0.6792000000000002,121,7,255.61791495439732,764.341,mp-35777,Mg(InTe2)2,https://materialsproject.org/materials/mp-35777,60.136045135968615,16.08432854021498,7.870324458134013,-6.2962243468829655
-6.462579414285713,-90.4761118,4.769939254223923,-1.1053164766071433,1.1009981000000002,0.04757711713336773,0.0,74,14,269.69064005910917,774.693,mp-1246551,MgVWS4,https://materialsproject.org/materials/mp-1246551,22.812777826503893,11.124316462191482,-8.604250342815693,-0.5045126942092143
-5.657521780833332,-339.45130685,4.540881612924271,-2.05893207745,0.0,0.0,1.8960000000000004,34,60,892.9493065844313,2441.84387712,mp-1223796,K2Na(SbO3)3,https://materialsproject.org/materials/mp-1223796,-2.9416378152850866,-29.20442985776895,7.630172794024796,-0.7283638918705085
-6.576642936944443,-236.75914573,3.0579105685673897,-2.8534221439919842,4.0000015,0.09208511178491108,2.1932,36,36,506.23033048187483,932.2316672,mp-1097033,K3V2P2O8F3,https://materialsproject.org/materials/mp-1097033,-16.442376111990093,-48.78289222670248,8.009493271483146,1.6585458847480634
-5.139899933636364,-56.53889927,2.6283941701985203,-0.9942079008118284,2.9999947999999996,0.11741893544454605,1.1332,5,11,297.7554990102426,471.3040759,mp-1103473,CsCrP2S7,https://materialsproject.org/materials/mp-1103473,23.998157425509767,-1.7858072721892102,7.5780339273619814,-4.428467512504884
-5.624631743333333,-33.74779046,7.503401845213278,-0.5530440566666665,7.0055186,0.4815059858461974,0.0,186,6,169.5571185606196,766.17,mp-1018697,EuCdSn,https://materialsproject.org/materials/mp-1018697,9.501570857142037,33.80206010317968,-8.604250342815693,-0.5045126942092143
-6.812102406607143,-381.47773477,2.635073200454185,-2.5312764851785716,4.99975035,0.07463019546753341,2.1283,33,56,780.7485168771431,1238.9528,mp-758991,LiFeSiO4,https://materialsproject.org/materials/mp-758991,-26.010790025992176,-72.77295693492616,8.960880709864618,-0.058788268248054915
-3.231173593181818,-71.08581905,5.864260795688744,-0.5431059549696315,8e-06,1.4755505195375322e-07,0.8009,1,22,631.8490417373073,2231.4004519,mp-1225982,CsGa5(HgSe3)4,https://materialsproject.org/materials/mp-1225982,39.27001675963759,0.9448647677076356,6.89957934613735,-6.2585337243896015
-6.161185061625,-492.89480493,4.030342192666037,-1.9992391508250005,5.99999965,0.06649827603103438,2.2008,230,80,1051.5217646214192,2552.1788,mp-1211915,K3Cr2(AsO4)3,https://materialsproject.org/materials/mp-1211915,19.844342062401125,-38.334445251038964,9.120020580327497,0.14507589353212802
-3.653187015714285,-51.14461822,6.526009090332075,-0.4598740414285715,1.935e-05,4.780419300646095e-07,0.5739000000000001,122,14,471.7288153333157,1853.92,mp-675892,Yb(SbTe2)2,https://materialsproject.org/materials/mp-675892,66.280476800153,25.336634089367863,-8.604250342815693,-0.5045126942092143
-6.004849028888889,-108.08728252,4.289667996218927,-2.213583630535556,4.999999866666667,0.2761723739362974,0.7433999999999998,6,18,210.9925821992751,545.0568192000001,mp-753145,FeOF,https://materialsproject.org/materials/mp-753145,-40.997906545662005,-78.0368855026538,4.108281946160969,1.5614525218155306
-6.57392534421875,-420.73122203,5.366458640294993,-1.8012587503515631,59.998210300000004,0.9564311351740892,1.1357000000000004,63,64,731.0751431639517,2362.6572,mp-1199651,Fe12PbO19,https://materialsproject.org/materials/mp-1199651,-27.485716423722888,-35.15371925858545,5.845241138899543,-1.9394590124723852
-8.030201149,-321.20804596,6.278462149230733,-3.7208932763125,0.0,0.0,3.6351,221,40,439.325988612282,1661.0820488,mp-997586,La7YAl8O24,https://materialsproject.org/materials/mp-997586,33.90212046384968,-25.056478121737037,9.343854527665984,0.21132685104705276
-7.319600397142858,-102.47440556,4.902842796144919,-2.2803465688095237,6.0000004,0.44934302524411796,1.1453999999999995,74,14,155.61472943525874,459.46198,mp-36765,Ti(CoO2)2,https://materialsproject.org/materials/mp-36765,-11.214067292519463,-36.25008215591343,5.7081883738454655,-1.6038958295875838
-7.1131581515,-284.52632606,2.8586679833391644,-2.739923453071428,4.0000002,0.0984388419148164,0.0,148,40,473.5555652045449,815.240172,mp-850900,Li3V2(PO4)3,https://materialsproject.org/materials/mp-850900,-16.71445651925865,-48.45627116436005,7.6328532722780755,-0.65492812118575
-5.667800569500001,-113.35601139,5.232477358116116,-1.2493366695,2.5e-07,4.855335521472944e-09,0.014300000000000425,2,20,600.0648524195217,1890.8472960000001,mp-685069,Sc2Te3,https://materialsproject.org/materials/mp-685069,-8.03707064595607,26.081294916010123,-5.2578026185929385,-0.9519576143400612
-8.21877641140625,-526.00169033,8.267616552880074,-0.5715076392629159,0.00119291875,1.3654442115168352e-05,1.942,61,64,1018.1560157230588,5069.27168,mp-1246632,TaAgN2,https://materialsproject.org/materials/mp-1246632,37.085181791017064,-10.35449131622265,9.022178346162653,-3.7501925233575455
-4.4158131871428585,-30.91069231,5.408431686873784,-0.0415904278571431,0.0,0.0,0.3924000000000003,215,7,201.35388562182823,655.8163999999998,mp-570377,Sn3As4,https://materialsproject.org/materials/mp-570377,38.06876821740031,29.521116251129843,6.10992220002419,-7.1730842545007185
-5.779462528571429,-161.8249508,5.339284994083088,-0.5686285572321432,29.0,0.5629126603179567,0.2109000000000001,160,28,600.3913257401825,1930.493845,mp-1221561,MnZn3(CrSe2)8,https://materialsproject.org/materials/mp-1221561,21.87809416729233,10.037315254588696,-6.198345872728551,-1.9736089271794612