energy_per_atom,energy,density,formation_energy_per_atom,total_magnetization_uB,total_magnetization_T,band_gap,sgr,num_sites,cell_volume,weight,mp_id,formula,URL,tsne_xrd_lin1_0,tsne_xrd_lin1_1,tsne_xrd_lin2_0,tsne_xrd_lin2_1
-7.133818899333334,-107.00728349,5.765226971753787,-3.1279876195833336,0.0,0.0,3.0531999999999995,166,15,184.40391018773343,640.2321,mp-12958,BaSiO3,https://materialsproject.org/materials/mp-12958,-14.92517360210575,19.067110556973727,-21.79243185584858,31.857775338069374
-5.384948132142856,-150.7785477,4.525974947421501,-2.2852405906958126,2.5e-08,4.0378146274398315e-10,2.7439,14,28,721.5576894839357,1966.6818708,mp-768976,Cs3ScO3,https://materialsproject.org/materials/mp-768976,9.479086897564116,26.87918603289225,30.41537548992721,3.5913175315562227
-8.2365718775,-98.83886253,6.768939325059963,-3.691111707604167,0.0,0.0,3.667,139,12,179.53210368876609,731.8358000000002,mp-779517,Sr3Hf2O7,https://materialsproject.org/materials/mp-779517,-25.23310271301197,24.08334233784939,-25.524830564069447,56.165218321047476
-9.06805360875,-145.08885774,6.521378376688725,-2.892232443125001,5.69483805,0.21727876856338335,0.007199999999999873,63,16,305.4509740770048,1199.5872,mp-540915,Eu3BrO4,https://materialsproject.org/materials/mp-540915,-2.0214599068851142,13.660561790010386,7.8509046516048775,31.269172206255625
-7.978029728958332,-382.94542699,5.229769987989126,-3.300152589427084,0.0,0.0,2.555,12,48,666.6049430075108,2099.43304,mp-561133,Sr5Nb4O15,https://materialsproject.org/materials/mp-561133,-15.795881625941336,19.957304251104148,-13.577037704220944,46.688746228141824
-7.363643942916667,-176.72745463,7.0793181818161,-2.638006836350575,0.0,0.0,3.5343,15,24,360.98543201810514,1538.9766037999998,mp-1213319,CsPr(WO4)2,https://materialsproject.org/materials/mp-1213319,26.98743023595501,52.35072026088769,39.259161542809856,-0.3785326916638463
-7.443747311749999,-297.74989247,6.044920382118328,-2.9389824610000015,4.999999625,0.10209993579043933,1.3500000000000003,194,40,570.7184734388504,2077.60712,mp-1022808,Ba2NbFeO6,https://materialsproject.org/materials/mp-1022808,-17.106580298438818,19.4038812053333,-14.576526262875856,47.15452184937768
-9.734949598,-48.67474799,6.790017785336,-3.561548760583334,6.9857148,1.3432523993616596,0.0,221,5,60.60809777858389,247.8292,mp-22246,EuTiO3,https://materialsproject.org/materials/mp-22246,-29.60188979545796,51.02570140694608,-17.62712776234684,66.36667966306618
-7.8747858520000005,-157.49571704,5.678484762081513,-3.3731084304166665,0.9999978999999999,0.04649028235326745,0.0,14,20,250.6769094338399,857.2306800000001,mp-1210901,LiLa2TiO6,https://materialsproject.org/materials/mp-1210901,-18.615266711474767,52.03219919889101,24.882135012384914,50.80057391095779
-6.962443143928572,-194.94840803,6.176299713982337,-3.1356553428571425,2.45e-06,6.476325222298241e-08,3.9479,19,28,440.87438034248197,1639.81228,mp-541280,BaLaGaO4,https://materialsproject.org/materials/mp-541280,-6.117161968219013,32.61362601766157,1.7874550106711762,56.67185583800167
-3.78109461,-37.8109461,4.740431943764723,-0.40815059448275903,0.0,0.0,0.5461999999999998,63,10,332.32100278224857,948.6950075999999,mp-1206689,Cs2NiAs2,https://materialsproject.org/materials/mp-1206689,21.07709758796787,-11.138653514782927,36.55657846625049,-2.9332894013301636
-4.419706649,-88.39413298,4.4146819793486936,-2.73085897140538,0.0,0.0,0.0,166,20,347.34606403414335,923.44857456,mp-558211,Cs2NaCoF6,https://materialsproject.org/materials/mp-558211,1.6168279620807466,-7.676542784829126,11.474728261968313,8.104776616528579
-5.2980585,-15.894175500000001,5.089592475678344,-0.6518865275000003,0.0,0.0,0.0,187,3,65.02690366698883,199.3090386,mp-1220155,NdAlSi,https://materialsproject.org/materials/mp-1220155,-55.02232955625084,23.479774890219673,-36.655111634194455,32.272683100815705
-5.40437066,-81.06555990000001,6.567671537715133,-1.7866212103966659,0.00574046,0.00016551936718015646,0.0,8,15,404.18045213689277,1598.592016,mp-32958,Sm2F,https://materialsproject.org/materials/mp-32958,25.268139643152786,63.70239409568242,-10.312866710981117,36.838634027472075
-3.830713808823529,-65.12213475,4.324324295188582,-0.9660490668924316,0.0,0.0,1.6085,146,17,647.4279534344395,1686.0118076,mp-1181839,Cs4Sr(SnSe3)3,https://materialsproject.org/materials/mp-1181839,11.007407497563767,-17.34496561683673,10.696724123093516,-22.266185391085127
-5.837629124545455,-64.21392037,4.653193029266047,-1.850817500345454,5.88e-05,2.5103970671814135e-06,0.0,71,11,272.9683752363107,764.9169999999998,mp-570498,Pr4C2Cl5,https://materialsproject.org/materials/mp-570498,1.4131057911544511,3.2855516399486064,0.7393234595431109,10.519277519776182
-9.526033583636364,-209.57273884,6.303551377944093,-3.1999028459848486,20.9999978,0.8099563037283565,0.3684000000000003,167,22,302.1586886332704,1147.0208,mp-505346,Eu3(BO3)2,https://materialsproject.org/materials/mp-505346,-12.461335363964453,21.484280658121186,-1.365087262608698,-0.8027681507881083
-4.7769533925,-152.86250856,3.710822585110284,-1.0921587990487511,0.0,0.0,5.075,176,32,418.20736219744094,934.57202,mp-778001,Tm(ClO4)3,https://materialsproject.org/materials/mp-778001,3.6427529912449734,-4.884134110312539,13.709587687594324,-22.997435862107377
-6.902529331818181,-75.92782265,3.9607629386950887,-2.277394448685065,6.0042999,0.5719654790233342,2.7304000000000004,12,11,122.34042527874132,291.809714,mp-20283,Co2P2O7,https://materialsproject.org/materials/mp-20283,7.025405944243379,34.59765050703036,57.01867835299512,42.26857054866649
-6.410256777321429,-358.97437953,5.993191521623168,-2.29151688264509,3.1e-06,4.586488898464432e-08,3.4044000000000003,62,56,787.6962442235641,2842.9409600000004,mp-768942,Ho2(SeO3)3,https://materialsproject.org/materials/mp-768942,0.11617650367031092,18.19873702488784,6.57496478559425,32.30580612019421
-8.75697023909091,-192.65334526,7.2371677978509545,-2.8856842082954564,18.0000001,0.6628452307998257,0.0,63,22,316.47382725882636,1379.2956,mp-1190831,Eu3SbO7,https://materialsproject.org/materials/mp-1190831,23.4684584648401,64.05414254355064,-8.839986665862279,37.11699897520444
-7.542516204166668,-181.0203889,7.442497528774207,-2.1968596538888896,6.0,0.2074099411985737,0.011399999999999856,12,24,337.1313266436576,1511.0148,mp-1213000,EuAg(WO4)2,https://materialsproject.org/materials/mp-1213000,15.382076783552685,24.29976784902893,25.046408510706282,36.32602303202802
-7.4133859475,-59.30708758,7.4442765437422675,-0.10260590618999997,0.40475855,0.0368144290988537,0.0,129,8,128.1313461708474,574.419,mp-1245847,CrPbN2,https://materialsproject.org/materials/mp-1245847,-22.84537737380286,65.52663011302886,-37.667152118082825,57.33256832867395
-8.236643686842106,-156.49623005,6.822821843152138,-2.1155011935968417,3.72e-05,1.2808716414601689e-06,0.0,12,19,338.4657724524242,1390.68796928,mp-1220753,NaHf6(NCl)6,https://materialsproject.org/materials/mp-1220753,-4.0479049266689815,28.190127064640173,-15.5193637284951,53.604639675343044
-4.248515585,-67.97624936,3.295244462795328,-2.719460113095,0.0,0.0,1.8641,141,16,289.21734314411066,573.9352256,mp-1214075,CaZnF2,https://materialsproject.org/materials/mp-1214075,12.64451412941906,67.24334040301514,5.038823294420181,50.32050054571954
-7.079671046666667,-84.95605256,5.489077411093058,-2.921499319270833,2.5e-08,1.2741194209487206e-09,1.938,12,12,228.66900427359417,755.8882,mp-1173362,PrSO,https://materialsproject.org/materials/mp-1173362,-1.46543985936052,8.914031331625036,6.5923803297066526,25.26831837431124
-9.4765173503125,-303.24855521,6.187839221847737,-3.97388334203125,2.5e-08,6.221046626165928e-10,3.9515,62,32,468.3321582715001,1745.1948,mp-772833,Y2HfO5,https://materialsproject.org/materials/mp-772833,19.955133702882968,57.64428184903193,-2.619405646059985,38.091564559383116
-6.000082636666666,-90.00123955,3.2511615220004684,-0.5673860575065969,0.0,0.0,2.8241,12,15,323.2446145903644,632.8791,mp-1029784,Rb2CN2,https://materialsproject.org/materials/mp-1029784,26.359842174221445,36.01221203557611,4.7949142556475435,17.08330516806694
-5.601725427857144,-78.42415599,2.3551038420921846,-2.3744757214375007,0.0,0.0,4.9055,63,14,245.7337120405764,348.5184,mp-677242,K2SO4,https://materialsproject.org/materials/mp-677242,4.863266091558409,25.286222591040836,13.371812611477962,10.275735947462564
-5.03997905,-40.319832399999996,5.959297554999213,-1.6980771032112072,0.0,0.0,2.2042,15,8,181.92680697278985,652.894,mp-29521,RbBiO2,https://materialsproject.org/materials/mp-29521,-2.8893105299305617,13.954877937141044,8.157475380175901,33.26456769540449
-4.71004474125,-37.68035793,4.708207561694735,-1.4718639907812503,1.45e-06,9.040056684154569e-08,0.0,129,8,186.9279641778253,530.006,mp-1147715,BaCuS2,https://materialsproject.org/materials/mp-1147715,-0.5205007992830829,9.484103863443034,-16.477874552920653,17.934763043534037
-4.13871152875,-165.54846115,5.655834609784688,-0.7333158513333338,0.0,0.0,2.438,29,40,664.1666192960196,2262.16696,mp-27384,AgIO3,https://materialsproject.org/materials/mp-27384,5.427455501129423,8.545831398612316,6.223143236088316,32.08242598410303
-6.7797962596875,-216.95348031,3.0855826838016154,-3.274283601434107,1.0000016,0.03048287298930832,0.8080999999999998,5,32,382.3157818211863,710.4120576,mp-1227623,Ca4Mg4P4O17F3,https://materialsproject.org/materials/mp-1227623,-3.66475974580676,24.453589797470592,3.518104726401216,51.42860496861202
-4.560701585,-36.48561268,7.258325206811866,0.04502518270833278,0.6199167,0.02393340555236395,0.0,194,8,301.8604836484657,1319.4520000000002,mp-1183259,AcNd3,https://materialsproject.org/materials/mp-1183259,-23.54252071425578,65.71611785929028,-39.00736032990478,58.40571066095501
-7.652424808249999,-306.09699233,4.1780768520015465,-2.8262675544,0.0,0.0,1.8833,63,40,521.1066719071162,1311.15479424,mp-559354,NaNbO3,https://materialsproject.org/materials/mp-559354,-28.932308637852568,35.354543253881786,9.814032614927898,36.753195452381114
-7.107286188095237,-597.0120397999999,6.7207312026056965,-2.164705540651787,7.768013799999999,0.07984570538074323,0.0,123,84,1133.7984372190276,4588.84395424,mp-1173831,Na8(WO3)19,https://materialsproject.org/materials/mp-1173831,-9.75749456902076,53.60930940955951,51.28505163249378,16.093346502764746
-6.7107695000000005,-20.1323085,6.9928080107476065,-0.05084115916666695,0.0,0.0,1.0344,139,3,46.794956686086934,197.0614,mp-1100,YbC2,https://materialsproject.org/materials/mp-1100,-8.348563247666807,-26.21018188589645,-3.799928761936324,-19.23353392659639
-6.87193426,-27.48773704,5.72336418834417,-2.34379167765625,2e-07,2.6478908474875968e-08,0.0,166,4,88.02526572133772,303.39585,mp-1218975,SmYS2,https://materialsproject.org/materials/mp-1218975,-28.068512351584054,-20.016485307800263,-56.3189740839015,14.073385231298035
-6.52508490962963,-176.17729256,5.952003373800995,-2.3833164700462963,2.0000495,0.05462254825748111,0.0020999999999999908,38,27,426.7231603961879,1529.5380772,mp-1228417,Ba6Al2Rh4O15,https://materialsproject.org/materials/mp-1228417,-6.320046406861072,32.5947495531258,-0.5574635601326537,54.98165892203164
-6.068031684,-60.68031684,10.235119685776915,-0.4098219020000002,1.42e-05,6.103822228690238e-07,0.0,127,10,271.12146057022056,1671.12036,mp-30670,Th3Ga2,https://materialsproject.org/materials/mp-30670,-7.761665664587832,24.130949727521333,7.6558514695428785,49.157265126651566
-6.484360019230769,-168.5933605,2.549406957747772,-2.6199235854340666,0.0,0.0,4.2869,11,26,343.9451563613587,528.0551396799998,mp-767552,Na3CaPCO7,https://materialsproject.org/materials/mp-767552,24.825015040335455,15.914438896982011,26.79940412621221,41.56888006000733
-3.4735789675,-13.89431587,4.769101249493726,-0.001215081874999857,1.285656,0.12894354847483047,0.0,225,4,116.19905358936728,333.726,mp-1183812,CePmMg2,https://materialsproject.org/materials/mp-1183812,-29.393538793531636,55.815216240238364,-56.30360290475493,52.39152264530378
-8.818317572916667,-211.63962175,6.890919396072079,-3.913716421666667,5e-07,1.820827495319979e-08,1.8152,123,24,320.0211113494772,1328.0264,mp-1191683,Ce7ZrO16,https://materialsproject.org/materials/mp-1191683,25.218011299222656,65.25479315465887,-11.521470173683916,36.17714888550589
-6.052797867000001,-60.52797867,8.43212643413549,-1.5919335912500003,3.0000001,0.28376394342156097,1.5455999999999994,146,10,123.20873138961691,625.6472,mp-548231,FeBiO3,https://materialsproject.org/materials/mp-548231,-13.678363943804221,50.25432471540852,9.375955692118893,64.6651165549946
-6.326699812916666,-151.84079551,5.205913433886965,-1.7802636608184528,0.0001851,4.078333291141941e-06,0.3786000000000005,62,24,528.9335705068843,1658.246096,mp-1191667,NdPS,https://materialsproject.org/materials/mp-1191667,-0.19131189929392808,-23.560591506263822,11.388626934153784,-12.049314997916104
-8.321124806458334,-399.41399071,5.673612308213687,-3.8188117086458337,0.0,0.0,3.6348,136,48,722.3815747843498,2468.182256,mp-1197417,BaLa2Sc2O7,https://materialsproject.org/materials/mp-1197417,-24.78458117096437,24.131814505690517,-16.107161641819875,49.06766861871055
-7.983624302000001,-39.91812151,7.121199313621492,-2.9797645937499992,2.9999999,0.5988908301639276,1.7362000000000002,221,5,58.378240893591226,250.3543,mp-19257,SmCrO3,https://materialsproject.org/materials/mp-19257,-29.025381348621263,55.3700349504452,-17.545651334941283,66.77751224873522
-8.355826026666668,-50.13495616,8.644681662968429,-1.4341834757933327,2.00000015,0.16010571422911465,0.0,129,6,145.57963409022787,757.8801599999999,mp-27763,UIN,https://materialsproject.org/materials/mp-27763,21.41620023955672,60.82551537279582,-13.775305979329875,39.41781809593543
-8.306198385789473,-157.81776933,8.745224307115675,-3.73809422131579,0.0,0.0,3.4077,148,19,259.2642988591874,1365.41472,mp-19065,Ho6WO12,https://materialsproject.org/materials/mp-19065,15.354516041359998,60.51475340442338,-5.224917066775655,38.21471298964556
-11.370402011,-227.40804022,11.357832834531589,-1.3855719047500017,18.7340125,0.4689328252306877,0.0,62,20,465.5835193826291,3184.52,mp-1209790,Pu3S2,https://materialsproject.org/materials/mp-1209790,-0.5210592326039383,24.20412624506072,1.727067644263328,47.052427209469364
-8.620626475454545,-189.65378246,7.361298492468004,-3.4256257537500017,0.0,0.0,2.9284,74,22,337.7092035788182,1497.0911199999998,mp-769571,Ba2Ta2O7,https://materialsproject.org/materials/mp-769571,29.880226763491805,61.11370045056485,-9.515934618723714,34.65893449168705
-6.459898,-38.759388,5.917014703586929,-1.20084408652,14.000001500000002,1.6979277183355357,0.07819999999999983,164,6,96.09179621431365,342.40482000000003,mp-1018693,Eu2H3Cl,https://materialsproject.org/materials/mp-1018693,-13.76407156889951,22.588211650819463,-18.065913039929253,37.93464087359187
-5.980312740714285,-167.44875674,5.267546473755672,-2.099934455,0.0,0.0,1.8759999999999997,62,28,438.30353794349566,1390.3824,mvc-5840,Ca(SbO2)2,https://materialsproject.org/materials/mvc-5840,-2.8046664278809788,12.883328694730272,6.138070403279619,30.700752997633728
-6.4138397153333315,-192.41519146,4.082439482537022,-2.0264911037857143,8.00006955,0.287206892091901,0.0,70,30,324.62079179788446,798.081048,mvc-8998,ZnFe2(PO5)2,https://materialsproject.org/materials/mvc-8998,-5.425086556001201,28.689571759217202,20.376491450407233,51.356731351798324
-6.9589239184615375,-90.46601094,5.381239356532348,-2.33943865548077,10.999861099999999,0.7293112185373771,0.0,47,13,175.7728257706622,569.6196386,mp-1258336,Ba2AlCr3O7,https://materialsproject.org/materials/mp-1258336,-21.522176247043127,59.57623038660306,12.119722199776126,64.04684251220945
-5.61326281625,-44.90610253,8.743734088197542,0.29069062131000045,0.0,0.0,0.18630000000000013,129,8,134.4285214855354,707.8467999999998,mp-1246924,SnPbN2,https://materialsproject.org/materials/mp-1246924,-29.608528945849734,32.6650938634096,-23.479797899278932,60.9400710043454
-8.338638592333334,-250.15915777,8.481623509095495,-3.973694881583333,0.0,0.0,3.0794000000000006,185,30,446.600501993826,2281.12512,mp-770415,HoErO3,https://materialsproject.org/materials/mp-770415,10.518166764563777,56.67536122431768,-7.699797230107807,41.984878022955435
-7.788699803999998,-77.88699804,5.272565198864326,-0.4417814276666661,1.05e-06,1.0526844529219533e-07,0.0,127,10,116.24345716536313,369.09774,mp-10852,La(BC)2,https://materialsproject.org/materials/mp-10852,-20.514866162242555,22.959796239539386,-9.6478259231729,26.22378124490215
-8.777983721052632,-166.78169069999998,9.62400430630271,-4.085057855789475,7e-07,3.195009871519475e-08,1.9313,148,19,255.33083367007245,1479.82371,mp-20402,Lu6UO12,https://materialsproject.org/materials/mp-20402,12.711664140736726,63.27467577217492,-4.9982773522148864,38.61258580187031
-4.474496413333333,-80.54093544,4.018966181925096,-2.0895514796027777,3.3474726,0.12622432595071573,0.0,87,18,309.066118681441,748.0259416,mp-1209209,Sb4NF13,https://materialsproject.org/materials/mp-1209209,3.0564972052898325,-3.516970328526299,36.013586594671416,-9.444397913219417
-3.3299972575,-13.31998903,4.56329624086035,-0.1049080012500001,0.0010290999999999998,9.93445091051749e-05,0.0,225,4,120.72331088519566,331.75747,mp-1185071,LaNdMg2,https://materialsproject.org/materials/mp-1185071,-30.58879522065989,52.31655753980718,-55.812849347239215,52.738830117779685
-7.209163100833332,-86.50995721,4.592419224085169,-2.094864528098958,6.99126095,0.3820223737546286,0.0,63,12,213.27705797016827,589.8431999999998,mp-756216,EuSeO4,https://materialsproject.org/materials/mp-756216,3.572584083183955,20.761710271098615,41.94884975540362,-1.1216218201301604
-7.903572388333334,-284.52860598,7.28356548224914,-3.2479366097222218,0.0,0.0,2.1659,15,36,471.4136643593337,2067.7456,mp-17822,Dy2MoO6,https://materialsproject.org/materials/mp-17822,20.366304757305816,56.258963617824676,-2.088640435799149,36.65425548845101
-6.570370545,-26.28148218,5.277807201646208,-2.9713819488362074,0.0,0.0,3.5458000000000003,166,4,80.66149723465213,256.37207,mp-7972,RbLaO2,https://materialsproject.org/materials/mp-7972,-1.3894555362249033,66.81549503695139,-12.468427813875925,40.703801256077156
-5.0384685744,-251.92342872,3.514819366998747,-3.109428181982965,3.00001582,0.03936166484238683,3.905,87,50,888.2342458069597,1880.102096,mp-1203661,KRb2CrF6,https://materialsproject.org/materials/mp-1203661,-3.2417081078509096,-13.18121053349858,-0.5426756519915895,7.39173932944481
-6.357353543333333,-38.14412126,7.0157815257202545,-2.9161748045833336,0.0,0.0,2.2407000000000004,166,6,145.72024184840896,615.66838,mp-753163,HoIO,https://materialsproject.org/materials/mp-753163,28.64497379172057,61.80102018609561,-15.246079750110368,40.60712706059236
-4.725727752,-23.62863876,5.079797209299277,-2.54895348695538,4.0000008000000005,0.580295136899151,0.0,221,5,80.3319990971973,245.7456615,mp-558694,CsFeF3,https://materialsproject.org/materials/mp-558694,-23.209120125626942,10.41678468184436,-31.83287157418335,50.07641856259981
-5.058769542,-50.58769542,6.017841731422077,-0.7167898079999999,0.000171,9.065584182693204e-06,0.0,127,10,219.8253345782371,796.6534,mp-1205816,Tb2MgSi2,https://materialsproject.org/materials/mp-1205816,-7.907718220347077,25.462882790949852,8.836905716684484,39.28929093696261
-4.954121025277779,-178.34835691,6.698110923649563,-1.3818094079166667,0.0,0.0,2.752,14,36,737.7486674800117,2975.8544,mp-29690,Tl2Te2O5,https://materialsproject.org/materials/mp-29690,12.687606744775042,19.408728593283453,42.14302108338536,14.259953188237436
-5.963344761818181,-65.59679238,5.485816072059208,-1.0619914947348483,7.482081,0.3610918277424455,0.0,139,11,241.48055953715075,797.7638000000002,mp-1103080,Ba2Ti2Fe2As4O,https://materialsproject.org/materials/mp-1103080,-21.771196207023653,25.65010040358237,-24.268646173899302,34.02010721071777