energy_per_atom,energy,density,formation_energy_per_atom,total_magnetization_uB,total_magnetization_T,band_gap,sgr,num_sites,cell_volume,weight,mp_id,formula,URL,tsne_xrd_lin1_0,tsne_xrd_lin1_1,tsne_xrd_lin2_0,tsne_xrd_lin2_1
-6.0203231045,-120.40646209,8.626377028336425,-2.5725726877499997,0.9999996999999999,0.052054730041913716,0.0,62,20,223.88092814921103,1163.0448,mp-1207537,YbGaO3,https://materialsproject.org/materials/mp-1207537,-8.951506168981886,44.002203917121335,-4.1693592603108005,63.85977481617615
-6.297450575357144,-176.32861611,4.45934259383407,-2.0002600199107143,0.0,0.0,3.0359,176,28,450.89506729394486,1210.8692,mp-17708,Ge3Sb2O9,https://materialsproject.org/materials/mp-17708,23.754103467853962,-2.6268576758684437,45.74639004213309,0.9957705881318868
-7.31080507,-58.48644056,5.773373581537249,-2.4343776917187503,0.053373699999999996,0.004682896557477727,0.0,99,8,132.82816507187556,461.81788,mvc-7244,BaTaCuO5,https://materialsproject.org/materials/mvc-7244,-1.0087467048960597,17.513627357477098,8.312345192049051,27.611858056345763
-7.842951910416668,-188.23084585,4.695864812331581,-3.2928334217708346,3.5e-07,1.5158611594853258e-08,4.540100000000002,113,24,269.0828671789962,760.9437280000001,mp-541040,Y2Be2GeO7,https://materialsproject.org/materials/mp-541040,-2.589291753249185,12.666930038717465,6.886203551821701,31.0349759398295
-7.2681326849999985,-130.82638833,3.1060510813125166,-2.4909743254861105,3.000000333333333,0.18680866301337912,1.7401000000000004,174,18,187.15512245737432,350.0751,mp-756785,LiVBO3,https://materialsproject.org/materials/mp-756785,12.963372400240749,3.3732063351413677,66.49058436784311,37.17279942343792
-6.221890694444443,-55.99701625,8.800771442071472,-0.3838897272222223,6.8869675,0.4962166402892204,0.0,189,9,161.7462189190858,857.2466350000003,mp-568631,Lu3Mn3Ga2Si,https://materialsproject.org/materials/mp-568631,-39.5408151516515,0.6639418981842379,-48.17881482821272,13.148001741571822
-4.657106578333333,-111.77055788,5.30919827254618,-1.614625143125,0.0,0.0,0.33720000000000017,55,24,840.0911567695965,2686.0016,mp-29911,Ba3Sb2O,https://materialsproject.org/materials/mp-29911,20.306430026916747,54.9856230100207,49.24862253743581,7.567127499847063
-7.7926110039999985,-38.96305502,10.826839419481392,-0.8900887359999985,0.0219836,0.0028764797074639567,0.0,139,5,89.06661071491446,580.721,mp-1068734,Ce(SiIr)2,https://materialsproject.org/materials/mp-1068734,-47.96949126353694,30.0583554269211,-26.59746635750959,34.31882926955166
-6.96333093,-139.2666186,7.389925649034469,-4.1023393203762515,1.3e-06,5.346355256685553e-08,3.6127,6,20,283.3759351360416,1261.1128320000005,mp-1225346,Dy3SOF5,https://materialsproject.org/materials/mp-1225346,0.023092116835765918,16.963146934721784,6.648438962819373,35.27532020827443
-3.852780725,-30.822245799999997,5.8654324809741345,-0.8408695803645836,0.0,0.0,1.5392999999999994,140,8,217.04677053864418,766.6626,mp-1078621,TlInS2,https://materialsproject.org/materials/mp-1078621,-8.150810283898652,10.565334477090328,-2.5286522123779247,19.982152606526366
-3.35158453625,-26.81267629,2.8709016305531314,-0.27434891187499977,3.289999999999999e-05,2.0793110726801176e-06,0.0,123,8,184.39700343778202,318.8035,mp-1079433,BaMg4Si3,https://materialsproject.org/materials/mp-1079433,1.2334467814463013,8.140877328971577,2.4394288105845625,12.71395605803611
-7.920150866153847,-411.84784504,6.5058469926608575,-3.497500864230769,0.0,0.0,3.5009,62,52,793.8953822219031,3110.4128,mp-559014,Nd4GeO8,https://materialsproject.org/materials/mp-559014,4.8953032847756175,24.21787277299308,-17.765570284104665,45.74680389480237
-6.230738827692307,-323.99841904,5.7720582836925685,-1.78911854119391,0.0,0.0,1.5046999999999997,14,52,851.1822324817882,2958.72204,mp-558289,UAg2(SeO4)2,https://materialsproject.org/materials/mp-558289,12.016788368038359,15.732006483466806,41.620259030309356,14.621397860588253
-5.418791186538462,-140.88857085,6.50997556971554,-1.5030434643269242,0.0018471,5.473173200165219e-05,0.0,63,26,393.30425429886253,1541.9096,mvc-2305,ZnSn5O7,https://materialsproject.org/materials/mvc-2305,-0.3457054395183983,27.311618342172203,-15.96847400557677,59.8892698783282
-5.3221276500000005,-47.89914885,8.329087851044665,-0.6380514899999999,1.863333333333333e-05,1.3929989245877294e-06,0.0,189,9,155.88962041706597,781.9258158000001,mp-1079819,LuAlNi,https://materialsproject.org/materials/mp-1079819,-36.10817048240628,-3.9495094087737836,-22.13941672142736,15.53884762788535
-8.081213252222222,-72.73091927,10.780467189848741,-0.3662362594444457,4.524311,0.3241978125824985,0.0,189,9,162.63716594875848,1055.8647457999998,mp-1080528,U3Al3NiRu2,https://materialsproject.org/materials/mp-1080528,-39.34657678961393,0.6794868188149115,-32.963525191436894,12.900868426684804
-7.223497558181817,-79.45847314,6.269501643781709,-2.995417120071023,0.0,0.0,1.4197000000000002,38,11,228.97348115762142,864.5082,mp-30192,Pr4Se3O4,https://materialsproject.org/materials/mp-30192,-6.680574595565827,35.22083565753882,-1.9154883071300783,49.362718876437185
-7.9931388520588245,-271.76672097,5.860347790900414,-2.5460523267401958,0.00046425,1.2506820239214095e-05,2.3818,161,34,432.59593303316046,1526.7106400000002,mp-984755,Nb4Ag2O11,https://materialsproject.org/materials/mp-984755,9.960550021637165,57.14974320907601,-1.759913530403604,69.15849147810506
-6.187842590625,-99.00548145,5.2355406550113415,-2.3434418648437507,0.0,0.0,1.7821000000000002,63,16,216.76566345969886,683.444,mvc-8179,MgSn2O5,https://materialsproject.org/materials/mvc-8179,-4.524966737398397,15.163856079866893,10.138182235423328,27.21940336056871
-6.5777604175,-131.55520835,4.275710773712573,-0.9073091304519992,0.005280475,0.00015584139379234705,0.0,64,20,394.8822336758652,1016.7796,mp-1246350,Sr2VN2,https://materialsproject.org/materials/mp-1246350,12.893208910105177,38.50339089416515,19.100324576990605,45.03846687265509
-9.113223590833334,-109.35868309,6.652436426555782,-2.9522045995833337,14.000001199999998,1.0696519427778473,2.5111,82,12,152.5327204819549,611.0752,mp-1224706,Gd2GeMoO8,https://materialsproject.org/materials/mp-1224706,25.388270291367608,58.014156945378254,-7.3753008724142886,34.911384292895875
-7.386058579285715,-103.40482011,6.758123252789823,-3.1689216657142856,1.0,0.06330337072839885,1.580400000000001,65,14,184.0986449609626,749.25148,mp-19445,LiLa4NiO8,https://materialsproject.org/materials/mp-19445,-7.437048617510003,19.874959086179032,-24.351813606758064,38.21098713046995
-3.6456807397500004,-145.82722959,4.6350576472311165,-0.5032072609999997,0.42737405,0.003541676571998403,0.0,193,40,1406.2957922780677,3925.3892316,mp-27568,Ba10Al3Ge7,https://materialsproject.org/materials/mp-27568,8.792276463248884,26.590889819263055,0.4948941879327568,17.559322620113573
-5.5042318075,-22.01692723,10.922226522637095,-0.3987017625,7.9e-06,2.211837450893753e-06,0.0,225,4,41.624718699839065,273.787364,mp-867273,Be2CuIr,https://materialsproject.org/materials/mp-867273,31.65790567509705,63.74707475530487,-15.887697302715086,34.41421996634581
-8.816164614444443,-476.07288918,5.729692739533287,-3.780325626280865,0.057684000000000006,0.0009618137482200156,0.0,31,54,698.9430891214032,2411.704300000001,mp-29045,La5Ti5O17,https://materialsproject.org/materials/mp-29045,11.949578854880713,33.208259437665575,26.46054324935785,43.10598130160988
-8.593266162105262,-163.27205708,9.936114594371322,-3.4230534884210524,0.9999995,0.04845191512179782,0.14040000000000008,12,19,240.52834477711517,1439.2418,mp-1210574,Lu5(ReO6)2,https://materialsproject.org/materials/mp-1210574,9.666796116819578,22.873023535994392,0.6874032203854733,36.52498421354621
-6.43559442625,-51.48475541,6.395943564936394,-1.4157470470982132,0.13478605,0.011948727805924948,0.3746999999999998,129,8,131.4621424683022,506.356324,mp-505259,SmFePO,https://materialsproject.org/materials/mp-505259,-19.194391609048804,26.60086554210748,-23.68731358089692,45.51806870485001
-7.000707850729167,-672.06795367,4.045845274571685,-2.536517063454861,0.00073405,9.308296518823306e-06,4.476699999999999,29,96,919.0367140752479,2239.2008,mp-1179542,Zn3B7BrO13,https://materialsproject.org/materials/mp-1179542,-5.449792943456672,6.975797076229503,-4.322413163005419,27.17089522047551
-9.292635204482758,-269.48642093,7.085485008120817,-3.9152803226293114,13.9995717,0.4002294658270949,1.6566,115,29,407.64593641982805,1739.4166,mp-677234,Ce8Gd2O19,https://materialsproject.org/materials/mp-677234,26.92432568764797,64.27630639322518,-10.228319347815287,35.663661299179175
-7.592874492000001,-37.96437246,6.706178770172813,-3.2983703042187513,0.0,0.0,2.1752,164,5,98.90734893573669,399.4428,mp-13971,Nd2SeO2,https://materialsproject.org/materials/mp-13971,-13.558945356290646,22.375418130810637,-32.674044386499354,-19.333167909297615
-4.750154004545454,-52.25169405,7.1139873980263895,-1.5827333999999995,1e-07,4.306812882596937e-09,0.0,107,11,270.59603215295675,1159.27221,mp-1218434,SrBi3I3O4,https://materialsproject.org/materials/mp-1218434,-16.365028749198093,22.508857807397863,-16.422277670013127,40.433053588412974
-6.679909970909091,-146.95801936,6.769933831967868,-2.459709814772728,3e-07,1.1851871420879089e-08,0.0,83,22,294.9930274816112,1202.6716800000002,mp-558557,BaLa4Cu5O12,https://materialsproject.org/materials/mp-558557,-20.572706568375075,58.4428804373314,13.374742324891287,72.29656941980963
-6.102162248333332,-73.22594698,6.6020181587369065,-2.2618608264583338,1.1e-06,7.018273637174676e-08,0.0,123,12,182.65847005327592,726.21872,mp-616166,Ba2Ho(CuO2)3,https://materialsproject.org/materials/mp-616166,-24.195209255780316,48.02109471270661,-9.921242710893758,64.9533650323585
-8.197440927666667,-245.92322783,5.033915542836867,-2.6444523346426667,0.5149007000000001,0.014153792840582928,0.016300000000000203,193,30,423.96311552834527,1285.2420000000004,mp-651175,CeSiNO2,https://materialsproject.org/materials/mp-651175,-6.502288096005888,10.312766294298493,62.772464484425846,34.05054835298151
-4.772525415555554,-42.95272874,8.460149984196219,-0.442585022222222,6.31e-05,3.3891301530454407e-06,0.0,65,9,216.9794177092074,1105.4714,mp-1079596,Er2NiSn6,https://materialsproject.org/materials/mp-1079596,-41.93365537277001,28.742059009119288,-35.82174916950632,32.064222408338885
-10.715854451022727,-942.99519169,8.607835773030141,-3.16568873159091,12.6722577,0.12363998307083005,0.0,33,88,1194.4624091849355,6191.8064,mp-567291,Gd3OsO7,https://materialsproject.org/materials/mp-567291,15.97169022232677,60.00432040812309,-3.1524803296737764,38.34202119579503
-9.348680610555554,-336.55250198,6.998593487411123,-3.0388499238541664,3.1794445,0.07330429485755323,0.0,87,36,505.4745048126017,2130.39892,mp-1208695,Ta9V2O25,https://materialsproject.org/materials/mp-1208695,20.42922329645533,-9.1550743950974,44.24392778089243,-3.2820343230368403
-5.667249234615384,-73.67424005,7.2097161117766655,-2.074828909903846,0.6391956,0.037670609467834064,0.0,123,13,197.74638716944187,858.5738,mp-1214587,Ba2NdCu2HgO7,https://materialsproject.org/materials/mp-1214587,-19.018021795445755,36.49108996149279,-13.794492380872136,54.417635844548904
-6.776190300555554,-243.94285082,4.484425883075113,-2.1246596715277786,0.9999995999999999,0.02639676513855152,0.2107000000000001,10,36,441.49576850662856,1192.2966,mp-1216476,V8Cd3CuO24,https://materialsproject.org/materials/mp-1216476,6.069983300509119,7.9233239138450715,22.001202438769933,34.44668461061252
-6.0810481625,-24.32419265,7.191542570471121,-0.3959866081249999,2e-06,2.8303160428155736e-07,0.0,38,4,82.35168508578519,356.65265,mp-1218998,SmYNi2,https://materialsproject.org/materials/mp-1218998,-35.6577220144665,13.78914704864618,-39.063196169736905,25.23425302438488
-5.1844697725,-62.21363727,3.5908398949702827,-1.106544539252873,1.0000002000000001,0.057749070452438274,1.7561,121,12,201.80527603419785,436.3947,mp-1209300,Rb3CrO8,https://materialsproject.org/materials/mp-1209300,25.68616612295293,59.958728308579644,-9.28531997080284,32.73403084483751
-3.9816315563636366,-87.59589424,4.813126884005689,-2.06898198625,0.0,0.0,3.9789,186,22,915.4522708865053,2653.4684399999996,mp-29909,Ba4I6O,https://materialsproject.org/materials/mp-29909,9.725478232025177,17.898717329550987,30.79085391815312,4.408678291568181
-7.169772688823531,-121.88613571,6.238272394626727,-2.7851480045588244,0.000371,1.64566928749615e-05,0.5635999999999997,1,17,262.72945989032814,987.0156,mvc-2939,Ba2Ti3Tl2O10,https://materialsproject.org/materials/mvc-2939,11.708333909426491,23.365344607307648,24.799559794456272,32.36029952649397
-8.785672293333333,-105.42806752,5.752576036701236,-3.511294855833333,0.0,0.0,3.9277,141,12,182.33463724637096,631.6586599999998,mp-755781,TbNbO4,https://materialsproject.org/materials/mp-755781,-14.86504580207906,0.9184782776812204,11.198845057906713,33.9109074628468
-6.3491181,-63.491181000000005,8.16159606194397,-2.35456084475,0.0,0.0,0.3504000000000005,186,10,159.22064375568928,782.57394,mp-29257,LaTlO3,https://materialsproject.org/materials/mp-29257,10.137828795372746,55.4922604589055,-11.737974607003553,51.04508441446753
-7.606611233809524,-159.73883591,6.607407145624938,-2.3264889635691657,2.2587361,0.057398999064632986,0.0,8,21,458.604805701888,1824.8223,mp-1227866,Ce3Se2NO,https://materialsproject.org/materials/mp-1227866,-1.1205128249651672,34.90585638209964,0.4022832218294233,32.117120282043146
-7.3616043241666675,-88.33925189,6.559447040420985,-2.6005984184999997,1e-07,6.944531979569583e-09,4.2287,82,12,167.81641738918168,662.90696928,mp-1220977,NaNd(WO4)2,https://materialsproject.org/materials/mp-1220977,27.21351149108273,57.99976545603649,-7.059557233455648,33.62746513330688
-4.1375685372,-206.87842686,4.690947993858226,-1.3182738880931033,9.5e-07,5.125805296921056e-09,0.0,141,50,2159.9262735519824,6101.6944352,mp-505186,Cs4Pr6C2I13,https://materialsproject.org/materials/mp-505186,6.038303329857122,-12.774431132807171,9.84412969022316,1.0256120090225975
-6.923803088541668,-332.34254825,6.160253369682118,-2.528741072673612,0.0,0.0,3.1706,62,48,637.9405674506285,2366.6264,mp-557371,CaBi2B2O7,https://materialsproject.org/materials/mp-557371,6.061545947587593,21.94478910991105,33.487436609913324,-8.468553903826393
-4.185306140833333,-50.22367369,8.085091262171241,-0.6776269008333328,2.45e-06,1.1703086529065454e-07,0.0,194,12,243.97374677064187,1187.8974,mp-1208296,TbZnGe,https://materialsproject.org/materials/mp-1208296,-55.44266777028464,20.115717886352545,-50.18103095026938,26.8922667768156
-6.7611659784615386,-87.89515772,7.775671529688764,-2.1853445000961544,4.0586186,0.2114176002815718,0.0,47,13,223.7250067568683,1047.6189499999996,mvc-2993,Ba2YTlW2O7,https://materialsproject.org/materials/mvc-2993,-4.910040817459324,33.061958129006236,-2.0360060639585607,49.66812429131529
-5.5187911550000015,-77.26307617,8.883813875881845,-1.0954459271428578,1.45e-06,9.338705840464414e-08,0.0,88,14,180.95006105654568,968.0752,mp-1103838,Pd2PbO4,https://materialsproject.org/materials/mp-1103838,0.5827652007750594,65.17884040955454,-7.116187746702295,51.88360158625564
-5.254840465454546,-57.80324512,7.65018793258094,-1.7965796402272731,1.76e-05,1.1209973766311358e-06,0.0,139,11,182.97236396168884,842.9630000000001,mp-550722,Ba2Tl2CuO6,https://materialsproject.org/materials/mp-550722,-12.931109301216527,25.539376129645767,-18.31867828476495,41.07683589428557
-7.0343222881578935,-267.30424695,8.164815603680157,-3.122213356677632,7.9999988,0.17571638273199833,2.2029,87,38,530.5851551576584,2608.8696800000002,mp-1214595,Ba5Tm8Ni4O21,https://materialsproject.org/materials/mp-1214595,-5.917938726354259,35.738804274673036,-1.74244005942343,49.56308696921714
-4.906710498000001,-24.53355249,8.290687241335363,-1.3923892004999998,0.0,0.0,1.7180000000000002,107,5,115.18332045386202,575.0836699999999,mp-1227389,BiPbIO2,https://materialsproject.org/materials/mp-1227389,-16.314245778520142,22.6955877963312,-16.476104498537474,40.0733228113339
-6.879926485294117,-233.9175005,6.413543531359633,-2.3057744904411765,4.0000001,0.0889111466764319,0.0,14,34,524.3016426870812,2025.024,mp-1200068,Ba4Ru3O10,https://materialsproject.org/materials/mp-1200068,23.196831124825106,32.82388260941471,31.10002402225339,41.39902209508734
-9.218518695,-184.3703739,8.410756022337132,-3.4313966176250004,4.00000005,0.13749186304133645,0.0,62,20,339.0474071831218,1717.3008,mp-505025,BaPuO3,https://materialsproject.org/materials/mp-505025,-20.338113081700584,6.420749758435308,-13.376811611324545,29.551129183155687
-8.034962941282053,-313.36355471,6.036623317885009,-3.2241247858974367,0.0058146000000000005,0.00011549477695709336,0.0,156,39,586.7254503785916,2132.94626,mp-780569,Ba8Nb7O24,https://materialsproject.org/materials/mp-780569,-17.540970276674507,19.08152831136211,-14.569505824051756,47.4681639294036
-4.88405525,-29.3043315,4.16029622552228,0.0449727039285713,6.1e-06,5.90254156779351e-07,0.0,156,6,120.43929601530778,301.7472860000001,mp-1225680,CuGe2P3,https://materialsproject.org/materials/mp-1225680,25.994568941381175,65.66788521452598,-13.39130669936226,7.892382063720832
-8.124862046818182,-178.74696503,7.750533201630293,-3.1160544121590927,2.9999999,0.11101772022740614,0.0,63,22,314.92443801455164,1469.9036,mp-17666,Nd3OsO7,https://materialsproject.org/materials/mp-17666,19.902293953336674,55.69643712287968,-1.5316002759417326,37.10707657737301
-7.987859315714287,-223.66006084,5.460898163382555,-1.2533670700592856,56.00000060000001,0.8571487451868902,0.6649000000000003,156,28,761.3936763256705,2503.9419299999995,mp-684011,Eu8C4I9N7,https://materialsproject.org/materials/mp-684011,20.41675716249943,29.284136506023533,17.815703581264806,29.14379200437559
-5.3877693010000005,-53.87769301,6.808460961425822,-1.86709382625,0.0,0.0,0.9579999999999996,148,10,136.15068986648183,558.2384,mp-754329,CdSnO3,https://materialsproject.org/materials/mp-754329,-18.327233692432852,25.30205551308636,-12.864219555915696,57.72341800241039
-6.363891793,-63.63891793,4.626929542351581,-2.0940937611500003,0.0018852,0.0001833663113050429,0.0,161,10,119.81613608772696,333.85593856,mp-998627,NaMoO3,https://materialsproject.org/materials/mp-998627,-9.764312284593608,53.65546201908774,51.2718597606701,16.049413256200776
-8.341343681521739,-383.70180935,4.857624751482214,-3.088732505315217,0.0,0.0,1.9317,127,46,643.7870832912026,1883.2897,mp-1211773,K2TbNb5O15,https://materialsproject.org/materials/mp-1211773,9.596070289776296,32.7069482298812,31.89186810713171,36.56061203521885
-7.4382218545454535,-327.28176160000004,3.164579678199786,-2.9032046783177923,4.9999998,0.10322091162212332,4.164,14,44,564.5205086475562,1075.8374760000004,mvc-1303,CaMnP2O7,https://materialsproject.org/materials/mvc-1303,3.4145048281624466,27.453822952102943,31.433665364313267,-1.3435374110594325
-6.670416631527778,-480.26999747,5.6632427537393655,-2.392318748750001,0.0,0.0,3.2146000000000003,62,72,1125.0211325814387,3836.8672,mp-558484,Nd2Te3MoO12,https://materialsproject.org/materials/mp-558484,6.88567749455572,19.03055511142937,35.31127634999506,-2.8805449946265105
-5.351448026363637,-58.86592829,5.376459185440936,-1.1921198906818182,8.88e-05,2.7596863226672898e-06,0.0,12,11,374.9994857397664,1214.16563,mp-1223222,La4C2I5,https://materialsproject.org/materials/mp-1223222,0.18170055214829836,-13.342061903851993,19.471591482796335,-13.907099562408266
-9.0577560895,-181.15512179,4.794330429356261,-3.9619227337500007,0.0,0.0,4.4324,62,20,251.95223496888957,727.4398480000001,mp-755165,YScO3,https://materialsproject.org/materials/mp-755165,-20.678457628159446,44.52236042144265,-7.197740415377124,63.15000675481984
-5.024703043333333,-60.29643652,4.631450023456057,-0.5198699445833329,2.2e-06,1.1693660725026097e-07,0.0,51,12,219.25505709910283,611.5296387999998,mp-12274,LaAl4Co,https://materialsproject.org/materials/mp-12274,-7.6783511844219365,8.3898058911641,-0.4152147967064022,19.84332989715051