energy_per_atom,energy,density,formation_energy_per_atom,total_magnetization_uB,total_magnetization_T,band_gap,sgr,num_sites,cell_volume,weight,mp_id,formula,URL,tsne_xrd_lin1_0,tsne_xrd_lin1_1,tsne_xrd_lin2_0,tsne_xrd_lin2_1
-6.473866409583334,-155.37279383,3.079499896440084,-2.74513739359375,0.0,0.0,5.9549,62,24,293.6409012260182,544.5624,mp-562260,CaSO4,https://materialsproject.org/materials/mp-562260,-4.348455491937795,22.840051210517252,-2.8350561421176086,26.46466700340857
-4.372503867000002,-43.72503867,4.525366699792956,-2.7309330704496326,0.0,0.0,2.4203,225,10,169.7161688994123,462.5172192,mp-1113760,Rb2GaAgF6,https://materialsproject.org/materials/mp-1113760,-20.80620770349187,6.107250856555568,-25.66814958659115,-7.0898731658844785
-6.4781832121428575,-90.69456497,5.81301696370191,-2.602321653392857,4.999964,0.3149719056647121,0.015699999999999825,38,14,185.00032310340407,647.6270599999999,mp-1218340,Sr3La(CoO4)2,https://materialsproject.org/materials/mp-1218340,-23.221559908259717,40.232541023960295,-12.77186793783269,59.40172102721017
-7.728233484166666,-92.73880181,8.196736513914674,-4.353185619146667,0.0,0.0,4.8507,14,12,165.2545833818274,815.7280528000001,mp-1207669,TmOF,https://materialsproject.org/materials/mp-1207669,-1.7946345042304783,11.791806535777841,8.021642434717586,34.247955379910195
-4.680763267857143,-65.53068575,6.9345712570619025,-1.1542109059523813,0.0,0.0,0.0,43,14,214.25625630630512,894.7548,mp-1229053,AgHgAsO4,https://materialsproject.org/materials/mp-1229053,-4.76320700165658,22.076246492969346,-8.155662830269513,46.34563133129768
-4.085189420555556,-73.53340957,4.426901190846378,-2.2355001075941003,2.99999735,0.1279323945099309,0.0,227,18,273.28624284987836,728.5653422,mp-647818,CsNi2F6,https://materialsproject.org/materials/mp-647818,-6.802613798781017,-9.514749676106259,0.5906349512257555,7.85228686912403
-4.4442193,-44.442192999999996,1.9531335806992025,-1.0615424444660726,0.0,0.0,1.707,71,10,282.71793618771517,332.534124,mp-8267,KPS3,https://materialsproject.org/materials/mp-8267,5.919142222852651,23.603698657533158,7.431775499919324,-44.730141820685795
-4.1654818475,-83.30963695,2.2206048454012746,0.20228241338533334,5.35e-06,3.2714909646687245e-07,0.0,62,20,190.5835816346444,254.86352,mp-580797,Ca(BH)2,https://materialsproject.org/materials/mp-580797,-5.654616861533753,15.999479855383,-1.2995423977143168,20.512191814691686
-8.04220655,-48.2532393,6.204312577117936,-0.4949000731249989,0.1787809,0.024927870931610543,0.0,123,6,83.58211555301506,312.2899,mp-6258,CeCr2Si2C,https://materialsproject.org/materials/mp-6258,-39.924205144952175,-5.755779318764428,-49.050110349151204,8.060413708982752
-5.734237595,-263.77492937,7.9244351337728585,-1.653765576902174,0.0069199,9.54767422797216e-05,2.062,12,46,844.6555767829553,4030.8708,mp-31107,As2Pb8O13,https://materialsproject.org/materials/mp-31107,22.693242568671078,54.52143309712515,35.759234345601776,-0.4628950828672694
-7.117209205333332,-213.51627616,4.580114705599717,-0.6761580168888893,7.35e-06,2.0117994203731705e-07,0.0,127,30,425.77493168988525,1174.3765,mp-1207750,Y5(SiB4)2,https://materialsproject.org/materials/mp-1207750,-5.783318329111276,24.99904818725278,-33.483154853633245,22.975158580124198
-8.272826562999999,-165.45653126,4.207886001924583,-3.3540605675833333,0.0,0.0,4.1141,167,20,273.21453237586,692.3388,mp-559348,BaZr(BO3)2,https://materialsproject.org/materials/mp-559348,-1.7212161606935443,-21.57511184725677,13.390269753821388,-15.671867346433446
-4.4399710509375,-142.07907363,7.014086602675464,-1.1306239925683603,7.665e-05,1.7214768490903167e-06,2.0959000000000003,4,32,518.9056508594584,2191.848,mp-1194584,Hg3Te2SeO10,https://materialsproject.org/materials/mp-1194584,-12.133207053552676,-23.539268270081052,-11.207311270214369,6.587238573822408
-4.517871190999999,-45.17871191,6.374422001327705,-1.6139390611519993,0.0,0.0,2.8418,11,10,202.58756445809198,777.6864,mp-550553,CdBiClO2,https://materialsproject.org/materials/mp-550553,20.02606436728343,10.247701866313424,50.935922480246475,-0.12941907325088411
-8.360094598333333,-50.16056759,9.875084851376345,-3.704784669166667,0.9726587,0.14401761451539966,0.0,123,6,78.70861859180165,468.07348,mp-1215463,YbPaO4,https://materialsproject.org/materials/mp-1215463,23.294974822635183,66.10677648586953,-11.965981396789312,36.497694999285066
-3.494738005,-34.94738005,4.219728387974772,-0.8920237750689658,3.00000035,0.11564986874039415,0.0,194,10,302.3107486190355,768.2259899999998,mp-1206319,RbCoBr3,https://materialsproject.org/materials/mp-1206319,-16.873193005532247,30.194513915305485,-22.052007828696343,39.39796810051771
-3.742505725357143,-104.79016031,5.25354416289495,-0.601609165997143,0.0,0.0,1.5631000000000002,62,28,486.89656291495623,1540.42304,mp-1193896,Ba2H4Pd,https://materialsproject.org/materials/mp-1193896,18.166343355752694,32.403854962012865,3.3838680536989427,19.118374505818515
-5.661606236,-28.30803118,8.415391432016532,-1.566459147250001,0.0,0.0,1.6969000000000003,6,5,91.94380520383615,465.959,mp-37036,Bi2O3,https://materialsproject.org/materials/mp-37036,8.345838546016113,19.788241033690127,13.931236960553115,8.41078704438985
-7.276105198000001,-145.52210396,10.248631547181589,-0.9788056105000004,2.4e-06,8.339976414953621e-08,0.0,72,20,335.369718839892,2069.8584,mp-1187284,Tb2Si5Ir3,https://materialsproject.org/materials/mp-1187284,-45.073675502477435,23.26798957253109,-21.454293962800342,19.5492842899928
-6.52262954625,-52.18103637,8.692364593048612,-2.3635794760351567,1e-07,7.151933988472618e-09,0.08590000000000009,107,8,162.94983694401463,852.9877099999999,mp-1215868,Yb2USe3O2,https://materialsproject.org/materials/mp-1215868,-38.45298381754644,-0.08911317913046106,-21.637256606232718,14.31238467741901
-7.339085176999999,-293.56340708,7.605471732556164,-0.7363771504279996,2.99095405,0.05366245794085786,0.0,206,40,649.5560130485612,2975.04592,mp-1201150,Ho2N3,https://materialsproject.org/materials/mp-1201150,26.070652162011505,64.30130717502158,-8.233035579880514,33.702598557789685
-5.699372039642857,-159.58241711,5.3949082032708695,-2.197408219107143,0.0,0.0,2.0076,62,28,618.6716627022952,2009.996,mp-1232133,Lu2MgS4,https://materialsproject.org/materials/mp-1232133,7.08008666488484,4.296220531728408,11.823547932347164,10.348291886868289
-7.52632684736842,-143.0002101,6.867651627664906,-3.01051751513158,0.0,0.0,1.8797,160,19,279.58428295026545,1156.303712,mp-1228167,Ba4ScReWO12,https://materialsproject.org/materials/mp-1228167,-16.5878796552695,18.58512919747753,-15.03568055624924,46.39503096675638
-4.4008270144444435,-39.60744313,5.536106502678899,-0.663871018055556,2.9999997000000005,0.2851729975946977,0.2504999999999997,8,9,122.59993448310169,408.738535,mp-1181620,Co(IO3)2,https://materialsproject.org/materials/mp-1181620,3.8505680763792403,-0.3850445919439822,9.475296496426216,12.811159350565415
-2.6157502275,-10.46300091,5.1137616855338806,0.05220752500000048,0.0119457,0.0011850936683878144,0.0,225,4,117.47253847280598,361.76599999999996,mp-1187814,YbCeMg2,https://materialsproject.org/materials/mp-1187814,-29.793625867964877,55.46120629555317,-56.41938074375412,52.27673059773598
-5.9223823961666655,-355.34294377,3.339521993535071,-2.2671720233114825,6.000000900000001,0.05037486496269303,1.6480000000000001,129,60,1388.0811229132141,2791.5799190000002,mp-1198376,Cs5V5FeCl6O13,https://materialsproject.org/materials/mp-1198376,22.28902281262411,-13.236823360576455,35.8345248929168,-0.9456661629985448
-7.051846234513889,-1015.46585777,3.3558717519650485,-3.1667174986731164,0.0003528,2.1872937810418184e-06,5.1098,12,144,1879.7447729224136,3798.8762880000004,mp-1218826,Sr7Mg8(P4O15)3,https://materialsproject.org/materials/mp-1218826,24.89044294443732,27.17740137555736,34.66571626818504,36.024684565982426
-6.858042495,-41.14825497,7.010772334867097,-0.4578807331250007,2.72e-05,2.9977374615887713e-06,0.0,71,6,105.74327000791521,446.44659,mp-1070917,Nd2Co2SiC,https://materialsproject.org/materials/mp-1070917,-8.560480981772361,18.147526317273343,4.904574403419972,21.303777549914077
-6.72811626,-80.73739512,3.4187318167332412,-2.126668677528736,5.0000002,0.2601269770450748,2.5548,147,12,224.00724006228057,461.18800000000005,mp-563010,RbFe(MoO4)2,https://materialsproject.org/materials/mp-563010,7.473801982954638,-21.26218076987832,45.44978391390696,-1.9102763871537265
-4.381381804,-87.62763608,4.278225081202035,-0.6517921944375005,1.75e-06,3.8668319686973385e-08,1.2824,62,20,527.4243493660267,1358.86,mp-2809,Sb2S3,https://materialsproject.org/materials/mp-2809,7.597603573398397,7.290426223276147,8.597120009797576,16.196885662266688
-11.3337482135,-453.34992854,11.556468058781029,-1.3859226244279994,5.000000025,0.0982351383763038,0.0,206,40,593.1719048527956,4128.1608,mp-1203025,Np2N3,https://materialsproject.org/materials/mp-1203025,13.835119888200701,66.0959851038002,-25.884603992664427,77.72590222568923
-5.58954895142857,-195.63421330000003,5.917505546200478,-1.9183210636071435,0.49531320000000006,0.010764465064132277,0.0,1,35,536.2470016961431,1910.9726,mp-766404,Ba8Cu8O19,https://materialsproject.org/materials/mp-766404,-8.091762646788442,29.917135374250808,-3.6783851913889682,31.067016067587442
-8.2339950145,-329.35980058,6.7207065507729675,-3.0878825670875,0.0,0.0,2.1513,123,40,517.8828596120829,2096.02944784,mp-1076510,K5Na3Ta8O24,https://materialsproject.org/materials/mp-1076510,-29.86518135481005,35.949462069645875,1.190448520680596,42.454907315716866
-9.0162543225,-504.91024206,4.583121275144652,-3.6831195309821423,4.5e-07,7.775154324859925e-09,2.4471,62,56,674.4983994573436,1861.6292,mvc-12320,Y2Ti3O9,https://materialsproject.org/materials/mvc-12320,-5.8707208542866525,52.49286507038315,-3.6689409893238967,68.6498094969182
-8.20911672,-164.1823344,6.751506793788256,-3.1842327692500003,5.999997799999999,0.2905465309036707,2.3177000000000003,26,20,240.66493851753722,978.50814,mp-1222850,LaSmCr2O6,https://materialsproject.org/materials/mp-1222850,-24.44438362833283,50.31757564934228,-7.654463633360248,63.602980122791855
-3.618261832,-18.09130916,8.46347902642949,-0.1731230262500006,2.7723842999999997,0.5305736528401331,0.0,221,5,60.89549685265419,310.373769,mp-971700,ZnAuO3,https://materialsproject.org/materials/mp-971700,-30.31716002254464,50.507699475023024,-17.806127354958015,66.90439949219855
-5.985481245,-275.33213727,5.443915335400879,0.19186836081304465,7.995e-05,1.0390605461098332e-06,0.0,136,46,896.7162520553044,2939.7968,mp-1246777,Sn11(CN5)2,https://materialsproject.org/materials/mp-1246777,1.534388601263588,20.584489849323106,6.969938215865067,33.78587883752225
-5.954641026923077,-309.6413334,11.10266125179807,-0.8895497269230765,0.000320025,3.682431558284166e-06,0.0,62,52,1012.8068966952433,6771.8082,mp-1208850,Tb3(Ge3Pt2)2,https://materialsproject.org/materials/mp-1208850,-42.90942276509298,25.787153283421024,-26.496452475836385,31.51934121149454
-9.576246933333334,-57.4574816,9.813354279120453,-2.6990171271874988,3.00000005,0.3624049300033624,0.0,129,6,96.47273534622705,570.1288,mp-8137,NpSO,https://materialsproject.org/materials/mp-8137,-1.6699024970120242,10.49245765907367,-8.555236937046274,29.234900655301903
-7.142042921818183,-78.56247214,4.833855343997832,-2.8869705274999986,3.0,0.24151899159871065,3.0638,8,11,144.75960704477257,421.3975,mp-1235036,Sr2LiZrCrO6,https://materialsproject.org/materials/mp-1235036,-4.9138937772080915,24.022712776124745,8.334760317322331,60.98610061165138
-4.79268969625,-38.34151757,9.150767393664331,0.15550153625000007,0.0395422,0.0013906819065166087,0.0,194,8,331.36791230986387,1826.07612,mp-985303,Ac3Th,https://materialsproject.org/materials/mp-985303,-14.380542938590612,27.34611413033908,-21.275287553645423,40.518200559382464
-6.970506958,-34.85253479,5.466643486161026,-0.7579707828571429,2.8870334,0.3582867797749423,0.001100000000000101,139,5,93.90710498801478,309.150614,mp-19857,Ba(MnP)2,https://materialsproject.org/materials/mp-19857,-9.501070878933984,20.246564168722546,-24.899767870707933,35.340083254958266
-6.477035795227272,-284.98957499,4.437371283250341,-2.296578800275975,0.0,0.0,2.4447000000000005,14,44,593.7017815071662,1586.5180959999998,mp-1204248,InAgP2O7,https://materialsproject.org/materials/mp-1204248,6.9532376866365375,19.842061988531963,30.57745985887277,0.3275755866237189
-6.228859332777778,-112.11946799,8.031983521304989,-2.03629902138889,1.215e-05,5.044284848264422e-07,0.0,31,18,280.70755567128464,1357.77504,mvc-10023,Ho(BiO3)2,https://materialsproject.org/materials/mvc-10023,-9.05056256602258,30.900998639976677,-0.04717262540900274,47.62661644497019
-3.403307391666667,-20.41984435,6.094827486828812,-0.2885608213541673,4.7e-06,3.438378245029618e-07,1.5412,166,6,159.30214923331897,584.701169,mp-34460,Ag3AuS2,https://materialsproject.org/materials/mp-34460,-9.426801429618905,-24.495291276109967,-4.867408498273387,-20.33367914344976
-7.037321283461537,-182.97035337,5.895960290491713,-2.6739775049999994,0.9999998999999999,0.033443930149560354,0.5230000000000001,8,26,348.46573219823614,1237.2730000000001,mp-1209738,Pr2Cu(GeO4)2,https://materialsproject.org/materials/mp-1209738,21.92098086660279,32.58555095453957,29.046402477765927,38.00653827599053
-7.46450504,-59.71604032,3.524839209766358,-2.95822901528,0.0,0.0,4.0372,11,8,73.45584839684942,155.92530399999995,mp-1101379,ScHO2,https://materialsproject.org/materials/mp-1101379,-6.847409148701378,11.600187275041751,5.574731389348925,28.440902305842428
-6.24329308078125,-399.57075717,5.706399706770588,-0.6820441069712491,0.0002190375,3.253595780501184e-06,1.5682,61,64,784.5710975892432,2696.1584,mp-1245559,CdSiN2,https://materialsproject.org/materials/mp-1245559,-13.685430373825815,36.56284310309728,-4.4798724835397765,43.755447113648216
-3.7100001375,-14.84000055,6.701089405529896,0.009286072500000131,7.016378200000001,0.4917109223807396,0.0,139,4,166.29552505295075,671.0840000000002,mp-1188013,Yb3Eu,https://materialsproject.org/materials/mp-1188013,29.65776231492275,64.00372704819857,-13.01450309574183,33.30632069568755
-4.522626805,-45.22626805,6.391717297477725,-0.6084614359999996,4.65e-06,1.9611665084299004e-07,0.0,194,10,276.3222855349897,1063.61482,mp-1207039,La2Cu2I,https://materialsproject.org/materials/mp-1207039,-50.529754062846365,23.519638224852468,-40.50481550536735,30.951867940971013
-4.062832428,-60.94248642,5.0673197178963605,-1.2220309163993337,0.0012144,2.693103539068613e-05,0.7384,139,15,525.5162326470032,1603.6712799999998,mp-1104424,Ba8Sb4H2O,https://materialsproject.org/materials/mp-1104424,-6.404278745836901,20.864902178083035,-3.7920364170518734,22.36993345725663
-6.4737383193103435,-375.47682252,5.2823523115643285,-2.3509017772300003,9.99938945,0.1274824744327264,0.3843999999999999,194,58,914.1141388642076,2907.894857120001,mp-542399,Ba6Na2Mn2Ru2O17,https://materialsproject.org/materials/mp-542399,-18.375061012144272,17.680272208269244,-17.205144346930958,47.64204652766856
-7.319612549166666,-439.17675295,5.424806720171916,-2.7126133272753328,9.999996175,0.17372367490744522,0.0,62,60,670.8389240032396,2191.56034,mp-1227626,Ca2TbMn3O9,https://materialsproject.org/materials/mp-1227626,-5.881132945360288,52.617113889110975,-3.670671097339654,68.68563945862063
-7.0127671161538485,-91.16597251,6.3367479130531175,-2.588472139326924,6.2167913,0.3526818692541091,0.0,123,13,205.42844643789826,783.93115,mvc-2970,Ba2YTlCr2O7,https://materialsproject.org/materials/mvc-2970,-13.052143666277967,33.76235253736762,-12.086604352279801,52.37035110234641
-9.477933765,-151.64694024,9.162642063304244,-3.6463385100781247,1.9999848999999998,0.1204338336732977,0.0,71,16,193.53326933002137,1067.89183,mp-39027,Y2U3O11,https://materialsproject.org/materials/mp-39027,19.991181696730283,64.51064522106905,-7.1322739350656335,37.79626205802729
-6.3283179,-31.641589500000002,6.680725274193593,-0.4603478739999993,6.7548539000000005,0.9447761462970776,0.0,139,5,83.32291748507383,335.227,mp-3412,Eu(CuSi)2,https://materialsproject.org/materials/mp-3412,-59.962760150791986,25.973564108064238,-59.651325990481645,28.771649048777984
-4.541102955,-27.24661773,9.813789147393402,-0.3687318524999999,9.000000000000001e-07,7.360141167980095e-08,0.0,194,6,142.50621089897132,842.212,mp-1077744,SmCuPb,https://materialsproject.org/materials/mp-1077744,-52.095778809465685,22.293133933014158,-48.696161052225904,28.915294179647585
-3.5981233180000003,-35.98123318,3.0700010353149487,-1.4902080464333332,0.0,0.0,2.149,225,10,388.0329617333623,717.394512,mp-1112015,K2ScInBr6,https://materialsproject.org/materials/mp-1112015,-29.23299567680433,-27.21572159556659,-23.55318038212129,-16.389009033571625
-6.1925920183333325,-297.24441688,7.591908235855252,-2.072670643355655,0.00089925,1.4776960988542832e-05,2.7494,5,48,709.206565196308,3242.459848,mp-645375,ZnBi6P2O15,https://materialsproject.org/materials/mp-645375,19.222003484620814,55.08535890477955,33.368012173803045,0.5944929232496171
-5.397068936666668,-64.76482724,8.073413197075055,-2.215332183313334,0.0,0.0,2.5794,14,12,200.72567645586662,975.9128127999999,mp-753478,BiOF,https://materialsproject.org/materials/mp-753478,9.15174922621802,19.858429235569254,27.775016883135162,-3.2427251772436185
-5.9388630412499985,-142.53271299,6.672600763878503,-1.9747188209722224,2.45e-06,9.542800578499683e-08,0.8975,14,24,299.20418495489776,1202.3024,mp-1212067,InSbO4,https://materialsproject.org/materials/mp-1212067,15.785229329668722,57.09633966458097,2.8175585527954334,38.86968510780709
-6.072655207125,-485.81241657,4.964814184807446,-2.717348571375,0.0,0.0,2.5037,206,80,1301.6073728272827,3891.6512,mp-772918,Sr3TeO6,https://materialsproject.org/materials/mp-772918,-0.0017500530284718188,9.69617845100849,6.126841482020702,24.597591342257616
-5.823194735,-23.29277894,5.796316961051768,0.21671446880999934,0.0,0.0,1.3441,1,4,77.78936424520849,271.53340000000003,mvc-15384,SbN,https://materialsproject.org/materials/mvc-15384,22.119381220247046,22.040864904898,32.420390561293004,39.82722576444539
-7.415174393913042,-170.54901106,6.527961712446679,-2.2776970017391296,3.99966,0.14908120561646326,0.0,139,23,312.66380302916355,1229.1534772,mp-561337,Al2W5O16,https://materialsproject.org/materials/mp-561337,7.3286599913038035,-19.944321126447967,51.49486666013171,13.067374786973991
-7.437531687500001,-89.25038025,5.989423787869307,-3.0859188184375013,4.9993295,0.3435762212508503,0.0,107,12,169.5766651145223,611.64868,mp-1218521,Sr3TaFeO7,https://materialsproject.org/materials/mp-1218521,-21.510278432519325,35.67773139877185,-15.041424693124142,56.80039387661778
-6.83382323625,-54.67058589,8.072366242849567,-2.684178494335937,0.0,0.0,0.07690000000000019,107,8,146.52537095929185,712.3027099999997,mp-1215866,Yb2US3O2,https://materialsproject.org/materials/mp-1215866,-0.9698980477811638,9.111530357413242,-9.984427700713107,27.76942081903163
-9.553371346304347,-439.45508193,7.100467874621981,-3.2692728669293483,0.0023815999999999998,4.24577049921507e-05,2.2217,5,46,653.7169323556086,2795.29476,mp-1217800,Ta12MoO33,https://materialsproject.org/materials/mp-1217800,19.35810545362868,-8.670153064389023,47.773504954872855,2.744350874822536
-6.254604107692307,-162.61970680000002,5.358326776084245,-2.433098044711538,4.00000085,0.1335319840733575,0.4478,46,26,349.1018973445687,1126.5029,mvc-259,Sr2YGaNi2O7,https://materialsproject.org/materials/mvc-259,-22.92917831043749,45.99044035693586,10.941975891618194,56.25000232771756
-6.174325842999999,-185.22977529,8.620369417079207,-1.6207574280446664,9.00000135,0.2897794365421917,0.0,15,30,361.95321496097,1879.0105800000001,mp-1221980,Mn2Ni(BiO3)3,https://materialsproject.org/materials/mp-1221980,-24.58325281719417,49.566508631888745,-8.608300435127052,65.9178379998972