energy_per_atom,energy,density,formation_energy_per_atom,total_magnetization_uB,total_magnetization_T,band_gap,sgr,num_sites,cell_volume,weight,mp_id,formula,URL,tsne_xrd_lin1_0,tsne_xrd_lin1_1,tsne_xrd_lin2_0,tsne_xrd_lin2_1
-4.581897392857143,-128.293127,1.6466169494123752,-1.32536879983631,0.0,0.0,3.0526,62,28,515.6391594776444,511.316,mp-5614,Li3BS3,https://materialsproject.org/materials/mp-5614,18.13602536620228,-13.29328267218548,23.386905278797197,-12.590870356557176
-5.654666397777778,-50.89199758,3.6894458615222,-3.042141668127829,0.0,0.0,3.8369,42,9,198.8311290078588,441.7702134000001,mp-1226274,Cs2KTiO2F3,https://materialsproject.org/materials/mp-1226274,2.132520538140147,-0.4669806054521764,10.967142990628107,-16.09247827056128
-5.6435824328571425,-79.01015406,6.985759322937268,0.366678523265714,0.0,0.0,0.15129999999999955,176,14,343.50681131787127,1445.1065899999994,mp-1245608,Co(PbN)3,https://materialsproject.org/materials/mp-1245608,-11.166047531553046,31.96136799477417,4.073432387753277,38.26501968733169
-4.5767630975,-18.30705239,3.4212254992403546,-1.3191570632812502,1.0300000000000001e-05,1.474261002201404e-06,0.0,123,4,81.42172042679198,167.75400000000002,mp-1096857,CaCuS2,https://materialsproject.org/materials/mp-1096857,-9.620635648697712,22.55377095875325,-28.37548807631579,-0.978710074552086
-5.5911206734375,-178.91586155,4.929092843089064,-1.9634655264062493,0.0,0.0,2.3736000000000006,60,32,484.4437911491725,1438.0079999999996,mp-5746,MgTe2O5,https://materialsproject.org/materials/mp-5746,18.824783348102255,-10.069307710878038,27.20742782632821,-3.631619728832257
-5.006779378,-25.03389689,5.599455366900054,-0.7831195133571427,0.0,0.0,0.18299999999999986,156,5,97.80577107167449,329.807994,mp-1222744,LaZnCuP2,https://materialsproject.org/materials/mp-1222744,-30.86366153993619,-16.726054339342912,-37.081316719772026,-16.738991194151776
-5.384170706190476,-226.13516966,2.525331139962852,-2.095785158235596,1.9940206000000003,0.04028913477368798,0.0,176,42,576.7918661136129,877.1792928,mp-1210484,Na5S3ClO12,https://materialsproject.org/materials/mp-1210484,-6.7375989917154815,32.086953972633985,-1.2453735263485457,25.49572223413027
-7.6351464997058835,-259.59498099,5.0447394153175065,-2.659872503529412,2.00000005,0.0465830471370095,0.009599999999999831,15,34,500.35649362458037,1520.0896,mp-1227172,Ce2(MoO4)3,https://materialsproject.org/materials/mp-1227172,10.916611281528402,22.21227110870203,38.59434455486493,-5.637797992128269
-6.8298111515625,-218.55395685,6.6773080869857875,-2.29770825402625,3.0000007,0.09476278486914053,0.14060000000000006,55,32,368.9444387245932,1483.5879344000002,mp-1210873,MnAlBiO5,https://materialsproject.org/materials/mp-1210873,5.1237526774719955,4.287740272093776,5.439514123213918,29.021463821101413
-7.939328947142857,-55.57530263,5.332953418306065,-3.6752085596428574,0.0,0.0,3.4414,107,7,104.45918106057717,335.478982,mp-1218142,SrLaScO4,https://materialsproject.org/materials/mp-1218142,-25.09201084528585,31.29188847255508,-25.27613126215908,39.078870811210976
-7.131965496785715,-199.69503391,4.572955710166195,-2.504968000649631,7e-07,1.7877442388757703e-08,3.4752,188,28,456.32060578877196,1256.66056,mp-540632,RbTa(GeO3)3,https://materialsproject.org/materials/mp-540632,23.82198071393745,-2.6120894145292297,52.99781636363949,2.276192622702016
-6.826842345555557,-122.88316222,4.500021329266937,-2.139958083362222,10.99999995,0.6510372951795376,0.0,12,18,196.90839966410974,533.6170827999999,mp-759338,Mn3(O2F)2,https://materialsproject.org/materials/mp-759338,49.860919429978296,62.951759084819614,71.58808123696562,31.299907000709386
-7.171901900714286,-200.81325322,6.967951864841689,-2.8127040477678578,4.865e-05,1.2878825540790028e-06,3.6742,167,28,440.23443705275116,1847.3112,mp-18867,Ba3W2O9,https://materialsproject.org/materials/mp-18867,-5.359756081161406,8.539187513254008,-5.707290038132687,26.65666446513142
-4.707955482083333,-677.94558942,4.038123237703087,-2.678970496952084,7.480555555555555e-05,3.170285510429886e-07,0.0,143,144,2749.874694009953,6687.1856880000005,mp-686121,KSn2F5,https://materialsproject.org/materials/mp-686121,-3.5944342416186386,-29.385172026453482,-1.9986557934104328,-21.797330706170975
-5.261027001944445,-189.39697207,4.7141234412425215,-1.5355430236458336,4.99999945,0.059096612062452036,0.6204000000000001,62,36,986.017902201974,2799.2176,mp-1202506,Ba2FeBiS5,https://materialsproject.org/materials/mp-1202506,43.98269050576792,22.4699502516714,11.410613264994561,-3.0454928117554747
-9.19536135,-91.9536135,11.284911889476106,-0.4881545641785721,8.8e-06,6.801617124405775e-07,0.0,63,10,150.78145112069228,1024.700624,mp-1206400,YPOs2C,https://materialsproject.org/materials/mp-1206400,-34.723435424751585,20.88860533231829,-26.960946500931396,38.1944751679392
-6.128986299951923,-1274.82915039,3.397223462889734,-1.5767033568942304,4.9999985375,0.01658300654831651,0.011399999999999966,205,208,3513.856588607829,7188.843959999999,mp-1205282,KCoMo3(AsO6)3,https://materialsproject.org/materials/mp-1205282,19.442073070552844,8.43934797674227,53.72339590189318,-12.79350093566732
-6.680210558181818,-73.48231614,8.309166313418418,-2.0081396205681825,6e-07,4.206253804835872e-08,1.7696999999999994,8,11,166.23910938271737,831.84338,mp-35185,NbBi3O7,https://materialsproject.org/materials/mp-35185,22.57778407525238,55.756428033448714,-1.3417575922977958,34.79403697575832
-8.466619559166666,-203.19886942,4.28083426540892,-2.9055442091091663,1.0,0.031566588645493665,1.6273,71,24,369.1898704494123,951.76362,mp-1214450,BaNb6HO16,https://materialsproject.org/materials/mp-1214450,25.47372718489573,-19.206978933420533,37.3996482206964,-11.675074203284256
-8.076198819,-80.76198819,5.358551704794675,-2.78060426225,3.00000005,0.2422712523573619,0.0,194,10,144.31012577922942,465.6881,mvc-3559,YMoO3,https://materialsproject.org/materials/mvc-3559,10.165070467005195,57.34248596218279,-0.7743041505763122,69.04434745160768
-8.62882259425,-345.15290377,7.113567018505079,-4.018053388250002,0.0,0.0,4.1197,1,40,610.6633671046283,2616.01485,mp-766279,Dy11Y5O24,https://materialsproject.org/materials/mp-766279,18.498719410051088,59.72917977535465,-5.698513051042429,36.837364026571954
-6.16369134923077,-80.12798754,6.0275430939458206,-2.3324497131730784,0.0012109000000000002,6.262573916932655e-05,0.0,123,13,225.33717318588398,817.94495,mvc-2092,Sr2YTlSn2O7,https://materialsproject.org/materials/mvc-2092,-22.735621020432294,19.381057668906593,-18.1880889559812,49.048017152087326
-7.69572985875,-184.69751661,5.033160120352775,-3.025737322864584,0.0,0.0,4.0107,144,24,299.25716377523787,907.0604099999999,mp-19957,LaGeBO5,https://materialsproject.org/materials/mp-19957,-3.884717840419824,7.471914907742819,7.390502708683763,29.245368870146155
-5.362227638999999,-53.62227639,8.297381110992836,-0.5372929660000004,3e-07,1.9604985076790314e-08,0.0,65,10,178.33318505847598,891.0952199999999,mp-1079044,TmNiGe3,https://materialsproject.org/materials/mp-1079044,-46.11221566273915,13.499677390272419,-42.51260052363066,28.940889299569196
-2.57844985,-46.4120973,2.391582989786764,-0.26149255268160904,0.0,0.0,3.0635000000000003,140,18,396.8048591097652,571.4961999999998,mp-643712,Rb3MgH5,https://materialsproject.org/materials/mp-643712,10.241343837961882,-21.236425610517124,16.27274078963696,-16.526954367138295
-7.581942144,-151.63884288,8.258442529291472,-2.99555309125,4.999999,0.25985301255246995,1.5868000000000002,62,20,224.24335833692768,1115.2408,mp-22588,LuFeO3,https://materialsproject.org/materials/mp-22588,-8.93845075029488,44.45404547684458,-3.4633218247280384,63.44645553079756
-6.364790030178571,-356.42824169,8.04235442964643,-1.9971860858928576,7.5e-08,9.310147754103064e-10,1.4756999999999998,60,56,938.8195343696593,4546.90872,mp-561382,NbBi4BrO8,https://materialsproject.org/materials/mp-561382,20.900233579057566,58.93083984210059,32.892438168709056,-4.605396448625336
-2.7490153295,-109.96061318,5.407783457733972,-0.03625697735714297,2.625e-07,3.119734292840975e-09,0.0,206,40,980.5937671733823,3193.4441920000004,mp-1197202,Cd3P2,https://materialsproject.org/materials/mp-1197202,0.5313448012823053,-13.367158349018286,-36.962264171509474,-15.361595118497998
-8.966785235454545,-197.26927518,6.009376537701979,-3.8533931292045462,0.0,0.0,3.4581000000000004,227,22,318.46922112528773,1152.5182,mp-559426,Pr2Zr2O7,https://materialsproject.org/materials/mp-559426,24.27083230802312,65.26472457591666,-11.257437732091077,36.685040931005275
-3.667958777,-36.67958777,3.0475485030495477,-1.70138918655,0.0,0.0,3.0991,225,10,340.85666926501824,625.56628128,mp-1111649,K2NaScBr6,https://materialsproject.org/materials/mp-1111649,-22.546180497910985,-20.050545053191946,-18.34105415241581,-10.39286228137293
-6.408630825294117,-871.57379224,2.9235239629561227,-1.879454895949748,8.0000000375,0.06418469878191327,2.501,15,136,1452.566116019183,2557.369472,mp-745200,Fe2P2H4NO8,https://materialsproject.org/materials/mp-745200,6.297015891938536,30.55788993881412,53.273074578960845,-11.637529061455536
-7.0269985425,-56.21598834,9.144385544233216,-2.0583017968898814,2.2e-06,1.8247354958224325e-07,0.0,129,8,140.50772047964963,773.7588440000001,mp-1079993,ThAgPO,https://materialsproject.org/materials/mp-1079993,-35.96983320202181,-2.168249905528361,-22.78580985736361,9.619562527366757
-4.720529903611111,-339.87815306,3.630780700122112,-1.7481369369791675,0.0,0.0,2.5154,61,72,1737.9718029302326,3800.088,mp-14680,Sr2Ga2S5,https://materialsproject.org/materials/mp-14680,15.761379451267135,30.610519921760375,21.717414292732354,14.47389799846736
-3.996233475,-15.984933900000001,7.638454793323161,0.4768362424999997,0.0452185,0.006114507326377321,0.0,166,4,86.1850840614188,396.4501,mp-1226295,CrIn3,https://materialsproject.org/materials/mp-1226295,-52.47758707596609,22.700729960687394,-48.65353462405512,29.39803307379365
-7.4281204139999994,-37.14060207,3.845387649352984,-2.8618999152500004,0.0,0.0,0.6429999999999998,221,5,70.6153252839352,163.5272,mp-1017000,MgZrO3,https://materialsproject.org/materials/mp-1017000,-29.57833911106967,24.25560315381297,-10.906537887746193,25.77291261308733
-8.2844839125,-33.13793565,7.553435889917086,-1.8397947924218758,6.847158900000001,0.7797145126377014,0.0,166,4,102.341603285877,465.53,mp-1218995,SmGdSe2,https://materialsproject.org/materials/mp-1218995,-34.601177394357805,-30.372970747301693,-60.389619141793744,9.557669388372787
-9.238495051111109,-332.58582184,6.645823186156949,-3.6787542540740734,0.0,0.0,2.9294,33,36,463.4608808015524,1854.8670000000002,mp-1222878,LaTaTiO6,https://materialsproject.org/materials/mp-1222878,5.445114347561241,22.7215407139958,2.9009333098740147,37.18858996310292
-7.581854319444443,-136.47337775,5.702166450306987,-0.6841402649466661,2.45e-06,1.1959322722750848e-07,0.0,15,18,238.74645207503602,819.8373999999999,mp-1246796,Y2Ni3N4,https://materialsproject.org/materials/mp-1246796,7.330664903640781,-2.280563065080485,10.535510764337523,5.017118257420799
-4.139874996666667,-12.41962499,4.9398190071336066,-0.4966930733333334,0.0,0.0,0.0,164,3,78.29022517981092,232.9,mp-7390,SrGe2,https://materialsproject.org/materials/mp-7390,-55.05883754504625,22.159855673339163,-50.599616453736715,30.402815745814664
-7.483682217199999,-374.18411086,3.852302119751149,-2.9332039616166656,0.0002984,6.152933174735111e-06,3.0931999999999995,2,50,565.1894518229551,1311.189,mp-1227225,Ca5TiSn4(BO3)10,https://materialsproject.org/materials/mp-1227225,-5.395465572958715,8.877565494614778,5.193034813766031,28.589257917131683
-6.013663167222222,-432.98374804,3.5279826637800125,-1.1545227055022222,0.0,0.0,2.4202999999999992,88,72,921.1981608669797,1957.1784,mp-1020587,SrMg3SiN4,https://materialsproject.org/materials/mp-1020587,-17.752831430224337,36.06870085377891,-13.292997296526673,56.118148291532194
-6.142744738947369,-116.71215004,5.335299803674023,-0.6482174025810522,5.9077760999999995,0.16050830110132525,0.0,12,19,428.94731835530985,1378.2046,mp-1246245,Ba8Fe3N8,https://materialsproject.org/materials/mp-1246245,17.127567766651936,33.07401538405254,26.012600934680897,32.68842736827891
-8.069847203333332,-48.41908322,5.9412921498490405,-0.13629501541666636,0.118422,0.014855236714155378,0.0,123,6,92.9031078435112,332.4008,mp-1226536,CeNdC4,https://materialsproject.org/materials/mp-1226536,-8.316188522226339,-25.984343253321786,-3.8227770826031677,-19.156381614982585
-6.901025234761906,-144.92152993,7.649695622130978,-2.372500398273809,0.0,0.0,1.6936999999999998,44,21,317.5251066501347,1462.7602,mp-1215826,Zr2Sb2Pb4O13,https://materialsproject.org/materials/mp-1215826,23.83751584447381,64.35025860974419,-8.85033215646147,37.007573535817926
-7.803587246818182,-171.67891943,6.4408954130845695,-3.3952211417045466,2.5e-06,8.686720542340954e-08,2.8711,63,22,335.3988630046075,1300.94442,mp-1190600,La3SbO7,https://materialsproject.org/materials/mp-1190600,22.14399288293481,56.2629475075526,-1.2988233974893777,35.42111383667055
-5.993632413333334,-71.92358896,5.503286367032735,-1.5467433872324,1.9999999,0.07278158392132136,0.0,63,12,320.24761105652146,1061.3507238,mp-13348,CsUCuS3,https://materialsproject.org/materials/mp-13348,3.533849049157848,3.4574319420333586,8.913886197316666,13.068287380457607
-1.46193758,-8.77162548,2.1613336848744744,0.16897017999999994,0.05459625,0.003039556500298009,0.0,164,6,209.3292997766221,272.46000000000004,mp-1094282,SrMg2,https://materialsproject.org/materials/mp-1094282,8.512030573889362,20.183594986893638,-7.914307987968733,20.061116647889868
-2.7466269000000003,-16.4797614,3.5998384798903835,-0.9865337270025148,0.0,0.0,1.5931,166,6,318.0729073341186,689.5418076000001,mp-1080258,Cs2Se,https://materialsproject.org/materials/mp-1080258,8.919820168456338,1.032381833178999,-18.416869544084523,-24.926013514342227
-10.343757831666666,-124.12509398,7.081395045282978,-0.8325129291266672,14.49264325,0.5663655645052568,0.0,227,12,298.21411071953037,1271.7388,mp-1212961,Eu2N,https://materialsproject.org/materials/mp-1212961,14.602562279767222,65.29964815022242,-7.966090598768746,39.96936033452924
-8.021334937999999,-80.21334938,4.046621922018153,-2.625039732583333,3.0000001,0.3844604824435746,2.3089,167,10,90.9383332738672,221.6106,mp-19299,CrBO3,https://materialsproject.org/materials/mp-19299,-30.28012536844816,20.21968475980244,-14.483743483244758,48.747956819086724
-8.713777785625,-139.42044457,7.377987602265615,-3.28513825765625,0.0,0.0,1.0234999999999994,87,16,244.879252964821,1088.02988,mp-27539,La2ReO5,https://materialsproject.org/materials/mp-27539,7.094644867197317,14.732782681583831,15.293220774737794,-21.34437834742269
-6.984738462083333,-167.63372309,3.29466006318856,-3.1753253717708336,0.0,0.0,4.0607,113,24,316.24743797409246,627.4636,mp-6227,Ca2ZnSi2O7,https://materialsproject.org/materials/mp-6227,-9.348441056062628,38.808037169122436,-3.880090459095972,32.65909512317887
-9.543498164615384,-248.13095228,7.404737265123939,-3.5150978789423077,0.0,0.0,2.2516,2,26,372.7454829201075,1662.16048,mp-758331,NdTa3O9,https://materialsproject.org/materials/mp-758331,-11.92881810343792,49.91336037084259,26.443971739630946,53.70939596658781
-3.650052655,-7.30010531,1.932905977050944,-0.9638570620312504,9.2e-05,3.199598444462288e-05,0.0,119,2,33.50964121548312,39.006,mp-1057216,LiS,https://materialsproject.org/materials/mp-1057216,-30.490700640665427,19.524962710584386,-10.948530512083538,23.348159133444444
-8.67885028796875,-555.44641843,6.579747347750126,-2.925024313671874,0.0024674,3.2268183986398365e-05,0.0,123,64,891.1328704439842,3531.03962,mp-1228755,Ba8ZrNb19O36,https://materialsproject.org/materials/mp-1228755,-23.98928156588785,18.469136926883863,-25.282826415645278,53.13613100000498
-6.464222352999999,-193.92667059,6.565027557713536,-0.6068495120555544,0.0002161,5.5658208509055335e-06,0.0,127,30,452.48373327366613,1788.918,mp-1208836,Sm5(SiB4)2,https://materialsproject.org/materials/mp-1208836,-1.435418596393239,23.517965930585646,7.517535173893746,25.454291019142648
-6.5141731049999985,-169.36850073,4.233599419756776,-2.5382436680219778,0.9999996999999999,0.03654504396303153,0.6743000000000001,2,26,318.8958067235971,813.0354480000001,mvc-2715,SrZnCu(PO4)2,https://materialsproject.org/materials/mvc-2715,14.718729330779471,32.77218706446784,26.98426469726198,38.262713627873204
-5.17061540409091,-113.75353889,5.020350970026018,-1.7355846233636365,4e-07,9.52338768640698e-09,0.3971,15,22,489.4924014988444,1479.89513856,mp-643105,Ba3NaBiO6,https://materialsproject.org/materials/mp-643105,31.995908481404218,2.273200783924294,17.344814369530653,-26.94724348350464
-5.6054165639999995,-28.02708282,8.247354773205792,-0.4563108380000003,0.4857857,0.056121626683867686,0.0,139,5,100.8769408141662,501.0228,mp-1226918,Ce(NiSb)2,https://materialsproject.org/materials/mp-1226918,-50.220190518482866,26.67277334258743,-48.11937178755082,19.758276487497106
-5.141750940185187,-277.65455077,3.6839924286964303,-0.21545173990740754,2e-07,2.0830997904784653e-09,0.02890000000000015,155,54,1118.9156492481695,2482.3727,mp-1228480,Ba8Si43Ni3,https://materialsproject.org/materials/mp-1228480,-7.148866440725148,40.444630859262844,-8.082748732719217,48.77982316889101
-5.4427237339999985,-27.21361867,4.9610511550153005,-1.2154201708500003,2.3473336,0.4301487697664191,0.0,221,5,63.596550170446065,190.002,mp-975134,KRhO3,https://materialsproject.org/materials/mp-975134,-29.26220648481491,36.05321515279177,0.623012010449486,42.590584792473386
-4.69320372875,-112.63688949,5.8084228151477095,-0.1783774670833337,0.005772375,9.211670598862242e-05,0.0,216,24,730.2869921316244,2554.48112,mp-1211561,La4MgNi,https://materialsproject.org/materials/mp-1211561,-3.810419093556215,79.92430933905263,-10.223793995893233,47.65003184263193
-6.3091952432500005,-252.36780973,5.093425038942542,-2.287528123999999,32.2947826,0.8018546682621608,0.0,35,40,469.3687062417695,1439.709795,mp-1076399,Sr6Ca2Fe7CoO24,https://materialsproject.org/materials/mp-1076399,-27.245904222144603,54.91591129153469,-13.103871699308195,69.70351730497588
-7.251314287826087,-166.78022862,5.6107214947511554,-3.0339204670289868,0.0,0.0,3.1148,150,23,306.96488947351975,1037.19001,mp-1211258,La3TiGa5O14,https://materialsproject.org/materials/mp-1211258,3.5648403792745094,15.261173202071786,3.44785567365228,45.896574351875046
-6.9243925395,-138.48785079,5.546446776547838,-0.5144871964520007,0.0,0.0,0.1227999999999998,140,20,339.1547418621663,1132.82716,mp-1029457,Ba(CoN)2,https://materialsproject.org/materials/mp-1029457,5.198383340443264,25.88613210701013,-12.4945001438096,26.52107241961986
-8.311927637250001,-332.47710549,4.388250731759358,-3.6661151715,0.0,0.0,3.4707,32,40,542.7857252093498,1434.4016,mp-776024,CaZrO3,https://materialsproject.org/materials/mp-776024,-27.43189482012508,30.600431391499768,-23.736645630330624,59.000692943170606
-8.760076982000001,-175.20153964,5.675110311312268,-3.97240214975,2.2e-06,9.448008723612722e-08,3.8831000000000007,62,20,271.368742871223,927.438328,mp-31116,LaScO3,https://materialsproject.org/materials/mp-31116,-24.383625590850478,30.738937678602763,-15.35316702647199,50.49483950528818
-5.598777918484847,-184.75967131,9.059703971943913,-1.581200043636363,0.0003421,7.518352713697069e-06,0.0,197,33,530.2831232471106,2893.1618,mp-28402,Zn(Bi3O5)4,https://materialsproject.org/materials/mp-28402,4.616265761813702,13.813478921683949,6.862338641506313,21.084757598849148
-4.251671034999998,-85.03342070000001,4.315093406373001,-1.0238798987327584,1.000000225,0.02412643233441521,0.0,220,20,483.04147224039815,1255.2364152,mp-1213719,Cs2O3,https://materialsproject.org/materials/mp-1213719,-4.918420230213897,-7.102943936340513,-35.01976852573738,13.147769472481858