energy_per_atom,energy,density,formation_energy_per_atom,total_magnetization_uB,total_magnetization_T,band_gap,sgr,num_sites,cell_volume,weight,mp_id,formula,URL,tsne_xrd_lin1_0,tsne_xrd_lin1_1,tsne_xrd_lin2_0,tsne_xrd_lin2_1
-3.834038905,-38.34038905,4.449902962591626,-0.9116754982413788,4.99999945,0.13732351102941776,1.0158,194,10,424.32877674224363,1137.1138138,mp-540609,CsMnI3,https://materialsproject.org/materials/mp-540609,-17.620072155355274,-35.954822476189364,-15.244507557097076,-30.19697215575791
-6.656743831,-266.26975324,6.093686868376883,-2.279153039975,2.99516975,0.05999731298089068,0.0,186,40,581.7910925849138,2135.00113856,mp-542286,Ba4Na(RuO4)3,https://materialsproject.org/materials/mp-542286,-17.596725017003745,19.233525081563645,-14.455090155325674,47.31719638588661
-7.692674695555556,-69.23407226,3.8949254745092623,-2.4093294547222226,1.000000233333333,0.10986028821614346,0.2513000000000001,12,9,106.08080209031313,248.8209,mp-755411,VO2,https://materialsproject.org/materials/mp-755411,15.224063108189215,-33.793299749599505,21.22553772181933,-20.98306439802163
-4.9966308484375,-159.89218715,5.130527450323722,-0.6666230064062502,0.0,0.0,0.00480000000000036,115,32,608.7020327741602,1880.692,mp-1226194,Cu6SnWS8,https://materialsproject.org/materials/mp-1226194,17.838376709052458,65.35927167374545,-13.896822864125033,6.895574796277684
-4.336786004,-43.36786004,6.364889266262047,-2.602040103497333,0.0,0.0,4.3089,225,10,172.3350672469063,660.5647884800002,mp-989533,NaTl2InF6,https://materialsproject.org/materials/mp-989533,-18.496411506272175,-49.304639429207775,-25.22201396451198,-8.419970565832594
-6.522054477857143,-91.30876269,5.118309442223781,-2.5024551185714285,0.0,0.0,3.4179000000000004,159,14,199.8525108804152,616.009,mp-863062,LiSiBiO4,https://materialsproject.org/materials/mp-863062,2.7443428577606896,16.936978831982668,49.969794033718784,-10.928345112776217
-6.9394919544444456,-124.91085518,3.094968038004537,-1.3303978160577772,5.45e-06,2.2237585250708824e-07,2.3426,15,18,285.618480128933,532.3452480000001,mp-1245447,Ca3Sc2N4,https://materialsproject.org/materials/mp-1245447,-3.7211778234393327,32.96728923184133,-0.1944570634571399,54.055760553510936
-1.5679018816666668,-9.40741129,5.9949706561631215,-0.013898321666666824,0.00281105,0.00015966163906471154,0.0,63,6,205.18490835250716,740.77,mp-1187899,Yb2Mg,https://materialsproject.org/materials/mp-1187899,-13.259623511828572,37.15727048949892,-3.501999379645385,44.237541792448276
-5.942508485789473,-451.63064492,3.641815366832357,-2.068019458309324,6.000000275,0.06644608720620432,2.7169,198,76,1052.3477721604177,2307.9591600000003,mp-1209634,Rb2Co2(SO4)3,https://materialsproject.org/materials/mp-1209634,4.735046604349961,27.82844839075356,20.950273553003182,-17.29243939491621
-4.771960348,-23.85980174,4.196250257524991,-0.5324313969519998,0.0025811,0.0002231900849788569,0.0,164,5,134.7743856421909,340.5804,mp-1246150,BaSr2N2,https://materialsproject.org/materials/mp-1246150,-12.028059641701304,-27.63789067130093,-10.36508383372756,-20.698466384279488
-5.850565189090909,-64.35621708,6.147280235820718,-2.5200207526515146,9.800000000000001e-06,5.732032269233265e-07,0.8801000000000001,139,11,199.24841558221385,737.6134,mp-20352,Ba3In2O6,https://materialsproject.org/materials/mp-20352,-20.79440633655025,14.284377069758769,-27.47477989305285,49.53115430646762
-8.294375823333333,-74.64938241,7.101961763055241,-2.844725570215518,5.9999902,0.412533838246094,0.0,123,9,169.4994881457714,724.9326,mp-1186829,Rb2Np2O5,https://materialsproject.org/materials/mp-1186829,-19.554228758871194,6.286149898471569,-12.493851172955141,29.43776998442579
-4.1153227825,-16.46129113,4.410687128382985,-1.0173632130416663,1.8000000000000001e-06,3.113423947889578e-07,0.6239,47,4,67.377000182795,178.96529999999996,mp-996966,KAgO2,https://materialsproject.org/materials/mp-996966,-4.471165844119705,-27.139197035877018,-13.643374228711766,-36.439774112008536
-7.523429065,-30.09371626,8.880616514365652,-0.346583586875,0.0,0.0,0.0,38,4,47.05450402079424,251.64901,mp-4037,TmNiC2,https://materialsproject.org/materials/mp-4037,-35.559311925171095,28.71687957127651,-55.7221306119317,33.6260523895604
-7.909829236428571,-110.73760931,8.856647745654278,-2.8048481984821434,1.62e-05,9.489086820302263e-07,1.9258,139,14,198.9610305930926,1061.17816,mp-23611,BaTa2Bi2O9,https://materialsproject.org/materials/mp-23611,22.253545924627687,58.884785317935716,-14.390550075408266,39.49650977451756
-4.659455321666666,-167.74039158,4.8509925459622725,-1.8694589677586204,1.5175e-05,1.9327806604320333e-07,2.5335,14,36,915.0051867968403,2673.0376304,mp-771321,Cs4GeO4,https://materialsproject.org/materials/mp-771321,10.445116913555085,19.875791662076054,29.123725866123518,-7.534423961172349
-4.534598576730769,-235.79912599,1.489140747967818,-0.3278235330219777,11.99918925,0.1273168507481464,0.0,142,52,1098.3567997163789,984.9860960000001,mp-1205102,Mg(PO5)2,https://materialsproject.org/materials/mp-1205102,41.29782538848134,-40.465146965759466,32.83902928201862,-53.55650575649228
-7.506656358611113,-270.23962891,2.7562929062044192,-2.8195243357327597,0.0,0.0,5.6999,19,36,476.8970991296239,791.5912000000002,mp-561055,RbB3O5,https://materialsproject.org/materials/mp-561055,11.444192808720555,-19.450608501184746,19.267682810001148,-16.53290419435001
-4.628882851875,-74.06212563,1.3838510799609387,-0.6626940668383332,0.0,0.0,3.3189,137,16,444.11240058419264,370.11199999999997,mp-567944,BCl,https://materialsproject.org/materials/mp-567944,-14.590712215716415,-41.4318999174091,-12.263704980656605,-30.472771494264787
-6.529858947222222,-235.07492209999998,6.853581613095057,-1.9297903866666672,4.99999925,0.1127353888690964,2.5332000000000003,15,36,516.8768716441908,2133.3179999999998,mp-560123,FeBi3(MoO6)2,https://materialsproject.org/materials/mp-560123,10.740216608038692,22.399794836976472,38.8799391206606,-5.395045935372352
-1.187640945,-4.75056378,0.8884966520794836,0.1221029589999998,0.0002983,1.4972360507603889e-05,0.0,139,4,232.18833929953945,124.23590000000002,mp-1184918,K3Li,https://materialsproject.org/materials/mp-1184918,-14.80747870080654,-41.729101038737376,-12.587575106741502,-29.893455367776237
-6.683752229895832,-641.64021407,4.295428675761748,-2.0184136278281244,7.00767235,0.05475632042761292,3.0702000000000003,33,96,1491.4783687800818,3858.108,mp-1212816,KGd(SeO4)2,https://materialsproject.org/materials/mp-1212816,24.957651212542075,-7.88439225750362,47.026955363765715,-18.86706782798652
-6.546751098020834,-628.48810541,6.087582299157148,-2.0377897734375003,0.0,0.0,2.5161,61,96,1494.9847969010684,5480.6558399999985,mp-559861,NbBi(TeO4)2,https://materialsproject.org/materials/mp-559861,10.563686002885603,-22.11928575810501,28.22542047696351,-8.369166327190168
-3.794757460000001,-34.15281714,6.243624630065899,-0.10450629333333378,0.0,0.0,0.2591999999999999,164,9,273.0852008721741,1026.8,mp-1224375,Ge2Sb2Te5,https://materialsproject.org/materials/mp-1224375,-23.267385363765268,-36.343370769046395,-33.03778127016836,-22.419460731943822
-4.271079373,-42.71079373,3.605934445262148,-0.7347578810848212,3e-06,1.2651751408778735e-07,2.3394,146,10,276.342722742874,600.0905240000001,mp-1227124,CaMg(PSe3)2,https://materialsproject.org/materials/mp-1227124,-18.80842213579636,20.24941209491243,-18.48519488763373,36.76892461624606
-7.7096113241666675,-185.03067178,4.522416803687958,-2.4318377108333333,0.0,0.0,2.6273,33,24,340.48646356233087,927.3023199999999,mp-770219,NbAsO4,https://materialsproject.org/materials/mp-770219,10.968626881607547,17.36521144633968,41.132185550622886,-2.834306656880082
-6.013178715517241,-174.38218275,6.642303081946249,-2.3977728306034485,0.0,0.0,2.1741,71,29,478.16742312003123,1912.7120000000002,mp-1228122,Ba6Bi2(TeO6)3,https://materialsproject.org/materials/mp-1228122,-21.602596804220337,12.32636292194885,-29.454603964661647,47.96287145067654
-2.9813219333333336,-8.9439658,1.2381328614594946,3.5471272283333333,8.2620203,0.3807573493595885,0.0,216,3,252.88052847922881,188.553045,mp-510613,MnNiAs,https://materialsproject.org/materials/mp-510613,-0.7602695423218702,-34.20501527150928,-10.815381065027683,-35.54609838375165
-2.168099001,-21.68099001,4.309029206009374,-0.11037101113793106,0.0,0.0,0.0,139,10,397.22383427638437,1030.7792,mp-571505,Rb2In3,https://materialsproject.org/materials/mp-571505,6.62137290885688,-5.157224689623933,-7.925986794684852,-21.86740195488101
-6.282609650384615,-653.39140364,4.401512994991171,-1.735297619094617,0.00015445,1.4065914285877376e-06,2.8339999999999996,61,104,1279.6681876051753,3391.95648,mp-695995,ReSbH4O7,https://materialsproject.org/materials/mp-695995,7.400911424016157,-32.74906547134725,25.94351704376212,-15.069328418329727
-3.717393955,-29.73915164,3.906771770660817,-1.399012248125,6e-07,1.5488632493955736e-08,2.0145,194,8,451.45618028347803,1062.14682,mp-867893,SmI3,https://materialsproject.org/materials/mp-867893,-2.5919636968004163,-1.3348833342112774,-4.741159170412232,15.559275435390733
-7.202215633333334,-86.42658759999999,4.752852526412333,-2.556654599541666,0.9999998,0.06906413398770396,0.025099999999999238,82,12,168.7426131169849,482.98096928,mp-1221085,NaCe(MoO4)2,https://materialsproject.org/materials/mp-1221085,27.211377184337607,57.957688882050036,-7.028442683004893,33.52045904163999
-7.1758005208333335,-430.54803125,6.432869316952343,-2.568413644583333,3.999901933333333,0.050813557509001,0.0,12,60,917.3755686500813,3553.8804,mp-1214942,Ba4Ce(RuO4)3,https://materialsproject.org/materials/mp-1214942,-17.8452827165761,16.862283529751643,-16.300347620591992,46.897030526947525
-4.631137343181818,-101.88502155,4.838257965872697,-0.05259383409090968,0.0,0.0,0.5057,11,22,452.4407983612925,1318.261868,mp-29849,Ag3SnP7,https://materialsproject.org/materials/mp-29849,-10.732371473674318,-2.4451189231478043,-6.8385056363956425,-1.9901150484279648
-6.185731398571428,-346.40095832,4.923158620740195,-2.6297897235714283,0.0,0.0,3.0179,173,56,919.511928948,2726.1648,mp-1228877,Ba(GaO2)2,https://materialsproject.org/materials/mp-1228877,4.388632512277251,-23.60186693466649,69.15757397763744,-22.771763336488277
-3.600362919,-36.00362919,3.517579409416212,-0.4050448841379311,0.0,0.0,0.5375000000000001,69,10,373.5955245727722,791.4007999999999,mp-15556,Rb2As3,https://materialsproject.org/materials/mp-15556,6.208386374091848,26.160172728329428,-14.58213613869559,10.038647028332619
-9.360432346666666,-56.16259408,4.942327398528088,-1.929756830376667,0.0,0.0,0.9941000000000002,109,6,82.59305994337974,245.82496,mp-752463,NbNO,https://materialsproject.org/materials/mp-752463,-6.330667562480097,-28.104854905005578,0.5091402229132757,-30.944705639785877
-7.543865214864863,-558.2460259,3.3249345660558687,-2.5426558044594585,23.00003045,0.29399804136751795,0.1596000000000002,11,74,911.7198311538133,1825.557068,mp-504359,Cr6P7O24,https://materialsproject.org/materials/mp-504359,6.989482925018463,31.23483200321973,31.02932880117477,-3.3916670934639384
-6.466118221136362,-284.50920173,5.808632016250846,-2.2764757230681814,4.17570095,0.08753700032721387,0.0,12,44,555.9236569705737,1944.6432,mp-21545,YbFeGe2O7,https://materialsproject.org/materials/mp-21545,8.018030953201274,25.82118265192473,32.13295814031629,-1.6181980592191691
-4.6126810887500005,-110.70434613,7.585646480992793,-2.4236145973608334,0.0,0.0,2.9253,63,24,476.6416993320606,2177.3865848,mp-28087,Pb4IF7,https://materialsproject.org/materials/mp-28087,-8.85916969557976,-28.417628567742753,-12.486405620861705,-33.364577170868834
-4.151525728999999,-41.51525729,3.1657439061963304,-0.8079688668660715,0.0,0.0,1.7629,12,10,251.33526891813972,479.15952400000003,mp-5328,CdPS3,https://materialsproject.org/materials/mp-5328,30.752087460944413,-45.02461906743272,1.3375601792012135,-61.934047532530826
-5.100186511666666,-30.60111907,5.212096599890832,-1.143197199166666,0.0002969,1.8476859120065626e-05,0.0,164,6,187.26623440102756,587.79088,mp-1206265,LaSiI,https://materialsproject.org/materials/mp-1206265,-39.22792028638755,11.941633790766685,-28.8942174087384,0.91474923365165
-4.9573903,-59.4886836,3.174169009085864,-2.3296209943833337,0.0,0.0,2.4199,15,12,427.19814185421325,816.60176,mp-27436,PaCl5,https://materialsproject.org/materials/mp-27436,40.364756132600924,-38.43372786341053,26.31473206951302,-61.02450584822301
-3.1179783609090914,-68.59552394,6.259204922167936,-0.5526278172727275,4.00000015,0.05386854465494042,0.0,128,22,865.3707119238684,3261.91224,mp-567325,Tl4CrI6,https://materialsproject.org/materials/mp-567325,6.04894440684159,27.60033044674303,33.30299268969477,-6.023108944999242
-5.67333941578125,-363.09372261,7.579490794330795,-1.8567268174999996,0.0,0.0,0.4382999999999999,61,64,915.3520119724948,4178.1024,mvc-7429,MgBi2O5,https://materialsproject.org/materials/mvc-7429,18.536135416032046,59.32915720377102,34.573723899797635,-6.096458396389713
-4.145534830555556,-149.23925390000002,4.760583334978693,-1.7414957861107403,2.1397687000000003,0.04126988079531427,0.0,62,36,604.2421869783343,1732.2960895999997,mp-662534,AgIrF7,https://materialsproject.org/materials/mp-662534,41.19081786739429,-37.37785898033958,43.387162730002956,-34.41547743377262
-7.345443588541666,-352.58129225,5.596528638477615,-2.6097112806537357,0.0,0.0,4.5104,60,48,856.9549952368543,2888.2026,mp-1209392,RbPr(WO4)2,https://materialsproject.org/materials/mp-1209392,1.81142221539238,-14.746732188806556,26.713822034575557,-4.8316628423151835
-4.779354498333333,-57.35225398,6.145891596482115,-1.6254691496875004,3e-07,9.86570682255511e-09,1.2721999999999998,187,12,354.38103874877004,1311.61472,mp-1207695,TmSI,https://materialsproject.org/materials/mp-1207695,-18.996100505333672,12.388144109000207,-14.850802567253359,11.301643937660186
-7.2440536659090915,-159.36918065,4.096278713296048,-3.2651714464393944,0.0,0.0,4.3938,167,22,308.47473099229734,760.9568,mp-16432,Sr3(BO3)2,https://materialsproject.org/materials/mp-16432,-12.584704347308529,21.356596410680282,-1.2965793283613247,-0.6329764006732211
-5.641246930909091,-62.05371624,4.451377431819223,-1.3613219882954557,1.7874178,0.14357415698752574,0.0,12,11,145.08657584272632,388.931,mp-13128,Cu2As2O7,https://materialsproject.org/materials/mp-13128,29.46844889158716,-12.153422553153439,27.71668952645149,-11.347571078036866
-5.083518175,-61.0022181,7.824777551210081,-0.8907474442968747,7.699999999999999e-06,2.5654400172872897e-07,1.0045000000000002,11,12,349.7891127604585,1648.2732,mp-1102545,HfTl2Se3,https://materialsproject.org/materials/mp-1102545,-18.387575831376093,17.40572052963544,-32.513661889379875,-20.588438705484407
-2.8518667625,-11.40746705,1.4439524412392213,2.316037189125,2.99146015,0.29657672762401505,0.5835,15,4,117.55025632634356,102.21799999999999,mp-1064300,KC,https://materialsproject.org/materials/mp-1064300,-26.39743270167145,-41.82888000301398,-15.206513017044035,-27.964881008863248
-7.093414392000001,-141.86828784,2.5678891416998337,-2.7286479310750003,0.0,0.0,5.2117,160,20,272.92661090716945,422.0589,mp-23612,K3B6BrO10,https://materialsproject.org/materials/mp-23612,4.075689998885175,27.677528671799394,20.692915865174182,-16.760876470933677
-3.3495234883333334,-40.19428186,3.7612216451752527,-1.9817559268278158,0.0,0.0,3.2414,71,12,255.00691479916787,577.6061294,mp-1103152,CsBrF4,https://materialsproject.org/materials/mp-1103152,7.7479384998105845,-25.64760251294272,21.060940461840566,-20.771066657267905
-7.9811518446875,-255.39685903,5.2538655541382004,-3.6264277904687514,0.0,0.0,4.8162,11,32,446.6423860471464,1413.155,mp-1195063,BaDy2Si3O10,https://materialsproject.org/materials/mp-1195063,12.0922558270003,24.741212618595448,38.15524453829926,-4.677184316260536
-8.690332376499999,-347.61329506,6.36675477189599,-3.78075396975,2.012381825,0.03424430223741018,0.0,206,40,684.8563586747953,2625.8416,mp-542313,Ce2O3,https://materialsproject.org/materials/mp-542313,-13.685700681338947,-23.19953143459075,-11.194112095444169,32.69761195642421
-3.5695014425,-99.94604039,4.48621322558279,-0.9563598952586204,2.0020636,0.01825353334666938,0.4359000000000002,194,28,1278.2280794661233,3453.3386914,mp-1192748,Cs3Nb2I9,https://materialsproject.org/materials/mp-1192748,6.165473742180746,-15.587985455541991,-3.355484162755105,-21.45788525633473
-5.124144417,-102.48288834,7.652769119295738,-2.2300525532260003,0.0,0.0,2.8493,137,20,406.5405213670816,1873.5848255999997,mp-27355,Pb2OF2,https://materialsproject.org/materials/mp-27355,-8.076435539342286,-34.385499098063576,-0.4973590671355021,-27.567131178949875
-6.089516632142857,-170.50646569999998,4.0969306909239736,-1.4246559533928576,0.95537875,0.020141040946017832,0.0,14,28,552.8038925430253,1363.894,mp-1244664,CrBiO5,https://materialsproject.org/materials/mp-1244664,40.01345550785191,-36.340095290828636,45.32192069408485,-33.073545233610375
-3.337484115,-40.04980938,5.315183747680519,-1.4475595013488889,0.0,0.0,0.0,61,12,182.2812148706989,583.4600256,mp-2284,AgF2,https://materialsproject.org/materials/mp-2284,-10.42636074696566,-26.20083129952229,0.5888637135194267,-28.931279624731612
-6.825468039722222,-245.71684943,6.409722306797741,-2.486220786666666,3.5e-07,6.748891227974063e-09,3.6202,14,36,604.384117718302,2332.93784,mp-541285,Th(TeO3)2,https://materialsproject.org/materials/mp-541285,16.310896402868973,-12.774707341941927,25.779078430869923,-6.944462910640482
-5.1229344535,-102.45868907,3.2591119458199014,-1.184430113882,1.11573975,0.05066021133835317,0.0,127,20,256.66895127963056,503.7598183999999,mp-1180159,MnNF3,https://materialsproject.org/materials/mp-1180159,1.4227531407586764,-40.24864465662624,6.659335929227527,-34.23646696250522
-3.29160405,-19.7496243,6.558432903434838,-0.180312135,0.0001893,1.2077984409852224e-05,0.0,164,6,182.655846090179,721.414,mp-1224005,In3SbTe2,https://materialsproject.org/materials/mp-1224005,-27.200178491217336,-45.43259252188066,-36.947457208907906,-23.095061013254398
-5.4867255025000015,-65.84070603,5.327240757386181,-2.3038104406106332,1.0,0.03954425611738715,0.0,36,12,294.70941969333285,945.4689076,mp-1213718,Cs2TbO3,https://materialsproject.org/materials/mp-1213718,5.2166064050346925,-5.060932760062307,13.062121828558027,1.3823265891207577
-5.67679717,-51.09117453,6.0667599814220825,-2.289577175601852,4e-07,2.9148681715735663e-08,0.0,1,9,159.92578856515962,584.2869999999998,mp-673678,Ba2In2O5,https://materialsproject.org/materials/mp-673678,-21.92703876699855,11.784042659992435,-30.454117263394785,48.50359169199282
-6.8966245614999995,-275.86498246,5.773557262190452,-2.6113866734999998,0.0,0.0,3.1727,217,40,703.7933726698909,2447.0315,mp-2973,Pr3Sb5O12,https://materialsproject.org/materials/mp-2973,-12.751124586815296,-24.895599908184966,-11.613580016423619,31.464254340719105
-9.097365855,-127.36312197,8.362055278560081,-4.111820178125,0.0002528,1.3145623003716445e-05,2.8401,119,14,224.11623805658928,1128.5927800000002,mp-1173423,Nd2Th3O9,https://materialsproject.org/materials/mp-1173423,-12.495114362180944,-26.629593269557557,-11.610017840892164,31.292598087108665
-6.71080142962963,-362.3832772,3.999111353235004,-2.295719810271164,2.994061,0.050119146685007214,0.00790000000000024,90,54,696.2006166284717,1676.674696,mp-559899,BaVCu4P4O17,https://materialsproject.org/materials/mp-559899,3.8161648935137498,24.477063543386677,22.871546501951517,-2.9973742658373594
-5.90518879825,-472.41510386,3.1159228332066062,-1.8881908471062856,1.99999605,0.02775670829298283,0.0612,52,80,839.7279412795517,1575.7096960000001,mp-1203894,HoP2H7O10,https://materialsproject.org/materials/mp-1203894,24.164818376397246,-20.755417832669355,14.52320771616745,-20.410860664233663
-3.776384317916667,-90.63322363,1.2229816335286483,-0.4617536983508336,1.4875e-06,4.682787595555743e-08,4.1772,73,24,370.19448342339797,272.64704,mp-1191644,H2S,https://materialsproject.org/materials/mp-1191644,1.4605143588468008,-17.847591585637513,15.563625318231473,-17.51784773600896