energy_per_atom,energy,density,formation_energy_per_atom,total_magnetization_uB,total_magnetization_T,band_gap,sgr,num_sites,cell_volume,weight,mp_id,formula,URL,tsne_cry_lin1_0,tsne_cry_lin1_1,tsne_cry_lin2_0,tsne_cry_lin2_1
-2.899760815,-34.79712978,4.817214121797238,-0.6245687627011489,0.0,0.0,1.9006000000000003,63,12,441.71812696590797,1281.4217237999999,mp-23431,CsCu2I3,https://materialsproject.org/materials/mp-23431,48.12543402414436,-11.193599644427698,8.272014837493472,-0.4340366997139791
-7.241858643333334,-130.35345558,8.396662930298236,-3.0812253804166665,0.0,0.0,1.9917,127,18,256.59354148386586,1297.488,mp-9740,BaDy2PdO5,https://materialsproject.org/materials/mp-9740,-11.464429217062065,-23.98720695252655,9.660051412000492,-0.5768051644427339
-7.051392110086208,-817.96148477,3.784275668692338,-2.0781484147413787,20.00000145,0.14232016762388505,2.0612,91,116,1637.7251112123527,3732.284,mp-1208570,V2Fe4Mo3O20,https://materialsproject.org/materials/mp-1208570,-7.903691634329268,-42.2306277196406,8.537001912972691,1.0315687641057405
-2.8545774539999997,-28.54577454,4.197725729532396,-1.1158089010689654,0.0,0.0,0.2334,225,10,345.36001826148936,873.0458,mp-1113438,Rb2InAgBr6,https://materialsproject.org/materials/mp-1113438,2.7590682596433376,-4.9587898682704985,4.329607640485297,-5.482463374228439
-5.274164736666667,-31.64498842,5.792819541661223,-2.166545523586667,0.0,0.0,0.6562999999999999,129,6,173.11563886551758,603.9169400000002,mp-1018752,LaTeCl,https://materialsproject.org/materials/mp-1018752,61.50443862447716,23.08319257962472,6.302754179891361,-4.759933869289196
-5.276274292173913,-121.35430872,6.260676522124991,-1.3189123347961962,3e-07,5.922967578923112e-09,1.1786000000000003,143,23,590.2817101699508,2225.52,mp-1219162,Sm6Ge3Se14,https://materialsproject.org/materials/mp-1219162,51.09409324054549,-2.2837603618026594,7.380775539506716,-6.237823597600556
-8.371645256704548,-736.70478259,5.186994204632088,-3.49608307677841,5.36e-05,5.8720463504221e-07,1.931,42,88,1063.7822566988036,3322.91639496,mp-1173844,Na7La7Th2Ti18O54,https://materialsproject.org/materials/mp-1173844,5.1530863169008025,-40.851554094981154,7.226760679338311,-0.7737923527947609
-7.3333901510000015,-73.33390151,2.885164269683335,-2.021928521000001,1.9999999,0.2276418863447257,1.8888,155,10,102.38945368962824,177.9003,mp-763059,LiV(CO3)2,https://materialsproject.org/materials/mp-763059,-18.09005053307285,-47.22379533093591,6.8265792759591015,0.32684721985652626
-7.239767816190477,-304.07024828,2.973793840097528,-2.6436883922448997,6.000000099999999,0.14015818649112186,1.9385,2,42,498.89622255631804,893.453558,mp-757786,Li2V3P9O28,https://materialsproject.org/materials/mp-757786,-14.037260173722064,-50.81164282051765,8.073848833288677,1.0223252711348183
-7.610424007624999,-608.83392061,4.947933447049644,-2.6727595528749992,24.99993125,0.2941119660309686,0.0,230,80,990.6119156891472,2951.7414,mp-4704,Y3Fe5O12,https://materialsproject.org/materials/mp-4704,-23.307559474579435,-33.679810785023164,7.545787102670813,-1.7660641179573793
-8.104737798,-202.61844495,6.270025200926316,-3.2771155550833337,8.999999699999998,0.3347531279885373,1.4901999999999995,65,25,313.3251661815968,1183.08371,mp-684872,Ba2La3Ti2Cr3O15,https://materialsproject.org/materials/mp-684872,-2.993317232888129,-35.63221637606033,6.4755229872546325,-3.2071527681297325
-5.516848378333332,-33.10109027,6.851653770475049,-1.6083613065625002,3.5e-07,2.7780102673915203e-08,0.0,129,6,146.82892710205482,605.8399999999998,mp-1232216,PmSe2,https://materialsproject.org/materials/mp-1232216,48.817445853392115,3.822144709418061,-8.604250342815693,-0.5045126942092143
-5.2990980434375,-169.57113739,6.386484351901162,-1.6767918062499998,0.0005855000000000001,6.515066076398032e-06,0.05540000000000056,62,32,1047.3347229819913,4028.08164,mp-1198669,La3Te4Br,https://materialsproject.org/materials/mp-1198669,-10.456733057286968,24.78173872203433,-8.604250342815693,-0.5045126942092143
-5.180256112105263,-98.42486613,6.494514672706948,-0.6139236556578955,0.3108018,0.012633417917580587,0.0,123,19,286.7081839814422,1121.3410000000001,mp-1189904,Ni9BiTeS8,https://materialsproject.org/materials/mp-1189904,16.376950813978155,10.320311711276112,-8.604250342815693,-0.5045126942092143
-6.61154409625,-105.78470554,4.227254227331553,-2.2339719350000005,9.9999999,0.8070864533951713,2.1129,166,16,144.39673230784487,367.5925,mp-759199,Li4Cr3FeO8,https://materialsproject.org/materials/mp-759199,-0.022831520246807752,-70.2801976002051,8.142227762317713,0.3825418691069311
-6.03426648375,-48.27413187,7.161699689526737,-0.05960134304687514,2.148826275,0.2002994498988075,0.0,62,8,125.02560844016205,539.22,mp-1078945,FeSe,https://materialsproject.org/materials/mp-1078945,21.67604851346107,15.32109619740781,-8.604250342815693,-0.5045126942092143
-3.340187230625,-160.32898707,6.947759309826554,-0.20953890812500064,3.375e-07,2.380341746396165e-09,0.41299999999999937,62,48,1652.38746356225,6913.6528,mp-29034,Tl2GeTe3,https://materialsproject.org/materials/mp-29034,58.385377860520286,23.68767666475297,5.677350670089548,-6.113160455547257
-3.932092897,-39.32092897,2.7876494638189717,-2.069418074056,0.0,0.0,2.1447000000000003,225,10,295.07953886518413,495.36825,mp-1112220,K2PrCuCl6,https://materialsproject.org/materials/mp-1112220,13.223370815904081,-12.303787289283328,8.440510831917427,1.5397594632337188
-6.002615501428571,-168.07323404,4.427739865528434,-1.1140185113690475,3.00003595,0.06936635437256614,0.14679999999999982,31,28,504.0284097031212,1343.9652,mp-1238873,TiCrAgS4,https://materialsproject.org/materials/mp-1238873,16.52457115608205,5.323032890111292,-6.46908444351646,-3.2545360422103435
-4.64228887875,-185.69155515,3.8481360860711393,1.0564543585120003,0.96718375,0.008539009360490346,0.0,46,40,1320.0151907105906,3059.0055199999997,mp-1197815,PtC4I4N,https://materialsproject.org/materials/mp-1197815,8.105452649031138,-3.5880292075986797,5.580528641900221,-6.089499848503
-8.014363636052632,-304.54581817,5.6568902069348495,-3.2767226636207885,20.000000699999998,0.4064393032264825,1.9965,87,38,573.4713689319509,1953.62138,mp-1199104,Ba5Y8Mn4O21,https://materialsproject.org/materials/mp-1199104,-27.19865677709821,-27.27760050162601,7.649998030040532,-2.851166906555347
-5.3742361723529415,-91.36201493,7.845072687924862,-0.18996713161764775,0.9999998999999999,0.03010737044331468,0.0,204,17,387.08340966193526,1828.7420000000002,mp-15026,Nd(FeSb3)4,https://materialsproject.org/materials/mp-15026,43.96018979497524,23.51576254071713,-8.604250342815693,-0.5045126942092143
-6.638684445,-79.66421334,3.1516102414848373,-1.6966963032638904,2e-07,9.874712380415753e-09,0.0,227,12,236.03856646342186,447.988,mp-9027,TiS2,https://materialsproject.org/materials/mp-9027,19.889367367711454,14.481871054047813,-8.604250342815693,-0.5045126942092143
-6.839973136666668,-123.11951646,3.457477770738889,-2.491622408194445,4.0000057,0.21055533998601955,1.2300000000000004,26,18,221.39702332651933,460.98,mvc-3950,Mg2V2O5,https://materialsproject.org/materials/mvc-3950,-22.85301291677752,-30.2229902062483,6.353085863920557,-1.8418099409217077
-5.636120039375,-90.17792063,4.989071502305134,-1.0915841157812505,6.99980325,0.2329682256482191,0.008000000000000007,40,16,350.1600282342944,1052.052,mp-555984,EuCu2SnS4,https://materialsproject.org/materials/mp-555984,-14.92874921579307,12.907362843427672,-8.604250342815693,-0.5045126942092143
-7.315205153333332,-109.72807730000001,7.122981939582719,-0.7135800279166659,0.0,0.0,0.014199999999999768,148,15,314.11985891298167,1347.4360000000001,mp-675769,Ce(Mo3Se4)2,https://materialsproject.org/materials/mp-675769,63.39972086342269,33.552025522451785,-8.604250342815693,-0.5045126942092143
-6.183514081428571,-86.56919714,2.628247701879966,-2.165359336607143,0.0,0.0,1.5651000000000002,227,14,306.3959551903741,484.95364800000004,mp-14307,Mg(ScS2)2,https://materialsproject.org/materials/mp-14307,56.339178319998034,3.866479882652836,8.247350592741707,-4.35348906132482
-3.1971539439999996,-31.97153944,3.787651185667064,-0.84357707705,3.0,0.08319617354041686,1.0859,225,10,420.23800891148414,958.55318928,mp-1111633,K2NaMoI6,https://materialsproject.org/materials/mp-1111633,10.494894018297707,-7.647347676986794,6.9137700694092175,-2.6469581881476723
-7.158806102523364,-765.99225297,4.465403810078128,-2.1671549668535834,166.0000033,1.5476316286087441,0.8245999999999998,1,107,1250.0227799314391,3361.4726,mp-685232,Ti8Fe35O64,https://materialsproject.org/materials/mp-685232,-26.267689013362798,-36.613902804402635,2.53644838623425,-2.79401769205752
-6.777203713333333,-162.65288912,5.201969795493174,-1.9813774688194443,0.0,0.0,0.9287999999999998,15,24,284.6838020242586,891.8288,mp-1101360,TiCu2O3,https://materialsproject.org/materials/mp-1101360,11.2759250866905,-16.841905553673524,6.828594298279969,-2.480429005328623
-3.18598486,-31.859848600000003,3.648287152354083,-1.4944207530559999,0.0,0.0,0.9146,225,10,317.180581592511,696.861569,mp-1112073,K2BiAuCl6,https://materialsproject.org/materials/mp-1112073,6.31419041706624,-5.959824342327798,6.718784859665925,-4.5561097437713975
-6.180090680833334,-148.32217634,8.975645194992364,-0.23978925,0.006044399999999999,0.00010797582592225444,0.0,31,24,652.3851844576752,3526.31152,mp-1190784,TaTe4Os,https://materialsproject.org/materials/mp-1190784,54.95385158755271,30.80004952563029,-8.604250342815693,-0.5045126942092143
-7.97260315,-255.12330079999998,5.066913568438514,-2.65307085945875,6.99999975,0.2232286351418158,1.0827000000000004,55,32,365.4479652333822,1115.11576,mp-510598,YMn2O5,https://materialsproject.org/materials/mp-510598,-34.47244387481461,-24.233135921459304,4.505156404221153,-1.1507751738609828
-4.338259268958333,-208.23644491,2.575812464191197,-1.2842042643539582,0.9999960999999999,0.00934363224015543,0.0,152,48,1247.2686233970633,1934.7513,mp-1212382,K3Tc2Cl8O3,https://materialsproject.org/materials/mp-1212382,6.72992805851262,-10.643860534707672,5.6862270360035065,-0.7540509679643105
-6.075988665,-60.75988665,5.847007007836199,-2.70459983925,0.0,0.0,1.9791000000000003,216,10,134.2880600534988,472.8484,mp-1227325,BaSrMgTeO6,https://materialsproject.org/materials/mp-1227325,0.6379064408163535,-28.67453604556231,7.621811426252004,-1.29729833163672
-6.89457483828125,-441.25278965,2.950731326078464,-2.8641317246978577,2.000023175,0.025377714961937317,2.0493,33,64,918.4593515621684,1632.0765215999998,mp-1239185,KVPO4F,https://materialsproject.org/materials/mp-1239185,-16.347592414172254,-49.166720042227105,8.087408171791003,1.324202934640363
-5.822055252777778,-104.79699455,7.0857831570225525,-1.0094293582407403,3.5e-07,8.107731627745925e-09,0.0,193,18,503.09048913720596,2146.76682,mp-9333,La3TiSb5,https://materialsproject.org/materials/mp-9333,1.1434609190804836,33.759596603364486,-8.604250342815693,-0.5045126942092143
-5.71122601090909,-125.64697224,6.446504618095312,-0.8693802360188091,13.99999985,0.2247690857705674,0.5759000000000003,63,22,725.8867673389393,2818.0201038000005,mp-1190455,CsGd2Ag3Te5,https://materialsproject.org/materials/mp-1190455,55.843903120274184,19.231632634831413,6.354115747892795,-5.999926239560231
-7.598444267,-75.98444267,6.426451959699813,-2.9319106717500008,5.00000055,0.4644968784097975,1.4553000000000005,167,10,125.44827098089928,485.49734000000007,mp-1078634,LaFeO3,https://materialsproject.org/materials/mp-1078634,-20.38387943058745,-33.42237607119679,7.8601771605017055,-1.0516543580203772
-7.9569423685,-159.13884737,6.301521164191369,-3.1233713262500005,5.00000105,0.23005709746401298,1.4842000000000004,14,20,253.28640907799632,961.1876800000001,mp-1223233,La2VFeO6,https://materialsproject.org/materials/mp-1223233,-14.884986406562293,-30.378051743847752,4.489008469310252,-2.1233018915535142
-8.3792140595,-335.16856238,5.126516444429618,-3.5050175837708344,0.0001966,4.77206461049838e-06,0.0,12,40,480.1253380443965,1482.27195,mp-1177671,Li3La5Ti8O24,https://materialsproject.org/materials/mp-1177671,5.761587213440207,-40.555101960746725,4.364622348320542,-2.328102367412553
-4.893038203472221,-352.29875065,5.148860312125665,-1.3070112945370371,7.25e-06,6.920698219070519e-08,2.6466,9,72,1220.8590365670568,3785.5374,mp-1195616,LaAg(IO3)4,https://materialsproject.org/materials/mp-1195616,6.405400240356992,-57.83164454340454,9.431843441775197,-0.3502837388306657
-5.384074317604168,-516.87113449,5.3943566881096086,-0.7032004000041668,0.0,0.0,1.2409,33,96,3069.143073267073,9970.288,mp-29114,Re3Te4Cl5,https://materialsproject.org/materials/mp-29114,60.049267982114394,-1.849897475537131,7.962207420991207,-6.157599630186884
-8.627152610416667,-207.05166265,5.047651180688324,-2.009776956953125,25.99999975,0.5918503162766346,0.24239999999999995,173,24,511.96336783135047,1556.2491672,mp-1191013,Gd3MnAlS7,https://materialsproject.org/materials/mp-1191013,28.105829919294706,3.0168053922108053,-4.8321239779415945,-1.3125646085458338
-7.201658291818182,-158.43648242,4.31718654270586,-2.20164635929182,6.99999905,0.26751308906140736,1.7473999999999998,2,22,304.95121798630964,792.8336899999998,mp-559026,MnV2TeO7,https://materialsproject.org/materials/mp-559026,-25.16697506726507,-54.571915835688884,0.27620403985958164,-2.4812652395061168
-6.9438468255000005,-555.50774604,2.9814563674653844,-2.656047795746429,3.999999525,0.04591075601121318,1.9299,14,80,1015.3667158774842,1823.06557536,mp-761059,Na3V2(PO4)3,https://materialsproject.org/materials/mp-761059,-16.460203838824214,-48.40470117823892,7.594777922210477,1.8259822570573718
-4.4135716225,-17.65428649,5.0013905782173005,-1.3969570469612071,0.0,0.0,1.3272,166,4,160.9975548171649,484.9098,mp-5808,RbNdTe2,https://materialsproject.org/materials/mp-5808,61.73480030410164,18.768644657059838,7.921677726896635,-4.466224441912892
-5.2212124324242435,-172.30001027,8.189620804257316,-1.5076773966666672,0.5317089,0.009661155757256415,0.0,12,33,641.3901314128252,3163.2752,mp-1214265,Bi12Br5O16,https://materialsproject.org/materials/mp-1214265,8.873925745392752,-35.83049933754275,3.5465171886134415,-5.423194362461121
-4.883368473571428,-136.73431726,7.823141516490183,-0.6272463778571437,2.75e-07,4.0213661567016256e-09,0.0,11,28,796.9599602644957,3754.64256,mp-11140,Ho2Sb5,https://materialsproject.org/materials/mp-11140,3.5706181732491022,33.506185468763434,-8.604250342815693,-0.5045126942092143
-4.482406866,-22.41203433,3.399175679752552,-1.2014172964375,0.0001736,1.6242035006689755e-05,0.0,38,5,124.5623250832221,254.983,mp-866917,CaSnS3,https://materialsproject.org/materials/mp-866917,42.45357510894124,0.6235812896551534,3.440761247450436,-4.589290567534992
-5.296546949285714,-370.75828645,6.371743222728089,-1.4831469881562498,0.0,0.0,1.5918000000000003,146,70,1696.8660106408474,6511.135386,mp-1226050,Dy9Al5Se21,https://materialsproject.org/materials/mp-1226050,51.90082097384735,-2.3924540613969034,9.268592620517644,-4.610537186601694
-6.381480017,-63.81480017,2.60314673466838,-1.7428934244374998,0.0004707,2.507628356421509e-05,0.0,164,10,218.75523437898846,342.93199999999996,mp-19755,Li(TiS2)3,https://materialsproject.org/materials/mp-19755,19.844011554357472,14.521177095076562,-8.604250342815693,-0.5045126942092143
-4.717946616857144,-165.12813159,2.57044764484554,-1.2130024696875004,20.000000699999998,0.2212576614187848,0.7217,160,35,1053.4383402339017,1630.68018,mp-1224600,K10Mn4Sn4S17,https://materialsproject.org/materials/mp-1224600,24.91779608203161,0.5154032091285929,-6.093176223170304,-3.1689083984274102
-8.7182033255,-174.36406651,3.192599422737584,-0.4385460822613311,0.0,0.0,1.0443,2,20,309.51608625163806,595.0844,mp-1246423,BMoN3,https://materialsproject.org/materials/mp-1246423,35.235445661547345,-14.19999051610936,6.970549203499112,-3.218708989186285
-5.995842449444443,-107.92516409,4.327046939410536,-2.204577051091112,5.000000233333333,0.2785788816473104,1.6065,1,18,209.16993505578185,545.0568192000001,mp-755912,FeOF,https://materialsproject.org/materials/mp-755912,-40.06929613672569,-78.87093194063424,4.533896086313743,-0.3570482206661924
-4.922108595,-19.68843438,8.656208402483099,-0.12883832500000025,1.87e-05,3.047128455336422e-06,0.0,164,4,71.52012606006309,372.826595,mp-1226017,CoNiTe2,https://materialsproject.org/materials/mp-1226017,53.38115441415351,28.639825911787405,-8.604250342815693,-0.5045126942092143
-6.90856148828125,-442.14793525,3.9602873489643375,-0.7223232892187497,0.0,0.0,1.4111,141,64,1180.5538862022072,2815.55116,mp-1203525,CoBi(CO)3,https://materialsproject.org/materials/mp-1203525,11.318370444201063,-22.981772039377237,7.591986457330501,0.6558043717859275
-4.414024720625,-70.62439553,10.586316323109953,-0.2873196143749999,3.02e-05,7.410160772754221e-07,0.0,12,16,474.95967621292016,3027.97661,mp-1104961,Bi8Pt5I3,https://materialsproject.org/materials/mp-1104961,22.169852897787102,30.08427316987893,-8.604250342815693,-0.5045126942092143
-5.0427054233333335,-60.51246508,8.662414258965779,-0.980548785,5e-07,2.1291388334672283e-08,0.0,62,12,273.6802454911185,1427.6879999999999,mp-8487,CaSbPt,https://materialsproject.org/materials/mp-8487,24.1966758020466,27.881464006955838,-8.604250342815693,-0.5045126942092143
-3.3471815977777784,-30.12463438,3.629657132067893,-1.6124038533610732,0.0,0.0,1.9363,225,9,264.76781242651197,578.7375999999998,mp-23350,Rb2PtCl6,https://materialsproject.org/materials/mp-23350,49.73905479166067,-16.47436139661929,9.753611880605176,-2.0009821704257966
-4.6050760875000005,-128.94213045,5.618176435491739,-1.8319363643973223,1.0,0.01708711831836984,0.05080000000000018,5,28,682.0380450008803,2307.57,mp-1216489,Yb5S9,https://materialsproject.org/materials/mp-1216489,-11.931787803381061,10.06880445232495,4.5167404882912825,-4.0791613712969905
-7.987410156923077,-103.83633204,4.2955689776208805,-3.045405008488065,4.9999996,0.36506034070539295,2.3144,8,13,159.61832251780322,412.90900000000005,mp-1219542,RbTi3FeO8,https://materialsproject.org/materials/mp-1219542,2.921420088988627,-46.388877673994166,8.741665438824763,1.2471698800231334
-3.7020945275,-14.80837811,5.235831779278223,-0.7923870751302085,0.0,0.0,0.8262,166,4,88.69992729831007,279.67900000000003,mp-10618,LiInSe2,https://materialsproject.org/materials/mp-10618,38.29140932191545,-0.8276322621470973,3.5062921852778004,-5.151132142228854
-3.6118903305147056,-491.21708495,5.243866356187769,-1.1421957259617648,0.0,0.0,1.5756,62,136,4568.806262067478,14427.9712,mp-570417,Bi6PtCl10,https://materialsproject.org/materials/mp-570417,47.86164769163815,11.282109796369523,7.674989274644816,-4.663460126157182
-4.365831693333333,-52.38998032,4.8659266548732,-2.065914271428333,0.0,0.0,2.3789,63,12,287.5578798934127,842.6393592000002,mp-555077,Sn2IF3,https://materialsproject.org/materials/mp-555077,45.83449276546813,-19.305953012000376,10.05508215672025,-0.7808706149322037
-7.025074835555556,-63.22567352,6.7268750918032465,-2.676430830416668,9.000001,0.8707999891452632,0.4077000000000002,123,9,120.44854836304464,487.93935,mp-1227304,BaTbFe2O5,https://materialsproject.org/materials/mp-1227304,-27.509349996794434,-15.808027530405164,2.297339370554373,-4.626473323886705
-7.551199152638889,-543.68633899,3.000733445981893,-2.6851650267592584,1.99992625,0.0330076783118651,2.115,14,72,706.1166143716404,1276.0120000000004,mp-768944,LiVB2O5,https://materialsproject.org/materials/mp-768944,-16.71732946427467,-50.71295559493779,8.672847277092675,1.6818708420705504
-7.085381825250001,-283.41527301,2.8582611646967595,-2.712147126821429,3.9999857000000003,0.09842447623806684,2.0177,9,40,473.62296675431213,815.240172,mp-775921,Li3V2(PO4)3,https://materialsproject.org/materials/mp-775921,-16.501366132483962,-48.73188693087612,7.892015734522704,1.094890994193514