energy_per_atom,energy,density,formation_energy_per_atom,total_magnetization_uB,total_magnetization_T,band_gap,sgr,num_sites,cell_volume,weight,mp_id,formula,URL,tsne_xrd_lin1_0,tsne_xrd_lin1_1,tsne_xrd_lin2_0,tsne_xrd_lin2_1
-5.361108272,-26.80554136,4.95463686907047,-1.2419816749999997,0.0,0.0,0.2054999999999998,166,5,169.0021895010195,504.26064,mp-676315,Y2GeI2,https://materialsproject.org/materials/mp-676315,-22.22084578008723,-35.3415375474731,-33.075880403769816,-23.502496350411715
-4.315157116111111,-77.67282809,5.6441094292486165,-1.3064663517592592,0.00017719999999999997,2.995269231198805e-06,0.6539999999999999,36,18,689.4539750174832,2343.428,mp-1205400,Ba2NdInTe5,https://materialsproject.org/materials/mp-1205400,10.299785630562504,-16.955157907900833,18.719743806729678,-14.588243123440973
-4.096276113,-40.96276113,4.501483993870393,-0.8665540411979172,0.0,0.0,0.0,8,10,214.86267453877502,582.462,mp-1216034,ZnIn2Cu2S5,https://materialsproject.org/materials/mp-1216034,-13.404655655914626,-24.47939897986594,-10.714306989284324,32.98153921942745
-6.5193995009523835,-273.81477904,5.2496508481469775,-2.4998001416666678,0.0,0.0,3.3375000000000004,173,42,584.5571580360009,1848.027,mp-766374,LiSiBiO4,https://materialsproject.org/materials/mp-766374,6.3760123866829135,-20.408579380845975,2.23310478929626,29.297857596241503
-1.5816644725,-12.65331578,7.881341608567085,-0.2448348887499998,5e-08,3.744794579933498e-09,0.0,194,8,155.6035254244393,738.5340000000001,mp-1187815,YbZn3,https://materialsproject.org/materials/mp-1187815,-72.46857971670899,2.1744478870211945,-69.73715556608039,15.786244755695193
-6.2759099957142865,-175.72547988,5.495764799781659,-2.806886434285714,0.0,0.0,2.6465,138,28,432.613829542282,1431.7904,mp-4287,Sr2SnO4,https://materialsproject.org/materials/mp-4287,-25.0141235556935,23.5138357200524,-24.030544715731484,52.39745815795394
-8.08998882,-48.53993292,6.553127213517307,-3.486044578333333,0.9999998999999999,0.13330027586105034,0.0,123,6,87.42715295879198,345.0212499999999,mp-1226481,CePrO4,https://materialsproject.org/materials/mp-1226481,-12.898730589595205,-24.682132343201772,-11.344974970206206,31.86368952922673
-6.406540535666666,-192.19621607,2.8314407763744236,-2.0597046003495243,0.0,0.0,3.7328,2,30,352.9666254081613,601.8552239999998,mp-555094,PrPH5CO7,https://materialsproject.org/materials/mp-555094,44.15598281017849,-40.81332595332458,27.666557097674737,-57.10873400175954
-5.18042149,-41.44337192,5.32491446212588,-1.8748690796425,0.0,0.0,0.40669999999999984,141,8,191.88287643254608,615.3182063999999,mp-676643,Ba2NF,https://materialsproject.org/materials/mp-676643,-10.565245948362652,-29.69058920357603,-0.5934864850814067,-29.801622151608942
-6.7862549749999985,-95.00756965,3.0125356949617785,-2.507646598877552,4.00000045,0.2680408260056948,3.3523,2,14,173.91479137427189,315.514724,mp-774251,LiFePO4,https://materialsproject.org/materials/mp-774251,54.01806149864087,-30.40928724660544,38.62190197385653,-54.33109728393344
-5.813089032222222,-418.54241032,1.958202304512828,-1.811976689505555,2.5e-08,3.326119969076282e-10,4.3382000000000005,62,72,875.9504227831727,1032.97067712,mp-505771,K2NaH5(CO4)2,https://materialsproject.org/materials/mp-505771,6.440835056114807,30.611501982026592,30.443273339088496,-3.559282041196746
-6.711227472857144,-93.95718462,4.373072437280878,-2.978472514308587,0.0,0.0,4.724,164,14,232.11332856985973,611.2764440000001,mp-1209402,Rb3Ho(PO4)2,https://materialsproject.org/materials/mp-1209402,-15.457422844133367,18.14394495863223,-15.088642531202344,45.19523555019075
-4.181529156,-83.63058312,4.987268872832916,-2.56224587520538,6.0000005,0.20037440008058227,4.428,166,20,348.96870275978284,1048.093846,mp-561567,Cs4CdNi3F12,https://materialsproject.org/materials/mp-561567,1.6441961552004285,-7.857619137626983,-8.405274799337366,-30.265641288391787
-7.478315783999999,-149.56631568,7.002136434811979,-3.2672264972500003,1.0,0.03930004746533264,0.28890000000000016,34,20,296.54073020751383,1250.4485599999996,mp-1208553,Sr2YbTaO6,https://materialsproject.org/materials/mp-1208553,-23.97571135532845,20.87549324641784,-23.901793706748524,54.58789849442161
-4.302297462,-21.51148731,2.8774249359890653,-0.2961186519999998,0.0,0.0,0.0,164,5,114.12230477418154,197.75407719999998,mp-6931,Sr(AlSi)2,https://materialsproject.org/materials/mp-6931,-5.698219942840142,-28.30983386143664,-5.497367341757388,-27.53349413488057
-9.670911748333333,-58.02547049,8.103712978413327,-4.192510770833334,0.0,0.0,2.3803,123,6,78.67334987736348,383.93933,mp-1215896,YPaO4,https://materialsproject.org/materials/mp-1215896,22.84570791106985,65.48331819919858,-7.373086179045122,33.879322556173705
-5.0563937646875,-161.80460047,4.55212886597033,-0.4557636568749999,1.222004575,0.035076544783264926,0.0,134,32,406.00693590005005,1113.0096,mp-1202466,CuSnO6,https://materialsproject.org/materials/mp-1202466,1.4183747785978913,-24.597511522959515,17.80000361317347,-16.62842103685937
-5.45455030296875,-349.09121939,8.426362321164675,-1.4906067423437497,0.009300015625,7.700326559266134e-05,1.5392,57,64,1407.511534028973,7142.3808,mp-672237,PbO,https://materialsproject.org/materials/mp-672237,-10.70779662007843,-25.926403982748056,0.6124815319139487,-28.460312834632106
-6.6156757465,-132.31351493,3.5243466176936287,-2.214731345298,2.0000002,0.11571275119581798,0.32020000000000004,3,20,201.43097139301904,427.51934500000004,mp-756559,Li4MnV3O12,https://materialsproject.org/materials/mp-756559,7.3547078769941026,-25.401453018374944,20.865502431298093,-20.639851345224784
-5.553681646666668,-66.64417976,5.916345837452874,-1.0584281381302079,1.99999985,0.07189353776220954,0.0,63,12,324.20337797400015,1155.1064199999998,mp-582421,KUCuSe3,https://materialsproject.org/materials/mp-582421,31.57231902494997,-27.269088880021034,9.424396243920755,-39.99635450721362
-2.47144302875,-19.77154423,1.3552742473135557,0.6511200277500002,4.673968799999999,0.12906102465956668,0.0,140,8,422.05410412480745,344.46589000000006,mp-1078656,K3Mn,https://materialsproject.org/materials/mp-1078656,6.571734361062795,-33.968469513084415,-12.24500164080832,-30.6461634547505
-1.722204735,-6.88881894,2.6025429294226767,0.3965239084913792,1.0000937,0.06420984247697613,0.0,139,4,181.51666954498603,284.4889,mp-1186867,Rb3Si,https://materialsproject.org/materials/mp-1186867,-16.567957667671788,-51.55376450737232,-23.75383333389783,-8.138759829850244
-3.610598688000001,-36.10598688,5.0392468993820705,-0.9681685925236672,1.0523677,0.034252363419141056,0.0,225,10,358.05883495607316,1086.6031032,mp-996942,Ba6In2NF,https://materialsproject.org/materials/mp-996942,-12.679899973935385,-26.65452763969414,-12.196053156318106,-25.33620749227916
-3.027087194285714,-21.18961036,4.648703608206166,-0.28024361955625565,2.7699999999999996e-05,2.059663315532865e-06,0.0,139,7,156.73318632486584,438.7768738,mp-1025334,Cs2TmH4,https://materialsproject.org/materials/mp-1025334,-7.969701467975905,-34.85631027595047,-13.159304432258995,-29.098574384382772
-4.4300012,-141.7600384,1.5233810350462422,-0.26031636764000066,2.4e-06,9.363945727370104e-08,0.0,43,32,298.69625762983435,274.0244,mp-1181786,H5N2Cl,https://materialsproject.org/materials/mp-1181786,5.93276360398256,21.619295900510803,15.21350532496047,-39.585568762127245
-4.942298498,-24.71149249,3.5867582045786945,-1.6686849075000003,0.9921721,0.2282410458569513,0.0,71,5,50.66064202217823,109.4268,mp-4711,Li2CuO2,https://materialsproject.org/materials/mp-4711,8.685060859750848,-34.73686380104455,32.151317897499275,-43.08871316955489
-5.692458415217391,-261.8530871,2.198467706046342,-1.6027543219113043,1.99999955,0.05830010573175658,4.4017,14,46,399.79557512353017,529.3086400000001,mp-771916,Li2NiH8(CO5)2,https://materialsproject.org/materials/mp-771916,35.02328043567268,-21.97297236814123,26.557106148034396,-43.84638522029351
-7.5319499725,-150.63899945,6.076362709267523,-3.1349103510833336,1.5e-07,6.777452616102421e-09,3.8543,14,20,257.9302010508569,943.83656,mp-1214135,Ca2TaInO6,https://materialsproject.org/materials/mp-1214135,-27.64773674267255,35.255072247532844,9.229158270403596,37.065546842536776
-3.5901498684782607,-165.14689395,3.0108434275576026,-0.6191903303260865,0.0152755,0.00023533392055066562,0.0012999999999996348,160,46,756.4641171008276,1371.5998,mp-34355,Li31Zr2As13,https://materialsproject.org/materials/mp-34355,-16.72221265988267,-42.439995772287176,-19.143345173709847,-34.920226892102406
-5.620080427916666,-134.88193027,7.7121943182008055,-1.6290269562499995,0.0,0.0,2.3955,5,24,344.9992985759208,1602.3120000000001,mp-1227462,BiTeO4,https://materialsproject.org/materials/mp-1227462,9.902477833242179,25.237100166562534,34.35942256347081,-2.461331477216151
-3.725419795,-14.90167918,5.648984150566549,0.03267028999999999,7.051706200000001,0.4773581850620878,0.0,225,4,172.15802176131504,585.664,mp-1186789,SrYb2Eu,https://materialsproject.org/materials/mp-1186789,-18.731999680936013,-49.70936529093145,-24.69555565918655,-6.0911440978925055
-1.50746835,-9.0448101,2.33038196146967,0.1367258100000003,0.12246993333333335,0.005965358802946258,0.0,166,6,239.26013219067588,335.775,mp-1094318,SrMg,https://materialsproject.org/materials/mp-1094318,-29.690942008361148,-17.837423931072813,-10.273784016840317,-19.703048655470738
-6.993643006499998,-139.87286013,7.514011520617507,-2.297051288346,4.0000008000000005,0.17181742158142768,1.3738,15,20,271.31281557148856,1227.702314,mp-1219299,ScMn(BiO3)2,https://materialsproject.org/materials/mp-1219299,-16.310946488478425,43.427301523259366,1.7152155841531986,55.79778621504725
-4.1115333395,-82.23066679,5.657595847635946,-0.7061376620833336,0.0,0.0,1.9818,62,20,331.97993045471384,1131.08348,mp-849271,AgIO3,https://materialsproject.org/materials/mp-849271,-21.15755147242287,13.511720393439687,-19.480400222836032,46.0988323934181
-2.9480710825,-200.46883361,4.179314815588588,-0.8559873332724367,0.0,0.0,1.7985,205,68,1785.5549706826614,4493.960192000001,mp-23476,Cd7(P2Cl3)2,https://materialsproject.org/materials/mp-23476,6.268483490366868,-6.426361078475416,-32.90467755416367,-20.910957818243872
-6.5372313338636365,-287.63817869,4.706960818923349,-1.7325256662499997,5.999885125,0.10650966199083672,1.1486,62,44,656.4948997836747,1860.8992,mvc-9228,ZnMo3O7,https://materialsproject.org/materials/mvc-9228,17.209505333905188,-1.7026650905801763,36.17746838556737,-12.221217541895244
-4.705469878571429,-65.87657829999999,2.840333410813882,0.15059809755142847,1.0,0.01945995493093252,0.00269999999999998,12,14,598.8741913289331,1024.36759,mp-1214385,CrI7N6,https://materialsproject.org/materials/mp-1214385,43.55801109884269,-42.17455145873938,33.8529004391256,-59.22613740271781
-5.04203108875,-201.68124355,4.274940348108792,-0.6913742944062505,21.7898932,0.30439366931782463,0.0,23,40,834.25134073604,2147.72109,mp-1223608,Mn2Fe3Cu10(SnS4)5,https://materialsproject.org/materials/mp-1223608,29.432422845390395,64.69498043828558,-12.570582600019154,8.212491092188394
-4.8496857575,-19.39874303,4.019579938935989,-2.2691795906640624,6e-07,5.912783875727891e-08,2.2875,166,4,118.25967277850172,286.265,mp-1218707,Sr2SeS,https://materialsproject.org/materials/mp-1218707,-27.12656030519112,-42.1357543976976,-36.7193351725038,-22.32415505712783
-6.610989233214285,-185.10769853,5.891796976027068,-1.9206958213775505,1.999999975,0.07235295619482204,0.0,62,28,322.14480899725584,1143.009448,mp-504105,LiPWO4,https://materialsproject.org/materials/mp-504105,27.488800335470856,-14.863410038528006,43.44538496355104,-4.455559528041005
-6.855295418461537,-356.47536176,3.135330252192769,-2.048956120556923,1.0028629999999998,0.01950559512972195,1.467,14,52,599.1834795235051,1131.34232,mp-626913,V3(HO4)2,https://materialsproject.org/materials/mp-626913,41.227212312212075,-41.975897357170474,36.598882172811436,-57.43319339487125
-7.3724402590625,-471.83617658,3.4002834112282163,-2.326691667890625,1.37024205,0.020002092207691082,0.0,11,64,798.3609633918554,1634.8026,mp-767268,LiV9O22,https://materialsproject.org/materials/mp-767268,28.283334570970702,-25.154337387148534,55.31161695601568,-8.885904636117864
-3.885087575625,-62.16140121,2.4756756733465326,-1.2205846594062502,0.0,0.0,2.1699,36,16,492.7468795613274,734.6298,mp-9781,K3SbS4,https://materialsproject.org/materials/mp-9781,26.90803000704903,-1.2314464289906355,-0.39767219874098,-8.684856366857153
-7.157431401818181,-629.85396336,3.6595607032700217,-2.82400364375,2.7000000000000002e-05,2.660571436640173e-07,2.8019000000000003,14,88,1182.6773170821934,2606.4304,mp-1208827,SrMgV2O7,https://materialsproject.org/materials/mp-1208827,11.434892752154095,28.142650813638678,26.51647089164193,33.840225468128054
-6.815503160882352,-231.72710747,5.778260520300544,-2.5568135209047065,9.00000145,0.208770390068772,1.0699999999999998,64,34,502.40170465208206,1748.23227,mp-18791,Ba4Mn3O10,https://materialsproject.org/materials/mp-18791,1.0286571219956613,28.24286291023998,1.3874957458534205,27.48271584158212
-5.068157781785715,-141.90841789,2.8827531129265247,-1.6852249260576788,0.0,0.0,3.5508,15,28,465.67972337448606,808.43608,mp-23979,K3H(SeO4)2,https://materialsproject.org/materials/mp-23979,16.824240685792102,-23.714496047676924,25.44255429716039,-29.310394796014204
-7.876825829117648,-267.81207819,4.872636311421385,-2.391605171250001,13.999974599999998,0.3029449121954884,2.4894,15,34,538.5685787563469,1580.3596000000002,mp-767404,Gd2As4O11,https://materialsproject.org/materials/mp-767404,29.73275822380877,-4.346584595175724,52.761018187112725,-0.4725175716537988
-7.390150539137932,-428.62873127,5.616120255508023,-3.0943316349224137,0.0027761999999999995,3.407362591600059e-05,3.022,194,58,949.5324830219237,3211.42019712,mp-1214664,Ba6Na2Ta2V2O17,https://materialsproject.org/materials/mp-1214664,-18.902343690337247,17.4196255036213,-19.197069807924727,47.67313291350522
-6.612242371250002,-158.69381691,4.85130947587201,-2.4191860401783347,0.0,0.0,3.4216,14,24,376.790656263852,1100.8040384,mp-556419,ReO2F3,https://materialsproject.org/materials/mp-556419,34.350180085501854,-13.872847693602198,43.754203262158136,-32.19706275873321
-6.692596738125,-107.08154781,3.0481357270395946,0.2965804700900003,0.0,0.0,1.5400000000000005,141,16,230.03782777192185,422.2644,mp-27954,CuN3,https://materialsproject.org/materials/mp-27954,-5.86760703429337,-7.6660110599418845,1.6537794543693405,-38.171687871212576
-3.2297339588888887,-116.27042252,3.646725626479628,-1.13833997525,0.0,0.0,1.7876,62,36,990.2777438329193,2174.7584,mp-18101,K2Cd3S4,https://materialsproject.org/materials/mp-18101,37.05510440295288,-35.070171305092146,7.793133528617072,-46.882157279344504
-4.859957438333334,-87.47923389,5.256454308757329,-1.0522645136955555,0.0,0.0,1.4003,129,18,300.14195247109114,950.1026,mp-555993,CrAg3ClO4,https://materialsproject.org/materials/mp-555993,14.788389658344741,65.21238803615307,29.98811929383652,-4.191172617933193
-4.2323528575,-16.92941143,5.806971913032242,-0.6066299977149994,1.07e-05,3.029745012552063e-06,0.1748000000000003,139,4,41.15808180218793,143.93147,mp-981547,PrH3,https://materialsproject.org/materials/mp-981547,26.57011511843433,59.4192979458899,-9.33971818737699,32.952922932120124
-6.950444417857143,-194.6124437,4.540113656185041,-2.571915837857143,5.875e-05,1.229147168791525e-06,2.2122,2,28,557.0336268691432,1522.9969999999996,mp-1192793,PrMoBrO4,https://materialsproject.org/materials/mp-1192793,34.98832505916242,-7.417275899483722,44.48361888320177,-6.593359020461035
-7.401408814,-74.01408814,3.4810197990398044,-2.6836543109999997,0.0,0.0,4.275,12,10,140.84582451951334,295.2578,mp-33746,SrCO3,https://materialsproject.org/materials/mp-33746,-2.1738867661642187,-23.731137204244057,13.471476628424403,-14.997094322457535
-5.755843648611112,-207.21037135,3.8414600329944415,-1.5854672484444452,3.037486875,0.05804897405057161,0.0,67,36,609.8138574544083,1410.7320000000002,mp-1212402,K2HfO6,https://materialsproject.org/materials/mp-1212402,7.125112292203433,-27.52058063792927,14.475777750768149,-21.744453247924767
-4.677566336111111,-84.19619405,5.114474915298909,-0.8156861894444442,0.3333333333333333,0.005779580618821835,0.0798000000000001,148,18,672.1401627081706,2070.197640000001,mp-28241,ZrI2,https://materialsproject.org/materials/mp-28241,-9.550535070621256,5.392837902392795,-4.776570039674455,0.4151100597260105
-7.7531753525,-31.01270141,3.0114509979213864,-1.0495575233774996,0.0,0.0,3.2177999999999995,166,4,70.38401468991697,127.6441,mp-12317,SrCN2,https://materialsproject.org/materials/mp-12317,-1.4475778124581464,-17.196109424903096,-2.120159016487587,-23.811231061586906
-4.8283968803571415,-135.19511265,3.5190203821107215,-2.603684031622118,0.0,0.0,3.71,14,28,476.372176295749,1009.5296512,mp-17337,RbAsOF4,https://materialsproject.org/materials/mp-17337,33.478441721134125,-7.367375639739015,32.80474546905002,-13.11505233255769
-6.910370722916666,-165.84889735,2.6701473465952352,-2.602134102624643,5.00000025,0.1929836158023555,2.3242000000000003,74,24,301.94442431834375,485.52673799999997,mp-757211,Li2MnP2O7,https://materialsproject.org/materials/mp-757211,50.09574911257902,-33.51676923851176,39.418934149135104,-51.676437990977355
-6.610804364166667,-158.65930474,4.160743723776132,-2.8686553659375016,0.0,0.0,3.2613000000000003,36,24,348.26118867764916,872.6235999999999,mp-1190900,BaZn2Si2O7,https://materialsproject.org/materials/mp-1190900,17.459131959746582,-7.711953084236717,17.409816681882493,-16.899408100895585
-5.3440484825,-128.25716358,4.630190985139165,-2.02218791358375,0.00133955,3.5862976548374375e-05,4.4779,62,24,435.30136002584464,1213.7796127999998,mp-1190566,TlSO3F,https://materialsproject.org/materials/mp-1190566,3.1848377137122674,-28.595654687028123,-6.285607107879957,-33.4066241615985
-6.881070257857143,-96.33498361,2.9507090939565015,-2.718979384214286,0.0,0.0,3.097,164,14,220.67425571577797,392.129012,mp-1104363,K3ScV2O8,https://materialsproject.org/materials/mp-1104363,-21.854911277899102,25.03907071696055,-16.844429568326127,50.49280362239152
-6.387760345568182,-562.12291041,3.0100218957068994,-2.0093612950848048,6.9825868,0.09497916683147403,2.8793,52,88,856.7722960931916,1553.0519359999996,mp-541218,GdP2H9O10,https://materialsproject.org/materials/mp-541218,23.874532656781422,-20.8739366070997,25.68616356121475,-28.002491142896947
-6.861976652692308,-178.41139297,3.7283455279548754,-2.819600980628462,8.0,0.27386220846435216,1.2893,64,26,340.4358662820516,764.3677799999999,mp-18952,Ca4Mn2O7,https://materialsproject.org/materials/mp-18952,-11.798650254079053,40.421158274491354,-5.935038926453849,59.160540874691314
-8.87942726,-213.10625424,4.961897338481222,-3.171493735184168,18.99999725,0.6277142276638435,0.0,113,24,352.7516007627212,1054.0656900000001,mp-1190662,Eu2MnSi2O7,https://materialsproject.org/materials/mp-1190662,-11.28062607348528,34.695548831405354,-14.571220445330225,28.18328713971496
-4.497193031,-44.97193031,3.5989724929013667,-1.70992285035,6.9999999000000015,0.2505645755240522,2.1976,146,10,325.578554238528,705.64330784,mp-1173681,Na3GdBr6,https://materialsproject.org/materials/mp-1173681,3.041794783783927,-23.097731667318406,-10.468744776462012,-23.26751311236157
-4.788403451944443,-172.38252427,3.798507786442101,-0.7954223540079366,0.0,0.0,0.9348,14,36,930.3284526682803,2128.1401920000003,mp-18351,Sr3(GeP2)2,https://materialsproject.org/materials/mp-18351,-0.2349477022173534,-11.982864902010856,-0.004620522190945578,-0.7501581368738452
-5.561416146,-27.80708073,5.555595952779119,-2.1383846919166665,0.8152656999999999,0.126929057574084,0.0,221,5,74.85409138172106,250.4362,mp-972021,SrInO3,https://materialsproject.org/materials/mp-972021,-26.30371983795424,18.247188541725713,-30.17793530286633,54.288830179082225