energy_per_atom,energy,density,formation_energy_per_atom,total_magnetization_uB,total_magnetization_T,band_gap,sgr,num_sites,cell_volume,weight,mp_id,formula,URL,tsne_cry_lin1_0,tsne_cry_lin1_1,tsne_cry_lin2_0,tsne_cry_lin2_1
-5.19487929,-41.55903432,5.607469350764625,-0.4203805249999997,4.16303985,0.21217817644795506,0.0,129,8,228.65846466800843,772.1560900000001,mp-1079721,SrMnSb2,https://materialsproject.org/materials/mp-1079721,24.48156251210013,21.871902581129614,-8.604250342815693,-0.5045126942092143
-7.766475231499999,-155.32950463,4.410095278007806,-0.5864858749280003,7.5075e-05,2.5518955298485875e-06,1.5638,15,20,342.85451836338746,910.5604,mp-989627,SrTcN3,https://materialsproject.org/materials/mp-989627,34.48591476220915,-8.207791255520261,6.408929177482718,-1.4370526821488232
-7.1011947100000015,-170.42867304,2.9032274328460304,-2.4274803795238107,4.999999725,0.16887716299419114,2.4828,14,24,345.0455918656981,603.265448,mp-561445,FePO4,https://materialsproject.org/materials/mp-561445,-19.399978333272703,-68.62503893739871,7.683714997122205,-2.8207626718900274
-6.18514744,-92.77721159999999,7.2561828921299805,-0.569560076,11.789833900000001,0.35331276567210795,0.0,115,15,388.8891126448391,1699.3581350000002,mp-1227078,Ce4Mn3Sb8,https://materialsproject.org/materials/mp-1227078,4.578565300727344,34.89700114133687,-8.604250342815693,-0.5045126942092143
-4.6282654475,-37.02612358,4.175366539898643,-1.08288316640625,0.0,0.0,0.7172000000000001,121,8,165.28847105941338,415.612,mp-1147586,SrCu2GeS4,https://materialsproject.org/materials/mp-1147586,30.974955392884496,-1.9600178176550465,-4.614420686208506,-1.634130069423693
-5.1912819300000015,-36.33897351,7.32557289861613,-0.6671348835714289,1.88e-05,1.1913039175531393e-06,0.0,38,7,183.91311779963925,811.34434,mp-1223308,La2NiSn4,https://materialsproject.org/materials/mp-1223308,0.6552887373097117,52.13378622233196,-8.604250342815693,-0.5045126942092143
-5.2728168225,-63.27380187,7.135529054889309,0.3862827720833337,2.8056427999999998,0.17494132307636467,0.0,107,12,186.90348480783425,803.145975,mp-22732,Co5Ge7,https://materialsproject.org/materials/mp-22732,48.15185968988203,46.74576579486524,-8.604250342815693,-0.5045126942092143
-3.719955794285714,-26.03969056,7.526713440434028,-0.2817240342857141,0.0,0.0,0.4988000000000001,166,7,250.52674791148894,1135.5608,mp-676250,Bi2Te4Pb,https://materialsproject.org/materials/mp-676250,66.53198430505974,23.832838227294,4.861751558637054,-6.5965723091070405
-5.717458466428572,-80.04441853,3.6551503545095536,-1.4620893123706904,6.0210843,0.1761875906017681,0.0,4,14,398.26928896397567,876.6636,mp-1219610,RbEuGeS4,https://materialsproject.org/materials/mp-1219610,-15.893815541040228,11.598250259746182,-8.604250342815693,-0.5045126942092143
-7.5135598221875,-240.43391431,2.4019193554599547,-0.2739623155433621,2.99999985,0.050887131940392405,1.9659,14,32,687.053705650438,993.80234616,mp-17165,Cs2NaCr(CN)6,https://materialsproject.org/materials/mp-17165,19.089156702310547,-9.955830716159683,7.407941361261614,-3.521419028436537
-7.5225495946875,-481.44317406,1.7016104934605567,-0.2703382547362496,3.000000275,0.02752570088295045,1.8010000000000002,14,64,1270.1655689429745,1301.5816,mp-568773,K3Cr(CN)6,https://materialsproject.org/materials/mp-568773,19.07083065066763,-9.977944535312071,8.168793246123537,-1.3816811193165168
-6.013323773148147,-324.71948375,4.339701263262185,-2.222058374794815,3.91902555,0.0729967011868933,0.0,6,54,625.6800220064873,1635.1704576,mp-1178244,FeOF,https://materialsproject.org/materials/mp-1178244,-43.01242267349728,-76.72291796801068,-8.604250342815693,-0.5045126942092143
-8.673580426818182,-381.63753878,4.152077779611292,-3.09677370113091,5.525e-06,9.823946768640977e-08,2.2294,62,44,655.426066374133,1638.8533727999998,mp-760188,Nb3O7F,https://materialsproject.org/materials/mp-760188,-0.2881767902337097,-47.04716034268238,6.858006007810521,-0.7448535739691686
-3.15373238,-113.53436568,3.3309070431849377,-0.4154067902777775,0.0,0.0,0.3937,14,36,914.1418260396533,1833.6945856,mp-5248,Na5SnAs3,https://materialsproject.org/materials/mp-5248,35.430798495364364,19.14825507268186,4.381188615356355,-5.90082743534317
-7.0146401175,-84.17568141,11.413954007598125,-0.5947347908333332,8.5e-07,4.1858267967735763e-08,0.0,62,12,236.65468108501818,1626.68,mp-1212193,HfSbPd,https://materialsproject.org/materials/mp-1212193,29.557335865071146,40.39208752583675,-8.604250342815693,-0.5045126942092143
-4.227268952,-42.27268952,4.720441404592977,-0.8091887430540006,0.0,0.0,0.6986999999999999,141,10,210.88660830579,599.4908,mp-28323,Pd2Cl2O,https://materialsproject.org/materials/mp-28323,12.626355115050185,-1.4385143304283516,6.489537902972548,-5.997802565164432
-8.4578832778125,-541.30452978,2.4390210515787047,0.2469600829714427,3.105e-05,4.244335063303926e-07,0.0,71,64,852.5686728094839,1252.2638075999998,mp-1213691,CsC15,https://materialsproject.org/materials/mp-1213691,59.4533407209944,37.28180745120577,-8.604250342815693,-0.5045126942092143
-9.002442850892857,-504.13679965,4.290615894217544,-3.0941065228571434,3.75e-08,5.310291133719682e-10,1.9233,12,56,822.9820512022761,2126.47808,mp-1201852,Nb2O5,https://materialsproject.org/materials/mp-1201852,-0.2795385344315974,-47.03720337861296,6.998883856142355,-0.7167409927381891
-7.722133116333333,-231.66399349,5.9428644958225325,-2.9550772400833334,9.9999994,0.3251290162539333,1.0526,143,30,358.4442941325703,1282.827936,mp-1222824,LuSc(FeO3)2,https://materialsproject.org/materials/mp-1222824,-23.787431430280883,-32.49885523375564,7.085779636121277,-5.916877534562812
-4.253856501428571,-89.33098653,2.8848024290556933,-1.9157322671994748,14.000702100000002,0.25766542403194465,0.0,139,21,633.244020798397,1100.11499,mp-1219632,Rb6Mn2CrCl12,https://materialsproject.org/materials/mp-1219632,21.28121029683353,-1.0191204795939341,-8.604250342815693,-0.5045126942092143
-6.56874012142857,-91.9623617,4.545324110495622,-1.9819650235714292,8.06129615,0.6344252399377623,0.0,88,14,148.08185672452498,405.3382772,mp-1248448,Al(FeO2)2,https://materialsproject.org/materials/mp-1248448,-26.630577539522072,-16.688219457221614,-5.77957096526784,-2.6022060519421304
-4.70448373375,-112.90760961,5.863852465581948,-1.3081965916666665,0.0,0.0,0.8203000000000005,62,24,818.4856395628226,2890.31388,mp-17063,BaLaCuTe3,https://materialsproject.org/materials/mp-17063,56.77680979032247,20.516756994327558,6.442463449527169,-5.911962877666053
-4.6717580275,-18.68703211,9.458383488562438,-0.6673878656249999,4e-06,5.646450419568618e-07,0.0,225,4,82.55852017877135,470.251,mp-862898,PmCdPd2,https://materialsproject.org/materials/mp-862898,25.276033699023472,31.87134621736492,-8.604250342815693,-0.5045126942092143
-6.38190500625,-51.05524005,6.619719215611651,-0.05202733625000011,14.9860595,0.9652138922022502,0.0,12,8,180.94280398301376,721.3263450000001,mp-1221834,MnCr3Te4,https://materialsproject.org/materials/mp-1221834,53.588373104664704,33.71585011066912,-8.604250342815693,-0.5045126942092143
-4.0199990119999995,-80.39998024,5.026952491751974,-0.4574526080000005,0.0,0.0,0.4539,13,20,794.396950879208,2404.87916,mp-540924,NbTeI3,https://materialsproject.org/materials/mp-540924,10.311406268220678,-4.802849447587931,5.619300152348941,-5.454153331333784
-5.0415189683333335,-181.49468286,8.687271910444492,-0.4047817524999999,4e-07,5.7539430533475485e-09,0.0,164,36,810.1619821057878,4238.4414099999985,mp-5321,Ho7Co6Sn23,https://materialsproject.org/materials/mp-5321,-0.08728265632580368,47.92020511713263,-8.604250342815693,-0.5045126942092143
-3.082726068,-77.0681517,5.453119810895567,-0.20995394714482807,1.87e-05,2.2323526187094847e-07,0.0,1,25,976.2391900830228,3205.9163557,mp-620471,Cs3Te22,https://materialsproject.org/materials/mp-620471,65.25162439912978,19.573914162735267,2.533984800644284,-4.840476070433086
-6.954157369722222,-250.34966531,2.5945843131569637,-1.8377000454513888,8.999999933333333,0.21452443452836195,1.0272,5,36,488.9260396219932,763.9445999999998,mp-849784,LiFe2C2O7,https://materialsproject.org/materials/mp-849784,-20.284370912328626,-79.78718148638227,8.037795448809495,-2.5976802363095404
-5.206629147575757,-171.81876187,8.221433380549588,-1.4735208196590903,0.0,0.0,1.4151000000000007,38,33,631.0991574480339,3124.6116799999995,mp-1227670,Bi10Te2I4O17,https://materialsproject.org/materials/mp-1227670,8.991806062538133,-35.97116518361165,8.134544791437575,-2.4950251691281125
-8.056835104302326,-1385.77563794,1.991747656801984,-0.08271190145209334,4.1e-06,1.982790550256991e-08,0.6291,2,172,2409.8191087960213,2890.478,mp-1208787,Ti3C70Cl13,https://materialsproject.org/materials/mp-1208787,46.72369754660134,-25.96885830493399,4.841494337802304,-6.2714415322443084
-4.2554520375,-34.0436163,3.6094080222006624,-0.7817846361562499,0.7933084,0.054743613437497035,0.0,121,8,168.88303306414699,367.0903,mp-1147571,KCu2GeS4,https://materialsproject.org/materials/mp-1147571,30.996834037632137,-2.0038804271459782,-8.604250342815693,-0.5045126942092143
-5.9230049383333325,-106.61408889,6.955092651887077,0.06559215269888892,2.35e-05,1.2954126996626664e-06,0.7667999999999999,152,18,211.41565327132457,885.5049,mp-1246590,AgGe2N3,https://materialsproject.org/materials/mp-1246590,22.054405196004144,-11.881508763293409,5.190823411277463,-1.4181760364670029
-5.426666265,-43.41333012,4.550409278291322,-1.5471505704999995,1.00000055,0.1440713816229219,1.8461000000000003,194,8,80.89095176998805,221.66713856,mp-971633,NaFeO2,https://materialsproject.org/materials/mp-971633,-25.400836329432664,-33.4881164760319,7.357895107733442,-2.279245471871909
-6.923605635,-69.23605635,2.890745113763895,-2.3119396914375003,0.0,0.0,0.9419999999999996,12,10,213.8117576613501,372.213648,mp-684969,Sc2S3,https://materialsproject.org/materials/mp-684969,56.43520508500465,3.7547350061984512,7.646364326886385,-4.607362767635694
-4.128467209166667,-99.08321302,7.092089504850403,-0.6335401124999999,4.5e-07,9.558524835841563e-09,0.0,186,24,548.654655160514,2343.28,mp-984635,LiErSn,https://materialsproject.org/materials/mp-984635,0.0894085365887593,44.994258233948,-8.604250342815693,-0.5045126942092143
-7.4574654055,-149.14930811,5.700662851403779,-2.829929534208333,1.32e-05,6.115900622797396e-07,2.4308,8,20,251.5306648776528,863.50966928,mp-1223404,KNaTi4(BiO6)2,https://materialsproject.org/materials/mp-1223404,5.962840428321849,-40.83466688442931,-8.604250342815693,-0.5045126942092143
-5.785163285416666,-138.84391885,3.4334148791786547,-1.7592314950047914,1.0000008,0.033378101927398984,2.2321,11,24,349.15328981738975,721.9270799999998,mp-644015,KVHSe2O7,https://materialsproject.org/materials/mp-644015,-12.020563102579644,-49.53695287442368,8.328754817496986,1.7571914543617453
-4.9478403590625,-158.33089149,2.7480650422294937,-0.7266656893574996,2.99975655,0.08438611180973835,1.5645,2,32,414.2785629752858,685.59932,mp-866468,CrH9(BrN)3,https://materialsproject.org/materials/mp-866468,22.060808545763244,-3.1332107780074288,5.000061617835499,-5.419823017774003
-6.2967666229166666,-151.12239895,4.372617326736298,-2.4030816160416664,2.0000003,0.1030437436520662,1.6413000000000002,2,24,226.19648913417026,595.6323,mp-755369,Li2VGaO4,https://materialsproject.org/materials/mp-755369,-27.600360492798128,-51.027118692406404,6.471093023528504,0.5485300991256603
-7.1264872750000015,-99.77082185,3.9453101236141066,-1.9905313173214287,4.9999662,0.1917465821454507,0.19890000000000008,36,14,303.8903186874439,722.01949,mp-1216082,Y2MnS4,https://materialsproject.org/materials/mp-1216082,28.006757321141272,7.104086960942122,2.3953472901026656,-4.692357654144038
-6.998336381333332,-104.97504572,7.589258160303646,-0.7863919990624992,0.0142346,0.00047111552240429314,0.0,8,15,352.12372023929396,1609.33152,mp-1218047,Ta4MoSe10,https://materialsproject.org/materials/mp-1218047,47.50274259611862,25.759086005724352,-8.604250342815693,-0.5045126942092143
-5.454446183928572,-152.72449315,2.890975485394033,-2.0073041276785712,3.000066475,0.1220660554945924,1.8384,136,28,286.4266308923509,498.6648,mp-771894,Li3FeO3,https://materialsproject.org/materials/mp-771894,-30.86497430577995,-74.44429995286356,6.790390810869128,-0.4602600483231696
-5.138688291125,-411.09506329,2.0612938756132952,-1.1183474830839288,5.999999975,0.031044848683635624,1.2898,14,80,2252.366859847673,2795.953544,mp-559251,K3Cr2(PS4)3,https://materialsproject.org/materials/mp-559251,23.959300980789838,-1.7693006729330345,7.043171325513697,-4.359699059838765
-4.3910275175,-17.56411007,5.198134656320995,-1.404698545926725,0.0,0.0,1.3066,166,4,170.05787367388356,532.3474518999999,mp-11742,CsNdTe2,https://materialsproject.org/materials/mp-11742,61.712063214354075,18.76785990495981,8.073759316428626,-4.4942473218743055
-6.1113636976666665,-366.68182186,2.384155472840233,-1.6306738322003345,0.0,0.0,2.4461,14,60,1004.5143775952192,1442.2536256,mp-566960,PdC2S2(O4F)2,https://materialsproject.org/materials/mp-566960,-13.396992765258286,-51.0570374721319,8.517153785995538,-0.11607837631993476
-4.083290455,-40.83290455,3.951638991320092,-0.9959673700312508,4.0068379,0.23257111395475244,0.0,160,10,200.7813766108199,477.806,mp-1215515,Zn4FeS5,https://materialsproject.org/materials/mp-1215515,23.342149125067067,7.6149065635213695,-8.604250342815693,-0.5045126942092143
-6.5620581666666675,-78.744698,6.220787012318644,-0.7398115207291672,0.1974992,0.00854254804027103,0.0,187,12,269.4358238874705,1009.37276,mp-1220443,NbMoSe4,https://materialsproject.org/materials/mp-1220443,48.0203850480408,24.88974183090011,-8.604250342815693,-0.5045126942092143
-5.533962641666666,-66.4075517,3.914969404233083,-1.652358334208334,4.9000000000000005e-06,2.3969530236853854e-07,2.3602,191,12,238.23961847087855,561.68557,mp-23126,KAs4IO6,https://materialsproject.org/materials/mp-23126,33.61154669947763,-18.758837083929095,10.170361968933534,-0.6697980190677111
-4.655160313333334,-27.93096188,8.186731802770863,-1.0674908033333337,5.85e-06,3.962428760350274e-07,0.0,129,6,172.05679405942806,848.2684199999999,mp-1072729,TmTe2,https://materialsproject.org/materials/mp-1072729,-9.829884374149078,24.448528602038976,-8.604250342815693,-0.5045126942092143
-6.149490697857143,-172.18573954,8.417229271162007,-1.9147626416666663,4.5799999999999995e-05,1.1665327701395752e-06,1.4728000000000003,5,28,457.55779884295083,2319.3486,mp-1217238,TiBi8W(BrO8)2,https://materialsproject.org/materials/mp-1217238,9.335127525601123,-37.35063001239685,8.32319169593773,-2.6583714691847944
-6.83896442,-102.58446629999999,6.83446029589697,-0.6593562479166669,0.0006571000000000001,2.5161083296943038e-05,0.0,147,15,304.3543821890758,1252.66428,mp-1220463,Nb6CuSe8,https://materialsproject.org/materials/mp-1220463,48.31800700411832,23.287606537998553,-8.604250342815693,-0.5045126942092143
-5.533139421666667,-298.78952877,2.734510935461951,-1.0458099817077775,0.0011914000000000002,2.286287802725172e-05,1.9192,15,54,607.3011785076933,1000.0798980000001,mp-1201215,H7AuN4O15,https://materialsproject.org/materials/mp-1201215,-8.943301337478328,-52.973214955646384,8.187044887529389,0.3194161954302169
-8.492657148333333,-152.86782867,4.681225234119194,-3.3727307720370368,0.9999998999999999,0.049683006404141895,0.0,121,18,234.56840579159592,661.27174,mp-1222737,LaTi2O6,https://materialsproject.org/materials/mp-1222737,6.572057092433172,-40.95779482367366,4.114186338522827,-3.8869643889116334
-7.395506653333332,-22.18651996,7.42056063861734,-1.125714957552083,4.1e-06,7.313182281630313e-07,0.0,156,3,65.33635253084772,291.97288,mp-1217890,TaSeS,https://materialsproject.org/materials/mp-1217890,47.22891092171139,25.829675673569483,-6.608369859542246,-3.5022678060148937
-3.27692026125,-26.21536209,3.9249814026245065,-0.6704619532500002,0.00120805,4.570819358644487e-05,1.3481,122,8,308.0124556194644,728.0426,mp-1097013,KGaTe2,https://materialsproject.org/materials/mp-1097013,60.56397385589109,16.604070757024246,8.383429281556289,-5.0914817051401755
-6.206791153571428,-86.89507615,3.174925404068324,-1.3242313958928569,5.00000055,0.21802515075072768,0.0,74,14,267.26425860452986,511.0052,mp-1247080,MgVCrS4,https://materialsproject.org/materials/mp-1247080,19.17029373100721,9.698235956541463,-8.604250342815693,-0.5045126942092143
-5.8229526335,-116.45905267,3.139450486426845,-3.1583292068330002,4.00000055,0.18223538319504973,2.1214,15,20,255.8024939101985,483.6256448,mp-755889,LiV2F7,https://materialsproject.org/materials/mp-755889,-20.99531873344803,-51.50185006243638,9.106472984001897,2.3311889893885933
-3.450587065,-27.60469652,4.804721875203941,-0.3640451750000002,0.0,0.0,0.8034000000000003,194,8,272.78377687658514,789.2919999999998,mp-10009,GaTe,https://materialsproject.org/materials/mp-10009,58.22023914352194,15.075456708777256,5.6323997634874825,-5.5244478000446025
-5.9532340275,-23.81293611,6.765950588642644,-0.9784688843749992,0.0,0.0,0.7321,166,4,48.7048296218524,198.4503,mp-14116,CuRhO2,https://materialsproject.org/materials/mp-14116,-10.24465728805419,-22.376823291602207,6.6155379985728775,-3.618979431942
-6.578828675,-184.2072029,6.17456065902592,-0.05338190850285685,0.0,0.0,1.4131999999999998,62,28,294.6926146838344,1095.7872,mp-641541,Ge3N4,https://materialsproject.org/materials/mp-641541,22.05504111719654,-11.833901721084384,6.7102745169831755,-1.4278771125428626
-5.40018941125,-43.20151529,8.0037529076689,-0.8460604500000004,0.0,0.0,0.0,129,8,203.6723759266192,981.6953,mp-20532,PrSb2Pd,https://materialsproject.org/materials/mp-20532,3.7525433024874144,34.65373495235711,-8.604250342815693,-0.5045126942092143
-6.010331666142857,-420.72321663,5.794735564618688,-1.813810477532739,3e-07,2.6498707697415797e-09,1.3054000000000006,146,70,1319.3924291292385,4604.246000000001,mp-1222906,Lu9B5S21,https://materialsproject.org/materials/mp-1222906,53.8268456988049,1.4937399173684551,8.283742096841149,-4.775288835611808
-6.730117846376811,-464.3781313999999,3.097367142031417,-1.844445777717392,25.8750281,0.2112539738032317,0.0,1,69,1427.4252362706995,2662.545064,mp-685224,Sc22Fe7S40,https://materialsproject.org/materials/mp-685224,20.984269293988145,8.333907820078581,-6.276725908381669,-3.3727946247292535
-7.251592575833333,-174.03822182,6.121950738456805,-0.5460414258333325,0.0,0.0,0.4821000000000009,64,24,341.2047307711046,1257.928,mp-569815,Si2Ru,https://materialsproject.org/materials/mp-569815,34.35898353135108,49.442431561469505,4.505531040793218,-6.345245594965254
-5.355645750555556,-385.60649404,4.792397158351388,-1.5128490878200005,10.000000325,0.09369474967049743,2.0494000000000003,14,72,1243.8333196151787,3589.764,mp-1225925,Fe2Te4BrClO10,https://materialsproject.org/materials/mp-1225925,-18.727593487033655,-37.478309492106696,6.299009656260613,-0.4240482257646396
-7.747293623500002,-154.94587247,4.83986088360696,-2.7304463804420003,4.000000225,0.14045267856911675,0.9615999999999998,14,20,331.90012598772535,967.36686,mp-645158,LaMnO3,https://materialsproject.org/materials/mp-645158,-34.53991348928326,-25.159434065396,4.0085066294098235,1.4705229316767146
-4.59796383,-110.35113192,2.395144078376756,-1.2483996324449995,2.999999966666667,0.053075968164966805,0.0,12,24,658.7198526561654,950.1306,mp-1193047,CrCl3,https://materialsproject.org/materials/mp-1193047,19.0172102502257,0.22464677753110288,-6.527893242497583,-3.4215349537038926
-8.5476837125,-170.95367425,6.0670235718175745,-3.4889636450126678,5.00000375,0.2233464377985032,1.8230999999999995,14,20,260.896785012131,953.2247699999999,mp-1223138,La2TiMnO6,https://materialsproject.org/materials/mp-1223138,-18.06430315052197,-33.03782265664406,8.497192419971713,0.4557201231768384
-8.104311155555555,-364.694002,6.316589254375211,-3.240307920916667,5.999434566666667,0.12469110832123548,1.0085999999999995,65,45,560.7280260797842,2132.97522,mp-41732,BaLa2TiCr2O9,https://materialsproject.org/materials/mp-41732,-3.044136734340462,-35.63373217106165,5.973231007090374,-3.530260136756993