energy_per_atom,energy,density,formation_energy_per_atom,total_magnetization_uB,total_magnetization_T,band_gap,sgr,num_sites,cell_volume,weight,mp_id,formula,URL,tsne_cry_lin1_0,tsne_cry_lin1_1,tsne_cry_lin2_0,tsne_cry_lin2_1
-4.638340241666667,-55.660082900000006,6.2279557223322275,-0.7672270345019155,0.0,0.0,0.3206000000000002,11,12,402.4068215853621,1509.2520000000002,mp-9780,RbHfAgTe3,https://materialsproject.org/materials/mp-9780,55.0793797660522,20.444477847959863,5.3664727720969525,-5.6261672062620125
-5.8681015116666675,-70.41721814,7.324614433396817,-1.5367754433463543,3.9417394,0.15824769475690664,0.0,8,12,290.2872383368205,1280.4529400000001,mp-1216753,Tm4CrSe7,https://materialsproject.org/materials/mp-1216753,27.058178329763045,6.291130817702353,-5.098016832831476,-1.4548057448055718
-6.5203327025,-52.16266162,6.230202702092799,-0.08738767232421908,15.709799599999998,1.0256331936512657,0.0,187,8,178.50730966550992,669.7444,mp-1226252,Cr4Te3Se,https://materialsproject.org/materials/mp-1226252,53.96821946451081,34.0688163588547,-8.604250342815693,-0.5045126942092143
-6.11765996,-91.7648994,6.671304822783633,-0.586855599729167,2.3899999999999998e-05,7.702739309582546e-07,0.0,2,15,361.6014210914168,1452.7531399999998,mp-1220701,Nb3(IrSe5)2,https://materialsproject.org/materials/mp-1220701,50.29699667676702,24.525068723606452,2.4877033694785915,-4.755993007920703
-4.972957145,-19.89182858,10.212002054166996,-0.3774883812499992,1e-07,1.3184857538629688e-08,0.0,187,4,88.3897663544335,543.5804,mp-1227298,BiSbPd2,https://materialsproject.org/materials/mp-1227298,37.11113980155466,31.675925441714625,-8.604250342815693,-0.5045126942092143
-6.42494846,-128.4989692,5.390263781164184,-1.1723978718229175,0.2072369,0.00589257238831771,0.0,163,20,409.86382460954127,1330.4560000000001,mp-1208273,Ti2Se3,https://materialsproject.org/materials/mp-1208273,23.00965013578929,15.848897688961806,-8.604250342815693,-0.5045126942092143
-5.359744995,-53.59744995,4.549600112074332,-0.256745706584821,2.9059180000000002,0.14504700133238704,0.0,12,10,233.48125976173043,639.6997240000002,mp-1101069,CrPSe3,https://materialsproject.org/materials/mp-1101069,22.62210896905543,-0.6469202326870602,3.769773767556417,-5.379093245318208
-4.832919063333333,-57.99502876,4.993405509401412,-0.2723457967241381,6.00000005,0.1812800606125096,0.0,63,12,385.7257603610715,1159.9155999999996,mp-15121,RbFe2Te3,https://materialsproject.org/materials/mp-15121,26.458283378962427,16.297632978256814,-8.604250342815693,-0.5045126942092143
-4.847332082352942,-164.8092908,5.901100381882326,-0.1602381129411767,0.98723225,0.010071923283690146,0.0,15,34,1142.3109830165972,4059.45998,mp-28798,Nb4Te12I,https://materialsproject.org/materials/mp-28798,56.77129050002737,28.141428670767827,-3.0652674691267707,-1.8302404998392847
-5.129870566999999,-51.29870567,4.516465729857913,-0.7609811006250006,5.00000055,0.2470726989467523,0.6891000000000007,12,10,235.84285322067163,641.4640899999998,mp-554061,MnSbS2Br,https://materialsproject.org/materials/mp-554061,26.83376531035287,0.5277994027542401,5.905802359273451,-6.1082975970720845
-4.238209089,-42.38209089,3.890252280050874,-0.7427801971379309,5.0000005,0.1418843809804408,0.9609,72,10,410.6888248528469,962.14729,mp-8720,Rb2MnTe2,https://materialsproject.org/materials/mp-8720,26.700461305283962,16.545563045225336,-8.604250342815693,-0.5045126942092143
-5.427639957999999,-54.27639958,8.720156816507378,-0.26861723943750065,0.7385744000000001,0.05297743721405057,0.0,72,10,162.47282521759237,853.21,mp-12466,Fe(PdSe)2,https://materialsproject.org/materials/mp-12466,21.67456508681931,16.031298438659515,-8.604250342815693,-0.5045126942092143
-4.6466245875,-18.58649835,4.686732425701074,-0.30861154499999977,3.9999992999999994,0.4149453197141716,0.0,156,4,112.34311779803728,317.079045,mp-12681,LiMnTe2,https://materialsproject.org/materials/mp-12681,26.862237302945648,16.737432120817967,-8.604250342815693,-0.5045126942092143
-3.4304006460000003,-17.15200323,7.806534975594195,0.014346405999999944,0.0,0.0,0.0,166,5,170.3309565970941,800.7608,mp-568390,Bi2Te3,https://materialsproject.org/materials/mp-568390,58.1506971869264,28.85703502607129,-8.604250342815693,-0.5045126942092143
-5.274195119375,-84.38712191,8.637290806920992,-0.14630289624999993,1.5e-07,4.614907678806649e-09,0.0674999999999999,12,16,378.79624849526573,1970.308,mp-1224516,Ge3Te3Ir2,https://materialsproject.org/materials/mp-1224516,49.99329356215014,20.901915033870946,6.185833938163884,-6.088050377526001
-5.534658645,-132.83180748,8.280261643207496,-0.4972922266666669,7.5e-08,1.7971840172394544e-09,0.234,61,24,486.3468902224935,2425.1639999999998,mp-607818,GeTeRh,https://materialsproject.org/materials/mp-607818,50.29811244429244,21.169058930638155,4.3583864882691845,-6.1003770637586685
-5.667674019523809,-119.02115441,4.803028330051394,-1.144204814464285,14.9998332,0.3780798135696685,0.15710000000000068,12,21,462.3601192560877,1337.354135,mp-1192255,Sm2Mn3(SbS3)4,https://materialsproject.org/materials/mp-1192255,27.01255902621664,0.7971315048384758,3.354133791868246,-5.290958702251001
-5.81284326142857,-40.68990283,6.536288982289254,-0.10471972919642933,0.9950919,0.09540402528748697,0.0,1,7,121.55530568342294,478.4715,mp-675747,V(FeSe2)2,https://materialsproject.org/materials/mp-675747,21.54414966921428,15.89651548907983,-8.604250342815693,-0.5045126942092143
-5.351998516666666,-16.05599555,8.5633403619752,-0.7241485316666664,0.0,0.0,0.3956999999999997,216,3,76.2290187933538,393.11032,mp-567418,HoSbPd,https://materialsproject.org/materials/mp-567418,49.54236197999031,20.455459731578955,2.5643460279729555,-4.788648919676137
-5.4096201225,-21.63848049,5.247557618772253,0.5650450182031248,0.02577425,0.003520753285184987,0.0,67,4,85.31548638414873,269.61,mp-1066497,FeSe,https://materialsproject.org/materials/mp-1066497,22.12617660681121,17.013115032405967,-8.604250342815693,-0.5045126942092143
-8.24011379,-123.60170685,2.0662989463721533,-0.056179270865791865,7.8891789,0.28894789368852225,0.1422,216,15,318.1923243296629,395.94399689999995,mp-505752,CsMnCr(CN)6,https://materialsproject.org/materials/mp-505752,19.03241714942061,-9.919705345956055,5.791460405670676,-3.649194239343145
-6.63597084,-19.90791252,7.134300390042817,-0.115886858333333,3.0000541000000003,0.8064223044664177,0.0,216,3,43.35547840001399,186.271445,mp-1062162,MnNiGe,https://materialsproject.org/materials/mp-1062162,48.03208565113793,46.124122345446644,-8.604250342815693,-0.5045126942092143
-4.0553825625,-32.4430605,7.027610340212445,-0.5567184162500003,0.0488843,0.0021916244673687653,0.0,63,8,259.9445329451057,1100.118,mp-569701,ErTe3,https://materialsproject.org/materials/mp-569701,57.79236421060929,28.851493245662883,-8.604250342815693,-0.5045126942092143
-5.976739102857144,-41.83717372,6.4418067078166645,-0.5480792333333336,2.458724,0.1689017124513704,0.0,12,7,169.64972313171222,658.1301,mp-1025345,Ti2CrTe4,https://materialsproject.org/materials/mp-1025345,54.64759219394364,33.3742727133743,-8.604250342815693,-0.5045126942092143
-3.6682049209090914,-80.70050826,5.877378185709977,-0.31247381968363697,0.0,0.0,0.35100000000000003,15,22,673.9913789419629,2385.552,mp-1191663,Te8RuCl2,https://materialsproject.org/materials/mp-1191663,64.9983026984479,18.68737060506891,3.970936878380123,-5.1173088845864045
-3.8980055222222223,-35.082049700000006,3.1037516990474834,-1.8454349413304207,2.9999998,0.1224980048830568,1.4550999999999998,225,9,285.41029725539545,533.4669488,mp-1205772,Cs2MnCl6,https://materialsproject.org/materials/mp-1205772,22.168699596615195,-2.328203734169076,7.647420176654994,-4.207408248850782
-5.889610622307693,-76.56493809,5.354259278581378,-0.6726118668269232,7.9444756,0.3294257949049121,0.0,160,13,281.0509518635132,906.2236,mp-1216488,V3CrGaSe8,https://materialsproject.org/materials/mp-1216488,50.32268874535904,25.729472487670805,-8.604250342815693,-0.5045126942092143
-3.837547320243903,-157.33944013,7.861104033535078,-0.3218780633536591,0.0489051,0.0004190190230788476,0.0,1,41,1360.18455420164,6439.205599999998,mp-675353,Sm3(Bi7Te12)2,https://materialsproject.org/materials/mp-675353,65.68276192643215,24.07889538855972,-8.139285411520122,2.224142031335623
-3.036593405,-85.02461534,5.3907092251206885,-0.15250194285714258,0.0,0.0,0.8596999999999997,2,28,1081.6399068338105,3511.39364,mp-1192722,Te7RuI6,https://materialsproject.org/materials/mp-1192722,65.67972163213325,17.91801626144456,7.456566369614832,-6.248896801612163
-7.091445483846153,-276.56637387,7.705956805644338,-0.8132934962419875,7.692307692307693e-09,9.443604644214602e-11,0.2527999999999997,2,39,949.2842561079988,4405.28244,mp-542495,TaSe2,https://materialsproject.org/materials/mp-542495,47.76931437734388,25.756419675075502,3.1986462152812387,-5.153765928293208
-5.98369540525,-239.34781621,7.157943306079912,-1.5380859654062498,2.994967825,0.0375189306921051,0.13260000000000005,58,40,930.2916789050914,4010.1286,mp-505638,Tb3CrSe6,https://materialsproject.org/materials/mp-505638,26.60866271677247,6.321712461707048,-8.139285405397114,2.2241420300393235
-4.558374017857143,-63.81723625,9.465559646811931,-0.38377402214285744,5.5e-07,1.8474492525080682e-08,0.0,59,14,346.9505652837866,1977.72,mp-605028,Te2Pd3Pb2,https://materialsproject.org/materials/mp-605028,51.134472378849246,31.17414448956543,-8.604250342815693,-0.5045126942092143
-6.177998997,-123.55997994,6.48384510217111,-1.2039394636562506,2.983623675,0.0783679864107212,0.0,62,20,443.69321144935867,1732.4724,mp-864797,NdCrSe3,https://materialsproject.org/materials/mp-864797,26.44309017628783,6.363216096713419,-8.604250342815693,-0.5045126942092143
-5.41358632125,-173.23476228,7.828157066820032,-0.3949486058984384,4.5375e-05,7.448076392677625e-07,0.0,200,32,709.9862584314717,3347.0359999999996,mp-1196117,Sn3Ir2S3,https://materialsproject.org/materials/mp-1196117,49.72596866262175,20.845723991143466,2.4102767059272945,-4.751436130433343
-4.03922056375,-32.31376451,6.784708275729173,-0.2301948681249999,4.993809400000001,0.21759302608955533,0.37150000000000016,121,8,267.4634350894347,1092.814645,mp-569859,MnTl2SnTe4,https://materialsproject.org/materials/mp-569859,57.771441857443655,23.66867381355859,2.9082409962345555,-4.951143589676748
-3.0592842457142857,-42.82997944,3.8084705090899424,-0.8850990686699508,3.0000002,0.05436458087646591,0.5542,11,14,643.1061563398707,1474.97335,mp-27517,Rb2CoI4,https://materialsproject.org/materials/mp-27517,21.31158201798732,-1.5113380333944881,5.805965707379468,-6.394235731829128
-5.588292604285713,-39.11804823,4.540075782628191,-0.8090340541250001,3.0062417000000003,0.21735002767420614,0.0,6,7,161.1913091001999,440.71276928,mp-1221454,Na(VSe2)2,https://materialsproject.org/materials/mp-1221454,49.98475743406969,26.0082593408498,-11.319355408974404,-0.8589345541081741
-4.22000755,-12.66002265,4.756645831006097,-0.5655690858854173,0.0,0.0,0.9878,156,3,80.20019776702838,229.735,mp-1218912,SnSeS,https://materialsproject.org/materials/mp-1218912,70.25243972738994,24.6075405957328,6.5332973939067065,-6.112439894769301
-4.045829101875,-64.73326563,4.495855150667518,-0.6046931853017243,4.99948565,0.08303799596524106,0.3886000000000001,70,16,701.6586674246283,1899.7178976,mp-22235,Cs2MnSnTe4,https://materialsproject.org/materials/mp-22235,27.249516106693548,16.619603433171307,5.643410102803236,-6.752588858209804
-3.812782799090909,-41.94061079,5.9913343610374765,-0.08756263227272723,0.000535,1.833356639803865e-05,0.11219999999999963,160,11,340.0824759325854,1227.04,mp-1212511,Ge3(SbTe3)2,https://materialsproject.org/materials/mp-1212511,67.47499484074852,26.05608666451148,2.760130960332189,-4.881591658689507
-2.802946771875,-44.84714835,6.570342334430827,-0.1494451168749995,0.0,0.0,0.37049999999999983,15,16,582.090874276318,2303.18964,mp-28268,PtI3,https://materialsproject.org/materials/mp-28268,9.969624354169252,-5.985809228468607,5.883857528244901,-5.632716246517063
-6.02032122425,-240.81284897,6.7274666366249,-1.5480464591562502,3.0000001,0.03625095619754958,0.058700000000000425,58,40,964.4489180522321,3907.3444,mp-10386,Sm3CrSe6,https://materialsproject.org/materials/mp-10386,26.588669960420518,6.321413885652594,-4.377613655492871,-1.6161850668932474
-3.27028281625,-52.32452506,4.74716200584934,-0.5275150988749999,5.35e-06,1.0674518206221738e-07,0.5733000000000001,140,16,584.0942450859612,1669.8132,mp-28080,K2SnTe5,https://materialsproject.org/materials/mp-28080,75.62405630091952,15.038182880854215,6.41992259495715,-7.187528027665595
-3.1348012596428565,-87.77443527,5.478756364868997,-0.1634838217857144,4.51e-05,4.693136376311165e-07,1.0202999999999998,2,28,1119.9297848991248,3695.0787,mp-1193838,Te8IrI5,https://materialsproject.org/materials/mp-1193838,65.68158850629703,17.920018937955362,7.422589325416718,-6.2653496261149515
-5.9377214758333325,-71.25265771,6.963807738410207,-1.5639735308463536,3.9220657,0.15277225991034146,0.0,8,12,299.1904926775297,1254.7161,mp-1225384,Dy4CrSe7,https://materialsproject.org/materials/mp-1225384,27.020915310038887,6.249026523773253,-8.604250342815693,-0.5045126942092143
-5.237639884,-26.18819942,6.289699958152478,-0.02369103724137957,3.822026,0.3456442580286809,0.0,139,5,128.86699990459906,488.1154519,mp-12119,Cs(FeSb)2,https://materialsproject.org/materials/mp-12119,3.810561993323367,34.03493642974374,-8.604250342815693,-0.5045126942092143
-5.487425650909091,-60.36168216,4.537699087745252,-0.7125246418693184,8.004592,0.37725188545647054,0.0,12,11,247.2778460286238,675.72783856,mp-1221432,Na2(CrSe2)3,https://materialsproject.org/materials/mp-1221432,24.043428047124443,17.105648106188248,-5.473760823215193,-2.9979174065050174
-3.680965494130435,-169.32441273,4.612760153981762,-0.23741015152173955,0.0,0.0,1.178,2,46,2039.595501330064,5665.7294,mp-505260,Te10Mo3I10,https://materialsproject.org/materials/mp-505260,67.1806800986425,17.561995834067258,7.954146701362215,-6.208075117851223
-6.081250372857142,-42.56875261,6.3811997452121485,-0.3731268406250002,6.2557401,0.5855355923723203,0.0,12,7,124.50959647102306,478.4715,mp-1078113,V(FeSe2)2,https://materialsproject.org/materials/mp-1078113,21.64168968515011,15.662035675240107,-8.604250342815693,-0.5045126942092143
-5.727483985,-34.36490391,7.703838141997428,0.04016928333333306,2.7952931,0.2540578789833088,0.0,10,6,128.22482410722404,594.8811000000002,mp-1226216,CrFeSb4,https://materialsproject.org/materials/mp-1226216,43.633249089207574,23.768962785617013,-8.604250342815693,-0.5045126942092143
-6.62251940875,-52.98015527,5.9801052872860785,-0.14618884339843685,7.9503787,0.5372301494989775,0.0,187,8,172.46654608381257,621.1043999999998,mp-1226320,Cr2TeSe,https://materialsproject.org/materials/mp-1226320,53.994436920018074,34.228810721857556,-8.604250342815693,-0.5045126942092143
-3.0697756342857145,-42.97685888,3.5533859573023863,-0.8687899280000002,3.00000005,0.0580192620012865,0.6484999999999999,11,14,602.5963394640745,1289.49535,mp-1211977,K2CoI4,https://materialsproject.org/materials/mp-1211977,21.43112539481756,-1.3774211921568735,5.870774571720643,-6.069755524738281
-6.508704856666667,-19.52611457,4.935217672708358,-1.333197929062501,0.0,0.0,0.3357000000000001,164,3,83.82879257172085,249.144,mp-2076,ZrSe2,https://materialsproject.org/materials/mp-2076,28.866707405528263,8.486740933347127,5.0989259842492505,-5.5319354846398445
-4.4959936775,-17.98397471,4.3737076996408835,-0.3003734161249998,4.0,0.36857611520732175,0.0,156,4,126.47661410185906,333.12781428,mp-12682,NaMnTe2,https://materialsproject.org/materials/mp-12682,27.083653697638802,16.61978859968606,3.2509743344440705,-5.195307963225273
-4.3194386763235295,-293.72182999,4.6998943530433115,-0.7131124469726169,1.0,0.004572094048527222,0.13809999999999967,14,68,2548.955609588508,7214.4176,mp-505639,Rb3Ti3Te11,https://materialsproject.org/materials/mp-505639,65.10414705350385,18.576952410469467,3.721181274591116,-5.351460173648107
-4.627506108333333,-111.0601466,5.553730744562318,-0.7254292507499999,0.0,0.0,0.0009999999999994458,62,24,670.4188041915525,2242.23907712,mp-505173,NaZrCuTe3,https://materialsproject.org/materials/mp-505173,55.291251035370294,20.82867237474629,2.557460619413728,-4.805119490643424
-6.6998215908333325,-80.39785909,8.815970199248225,-0.7488182141666672,0.0,0.0,0.0,62,12,240.64637222906575,1277.616,mp-22036,ZrSbPd,https://materialsproject.org/materials/mp-22036,29.212865061033607,40.70081042204907,-8.604250342815693,-0.5045126942092143
-3.7468988957142857,-26.22829227,6.1407799237203164,-0.11159901500000048,0.0,0.0,0.44980000000000064,160,7,223.51153533456485,826.56,mp-1224350,Ge(SbTe2)2,https://materialsproject.org/materials/mp-1224350,67.35660888664336,25.957896624208484,2.8947231580292594,-4.945913500955221
-5.198275401785715,-145.55171125,5.825835616138519,-0.12678888883928607,3.27672515,0.06696516559426582,0.0,62,28,570.2542030784631,2000.68,mp-705147,Fe2GeSe4,https://materialsproject.org/materials/mp-705147,21.755357500709906,15.229350930979626,-8.604250342815693,-0.5045126942092143
-4.2215042460714285,-118.20211889,5.588009722120645,-0.2514689489285712,4.82040105,0.06705831047277222,0.0,62,28,837.7375700395029,2819.13618,mp-653120,Mn(GaTe2)2,https://materialsproject.org/materials/mp-653120,53.73067079193877,24.99535655698789,-8.604250342815693,-0.5045126942092143
-6.52860996,-130.5721992,6.586335310832096,0.008689198500000828,35.817175899999995,0.9309450599927892,0.0,5,20,448.3784337520382,1778.4409999999998,mp-1101642,Cr10Sb3Te7,https://materialsproject.org/materials/mp-1101642,53.8306350938914,34.021428895954585,-8.604250342815693,-0.5045126942092143
-4.5124874975,-36.09989998,4.900134273759386,-0.7755795070312512,0.0,0.0,0.9478,62,8,204.37625564404598,603.0999999999998,mp-2231,SnS,https://materialsproject.org/materials/mp-2231,70.18884170448672,17.864293362082503,7.043851015099571,-6.223515702633865
-4.97628862375,-39.81030899,8.090548347712767,0.34726423999999945,6.809999999999999e-05,4.2288004213303486e-06,0.0,194,8,187.67540009883967,914.4,mp-1187108,Sn3Ru,https://materialsproject.org/materials/mp-1187108,34.234485087855575,36.19271601515378,-8.604250342815693,-0.5045126942092143
-3.1357743644444445,-56.44393856,4.137562657912817,-0.7253853706666666,3.0000001,0.046455351190447636,0.22079999999999989,14,18,752.5978081568059,1875.2468399999998,mp-573568,K2TcI6,https://materialsproject.org/materials/mp-573568,9.618741315564566,-7.7792647442958085,6.373742650360647,-4.376452970657197
-6.671298780769232,-86.72688415,5.501271965027435,-1.236406081442308,0.0007216,2.5611730463205513e-05,0.0,166,13,328.34849452911783,1087.8,mp-1215359,Zr5Se8,https://materialsproject.org/materials/mp-1215359,28.832975328007482,8.501915223803135,-1.8576825912561687,-2.3399511458022397
-5.379410281428571,-37.65587197,5.018800515936189,-0.3672387063392861,6.7289937,0.4803697363374587,0.0,160,7,163.24951907223425,493.4041,mp-1226233,CrGaFeSe4,https://materialsproject.org/materials/mp-1226233,24.001286565709854,8.124382550227324,-8.604250342815693,-0.5045126942092143
-4.0098229960000005,-40.09822996,5.909624230005049,-0.15386877635937496,7.829999999999999e-05,3.251961213935373e-06,0.6168000000000005,160,10,280.60398376865714,998.63,mp-1218953,SnGe4Te4Se,https://materialsproject.org/materials/mp-1218953,68.1382418922878,26.39236343246521,5.197678294817088,-6.753692742219848
-4.730114977142857,-33.11080484,4.726731585134852,-0.5617458049107142,5.0000002,0.32508608338845474,0.8621000000000003,82,7,179.24583416873776,510.22404500000005,mp-20261,Mn(GaSe2)2,https://materialsproject.org/materials/mp-20261,39.470124660997655,2.120814823439779,5.3081829504833005,-5.798999366383881
-5.29942195,-15.89826585,8.798937460887569,-0.7048664699999995,0.0,0.0,0.3613,216,3,74.94355448882129,397.11421,mp-1018118,TmSbPd,https://materialsproject.org/materials/mp-1018118,49.521786239294116,20.447084633527524,-8.139285376546063,2.22414202393127