energy_per_atom,energy,density,formation_energy_per_atom,total_magnetization_uB,total_magnetization_T,band_gap,sgr,num_sites,cell_volume,weight,mp_id,formula,URL,tsne_cry_lin1_0,tsne_cry_lin1_1,tsne_cry_lin2_0,tsne_cry_lin2_1
-8.156424444583333,-195.75418667,3.759844983053152,-3.159794523005833,1.8333333333333333e-06,5.602951367871662e-08,1.9508,74,24,381.330909614435,863.4214992000001,mp-673845,NbO2F,https://materialsproject.org/materials/mp-673845,-1.0873819940913612,-46.00936400556344,8.383155456218871,-1.4376571969502752
-5.188541741,-51.88541741,3.0880022410523136,-0.6041230148660723,6.0000232,0.35251578053025645,0.040399999999999985,5,10,198.35894695119686,368.875924,mp-1225067,FeNi(PS3)2,https://materialsproject.org/materials/mp-1225067,20.132849279327072,3.4576711056798834,-8.604250342815693,-0.5045126942092143
-5.29329482,-21.17317928,12.05857141313971,-0.8966483274999995,0.0001902,2.5233587341778044e-05,0.0,225,4,87.84336090298702,637.904569,mp-983555,Er2PdAu,https://materialsproject.org/materials/mp-983555,-11.300991982311382,54.54149665893561,-8.604250342815693,-0.5045126942092143
-6.3610510675,-25.44420427,9.105559925361822,-0.24180761374999984,0.4186719,0.05810250120283598,0.0,225,4,83.97623751200027,460.4834,mp-1187018,Sm2NiRu,https://materialsproject.org/materials/mp-1187018,14.451859411724449,51.562855443757755,-8.604250342815693,-0.5045126942092143
-7.048650179166668,-169.1676043,7.629649214232222,-2.36924745109375,4.9999998,0.1803722806590953,1.5938,8,24,323.05585602766075,1484.339,mp-1217245,Ti3Fe(BiO3)5,https://materialsproject.org/materials/mp-1217245,8.930067311591264,-37.94375315630617,6.201023324544848,-0.5970638649469372
-8.07386772875,-64.59094183,3.9873406273243965,-3.077237807172501,0.0,0.0,1.3254,15,8,119.85809101031558,287.8071664,mp-35171,NbO2F,https://materialsproject.org/materials/mp-35171,-1.0103291406249333,-46.04904303484446,8.331529037743168,-0.6317273413005934
-3.728398235,-14.91359294,8.268691773561814,-0.5722401008333331,3e-07,5.3768882577706585e-08,0.0,216,4,65.02310005634178,323.784,mp-21026,Li2InPt,https://materialsproject.org/materials/mp-21026,32.41527576666596,36.64538575729525,-8.604250342815693,-0.5045126942092143
-3.8858671415384616,-50.51627284,6.09770530926346,-0.056361432307691826,0.0,0.0,0.2688000000000006,166,13,363.16943262323997,1333.6032,mp-568730,Ge4Te7As2,https://materialsproject.org/materials/mp-568730,68.54958966868371,26.78814194068796,6.257330713124112,-7.226342119029443
-6.011283302222222,-216.40619888,4.348508547916181,-2.2200179038688903,4.999999691666667,0.1399802837639202,0.7316000000000003,6,36,416.2751974966418,1090.1136384000001,mp-759497,FeOF,https://materialsproject.org/materials/mp-759497,-41.71047189573011,-76.98904673261237,4.340156451607337,0.5201335800399551
-3.6741301510000004,-36.74130151,3.5787398256955907,-1.1976228476000002,2.9999999,0.11407903258947613,1.2722,225,10,306.4734365173595,660.5016,mp-1111668,K2LiMoBr6,https://materialsproject.org/materials/mp-1111668,10.536932603746578,-7.662809627596926,6.871365224534722,-2.874764640551461
-4.0137053225,-16.05482129,4.588338547900985,-0.33237358703125075,0.00010675,7.130546750540129e-06,0.0,12,4,174.4706903964287,482.0908,mp-1064840,BiS,https://materialsproject.org/materials/mp-1064840,39.21978871000622,28.472482895271398,-8.604250342815693,-0.5045126942092143
-7.144553404333331,-214.33660213,7.110742489490111,-0.7233688478333326,0.06940260000000001,0.0012702813233901194,0.0,2,30,636.7269839294108,2726.58547,mp-1222877,LaYb(Mo3Se4)4,https://materialsproject.org/materials/mp-1222877,63.58591420451275,33.86189157966507,-8.604250342815693,-0.5045126942092143
-8.496532635555555,-152.93758744,7.223711760335576,-2.7485411730555542,5.0000005,0.28091404399056913,1.7999,35,18,207.4311731163825,902.37144,mp-1217946,TaFeO4,https://materialsproject.org/materials/mp-1217946,-3.761254995130645,-38.625046134246276,8.018802845789121,-0.4255583165527068
-3.244616763611111,-233.61240698,5.457959024969008,-1.1837007254222225,6.51e-05,3.4756585867607003e-07,1.634,61,72,2182.83700126232,7174.679200000001,mp-29460,Tl3PdCl5,https://materialsproject.org/materials/mp-29460,11.561883609101095,-9.910080773369991,9.105302478359134,-4.573846510714668
-5.0103737825,-40.08299026,7.339482536316463,-0.622686241666667,2.25e-06,1.3161442306023437e-07,0.0,129,8,199.23079194944143,880.5880999999998,mp-1078739,YAgSb2,https://materialsproject.org/materials/mp-1078739,3.360157666478187,33.78925429159757,-8.604250342815693,-0.5045126942092143
-6.988506081666667,-377.37932841,2.506874711250394,-2.1583113705208348,3.9999997000000005,0.07555140439965034,1.0957,70,54,617.0137532775642,931.4904,mp-776347,Li4V2C4SO16,https://materialsproject.org/materials/mp-776347,-18.107067002970844,-47.16502842055165,6.415444041665976,-0.08809456282619771
-4.9399995080000005,-24.69999754,5.1601233730108484,-0.4781351430374997,2.258423,0.2597419908942411,0.0,139,5,101.33058515192177,314.88469,mp-4668,K(CoSe)2,https://materialsproject.org/materials/mp-4668,20.798090326105932,5.108566856986664,-8.604250342815693,-0.5045126942092143
-9.402062941,-188.04125882,4.5250793549109405,-0.8786855457613327,1.75e-07,7.4769339589616e-09,0.0,2,20,272.7670655367388,743.3083999999999,mp-1246065,TiMoN3,https://materialsproject.org/materials/mp-1246065,6.615237312559682,18.907320599771484,-8.604250342815693,-0.5045126942092143
-7.067780733333334,-21.203342199999998,7.366044239246332,-0.7896287457291677,1.75e-05,2.669748203150625e-06,0.0,166,3,76.39152384450098,338.86787999999996,mp-567724,TaSe2,https://materialsproject.org/materials/mp-567724,47.37203472257388,25.849269346045517,-8.604250342815693,-0.5045126942092143
-5.568892449868422,-423.23582619,6.730182733415946,-1.834104801486219,7.8475e-05,4.162513229207614e-07,1.5853,64,76,2197.1167000968744,8904.937807600001,mp-1203743,CsLu7Se11,https://materialsproject.org/materials/mp-1203743,52.509475979787105,6.994188869178097,8.758482271087411,-6.172880743281723
-4.76977726125,-38.15821809,4.5747930305816125,-2.6969741990175002,0.0,0.0,2.645,148,8,126.73386951416587,349.1524192,mp-8255,CaPtF6,https://materialsproject.org/materials/mp-8255,-20.731491824504555,-49.68976679689461,8.927655801960665,2.3956369715781287
-5.755862202,-115.11724404,7.071730832829458,-1.8518150271562503,0.0,0.0,1.365,70,20,551.1677857957628,2347.2560000000008,mp-1189125,Lu2Se3,https://materialsproject.org/materials/mp-1189125,52.49887827577847,7.086197537764339,8.083062652399667,-6.161506172142754
-7.192026482272728,-158.22458261,5.408676069505505,0.03547445549818142,0.0,0.0,2.572,14,22,434.6827631006867,1415.8403999999996,mp-621092,Tl2Pt(CN)4,https://materialsproject.org/materials/mp-621092,34.58062400107687,-14.586968836783154,9.675477666101363,-1.2135497317308088
-6.015065466388888,-216.54235679,4.329990863996325,-2.223800068035555,4.166666366666667,0.1161534920336206,0.6611000000000002,6,36,418.0554443315748,1090.1136384000001,mp-759193,FeOF,https://materialsproject.org/materials/mp-759193,-41.89682574388009,-76.93891665994735,3.641729532496582,-0.25684350196223044
-6.4566762747,-645.66762747,6.534965623043561,-1.9597707046625,9.99994225,0.045452822494580734,0.00790000000000024,142,100,2563.976631313736,10090.3976,mp-1198305,Ce10Se14O,https://materialsproject.org/materials/mp-1198305,46.61589705225367,3.385912013205378,-8.604250342815693,-0.5045126942092143
-7.550116725,-45.30070035,9.701521591421326,-0.6397458695833329,3.57184905,0.2766629922628094,0.0,129,6,150.45944470579443,879.0432,mp-20721,NpTeAs,https://materialsproject.org/materials/mp-20721,-6.792198229145553,28.419943335092093,-8.604250342815693,-0.5045126942092143
-5.126064237857143,-71.76489933,3.7940227112131013,-1.4363446228928574,5.99999995,0.3770796390924097,0.7684000000000002,14,14,185.4366579456675,423.68825712,mp-774332,Na2Co2O3,https://materialsproject.org/materials/mp-774332,-26.448328151766766,-29.03520531916973,6.762994341993027,-1.6734857835895276
-5.21406137,-20.85624548,9.483967194358168,-0.7504102127083332,7e-07,9.85755949983668e-08,0.0,225,4,82.75725184237481,472.658,mp-862924,PmInPd2,https://materialsproject.org/materials/mp-862924,30.49124563025745,40.75149928516873,-8.604250342815693,-0.5045126942092143
-6.309385971428571,-88.3314036,5.360367693862413,-1.9117691800000003,0.0,0.0,1.5524,74,14,152.71208773902055,492.9682,mp-1222349,LiGeRhO4,https://materialsproject.org/materials/mp-1222349,-6.6460923114361625,-22.740313654719486,7.803648368644482,-1.2421283255669862
-6.256610967142858,-87.59255354,4.307104746435075,-1.2751004618452382,3.00000015,0.1195272449515665,0.3012000000000006,10,14,292.5039900313588,758.6966,mp-1246815,ZrCrAgS4,https://materialsproject.org/materials/mp-1246815,17.778949536043168,4.3569092025918446,5.479279689788543,-6.167517575434295
-6.506271273333333,-19.51881382,5.868052736575103,-0.8088919423958328,0.0003923,6.44120977086077e-05,0.0,164,3,70.97874115135679,250.82638,mp-10228,NbSe2,https://materialsproject.org/materials/mp-10228,47.93311247269699,24.424640016172685,-8.604250342815693,-0.5045126942092143
-4.645004382857144,-65.03006136,5.220633412381856,-0.29752625562500057,3.8891991000000004,0.14098876596213367,0.0,8,14,321.47935983037195,1010.71149,mp-1226347,CrGa3(CoSe4)2,https://materialsproject.org/materials/mp-1226347,24.20296239955539,8.038446712790927,-8.604250342815693,-0.5045126942092143
-8.486811882916667,-203.68348519,5.351885873883973,-1.9292224402864582,15.99999945,0.3660604939048957,0.3884999999999996,173,24,509.3831021264589,1641.73209,mp-1191699,Gd3MnGaS7,https://materialsproject.org/materials/mp-1191699,28.09893359468475,2.962285783218684,-8.604250342815693,-0.5045126942092143
-6.005495769444446,-108.09892385,4.305004917731794,-2.2142303710911118,4.999999666666667,0.2771597665433426,1.1305,6,18,210.24090438825584,545.0568192000001,mp-754879,FeOF,https://materialsproject.org/materials/mp-754879,-41.03350442229977,-77.91238908011523,4.562644480610151,1.3468213572471732
-4.3254079153125,-138.41305329,4.162487821930457,-0.779024789785157,0.00025860000000000005,3.8994295091120215e-06,0.5846999999999998,1,32,772.8671958658447,1937.3529999999998,mp-767088,Li3Sb11S18,https://materialsproject.org/materials/mp-767088,70.1775053219821,15.183419242234125,5.918908040135694,-7.0791181676630375
-7.521628071578947,-142.91093336,7.350440698531933,-2.8313647016294734,1.0000001,0.04420207940427765,1.5051999999999994,166,19,263.6542464750731,1167.075785,mp-560825,Ba2La2Mn(WO6)2,https://materialsproject.org/materials/mp-560825,-3.3402085879897068,-36.15693692891811,5.197733778262158,-4.643629218809899
-5.680338485,-22.72135394,3.1156166040835784,-1.2613696715312503,2.9999995,0.4226039375626777,1.0661999999999998,166,4,82.73038981200058,155.2244,mp-4026,KCrS2,https://materialsproject.org/materials/mp-4026,17.620529279078212,7.577549968935608,5.4553123930060545,-2.913474438643826
-6.2908509962500005,-150.98042391,4.856909723802554,-2.015240203411459,4.999999900000001,0.11250498608372232,0.4442999999999993,173,24,517.9354686913986,1514.9091672,mp-867965,Sm3MnAlS7,https://materialsproject.org/materials/mp-867965,28.094964722907648,2.9942422890526785,-4.494897401881344,-1.386319347649521
-6.65242217453125,-425.75501917,5.011014564986291,-1.935283026601564,59.99999925,0.9492555238399584,1.2220000000000004,194,64,736.6234486415518,2222.9112,mp-554293,BaFe12O19,https://materialsproject.org/materials/mp-554293,-27.53362059724673,-35.079714333131626,6.5797928875049045,-2.9921659430660386
-6.007091010555556,-216.25527638,4.345286343838988,-2.215825612202222,4.995400008333333,0.13974788210163264,0.2596000000000003,6,36,416.5838822489157,1090.1136384000001,mp-759566,FeOF,https://materialsproject.org/materials/mp-759566,-42.06167811869674,-76.88855504354309,3.1267966989287723,-0.7592983415072825
-6.9923732275,-55.93898582,4.43432780034667,-1.9897260690625,5e-08,5.405303360802095e-09,1.692,11,8,107.80213426199214,287.8764,mp-562561,MoO3,https://materialsproject.org/materials/mp-562561,-4.6393889927927585,-40.940681805123035,6.660483135722217,1.194220282854587
-6.2516979783333335,-75.02037574,5.76981404146768,-2.296228408625001,7.5e-07,4.495884377531491e-08,0.6590000000000003,12,12,194.41221894186816,675.5169999999998,mp-558831,KNdPdO3,https://materialsproject.org/materials/mp-558831,-10.327208384313149,-23.270604694494015,7.048329504810313,-3.616825950529244
-4.2619306494444436,-153.42950338,4.496293929936655,-0.914468226479167,0.0005638,5.382406066943388e-06,1.3846999999999998,62,36,1220.748051530885,3305.458,mp-1223584,KBi3S5,https://materialsproject.org/materials/mp-1223584,72.55309479607723,21.090564814964367,8.938971972733357,-4.567891357600353
-3.584712441,-35.84712441,3.097685953446172,-1.1973491556344826,2.9999999,0.0882522599546104,1.5723,225,10,396.16201523059283,739.0283999999998,mp-1114542,K2RbMoBr6,https://materialsproject.org/materials/mp-1114542,10.629239392397624,-7.81935341370373,7.216727904142594,-2.682031361661124
-6.9697412526388876,-501.82137019,2.9919592246417115,-2.431964135159722,3.0000001666666667,0.03378105832893247,2.5094000000000003,159,72,1034.9645034678838,1864.79903136,mp-29793,Na2V3O7,https://materialsproject.org/materials/mp-29793,-24.050162467980517,-54.809776903048665,7.597327589415566,2.300265731418793
-3.6872566019999997,-36.87256602,4.309633098265839,-1.2537381522413795,3.0000001,0.1069879083633232,1.2684000000000002,225,10,326.78641930596933,848.1159037999998,mp-1113013,Cs2LiMoBr6,https://materialsproject.org/materials/mp-1113013,10.457002714859069,-7.579320190274186,6.597677329997593,-2.1719318484835086
-7.842031951111113,-141.15657512,6.253951145584182,-2.424084401388891,3.99999995,0.2299686199809461,1.0734,136,18,202.7070411232536,763.4387999999999,mp-20312,V2WO6,https://materialsproject.org/materials/mp-20312,-23.26569908888349,-9.485391358837344,-8.604250342815693,-0.5045126942092143
-6.602016266666666,-118.83629280000001,3.8929757888484464,-2.5364243459722235,10.00000045,0.5025299028055296,0.7164999999999999,46,18,231.9078970610537,543.686,mp-1076319,Ca2Fe2O5,https://materialsproject.org/materials/mp-1076319,-21.217248093599874,-32.323325118239275,6.2617094890986875,-4.562873571397982
-4.696745683888889,-84.54142231,4.134200238698273,-1.0319430515182002,0.0,0.0,0.8488000000000002,194,18,458.0127288934103,1140.3022076,mp-28486,Cs2Ni3S4,https://materialsproject.org/materials/mp-28486,19.450063101427297,4.919670022800453,5.460892398069757,-6.041970445409911
-5.68438504,-79.58139056,3.217676541912293,-1.3135062630357146,5.999056200000001,0.2567349979650582,0.0,166,14,272.3173314241367,527.6775,mp-1246477,Mg2V3GaS8,https://materialsproject.org/materials/mp-1246477,22.434916548565973,11.163458644245916,-8.604250342815693,-0.5045126942092143
-8.237930603666666,-247.13791811,4.734326133036976,-3.4581853041499984,0.0,0.0,1.8943,5,30,360.83874976850143,1028.77937928,mp-694955,NaLi2La3Ti6O18,https://materialsproject.org/materials/mp-694955,5.6976383439758695,-40.965921184487705,3.461766367073376,-2.2977260090433265
-6.2718231025,-25.08729241,8.417663060953403,0.021765442499999562,1.27281515,0.2116898461544071,0.0,194,4,70.07171326855097,355.2100000000001,mp-2619,FeSb,https://materialsproject.org/materials/mp-2619,3.5813812257952784,37.563059759299826,-8.604250342815693,-0.5045126942092143
-7.373291365833333,-265.43848917,8.148672872211835,-3.2146817718055565,2.992007525,0.0700384489183978,1.9923999999999995,62,36,497.85582112136916,2443.10078,mp-21317,BaEr2CoO5,https://materialsproject.org/materials/mp-21317,-31.601843090481328,-28.40872722141945,8.136351534261921,-4.2390880024080095
-3.0761703060000003,-76.90425765,5.478186541336997,-0.2033981851448283,4e-06,4.79703578041767e-08,0.0,87,25,971.7721781549848,3205.9163557,mp-1191593,Cs3Te22,https://materialsproject.org/materials/mp-1191593,65.23769311904121,19.58541587574719,-3.2452430576559776,-2.0918733431817103
-7.437163559999999,-22.31149068,7.823728390835451,-0.21503608333333327,0.0,0.0,0.37049999999999983,216,3,48.50761257892213,228.5465,mp-567636,VFeSb,https://materialsproject.org/materials/mp-567636,47.7665066558473,42.43204532733059,-8.604250342815693,-0.5045126942092143
-2.659672415,-21.27737932,1.8985590127680625,1.1649860068749995,2.7991936,0.033258975485948424,0.0,123,8,980.8475170594777,1121.4412,mp-1207133,Sr2(BiPd)3,https://materialsproject.org/materials/mp-1207133,48.6270445927525,44.463280304246865,-8.604250342815693,-0.5045126942092143
-6.533775935416667,-156.81062245,2.20782271317262,-2.5044430563779767,4.0000008000000005,0.10062204936086776,3.2923,113,24,463.28084857730795,615.9698480000001,mp-1191511,K2FeP2O7,https://materialsproject.org/materials/mp-1191511,-18.437978029634515,-69.78357222174064,8.58515348685399,0.3538404512425839
-6.0021052,-216.0757872,4.310286073495777,-2.210839801646668,4.999999666666667,0.13874988585315448,0.3851,6,36,419.9666156106277,1090.1136384000001,mp-759247,FeOF,https://materialsproject.org/materials/mp-759247,-42.26744524959629,-76.87285537315577,2.2889463131225587,-1.6567519040998424
-3.96339999,-7.92679998,6.939599843679972,0.04599745500000019,1.47e-05,3.0155240722873054e-06,0.0,141,2,56.810938347669534,237.42,mp-84,Sn,https://materialsproject.org/materials/mp-84,34.29735568299105,35.949775620797965,-8.604250342815693,-0.5045126942092143
-5.38492082,-37.69444574,2.8619615589867955,-1.125819195178572,3.3423547,0.28199636190163563,0.0,160,7,138.12950601205395,238.06807719999998,mp-1025204,Al2FeS4,https://materialsproject.org/materials/mp-1025204,25.966873352781054,3.2388821929949647,-5.2810509146095495,-0.13531011102228774
-7.104222684500001,-142.08445369,5.205046548218017,-2.734382734083334,0.0,0.0,2.4888000000000003,62,20,205.8018907334858,645.0968,mvc-3788,TiZnO3,https://materialsproject.org/materials/mvc-3788,3.3669450338694467,-42.840828315671686,3.5279017628852847,-3.427112456208389
-4.999005719886363,-439.91250335,7.1962439427021225,-0.2610933619744322,2.5e-08,2.112937530651811e-10,0.0,29,88,1378.893673321778,5975.6832,mp-568251,Ni6Se5,https://materialsproject.org/materials/mp-568251,18.096009871573788,13.17692843314257,-8.604250342815693,-0.5045126942092143
-4.035070757333333,-60.52606136,2.2661719465191803,-1.997880820405333,2.9999995,0.12682658877370187,1.5484,225,15,275.6692333106122,376.21150000000006,mp-29250,Li6VCl8,https://materialsproject.org/materials/mp-29250,17.7542383169671,-6.373448694978437,6.289137484532285,-3.883258529553629
-7.07003289,-21.21009867,7.7797711482218554,-0.7918809023958341,0.0,0.0,0.0,164,3,72.32903557460642,338.86787999999996,mp-11324,TaSe2,https://materialsproject.org/materials/mp-11324,47.37208552653276,25.85099975286117,-8.604250342815693,-0.5045126942092143
-6.978889804318182,-307.07115139,6.995574127848745,-0.8307445935511363,2.15e-05,2.654792117997476e-07,0.0,148,44,943.8117241324117,3976.12144,mp-1220574,Nb9TlSe12,https://materialsproject.org/materials/mp-1220574,48.05647806532185,23.129602930194796,-8.604250342815693,-0.5045126942092143
-8.4640027865,-169.28005573,4.6177540641972925,-3.1369054887499987,2.999999425,0.1676877978911375,2.4843,62,20,208.49571678011534,579.8008480000001,mp-18961,ScCrO3,https://materialsproject.org/materials/mp-18961,23.4674849520422,-30.52874802820665,9.558837372016164,0.28484211223036154
-2.95655567,-11.82622268,5.746819130941853,-0.14737991500000014,0.0,0.0,1.2172,186,4,110.06103843380156,380.90094,mp-569346,CuI,https://materialsproject.org/materials/mp-569346,16.922241774343505,-11.265240806693393,6.615765935727606,-3.871275137656722
-7.19331684,-158.25297048,2.930006270452692,-2.7260348490941557,1.9999993000000003,0.08295923148590333,2.1406,4,22,280.95874286437464,495.74918656,mp-752810,NaVP2O7,https://materialsproject.org/materials/mp-752810,-15.312453911215774,-49.818096589003325,8.699651947807943,1.2591531382281334