energy_per_atom,energy,density,formation_energy_per_atom,total_magnetization_uB,total_magnetization_T,band_gap,sgr,num_sites,cell_volume,weight,mp_id,formula,URL,tsne_xrd_lin1_0,tsne_xrd_lin1_1,tsne_xrd_lin2_0,tsne_xrd_lin2_1
-5.8075622310714285,-162.61174247,4.098161481749059,-1.8670490362292864,10.9999999,0.5061052088259127,0.14570000000000016,8,28,253.29656580722104,625.12847,mp-1174806,Li4MnCo2O7,https://materialsproject.org/materials/mp-1174806,12.603080977155134,-72.01883837009849,-14.065890737965528,-80.14574695632624
-5.835973761875,-93.37558019,4.345781462130445,-1.796624120684999,16.0,1.2593546459403528,0.07699999999999996,2,16,148.06396034829623,387.49683,mp-1174103,Li4MnCo3O8,https://materialsproject.org/materials/mp-1174103,5.0554523428851414,-74.38897588798757,-26.04444617615539,-76.1961871933023
-6.104013811000001,-122.08027622,3.9318728275861967,-2.034854837019,12.0000006,0.7784388760273586,0.2725,1,20,179.65287779157643,425.38732999999996,mp-1174849,Li6Mn3CoO10,https://materialsproject.org/materials/mp-1174849,14.43263101102994,-80.74343581047377,-12.016336615499725,-85.72436404011897
-5.77358587,-184.75474784,4.125367500721042,-1.8382369066224988,26.000000399999998,1.0411784180826629,0.34079999999999977,1,32,291.0218685728858,723.001465,mp-1176099,Li9Mn2Co5O16,https://materialsproject.org/materials/mp-1176099,2.4257355914601346,-74.63085169653739,-26.20581876897511,-77.99434958039383
-5.7761389884375,-184.83644763,4.137044513576954,-1.84079002506,21.999999300000002,0.8834907778463736,0.0,2,32,290.2004449479951,723.001465,mp-1175912,Li9Mn2Co5O16,https://materialsproject.org/materials/mp-1175912,5.661306190335126,-71.19463006910306,-22.340308768058662,-76.88312116568895
-6.919335778125,-221.4187449,3.961235149626461,-2.4656775275000005,8.99999965,0.34695253458362824,1.934,2,32,302.3081500182356,721.1596000000002,mp-769611,Li4V3CrO8,https://materialsproject.org/materials/mp-769611,2.639684441627393,-66.43638635915406,-11.452282117503712,-65.40925361250787
-5.86342508,-140.72220192,4.061980767954025,-1.916026243205,18.0,0.9732347489622608,0.5975000000000001,2,24,215.5422071907637,527.2554749999998,mp-1174511,Li7Mn2(CoO4)3,https://materialsproject.org/materials/mp-1174511,13.241462461539259,-72.32793199627935,-12.295552141816072,-79.82585502946979
-5.7779972509375,-184.89591203,4.169898980997819,-1.8426482875599997,23.5841272,0.954628733811457,0.0,8,32,287.9139672401387,723.001465,mp-1100673,Li9Mn2Co5O16,https://materialsproject.org/materials/mp-1100673,12.520351623651257,-72.14165112346487,-14.294916099091004,-80.54232467606762
-5.7731695175,-184.74142456,4.137548271748232,-1.8378205541225,24.0,0.96392551260331,0.0,8,32,290.1651122253657,723.001465,mp-1100659,Li9Mn2Co5O16,https://materialsproject.org/materials/mp-1100659,1.5315321303184437,-72.22267219895566,-20.04811836961432,-74.80385251166224
-5.9548534225,-71.45824107,5.426629971447107,-1.5766865350000003,0.0,0.0,0.0,74,12,149.7498889601956,489.38159,mp-758123,CoSbO4,https://materialsproject.org/materials/mp-758123,12.834526318944564,-68.92809899077332,-10.874111952218406,-68.79924201356063
-5.714303195,-182.85770224,4.175157145276933,-1.7789542316224995,21.5514638,0.8734514280028773,0.0,8,32,287.55137036406336,723.001465,mp-1100641,Li9Mn2Co5O16,https://materialsproject.org/materials/mp-1100641,4.251677784677612,-72.97720116928227,-22.794090636718106,-74.48212149234196
-5.866952534166668,-140.80686082,4.096357059576921,-1.9195536973716676,15.999999800000003,0.8724188107449378,0.6661999999999999,1,24,213.7333947108775,527.2554749999998,mp-1174997,Li7Mn2(CoO4)3,https://materialsproject.org/materials/mp-1174997,15.614775733283961,-75.33628785654716,-10.592518692884004,-82.41073251907743
-5.859821902,-117.19643804,3.9035745245876448,-1.9027831664710009,7.00007115,0.4466310851681802,0.1402000000000001,2,20,182.65473520256097,429.38248,mp-1174010,Li3MnCoO5,https://materialsproject.org/materials/mp-1174010,13.47594636486012,-84.10452889229917,-17.177609949398185,-87.74499553556987
-5.79807576375,-185.53842444,4.177515951540107,-1.8627268003724995,26.0,1.0543398575432141,0.8054000000000001,1,32,287.38900641829605,723.001465,mp-1175903,Li9Mn2Co5O16,https://materialsproject.org/materials/mp-1175903,1.5389524061110391,-72.82329867939995,-21.159160650391165,-75.9184302250686
-6.2931345133333325,-75.51761416,4.278825794100434,-1.9792979978683327,7.0000003,0.7439954967431891,0.3996,12,12,109.649127261178,282.54049,mp-777446,Li3Mn2FeO6,https://materialsproject.org/materials/mp-777446,-1.4331104723605037,-77.29906269565865,-11.048815558516708,-63.8704284404152
-5.3310925384615375,-69.304203,2.1979514487719305,-1.963667824349231,2.0,0.19046193716053256,2.6453,160,13,122.37683755927526,161.98254959999997,mp-1187773,VH6(OF)3,https://materialsproject.org/materials/mp-1187773,28.53103923644672,-37.15344194647872,-16.879360157617445,-84.44456012067502
-5.448817653,-108.97635306,4.066366066922832,-1.7160193943749995,7.0000000999999985,0.4567526804999501,0.0,12,20,178.6053110493639,437.37278,mp-1174158,Li3Co2O5,https://materialsproject.org/materials/mp-1174158,16.206131056610392,-79.3070454809332,-12.274237131056946,-85.32592741635844
-6.492633067500001,-77.91159681,4.195480093823332,-1.4638154735733349,8.0000013,0.6610233403420086,0.0,166,12,141.04272518202444,356.355335,mp-756513,Mn3CuO8,https://materialsproject.org/materials/mp-756513,21.15811878049017,-68.85864816110147,-10.023960145286006,-71.62826866924209
-6.427456074375,-205.67859438,3.91220649649076,-2.141731365835,26.0029449,1.0155502839002863,1.0455,12,32,298.39980249727864,703.025715,mp-1100484,Li9Mn7O16,https://materialsproject.org/materials/mp-1100484,2.35818026985642,-78.57237336114612,-29.485648623658452,-78.19913061392884
-6.3733498808333335,-152.96039714,3.903750503531213,-2.145650447908333,18.0000001,0.957079510923082,0.0,2,24,219.18050138714116,515.270025,mp-1175317,Li7Mn5O12,https://materialsproject.org/materials/mp-1175317,13.290506754800784,-82.09038460008098,-16.282895466252786,-85.30240036086155
-6.3611509420833325,-152.66762261,3.8871910073596068,-2.133451509158333,17.999999300000002,0.9530195896162146,0.6951,12,24,220.11421384601945,515.270025,mp-1175359,Li7Mn5O12,https://materialsproject.org/materials/mp-1175359,12.425470278464587,-78.90721818174579,-18.347465103762463,-83.49447801296459
-5.787874152142857,-162.06047626,4.047167261925777,-1.8473609573007157,11.00000005,0.4998076501630216,0.0,8,28,256.48809704902834,625.12847,mp-1174833,Li4MnCo2O7,https://materialsproject.org/materials/mp-1174833,4.035331669695369,-72.60755338047699,-23.147572805200426,-76.54561997183512
-5.596228697857144,-156.69440354,3.766806198150936,-1.597694605357142,13.7713339,0.5671033619484938,0.0,8,28,283.00311379519474,641.9709849999998,mp-755973,Li6Fe3Co3O16,https://materialsproject.org/materials/mp-755973,10.285212718906852,-64.20277555648603,-1.969757721210664,-69.91099566552352
-5.99053991375,-95.84863862,3.9005165242806448,-2.0190413301200003,8.0000003,0.6606090266548936,0.37239999999999984,2,16,141.13116520492574,331.5094850000001,mp-1174361,Li5Mn2CoO8,https://materialsproject.org/materials/mp-1174361,20.370368089251183,-78.3776310898882,-9.312052587448058,-84.32425795272749
-6.228087610625,-99.64940177,3.794514079069583,-2.1164387289300004,10.0000001,0.8131191633834819,0.05220000000000002,12,16,143.3254240449388,327.514335,mp-1174540,Li5Mn3O8,https://materialsproject.org/materials/mp-1174540,21.560146229858127,-75.58126807056392,-15.136184945949378,-77.65704538412909
-5.827116941785714,-163.15927437,4.178657135270922,-1.886603746943571,9.9999999,0.4691327938491278,0.8125,1,28,248.4171818473848,625.12847,mp-1174608,Li4MnCo2O7,https://materialsproject.org/materials/mp-1174608,19.76557785929885,-82.31482253466453,-11.068227151312476,-80.75073019564948
-6.5286715775,-365.60560834,4.900693809242124,-1.9966437903571423,0.0,0.0,0.7397,212,56,557.8393103444712,1646.33266,mp-758062,Li2NbCo3O8,https://materialsproject.org/materials/mp-758062,21.550351047530842,-69.08444772997825,-9.120294083049997,-73.26850029209648
-5.78516965125,-185.12542884,4.190188507723453,-1.8498206878725,21.6490078,0.8805635777988104,0.0,8,32,286.5198442496731,723.001465,mp-1100672,Li9Mn2Co5O16,https://materialsproject.org/materials/mp-1100672,6.88859898860207,-71.80888686929707,-21.02233412222324,-74.69837185869685
-6.195316403125,-99.12506245,4.297459675285541,-1.9467100451800008,10.000198300000001,0.7852041583502953,0.0,166,16,148.42376659275047,384.119335,mp-773427,Li4Mn3CuO8,https://materialsproject.org/materials/mp-773427,13.419885848061053,-67.69189561415011,-13.414143104977033,-68.37194342492938
-6.4387755728125,-206.04081833,3.917187019660693,-2.1530508642725,25.9999986,1.01672793837761,0.8258000000000001,10,32,298.02040086984,703.025715,mp-1100581,Li9Mn7O16,https://materialsproject.org/materials/mp-1100581,10.787392914111516,-82.77182322992307,-19.282113476830478,-86.22426776035374
-5.7737341021875,-184.75949127,4.159671613574074,-1.83838513881,22.0000003,0.8883229717369997,0.0,8,32,288.6218601227846,723.001465,mp-1100662,Li9Mn2Co5O16,https://materialsproject.org/materials/mp-1100662,12.3227081747773,-72.21273742780785,-14.218222903410599,-80.38254554156106
-6.5802161507142864,-92.12302611,4.109219797064465,-1.966096816428572,5.0127179,0.3999990923007144,0.0,166,14,146.04667914908939,361.4115,mp-780873,Li2Cr3CuO8,https://materialsproject.org/materials/mp-780873,15.056537761690636,-68.6998390172141,-13.792039150787053,-68.8384514954324
-6.300218399375,-201.60698878,4.135981245372838,-2.159755361875,17.9999997,0.6961167125147175,1.8784,2,32,301.3476887403705,750.5806,mp-771065,Li4CrFe3O8,https://materialsproject.org/materials/mp-771065,2.4279874246339848,-65.91197781327949,-12.639516188078424,-64.75594939502487
-6.2176088145833335,-149.22261155,3.9663355288150695,-2.083342913701667,16.0013035,0.8577958734400432,0.3253000000000004,12,24,217.3946427213961,519.265175,mp-1175268,Li7Mn4CoO12,https://materialsproject.org/materials/mp-1175268,2.5469392404556013,-75.68324710084207,-17.511631171837813,-83.96201875893635
-5.952515526666668,-71.43018632,4.3940713565682845,-1.971510095208334,9.999999800000001,1.072863100491848,2.0123,12,12,108.62583058486824,287.44259500000004,mp-1222513,Li3Fe2CoO6,https://materialsproject.org/materials/mp-1222513,6.64442249317124,-71.61527854988337,-20.286528294364594,-73.67440179258948
-5.8260160825,-163.12845031,4.11619117151228,-1.8855028876578568,11.00000015,0.5083318090439278,0.9554,2,28,252.18707931611718,625.12847,mp-1174437,Li4MnCo2O7,https://materialsproject.org/materials/mp-1174437,6.857241640529411,-71.88652679204606,-21.419184587957915,-76.15920955258902
-5.7774136028125,-184.87723529,4.137067178397824,-1.8420646394349989,25.9999948,1.0441310093706837,0.02760000000000007,8,32,290.19885509198895,723.001465,mp-1100654,Li9Mn2Co5O16,https://materialsproject.org/materials/mp-1100654,1.6516326782740556,-72.18307860309201,-20.60762699888373,-74.94777563273848
-5.831632721785715,-163.28571621,4.139594752940785,-1.8911195269435723,10.999999800000001,0.5112220338744426,0.9229999999999999,1,28,250.7613163614708,625.12847,mp-1174603,Li4MnCo2O7,https://materialsproject.org/materials/mp-1174603,1.5192376502283695,-72.88821826024032,-21.100030749532053,-76.18083552433276
-5.277256119375,-84.43609791,4.767819026537978,-1.5807740087500006,1.00000015,0.08557711581897326,0.0,74,16,136.18204363561398,391.01239,mp-753536,Li2CoNiO4,https://materialsproject.org/materials/mp-753536,24.22866098954833,-68.67164684807194,-15.158800660935253,-72.164357726467
-5.4719460967857145,-153.21449071,4.196327036434636,-1.6916046711607144,11.0000001,0.5116879198535806,0.0,12,28,250.53300789326042,633.11877,mp-1174222,Li4Co3O7,https://materialsproject.org/materials/mp-1174222,21.697959870230605,-75.10572918209667,-12.68225274156976,-78.6608420579537
-5.900740563499999,-118.01481127,3.9881130775987614,-1.9437018279710003,7.00000015,0.4562990136280527,0.40299999999999997,12,20,178.78288736018476,429.38248,mp-1174064,Li3MnCoO5,https://materialsproject.org/materials/mp-1174064,18.44998933692408,-71.77180581879597,-10.798507070973363,-77.11173488124216
-5.776912068125,-184.86118618,4.149545697841754,-1.8415631047474996,23.999997399999998,0.9667204508179712,0.0,12,32,289.3261687018245,723.001465,mp-1100739,Li9Mn2Co5O16,https://materialsproject.org/materials/mp-1100739,16.696224098780508,-76.91373110488495,-14.285575951275964,-81.9772405195928
-5.756440931666668,-69.07729118,4.444532950095634,-1.8055193461216668,8.999999699999998,0.9701131395113398,1.0861999999999998,5,12,108.11788355907714,289.38404,mp-1222510,Li3MnCoNiO6,https://materialsproject.org/materials/mp-1222510,12.739997099103153,-71.82229824202425,-13.569452117622395,-78.00939754430081
-6.700992418333333,-120.61786353,4.080138238428772,-1.5783107455444438,13.9964318,0.7558873013421958,0.0,12,18,215.7931777558341,530.229025,mp-756191,Mn5CuO12,https://materialsproject.org/materials/mp-756191,21.982511916741057,-66.2186926584074,-3.1651333199752365,-71.26481080031338
-9.86249041,-59.17494246,11.986836337682664,0.4357777116666668,1.85e-05,3.7015469346737917e-06,0.0,194,6,58.245971778108675,420.4568,mp-1019054,ReC2,https://materialsproject.org/materials/mp-1019054,-17.298757960949196,-33.851881164942604,-60.093890150081215,0.13768120427506875
-5.756140231875,-184.19648742,4.094182994812847,-1.8207912684975,26.0000008,1.0333079510410343,0.07509999999999993,2,32,293.23851916994585,723.001465,mp-1175641,Li9Mn2Co5O16,https://materialsproject.org/materials/mp-1175641,10.736077906172786,-81.23795001963262,-15.187775056357804,-86.87886759479727
-6.4218883440625,-205.50042701,3.936255733682748,-2.1361636355224998,25.999422600000003,1.0216546963444244,0.4642999999999997,2,32,296.57667714317836,703.025715,mp-1100506,Li9Mn7O16,https://materialsproject.org/materials/mp-1100506,2.4205148103253187,-78.3356630186492,-28.81887339212856,-78.51866832205428
-6.90362504625,-220.91600148,4.0580678314194785,-2.4216544806250004,10.9999992,0.4318927491774188,1.6105000000000005,2,32,296.82068851367364,725.3779999999998,mp-769595,Li4VCr3O8,https://materialsproject.org/materials/mp-769595,13.723862489102487,-68.3163664356413,-11.401540185079154,-69.36966673341136
-5.765388849375,-184.49244318,4.122754899003643,-1.8300398859975,23.9999999,0.9604790933647044,0.058399999999999785,6,32,291.20628997368703,723.001465,mp-1100591,Li9Mn2Co5O16,https://materialsproject.org/materials/mp-1100591,4.221414412731646,-73.05916090353065,-23.91619910607088,-74.99170414152064
-6.8147832246428575,-381.62786058,3.974648605095523,-2.2491992875,1.999999825,0.03893262006934824,0.5696000000000003,78,56,598.678626409955,1432.9908,mp-773844,Li2V3CuO8,https://materialsproject.org/materials/mp-773844,4.124208503267095,-75.06283120186337,-6.155582004779316,-66.05310159330412
-5.8805084985,-117.61016997,3.9461708714498887,-1.923469762971,6.9999999000000015,0.4515001899159154,0.2884000000000002,1,20,180.68309618586,429.38248,mp-1174208,Li3MnCoO5,https://materialsproject.org/materials/mp-1174208,14.636674170086017,-80.70944499925245,-16.104313230646,-85.06130794318182
-6.972158922307693,-90.63806599,4.077463448597985,-1.9234750287569236,13.000001199999998,1.048853532711293,0.0,216,13,144.44615125289982,354.68838,mp-35530,LiMn4O8,https://materialsproject.org/materials/mp-35530,15.813476279537886,-68.79574269689822,-10.324332516738764,-70.60111417047034
-5.873078432500002,-140.95388238,4.081555772754127,-1.925679595705,18.000000699999998,0.9779248817939225,0.9265,1,24,214.50847398330663,527.2554749999998,mp-1174973,Li7Mn2(CoO4)3,https://materialsproject.org/materials/mp-1174973,16.423393670545842,-73.05813781223445,-10.675997931284073,-79.00222195364312
-5.864218059583332,-140.74123343,4.098007170432881,-1.9168192227883327,15.999999599999999,0.872770231053247,0.6208999999999998,1,24,213.6473324420172,527.2554749999998,mp-1174972,Li7Mn2(CoO4)3,https://materialsproject.org/materials/mp-1174972,16.530609213023556,-73.20298942661927,-11.291601166837385,-78.85761727822774
-6.338452323125,-101.41523717,4.152663241631405,-2.0188020858050004,15.999998199999999,1.2287279333596164,0.19019999999999992,10,16,151.7545180842447,379.50653000000005,mp-1174218,Li4Mn3CoO8,https://materialsproject.org/materials/mp-1174218,5.4708244197430655,-74.91107357116962,-27.062179002400626,-74.9619554092613
-4.90255908,-78.44094528,4.772278455109314,-1.3784794649999998,3.0376166000000002,0.2573157929305725,0.024900000000000144,12,16,137.57640060652682,395.3854,mp-752986,Li4CuNi3O8,https://materialsproject.org/materials/mp-752986,19.633211169354354,-83.53878721273206,-13.453311464913039,-88.2129898377267
-5.826038924166667,-139.82493418,4.029784574705464,-1.8786400873716682,15.999999599999999,0.8582405711088549,0.059299999999999915,12,24,217.2642939245049,527.2554749999998,mp-1174526,Li7Mn2(CoO4)3,https://materialsproject.org/materials/mp-1174526,1.8019870210082445,-73.96839946307392,-22.091424337766465,-73.1095781449535
-6.47136253875,-362.39630217,4.2693670946223925,-1.923025350384285,6.999997200000001,0.143509057110597,1.3219999999999998,212,56,568.4548586621057,1461.53894,mp-771112,Li2Mn3NiO8,https://materialsproject.org/materials/mp-771112,19.978702135529566,-69.13561168964225,-9.239929376385398,-71.7772046228082
-6.368148324642857,-178.30815309,3.6090981174596632,-1.9416885527057144,8.0000007,0.32304738061757904,0.0,186,28,288.603257392422,627.26467,mp-756538,Li3Mn3O8,https://materialsproject.org/materials/mp-756538,10.79239572423225,-63.826602462016794,-2.025232596835192,-67.70824155189568
-6.086616466875,-97.38586347,4.243422219766432,-1.9071165276199995,8.0000004,0.6212513151063244,0.2401,11,16,150.0721536921771,383.50167999999996,mp-1173919,Li2MnCoO4,https://materialsproject.org/materials/mp-1173919,5.183521205506884,-74.51059191792616,-26.970695298727087,-75.00712472922925
-5.8355114908333325,-140.05227578,4.051918955893453,-1.8881126540383344,15.999999599999999,0.8629546255700192,0.08950000000000014,1,24,216.07744622280796,527.2554749999998,mp-1175038,Li7Mn2(CoO4)3,https://materialsproject.org/materials/mp-1175038,14.207866490165534,-79.96076306974895,-13.802108169528143,-86.71248296768113
-6.3703953958333335,-152.8894895,3.9051387966463182,-2.142695962908333,17.9999915,0.9574194202452718,0.0,2,24,219.10258180556247,515.270025,mp-1175316,Li7Mn5O12,https://materialsproject.org/materials/mp-1175316,14.49229089425293,-82.18887443418578,-17.293024614334108,-85.53972545436342
-6.315043505499999,-126.30087011,3.835320045117725,-2.1337642930670007,7.00022745,0.4471524623612657,0.8067000000000002,12,20,182.44583445688136,421.39218000000005,mp-1174015,Li3Mn2O5,https://materialsproject.org/materials/mp-1174015,12.380543715029445,-78.62799984763092,-18.338129376669112,-83.28371939253351
-6.897963710317462,-869.1434275,4.019859467032062,-2.0736163341631744,7.000225861111112,0.06067992621623752,0.015400000000000082,70,126,1344.4493211348995,3254.66442,mp-1199729,LiMn2O4,https://materialsproject.org/materials/mp-1199729,2.5173494322564705,-67.0517273609414,-8.865383193934868,-66.20562001674882
-5.8266863075,-139.84047138,4.0504518514916885,-1.879287470705001,16.0,0.8626421915950133,0.0,8,24,216.15571111376298,527.2554749999998,mp-1175104,Li7Mn2(CoO4)3,https://materialsproject.org/materials/mp-1175104,13.287550743098793,-71.74073656104275,-13.397320172839533,-78.74920402396904
-5.7584046896875,-184.26895007,4.125582127985137,-1.823055726309999,23.9999992,0.9611377254739252,0.008899999999999686,1,32,291.00672859372514,723.001465,mp-1176207,Li9Mn2Co5O16,https://materialsproject.org/materials/mp-1176207,13.523442024517154,-82.66308373797445,-14.010366273778875,-87.81150810582216