energy_per_atom,energy,density,formation_energy_per_atom,total_magnetization_uB,total_magnetization_T,band_gap,sgr,num_sites,cell_volume,weight,mp_id,formula,URL,tsne_xrd_lin1_0,tsne_xrd_lin1_1,tsne_xrd_lin2_0,tsne_xrd_lin2_1
-6.252457852857143,-175.06881988,3.71325908164898,-2.67967918619,1.999998475,0.04532444125043538,2.5757,64,28,514.2503940398099,1149.954864,mp-1193753,HfNF5,https://materialsproject.org/materials/mp-1193753,41.091370789400905,-40.215630805361215,39.21009109299622,-53.97711868890028
-5.863542019464285,-328.35835309,5.539491722148338,-1.6550674586607133,9.99926665,0.15221448637868362,1.8538000000000008,62,56,765.5782572972983,2553.9384,mp-605856,Fe2(TeO3)3,https://materialsproject.org/materials/mp-605856,10.035612758387453,18.738057077521947,48.75596041858162,8.925398175782759
-6.560508855714287,-91.84712398,4.359708506497748,-2.2514165678571443,19.9999984,1.061818779187604,1.8199,162,14,219.51135294764737,576.3222000000002,mp-22427,BaSr(FeO2)4,https://materialsproject.org/materials/mp-22427,32.72435461602739,61.27806994421842,-20.582477386186333,74.22389021764424
-6.44873390640625,-412.71897001,6.892460524139138,-2.0433236600000013,0.00244655,2.9757976789142e-05,0.0,61,64,958.1381278484424,3976.9792,mvc-7921,MgBiWO5,https://materialsproject.org/materials/mvc-7921,7.0647225964716815,30.563937778388443,35.19054927673185,-5.400427832056781
-6.361129007250001,-254.44516029,4.607565766275234,-2.1141376957499998,1.777792625,0.04106738358206551,0.0,123,40,504.50037467146757,1399.85787712,mp-1076831,KNa(MoO3)2,https://materialsproject.org/materials/mp-1076831,-11.31915750732974,50.126146458527366,1.9188557200074456,42.21174334461108
-4.757164596875,-152.2292671,1.7455508878457608,-1.35338640082625,0.0,0.0,2.0996,15,32,502.84631960360383,528.589704,mp-698633,K3Sc(HO)6,https://materialsproject.org/materials/mp-698633,38.97437783163544,-35.93930623979771,24.521840360962905,-56.485287714951475
-6.830963922857142,-95.63349492,3.8467735921298067,-2.9632573668085866,3.48e-05,1.7552780797841187e-06,4.719799999999998,164,14,231.05253734779004,535.2519739999998,mp-1209357,Rb3Y(PO4)2,https://materialsproject.org/materials/mp-1209357,-15.573413004306099,18.254166989318676,-15.014994792691734,45.555991047331155
-5.773078328,-230.92313312,3.7914352125873214,-1.5189030236120005,5.24e-05,1.0833252909600728e-06,3.0067,7,40,563.7023331569529,1287.07656,mp-626456,As3HO6,https://materialsproject.org/materials/mp-626456,19.032744863280374,-18.265052854015728,56.792726070707225,-2.8563871718127967
-7.295039217857143,-204.2610981,5.8156891709000655,-2.6145518779496437,5.000000275,0.0976143862366717,1.646,9,28,596.9440500951008,2090.67114,mp-1223368,La2Mn(SeO)2,https://materialsproject.org/materials/mp-1223368,-8.268081751104377,36.45140978070524,-5.704645477042567,43.54965885776527
-6.19553623125,-49.56428985,7.87840694196651,-2.3085036078125,0.0,0.0,1.2218999999999998,123,8,148.82627048243177,706.1043999999998,mp-553242,NdBi2BrO4,https://materialsproject.org/materials/mp-553242,-15.531148846509106,24.673259804536066,-14.668817574400373,39.45417407208187
-8.225376951818182,-180.95829294,5.853867689221182,-3.7189803101136376,0.0,0.0,4.9176,14,22,285.18845301255766,1005.3696,mp-7624,Er2Si2O7,https://materialsproject.org/materials/mp-7624,7.115450029911625,23.971333173256888,2.945448560853939,36.698458511052266
-6.927111877857143,-193.95913258,2.569480613532681,-0.4019018142342848,0.622704675,0.011635144817862965,0.0,194,28,623.7172575182988,965.1260000000001,mp-720995,Sr2C2N3,https://materialsproject.org/materials/mp-720995,5.410029149722392,-20.906873222195074,17.286717286979314,-18.697359281787826
-6.990029842,-69.90029842,6.553740671304732,-3.14376905725,0.99999995,0.06680560931197832,0.0,167,10,174.44739012008182,688.5011,mp-548824,BaTbO3,https://materialsproject.org/materials/mp-548824,-18.517162817695226,-51.262536047803174,-24.608093097562946,-5.3997593725115225
-8.336260900000001,-150.05269619999999,6.115718288357519,-3.532944424305557,2e-07,9.120051416209335e-09,0.1966000000000001,46,18,255.5701550508055,941.257648,mp-1094091,Sm2Sc2O5,https://materialsproject.org/materials/mp-1094091,-15.211948342915568,48.28545768563284,25.327643696984858,50.871425877569884
-8.109240405,-48.65544243,3.5224599142601347,-2.3525238467455565,0.0,0.0,1.5999000000000003,109,6,76.24858075281503,161.7442064,mp-1216730,TiNF,https://materialsproject.org/materials/mp-1216730,2.440087275444756,-39.05502749931881,1.7441285096185504,-33.641096569999675
-8.159716634,-40.79858317,8.01309597081308,-3.79264280525,1e-07,1.4883295147976765e-08,1.5078999999999998,115,5,78.30298772341384,377.85884,mp-1223904,Ho2O3,https://materialsproject.org/materials/mp-1223904,24.003711914552888,61.909865040329215,-7.244685089817362,35.15307903188044
-6.733802166111111,-242.41687798,4.39692207593815,-2.574576444390317,3.9999994,0.10112596232793096,3.6327,19,36,460.97214824648967,1220.602808,mp-1195793,BaFePHO5,https://materialsproject.org/materials/mp-1195793,9.437603699312923,25.437770709841796,29.52306733083063,-11.23666684243186
-3.858018443571429,-216.04903284,3.8778017193154537,-0.8306129766071427,1.25e-08,1.2765557105202083e-10,0.3178000000000001,70,56,1141.1629626225392,2664.92,mp-1094022,Zn(GaS2)2,https://materialsproject.org/materials/mp-1094022,8.750907172725894,-4.265370104355188,3.949918875905684,-19.43782976547876
-8.902230871428571,-124.6312322,5.991926164475196,-3.6094487157142874,6.999409599999999,0.2980569611892636,0.5410000000000004,227,14,273.67779810476856,987.5450800000001,mp-1178267,La2EuO4,https://materialsproject.org/materials/mp-1178267,-6.89434625379973,-10.226846262713432,0.6661258556474307,7.752257012830482
-5.046181679230768,-131.20072366,2.034955695506476,-1.9000968510799991,1.9999997,0.0924804967334136,5.177300000000002,148,26,252.03288122563285,308.8609992,mp-40144,SiNiH12(OF)6,https://materialsproject.org/materials/mp-40144,28.456684509841736,-41.45174461328811,32.823768540266606,-53.28044448645152
-7.130185893469387,-698.75821756,3.4294719201263395,-2.2763953573883096,27.999861300000003,0.2810465738990943,2.8633,2,98,1161.060932662517,2397.911624,mp-605707,Gd4P6H16O23,https://materialsproject.org/materials/mp-605707,42.973967265129325,-33.676147013408595,47.22465630729364,-34.89968029558434
-5.762214655357143,-322.6840207,5.382106346270424,-2.2483815848214297,0.0,0.0,1.4577,29,56,1202.2361286573962,3896.664,mp-1232109,Er2MgS4,https://materialsproject.org/materials/mp-1232109,8.922998624859797,12.301378105548773,10.410381528036806,10.838194775261435
-3.311250401333333,-99.33751204,4.877756047513387,-0.0938804524895834,0.0,0.0,1.0589,166,30,872.859062451423,2563.9828199999997,mp-29450,CuSe3I,https://materialsproject.org/materials/mp-29450,5.030839296639577,-19.60906334801091,10.507798565987756,-20.331005027113896
-4.571890615,-36.57512492,6.922604134690169,0.3600002225000001,1.7e-06,7.405179398318012e-08,0.0,194,8,267.54125791809304,1115.35,mp-1183525,BaCe3,https://materialsproject.org/materials/mp-1183525,-12.733114836713884,37.54610918927392,-19.683857346041414,52.51314967578019
-7.674957895,-767.4957895,3.8749339502330584,-2.608842066,0.00053655,3.6449935778402877e-06,3.4865,167,100,1715.5005407230076,4003.1888,mp-704125,Nd2Zr3(MoO4)9,https://materialsproject.org/materials/mp-704125,22.640424852420548,-15.023922132660509,46.742343679617576,-4.598035672919253
-3.9159028922727273,-172.29972726,5.7241593669839945,-1.3874731029163403,0.00215935,1.7958885746068355e-05,0.0,31,44,1401.2676021470907,4830.4068,mp-1220016,Rb3Yb7Se12,https://materialsproject.org/materials/mp-1220016,3.853323068405552,-9.89375610371842,3.8872962403509104,3.520590748482156
-6.883263915,-523.12805754,3.590438858682872,-2.3404622382894726,18.0000008,0.23590678814995805,0.0,11,76,889.2205979930534,1922.684208,mp-31557,LiCo6P7O24,https://materialsproject.org/materials/mp-31557,6.936231934287277,31.428275094634053,30.982000935866562,-3.2958358214420214
-7.790962202083333,-186.98309285,5.240629419300294,-2.7521219303125,0.39463045,0.012508970992899493,0.0,5,24,367.6600439904251,1160.32806,mp-1223070,LaNb2CuBrO7,https://materialsproject.org/materials/mp-1223070,1.8642661363831905,10.47995474181808,8.780907816291018,28.263964001504178
-3.499930143333333,-62.99874258,5.7588644165554985,-1.17268206291,0.5631014,0.010549254420126466,0.0,140,18,622.0743123418171,2157.3968064,mp-1188272,Sr5Pb3F,https://materialsproject.org/materials/mp-1188272,4.972348292767713,27.272963708070183,33.92059632774787,-6.443193753769871
-7.302891215,-29.21156486,5.2451111092874605,-1.7026889904218754,7.000000599999999,0.7620073637633095,1.3524999999999998,166,4,107.05731240898632,338.15976928,mp-999489,NaGdSe2,https://materialsproject.org/materials/mp-999489,-32.72426597165549,-33.14114624758811,-33.32624394578273,-17.424732324188724
-6.3206672983333325,-606.78406064,2.8997634525477727,-2.1124818952313102,1.999999925,0.02168230869464996,4.3884,14,96,1074.9837113432359,1877.220832,mp-746672,NiP2H2O7,https://materialsproject.org/materials/mp-746672,46.68313585544121,-38.69550153188706,51.89282838364557,-32.715230877452306
-9.962010894,-199.24021788,6.862119774885943,-3.6585311352499996,7.000000325,0.2894369087466442,0.3448000000000002,62,20,281.8522957170532,1164.7448,mp-1106293,EuZrO3,https://materialsproject.org/materials/mp-1106293,-26.053486576428934,27.88847788735334,-23.36560559425805,57.48085929104503
-6.774434279374999,-541.95474235,3.190572821217683,-2.1227975375,0.0,0.0,2.4835000000000003,137,80,1264.1063911875485,2428.864,mp-557093,SrCr2O7,https://materialsproject.org/materials/mp-557093,13.702519259999551,-17.881511384725247,25.868144042080196,-14.302157582466952
-2.200669581,-44.01339162,6.572118186736173,-0.6480846613040001,0.0,0.0,1.2564,12,20,552.8369692498152,2188.0304,mp-28224,Hg2AsCl2,https://materialsproject.org/materials/mp-28224,6.37666523838794,-15.711127366070222,7.363619497960714,-19.352492700721665
-4.6048979315,-184.19591726,9.718056337208187,-1.12226914875,0.0,0.0,0.0,206,40,624.3847585807987,3654.1184,mp-1658,Tl2O3,https://materialsproject.org/materials/mp-1658,19.08832771407679,61.31363617334037,-6.707688817382675,35.61466078512536
-7.416993939375,-830.70332121,2.8713052929288434,-3.2054804770625003,0.0,0.0,4.7165,147,112,1688.9898843896335,2920.5008,mp-559608,K3NdSi7O17,https://materialsproject.org/materials/mp-559608,22.13388433076319,-7.323608385672974,39.890270817309386,-5.856299484276287
-7.234558747916666,-173.62940995,3.2210228540889467,-3.0948816980208336,2.99999975,0.1103603326412055,3.0599,113,24,316.80034453891244,614.5119900000001,mp-18786,Ca2CoSi2O7,https://materialsproject.org/materials/mp-18786,-9.457845922983934,38.752361226172795,-3.878320429430557,32.61028734656733
-4.407441053055555,-158.66787791,4.9202152983921605,-1.1879749672743054,0.0003674,3.8959609642234675e-06,2.0714,62,36,1099.0108568225476,3256.3944,mp-1195309,Ba2GaAsSe5,https://materialsproject.org/materials/mp-1195309,9.338642349525037,28.82121012642516,20.253401356806556,-14.082633844945152
-5.357741281666667,-32.14644769,4.270814626077479,-1.873147951420001,0.9999969000000001,0.09677162474487147,0.0,38,6,120.42815934612608,309.73456928,mp-1220687,NaW(ClO)2,https://materialsproject.org/materials/mp-1220687,5.945595866882975,-6.072710468715714,14.250035403771362,-21.864554704113136
-5.9153915525,-118.30783105,4.364637697290543,-3.6620108031484997,0.0,0.0,6.657,12,20,273.51066207323936,718.9080879999998,mp-1189018,Na5Hf2F13,https://materialsproject.org/materials/mp-1189018,24.80438543929766,-23.17472777296531,25.715246463793502,-30.95597330355187
-5.06107807375,-80.97724918,3.148916418151708,-0.0698778578256034,0.0,0.0,3.1541,59,16,546.5485909995165,1036.43202,mp-580962,RbC2I3N2,https://materialsproject.org/materials/mp-580962,24.429475285666943,-12.805308005524795,31.294000790560883,-17.784103943037763
-5.542273775500001,-332.53642653,2.0212323320035224,-1.213479666281334,0.0,0.0,3.3466,19,60,702.2112397100901,854.74176,mp-655027,SrH6(CO3)2,https://materialsproject.org/materials/mp-655027,40.099773470699255,-34.2845237622435,23.845098836228942,-51.89661813308725
-6.003341274935066,-462.25727817,5.150438412938847,-2.1876845886201304,29.9999998,0.3473228720764092,0.1110000000000002,5,77,1006.6193992806293,3122.19773,mp-1219118,Sr18Co14O45,https://materialsproject.org/materials/mp-1219118,-13.336255427143431,19.544094672086864,-12.523724518737135,26.156896971815534
-6.0722580511111115,-109.30064492,5.077307575401988,-3.5729802645711106,1.99999845,0.08953227850035356,0.2493000000000003,15,18,260.33193694748815,795.9977355199999,mp-676341,Na2UF6,https://materialsproject.org/materials/mp-676341,27.20371381508559,-17.877133934983426,11.905451938279981,-27.109124478643032
-2.3083877462903226,-143.12004027,5.556194727773456,-0.20386858911290334,4.6270273,0.022119431216665018,0.0,8,62,2437.841883473717,8157.0646,mp-685512,Ag15Bi7I40,https://materialsproject.org/materials/mp-685512,-23.691267404175225,-37.60953356976017,-33.491862320676624,-23.83710520382376
-6.153682517241379,-356.913586,5.027316866043792,-2.2343457333512937,5e-08,4.370351924502853e-10,0.5106999999999999,86,58,1333.3096480422905,4036.623,mp-561375,Pr10S19,https://materialsproject.org/materials/mp-561375,-4.260597331781401,-22.61902351338986,1.551089617477766,-19.960672154939505
-2.221982065,-8.88792826,1.8027448164181976,1.1390534689999998,5.370936799999999,0.323278839383945,0.0,139,4,193.61998909611603,210.20127999999997,mp-1184897,K3Nb,https://materialsproject.org/materials/mp-1184897,-8.483137265313815,-30.826131272555493,-10.588896696610949,-35.95832835149321
-7.7125765015,-154.25153003,6.273013891363491,-3.438556085250001,0.0,0.0,3.6286,36,20,311.5349373957647,1176.8847,mp-753821,Pr3GaO6,https://materialsproject.org/materials/mp-753821,5.011602750358646,24.376139604216412,-13.083137434778626,42.1264462971865
-6.243314446,-187.29943338,2.373175182381103,-2.9368925391657466,0.0,0.0,5.3977,40,30,388.4180571407615,555.11136528,mp-1221248,Na3B2PO5F4,https://materialsproject.org/materials/mp-1221248,18.581884636765725,-22.948249490765182,9.702823344824195,-28.916013561160103
-8.4366141090625,-269.97165149,2.3101409259618766,-0.20597743727624973,0.0,0.0,3.5983,63,32,492.1889680833625,684.7330000000001,mp-31320,Nd(C2N3)3,https://materialsproject.org/materials/mp-31320,38.29921392072222,-35.750192542975185,24.68383626049621,-56.42384569810969
-9.407415731388888,-338.66696633,7.731404825209109,-3.1243263384399995,5.00000045,0.1322583823445401,3.1393000000000004,60,36,440.579478398052,2051.32082,mp-540716,Ta2MnO6,https://materialsproject.org/materials/mp-540716,14.81652020769187,56.49365348269087,-5.228702835604667,36.12809743819131
-8.550032693823526,-290.70111159,7.020359202015673,-3.2628432922293915,5.0006698,0.11039252015002476,1.5959999999999999,167,34,527.9173777007938,2231.90755,mp-1195672,Rb2U3MnO11,https://materialsproject.org/materials/mp-1195672,20.672945355071064,-4.768077327740149,15.243268464593294,-21.723106851211337
-7.221438006800001,-180.53595017,3.3718292592292065,-2.31383746685,0.0066593,9.836693438513392e-05,2.6199,8,25,788.9634258200035,1602.04,mp-1216408,Zr2Ti3(PbO3)5,https://materialsproject.org/materials/mp-1216408,33.4852600314169,-26.61327581528641,50.65374670343197,-29.845883462194784
-8.372984728999999,-167.45969458,9.657489960497603,-4.018479611249999,0.0,0.0,5.073,62,20,268.38547949963606,1560.8968,mp-778151,ErLuO3,https://materialsproject.org/materials/mp-778151,-22.59872828094323,31.42112124480113,-21.977953668481998,57.026550781323756
-5.8072441403125,-371.66362498,6.605227844683823,-1.2463076398287498,0.0,0.0,0.1655000000000002,61,64,1022.4921371757573,4067.2296,mp-1195619,Pb2NO5,https://materialsproject.org/materials/mp-1195619,10.145937714208133,12.13266451180133,34.25189504659828,-4.511551904516638
-6.710623977222222,-120.79123159,6.623206227918095,-2.5312842754166667,2.0000002,0.0867255335097433,0.4394,12,18,268.7574343179308,1071.9627,mp-6829,Ba3Y2Cu2PtO10,https://materialsproject.org/materials/mp-6829,-2.251040376864868,29.81911091160459,5.138465031625012,32.651472588749165
-4.370715154,-21.85357577,7.0994581744443535,-0.7900047319999999,3.0799999999999996e-05,2.0280299855704108e-06,1.0667999999999995,160,5,176.99205512184787,756.7107199999998,mp-1223843,HoBiTe3,https://materialsproject.org/materials/mp-1223843,-5.922309144804203,-30.378768570912207,-6.945057941723256,-27.9870431003515
-4.877352565714285,-68.28293592,5.2659040091912015,-3.1089210272797785,4.0,0.212419574489966,4.9398,160,14,219.45368830611596,695.9318807,mp-1225987,CsBa2Ni2F9,https://materialsproject.org/materials/mp-1225987,-14.35422971495816,3.332594680410464,-2.2692741434365344,-17.606011609028585
-7.103870677727272,-156.28515491,2.4238189965848598,-2.0944358850872717,5.000000099999999,0.2252057649511643,3.8184,14,22,258.7425994216481,377.67569,mp-765989,Li2Mn(CO3)2,https://materialsproject.org/materials/mp-765989,27.87459373693543,-39.112105702775324,31.499920429177276,-50.72706811015049
-6.612676602857142,-185.15494488,4.097332770520259,-2.555119102359693,1.0002171,0.026429047176556718,0.0,15,28,441.0524069275388,1088.284248,mp-1192982,Ba2CuP2O9,https://materialsproject.org/materials/mp-1192982,18.49480308064402,-4.3084815845034266,32.88437371608272,-12.662063789090318
-3.957904992000001,-39.57904992,5.559907564482239,-2.0570920597829656,0.6418193,0.042569695114110254,0.0,225,10,175.7072413703909,588.3125881999998,mp-1113467,Rb2PdAuF6,https://materialsproject.org/materials/mp-1113467,-17.453543885636698,-49.83233993323555,-24.720472194165783,-8.162531039207039
-7.642682757777778,-137.56828964,3.163194109624777,-2.3503159870511108,4.9999998,0.2195265911225527,1.9386,15,18,265.4362791952414,505.63489000000004,mp-754274,MnV2O6,https://materialsproject.org/materials/mp-754274,70.33895305786713,6.948376333879232,63.30578912842628,-9.605304385570246
-7.092168698809522,-595.7421707000001,2.9820986080765897,-2.5425784669727878,4.001028733333333,0.04533966040915415,3.0857,14,84,1028.420759978273,1846.901544,mp-757096,LiCrPO4,https://materialsproject.org/materials/mp-757096,24.765282045119033,-4.14356055170773,57.61903557958986,9.10827223469236
-3.948765159,-39.48765159,5.6265808735742056,-2.1558371947829658,2e-07,1.4479615799926165e-08,0.0,225,10,160.97201657269275,545.4385882,mp-1111034,Rb2CuAuF6,https://materialsproject.org/materials/mp-1111034,-23.178299672153653,9.806861201581793,-20.071054187491946,45.07724453892316
-6.613775864999999,-66.13775865,8.183039107112831,-2.29164403675,0.0,0.0,3.0987000000000013,44,10,137.40267079541857,677.112312,mp-1219286,ScSb(PbO3)2,https://materialsproject.org/materials/mp-1219286,-27.49289168371709,29.626559965359768,-23.52569458677238,58.27675183262949
-4.36995543,-34.95964344,5.400401098440046,-1.1607588463749998,0.0003661,2.588130255164296e-05,1.4151,63,8,164.85078773453233,536.127338,mp-997002,KAuO2,https://materialsproject.org/materials/mp-997002,-3.445390099299844,-17.130338345174508,-6.358880196076921,-26.192424418344565
-7.081177853333332,-84.97413424,3.981948836597269,-2.1130783508333337,2.9999993,0.2469384000268818,0.6875,8,12,141.5826220467442,339.5131,mp-755704,V3NiO8,https://materialsproject.org/materials/mp-755704,20.179519932001345,1.2654441632151594,54.41633229487841,-6.450093688260286
-6.111104733333334,-238.33308459999998,4.943809687659264,-1.586874884102564,9.000000266666666,0.22895262680843526,1.6707000000000003,82,39,458.1147965974048,1363.913955,mp-863435,Co3(AsO4)2,https://materialsproject.org/materials/mp-863435,-11.736047182083988,39.52002043414204,-8.005045942202432,70.58414153028974
-5.3863217205555545,-193.90758194,3.001762100126459,-2.874893004842222,4.000000033333333,0.1018673958384303,1.6022,144,36,457.6170726170781,827.2359468,mp-759679,LiMnF4,https://materialsproject.org/materials/mp-759679,30.88670986535032,-34.91141108951346,6.369088137465432,-41.83815515746417