energy_per_atom,energy,density,formation_energy_per_atom,total_magnetization_uB,total_magnetization_T,band_gap,sgr,num_sites,cell_volume,weight,mp_id,formula,URL,tsne_xrd_lin1_0,tsne_xrd_lin1_1,tsne_xrd_lin2_0,tsne_xrd_lin2_1
-5.674984105625,-90.79974569,4.397099920102781,-1.736993080685,11.934211999999999,0.9510188040538944,0.0,10,16,146.24535189482685,387.257035,mp-1222625,Li4MnCo2NiO8,https://materialsproject.org/materials/mp-1222625,4.20626741555906,-69.918472777904,-22.22715629938485,-74.6336793539574
-6.485800888125,-103.77281421,4.092147996274519,-2.3960476770833337,0.9999998999999999,0.07586055111594947,0.0,74,16,153.62482127687812,378.5852,mp-754664,Li2TiCuO4,https://materialsproject.org/materials/mp-754664,6.0781337393788855,-77.57468629753113,-20.768745419233387,-64.80438448757684
-6.984236604117648,-474.92808908,3.0957825692567784,-2.2057996802941187,1.0000001,0.01770902952168322,0.10409999999999986,26,68,658.0860867444343,1226.8856,mp-758380,Li3V2(CO5)2,https://materialsproject.org/materials/mp-758380,17.17437822189212,-50.66394263531846,1.011660560410848,-43.75159257081304
-5.917117590833333,-71.00541109,4.314180609732904,-1.8310511836216663,11.999986900000001,1.254507123278987,0.1554000000000002,12,12,111.4769474061943,289.623835,mp-1173976,Li3Mn(CoO3)2,https://materialsproject.org/materials/mp-1173976,4.505177428429634,-76.42311760665329,-26.44239533853807,-75.99572616676755
-5.84232311875,-93.4771699,4.369803833974943,-1.80297347756,14.0000003,1.1080265563945135,0.6206999999999998,2,16,147.24999989437347,387.49683,mp-1174105,Li4MnCo3O8,https://materialsproject.org/materials/mp-1174105,4.427192098957191,-76.62288953356497,-27.340289345259787,-77.39530922918014
-6.1956109125,-24.78244365,7.780003139355407,0.30804735250000004,3.4654528,0.5477869613688214,0.0,225,4,73.72685778524091,345.4271,mp-631355,SrCrRh2,https://materialsproject.org/materials/mp-631355,-81.30567940613382,-2.420201540339709,-86.09133657131319,3.1523918509743787
-5.116413160625,-81.86261057,5.032866607717258,-1.56119415625,3.0,0.2235574954218144,0.0,166,16,156.39016822813954,473.9972,mp-756554,Li4Cu3TeO8,https://materialsproject.org/materials/mp-756554,1.945127077074802,-61.710362440460756,-10.629859692605834,-62.23870798106427
-6.33707156,-50.69657248,4.119478275917158,-2.096217054495,8.9999999,1.3791996547212833,0.21750000000000025,10,8,76.04887474310371,188.662645,mp-754607,Li2MnFeO4,https://materialsproject.org/materials/mp-754607,2.6488425131708766,-63.60242767678315,-11.516983334958176,-63.500627128642435
-6.967097223636364,-153.27613892,3.8291856056970337,-2.2356837665909093,7.9999996,0.4043251713769258,0.0,64,22,230.5879527642297,531.7334,mp-753941,Li2Cr3O6,https://materialsproject.org/materials/mp-753941,6.492198250850014,-58.03997844413565,-5.959046858634753,-62.640548963979704
-5.79947344,-185.58315008,4.165018856470529,-1.8641244766224991,25.999999399999997,1.0511857614423374,0.8188,2,32,288.25131409538636,723.001465,mp-1175422,Li9Mn2Co5O16,https://materialsproject.org/materials/mp-1175422,-2.2896753391418665,-76.0925368971952,-19.865308648639928,-76.88883379703654
-6.433859805,-12.86771961,7.3276602097335966,-0.1104526899999998,0.5309749,0.1764334265542476,0.0,221,2,35.072809036561964,154.77,mp-2210,ZrCu,https://materialsproject.org/materials/mp-2210,-46.735377823785775,-64.6704648811473,-49.84354824673542,-36.48215736821963
-6.815023947857143,-381.64134108,3.995958457873241,-2.2494400107142862,2.00002385,0.039141825286453394,0.5213999999999999,96,56,595.4859622407804,1432.9908,mp-1177841,Li2V3CuO8,https://materialsproject.org/materials/mp-1177841,10.830688479367332,-70.02690900009952,-20.271825380179482,-64.91166470169236
-6.838707892857142,-95.7419105,3.928915353181999,-2.108335801428572,11.9999991,0.9354794907594576,0.3868999999999998,12,14,149.49420929423422,353.7105,mp-756058,Li2Cr3FeO8,https://materialsproject.org/materials/mp-756058,5.167021508271108,-64.85093204886923,-7.564666966289841,-65.75958553886588
-6.353864797916668,-152.49275515,3.870386346118853,-2.126165364991666,18.000001100000002,0.9488996988072559,0.3655000000000004,2,24,221.0699181264632,515.270025,mp-1175351,Li7Mn5O12,https://materialsproject.org/materials/mp-1175351,3.4280730679570435,-78.8246399417681,-28.84835660037755,-77.31126986090419
-5.485742706428572,-153.60079578,4.175903745575652,-1.7054012808035712,11.00000135,0.5091976210013014,0.5091999999999999,2,28,251.75830157858573,633.11877,mp-1174339,Li4Co3O7,https://materialsproject.org/materials/mp-1174339,15.850162139356112,-76.21400840534417,-12.54742451257607,-86.9104923877215
-5.253046845,-84.04874952,5.0820705024295085,-1.6362696474999998,4.0,0.3047455039599645,0.0,166,16,152.96783212382655,468.1572000000001,mp-756948,Li4Cu3SbO8,https://materialsproject.org/materials/mp-756948,2.5673361190771917,-64.60640313054469,-26.26226174420331,-76.16068898239554
-5.795915076875,-185.46928246,4.1720010451944365,-1.860566113497499,24.0000003,0.9719519948078149,0.6896,1,32,287.76890168629865,723.001465,mp-1176232,Li9Mn2Co5O16,https://materialsproject.org/materials/mp-1176232,-2.273976241528468,-76.24980577605112,-19.32848061274897,-76.18283387796951
-5.7652253842857135,-80.71315538,4.072647721724795,-1.5922242471428578,13.9999986,1.0870781101628522,0.0,2,14,150.0875502641691,368.1056,mp-767972,Li2Fe3NiO8,https://materialsproject.org/materials/mp-767972,5.096852192461789,-65.14173313993354,-8.075491821635513,-65.75272681928111
-5.79645370875,-185.48651868,4.1662041783854376,-1.861104745372499,26.0000001,1.0514849465051217,0.8378000000000001,1,32,288.16930404859835,723.001465,mp-1175847,Li9Mn2Co5O16,https://materialsproject.org/materials/mp-1175847,-2.244874485177959,-76.1508979661395,-20.229153274696245,-77.04835763494319
-5.789559156875,-185.26589302,4.144167327836552,-1.8542101934974988,26.0000008,1.0459232173362425,0.7486000000000002,2,32,289.7016610659995,723.001465,mp-1175941,Li9Mn2Co5O16,https://materialsproject.org/materials/mp-1175941,4.620823057088729,-70.24382464402886,-20.694971075172415,-74.22594865110078
-5.831066613125,-93.29706581,4.362516751115353,-1.791716971935,15.9218984,1.2580333054726114,0.0,12,16,147.49596409612246,387.49683,mp-1174140,Li4MnCo3O8,https://materialsproject.org/materials/mp-1174140,3.9024632036707456,-73.04710590815606,-26.377083613968416,-76.01750927889258
-6.269791244166666,-75.23749493,4.1425784263234355,-1.9968577728683323,12.0000001,1.2214579074646077,0.6229,2,12,114.49332603397549,285.628685,mp-1173956,Li3Mn2CoO6,https://materialsproject.org/materials/mp-1173956,5.335932686332534,-78.33455995098811,-29.74257244820645,-76.48837151261138
-6.08760880125,-48.70087041,4.216892087974192,-1.9081088619949995,8.0000183,1.2347371915064362,0.005700000000000038,12,8,75.50815840909,191.75083999999998,mp-1173901,Li2MnCoO4,https://materialsproject.org/materials/mp-1173901,4.8529266710356165,-78.67508774817121,-29.226800726392174,-76.54206119950642
-5.401744788125,-86.42791661,4.005115137529233,-1.710546800625,9.943707400000001,0.8232887395053362,0.0,10,16,140.75816242623347,339.49978500000003,mp-1174048,Li5Co3O8,https://materialsproject.org/materials/mp-1174048,18.007015525656566,-74.45140516246343,-14.087575389056498,-76.9850310975958
-4.411115186,-22.05557593,2.9569400015647997,-1.2682804748500005,2.99999,0.2774101361150081,0.0,221,5,126.03028233451735,224.4235,mp-973447,KBaO3,https://materialsproject.org/materials/mp-973447,-0.5866828106086703,-33.61120030437476,-6.218787817076278,-35.723766349550345
-5.884765565,-129.46484243,4.499672715556988,-1.696013362500001,3.0013657000000005,0.1673364153777374,0.1524000000000001,12,22,209.0286815035509,566.418875,mp-771079,Li4CrCo5O12,https://materialsproject.org/materials/mp-771079,9.378821719800856,-65.3031074882538,-2.838438927747456,-68.67781701128435
-5.914582863571428,-82.80416009,4.383651443938992,-1.6422558629942858,4.0000005,0.3333751190547227,0.19600000000000015,74,14,139.83126590085809,369.14009,mp-756366,LiMnNiO4,https://materialsproject.org/materials/mp-756366,20.329950763731265,-67.33686228729552,-16.07606265162198,-68.89397023324376
-6.1273112485,-122.54622497,3.958206981142975,-2.058152274519,11.9999994,0.7836524782145511,0.4676999999999998,5,20,178.45763800416282,425.38732999999996,mp-1174826,Li6Mn3CoO10,https://materialsproject.org/materials/mp-1174826,18.496606926249992,-77.74669826084028,-9.564054988054787,-88.96802715841444
-6.1629366675,-147.91048002,3.8952943948548246,-2.028670766618333,16.000803599999998,0.8424055517042127,0.0,6,24,221.3594167205603,519.265175,mp-1175298,Li7Mn4CoO12,https://materialsproject.org/materials/mp-1175298,0.6271818125464491,-80.58704527560404,-24.5361060637148,-75.26812719029823
-5.961567915625,-95.38508665,3.8256573966785683,-1.9900693319950005,8.0009223,0.6480052220120125,0.0,10,16,143.8927705472854,331.5094850000001,mp-1174343,Li5Mn2CoO8,https://materialsproject.org/materials/mp-1174343,6.777013347075886,-72.18916647916512,-23.0317360633028,-73.65040808969631
-6.59283641875,-105.4853827,4.29634930099038,-2.38377439625,8.9999994,0.7113927616812551,3.0909000000000004,12,16,147.43835137247797,381.4705,mp-768728,Li4Cr3GaO8,https://materialsproject.org/materials/mp-768728,13.599720548287683,-67.74481118287146,-12.948040547567313,-68.57519827184788
-6.1553046453333335,-184.65913936,3.371232642096861,-2.640882785948334,2.00002314,0.08171388876579024,0.9470999999999998,8,30,285.24403344681303,579.103516,mp-1177758,Li2VO2F,https://materialsproject.org/materials/mp-1177758,12.076211099190035,-61.96992275654743,-0.588261409125647,-75.41463859242205
-6.270876296,-94.06314444,4.099090161352469,-1.9912675493973324,17.9999983,1.394676757272081,0.33030000000000026,12,15,150.4098673763448,371.291245,mp-753888,Li3MnFe3O8,https://materialsproject.org/materials/mp-753888,4.823521416145364,-65.37764061036526,-8.611216015967955,-65.80411603635079
-6.4552294125,-51.6418353,4.249144566645096,-2.3654762014583333,1.0,0.15754194673542954,0.0,10,8,73.97436056906878,189.2926,mp-1177887,Li2TiCuO4,https://materialsproject.org/materials/mp-1177887,4.8689823340980265,-74.6204455719469,-27.008062459852056,-75.51084588782126
-6.4406355084375,-206.10033627,3.8958187239157422,-2.1549107998975003,25.999999399999997,1.0111817080613623,0.8110000000000004,2,32,299.6550221176722,703.025715,mp-1100549,Li9Mn7O16,https://materialsproject.org/materials/mp-1100549,0.6817266999533077,-80.6359823996089,-29.017306968442803,-79.0358043989942
-5.7874651509375,-185.19888483,4.157159671734477,-1.8521161875599992,24.0000002,0.9684943927555871,0.20319999999999985,1,32,288.79625836185,723.001465,mp-1176036,Li9Mn2Co5O16,https://materialsproject.org/materials/mp-1176036,15.957011740030424,-76.08989551439052,-12.073234956551618,-82.39358436945186
-6.3311976825,-75.97437219,4.074092932173665,-2.170091334375,10.000000199999999,1.0231840567213606,0.0,12,12,113.89998631316332,279.4509,mp-756960,Li3V(FeO3)2,https://materialsproject.org/materials/mp-756960,2.9891248702303894,-64.37975646178808,-11.141659471739802,-64.29376141220796
-4.798285556222222,-215.92285003,4.451242645292086,-1.1025068097222228,4.0000001,0.10533946614200757,0.6459000000000001,1,45,442.53366722783767,1186.2562,mp-759215,Li6Mg(Ni6O13)2,https://materialsproject.org/materials/mp-759215,8.923747499214663,-66.90466991149229,-3.943701593086208,-69.9662440927542
-6.711989984523809,-281.90357935,3.7392845655711353,-1.9690099118695228,7.000000066666666,0.15552440033170994,0.5834000000000001,9,42,524.5379761044635,1181.18075568,mp-1003767,NaMn2O4,https://materialsproject.org/materials/mp-1003767,9.929688774341212,-53.374199750184154,-4.2458102879262976,-58.608307644683286
-6.155511182083334,-147.73226837,3.890452911803053,-2.021245281201667,16.006604,0.8416635193416148,0.0,1,24,221.63488795455243,519.265175,mp-1175273,Li7Mn4CoO12,https://materialsproject.org/materials/mp-1175273,3.5576256160152697,-78.11520022764357,-28.544999273825265,-77.88751527500034
-7.942019675,-31.7680787,11.664599128582756,0.15885563999999966,0.0367504,0.006460180643768207,0.0,221,4,66.29714641658322,465.71,mp-1183778,DyRu3,https://materialsproject.org/materials/mp-1183778,-50.322383436848796,-41.120962207515795,-65.11383507489599,-25.74051568546241
-4.3771412822222215,-39.39427154,2.507518150903631,-0.8409801135444445,4.9999995,0.4560454595126409,0.0,225,9,127.77304722655815,192.9453192,mp-1207847,V(NF3)2,https://materialsproject.org/materials/mp-1207847,26.9934190714796,-69.57792043547495,0.2649865914804712,-37.805386486152116
-4.85542897,-38.84343176,4.638660507652496,-1.3616640918750005,1.00000015,0.16672221494598125,0.3414000000000001,36,8,69.90110180845053,195.2664,mp-1176588,LiNiO2,https://materialsproject.org/materials/mp-1176588,9.563294157345897,-66.02026051158789,-2.5783733115592145,-68.05269271652479
-5.3642948625,-64.37153835,3.809047899094997,-1.7424306602083337,3.0,0.3319104616637985,0.0,12,12,105.33622273435077,241.62679,mp-1173890,Li2CoO3,https://materialsproject.org/materials/mp-1173890,17.97607392511106,-72.49004796013337,-14.470408671781358,-76.18935620330521
-5.57651239875,-44.61209919,8.990845224798623,0.09319662728499978,1.235e-05,2.0851658214621267e-06,0.0,11,8,69.0245823424199,373.72764,mp-1079923,H3W,https://materialsproject.org/materials/mp-1079923,5.346634300630517,-65.4588296782225,-8.927580666962779,-61.850053322082175
-6.3967732121428575,-179.10964994,3.8890716502406297,-2.135916478866428,11.00092135,0.4929247345809133,0.6097999999999999,2,28,260.09133033207524,609.14787,mp-1174330,Li4Mn3O7,https://materialsproject.org/materials/mp-1174330,3.630877399488412,-78.25597223642295,-28.690988074448427,-77.3684870373544
-7.615190506666668,-91.38228608,3.7451750314797283,-2.3318452658333317,0.0,0.0,0.0,227,12,147.09657624188128,331.7612,mp-25283,VO2,https://materialsproject.org/materials/mp-25283,14.223166533941855,-68.84504832169847,-7.677130657894895,-67.04217694657461
-6.941456637857143,-97.18039293,3.9990931813710575,-2.2596199435714293,4.9999996,0.4003261382309526,0.0,166,14,145.55711864998372,350.5467,mp-756321,Li2V3FeO8,https://materialsproject.org/materials/mp-756321,15.219509894336483,-68.40430154497535,-13.195085414313088,-69.25329698545796
-6.314204530625,-101.02727249,4.0990085901815965,-2.187897650625,12.9999994,0.9993216200165472,1.1007000000000002,166,16,151.60568131041583,374.2357,mp-760357,Li4VFe3O8,https://materialsproject.org/materials/mp-760357,3.2601692355504825,-64.87512163834225,-9.88347094282923,-65.11515823275802
-6.484373805454546,-285.31244744,3.801624614168998,-2.045790119536364,15.999642199999998,0.4257002308582379,0.1452,1,44,438.009784868246,1002.77605,mp-758791,Li5Mn5O12,https://materialsproject.org/materials/mp-758791,6.555171118130216,-66.41017486257724,-16.916293371473856,-75.38066004677006
-4.404740268333334,-52.85688322,4.584178413632504,-0.3823779808333339,0.99999995,0.08868698659335505,0.0,160,12,131.40669942132914,362.7688,mvc-13696,NiO2,https://materialsproject.org/materials/mvc-13696,-21.422120559470233,2.3612008787623484,-9.468214048351454,9.03826017968303
-5.417395665,-86.67833064,3.96722463773566,-1.7261976775,9.9999999,0.8201166357958698,0.3363999999999998,2,16,142.10252721808936,339.49978500000003,mp-1174104,Li5Co3O8,https://materialsproject.org/materials/mp-1174104,16.592963929270717,-80.50096678502204,-16.94941032402204,-88.43032829573579
-6.0845269885,-121.69053977,3.8487467456805047,-2.0153680145189994,14.0000008,0.8889783446372727,0.0,1,20,183.53306030830254,425.38732999999996,mp-1174830,Li6Mn3CoO10,https://materialsproject.org/materials/mp-1174830,2.1465855571669823,-78.04421144695978,-27.845372766502567,-79.4364820253145
-4.2747076475,-34.19766118,2.2281283368705016,1.41460862,1.9829069,0.03772396898987978,0.0,123,8,612.5793777625834,821.9653,mp-1207266,Nd2(AsRh)3,https://materialsproject.org/materials/mp-1207266,35.938605098817945,-37.693867832172934,33.5515035880145,-62.360171170847714
-7.126866497499999,-399.10452386,3.943813029698689,-2.2610034782142856,5.00000005,0.09889137010899368,0.7282000000000002,95,56,589.2356874141668,1399.4464,mp-772941,LiCr2O4,https://materialsproject.org/materials/mp-772941,14.245477244245453,-68.82854274174889,-7.745479978196283,-66.93813940098094
-6.2116077958333324,-149.0785871,3.969813536957553,-2.0773418949516658,16.0000021,0.8584782327178659,0.4871999999999996,1,24,217.20418029023202,519.265175,mp-1175199,Li7Mn4CoO12,https://materialsproject.org/materials/mp-1175199,13.521022856434953,-81.59929191379051,-13.459038712418284,-88.41503759053606
-6.6894831360000016,-100.34224704,4.271101666015413,-2.2342250519999998,14.000001000000001,1.0254097880248614,0.8336000000000001,2,15,159.11386879207814,409.25958,mp-763729,Li3NbFe3O8,https://materialsproject.org/materials/mp-763729,2.726176537990185,-60.67442390161394,-9.391391904479946,-61.462540896855565
-7.101585193636364,-156.23487426,3.6876943296683526,-2.6849535905303044,2.0,0.0979211621275174,2.8459000000000003,64,22,238.02954375445907,528.6116,mp-849444,Li2Ti2NiO6,https://materialsproject.org/materials/mp-849444,6.37043001545499,-57.18917726486478,-5.7854901261205445,-62.29827570605972
-7.060350177999999,-317.71575801,3.8806070167117777,-2.402512567303111,11.999999266666668,0.3013564309232226,1.1448999999999998,2,45,464.0643250783382,1084.4980050000001,mp-759205,Li3TiMn3O8,https://materialsproject.org/materials/mp-759205,5.409549749662924,-78.30782358762913,-28.723276839775444,-75.94645637218278
-5.918984879166668,-71.02781855,4.331700901449533,-1.832918471955001,11.9999995,1.2596031168436024,0.04460000000000042,2,12,111.02606017213287,289.623835,mp-1173944,Li3Mn(CoO3)2,https://materialsproject.org/materials/mp-1173944,4.934117721651155,-74.7398846702671,-27.274108294393386,-75.93494997817005
-6.5207946295454535,-143.45748185,3.861304026576208,-1.98824321722,11.99999945,0.5899771014327164,0.0,64,22,237.0410148484884,551.19898,mp-754476,Li2Mn2FeO6,https://materialsproject.org/materials/mp-754476,6.404851240790914,-57.47587673542922,-5.864067241610472,-62.556869673205576
-5.79483225375,-185.43463212,4.174302738346852,-1.8594832903724996,25.9999995,1.053528872398712,0.7591999999999999,12,32,287.61022711188315,723.001465,mp-1176293,Li9Mn2Co5O16,https://materialsproject.org/materials/mp-1176293,-2.306371526369668,-75.80000034453818,-19.715921453126377,-76.57373996059948
-5.811446890357144,-162.72051293,4.070236922021151,-1.870933695515001,10.5193648,0.4806935165596029,0.0,12,28,255.0343504168808,625.12847,mp-1174579,Li4MnCo2O7,https://materialsproject.org/materials/mp-1174579,4.206547662533167,-72.78931173797898,-22.313612197304764,-74.96968404604904
-6.927865927999999,-103.91798892,4.067880489911948,-2.268882583397333,11.9999996,0.9523213847813524,0.5121000000000002,12,15,146.85039614142332,359.744545,mp-755519,Li3MnCr3O8,https://materialsproject.org/materials/mp-755519,3.568051214316675,-67.49879109223289,-8.690652668550191,-66.41893489978514
-6.14839762875,-147.56154309,3.8629238289374954,-2.0141317278683317,18.0000017,0.9397835320144794,0.0,2,24,223.21436647046139,519.265175,mp-1175210,Li7Mn4CoO12,https://materialsproject.org/materials/mp-1175210,12.82703475137456,-83.98047074538044,-17.063521346742064,-87.2566956081508
-5.8890189125,-23.55607565,5.775850973759109,-1.6083751704999996,3.3100000000000005e-05,8.889981451321695e-06,0.0,166,4,43.39149030669525,150.92856928,mp-578610,NaMoO2,https://materialsproject.org/materials/mp-578610,1.8637280649961567,-56.33850603316039,-22.923353049768423,-49.63133819003502
-8.79717358125,-70.37738865,6.294947178075717,-0.4972098059374997,1.6e-06,1.5721879039461296e-07,0.0,194,8,118.60225860594349,449.6099972,mp-996162,Nb2AlC,https://materialsproject.org/materials/mp-996162,-73.09568006393107,4.4605858643650445,-54.740813530047475,-36.12983810056119