energy_per_atom,energy,density,formation_energy_per_atom,total_magnetization_uB,total_magnetization_T,band_gap,sgr,num_sites,cell_volume,weight,mp_id,formula,URL,tsne_xrd_lin1_0,tsne_xrd_lin1_1,tsne_xrd_lin2_0,tsne_xrd_lin2_1
-5.577515724285715,-39.04261007,16.390499341502533,-0.3477052667346945,0.0001615,1.6604994733142654e-05,0.0,123,7,113.3473085066242,1118.804762,mp-1025187,CdPPt5,https://materialsproject.org/materials/mp-1025187,-51.68512192858707,-31.86613970477665,-59.47128689206623,-24.596675353699194
-8.179648823809524,-171.77262530000002,7.718267496333638,-0.7114921954761894,15.0978014,0.6670662468667069,0.0,174,21,263.76803842992354,1226.0068740000004,mp-865350,Lu2Mn12P7,https://materialsproject.org/materials/mp-865350,-62.96911553707468,-29.568032228263487,-65.13226810772098,-17.547330690455567
-10.374025473333333,-62.24415284,12.321581823115109,-0.8398530228566656,0.8979971,0.1703290606409384,0.0,71,6,61.441754739856975,455.91195999999997,mp-1246837,Ta2CrN3,https://materialsproject.org/materials/mp-1246837,-39.43528853557642,-12.99801388001972,-56.70587719737921,2.889312996739516
-4.33824174625,-34.70593397,12.472207331651942,0.8942277343750007,0.403619,0.03465002499290268,0.0,194,8,135.75176267258811,1019.6232,mp-974525,ReAg3,https://materialsproject.org/materials/mp-974525,-49.63290107367496,-34.361940738654496,-58.7148237787941,-27.995285306203503
-5.7012223725,-91.21955796,3.8754705209275113,-1.8698740869350008,9.9999996,0.8106889119527372,0.0,12,16,143.75507219317353,335.504635,mp-1174217,Li5Mn(CoO4)2,https://materialsproject.org/materials/mp-1174217,1.4215939787647291,-72.69657555474939,-20.846335816094626,-76.61167465211227
-5.886656106666668,-35.31993664,8.659685572036588,-0.2772597779166676,1.4660342,0.2035584267287502,0.0,191,6,83.9329415153838,437.709,mp-1824,NdNi5,https://materialsproject.org/materials/mp-1824,-52.64492479886977,-16.93770054711132,-54.99523149665992,-16.022005304667648
-5.763827048125,-184.44246554,4.1753043730825,-1.8284780847474995,22.774195199999998,0.9230396114640608,0.0,1,32,287.54123085003926,723.001465,mp-1176222,Li9Mn2Co5O16,https://materialsproject.org/materials/mp-1176222,-2.23254333866898,-76.27631254767664,-19.975688850254897,-77.12855406583098
-7.786735740833333,-93.44082889,14.419809268619757,-0.9088014358333336,2.5e-08,1.4175052569326052e-09,0.0,62,12,205.5382989862481,1784.856,mp-21340,HfGePt,https://materialsproject.org/materials/mp-21340,-53.34671090222433,-9.993463998436855,-51.80564899819905,0.13222735744194633
-8.997073630000003,-197.93561986,7.0056121293234055,0.11919621313363653,8.8e-06,4.392714203715487e-07,0.0,15,22,233.46788623712558,984.9726,mp-1246356,Re2(CN2)3,https://materialsproject.org/materials/mp-1246356,31.4446860255282,-23.94885380771905,-63.74964855884149,-18.430100934828715
-8.728792963888889,-314.23654669999996,12.732789225205105,-0.5204993044444453,1.305592275,0.03989245043004648,0.0,55,36,381.41194074013265,2924.61528,mp-1202841,U2B6Os,https://materialsproject.org/materials/mp-1202841,-35.685560286491835,-10.449335616170123,-37.71658686928644,-12.26666496844228
-4.14315901,-33.14527208,8.656206583221486,0.010328148750001098,0.0,0.0,0.0,25,8,109.84809791417496,572.626,mp-1225733,Cu6SnGe,https://materialsproject.org/materials/mp-1225733,-57.231686071789035,-46.91815926746618,-65.41480865303315,-39.79821396254616
-7.2030149250000015,-216.09044775,7.004313748895402,-0.2298873807777776,4.64601895,0.12619249747001526,0.0,160,30,429.06675803532005,1809.844948,mp-1216380,Y2Sc2TiCo10,https://materialsproject.org/materials/mp-1216380,-75.59638961263173,-20.65837066979878,-67.1390242928006,-6.743097828727901
-7.6507948983333325,-45.90476939,6.1504016771383325,-0.4391449653472215,0.1014412,0.01821389411790891,0.0,139,6,64.90662061353345,240.40493999999998,mp-1025070,YCo2B2C,https://materialsproject.org/materials/mp-1025070,-39.83297211816203,-18.205150678078393,-43.228773186668185,-21.241992906655398
-8.3599748,-33.4398992,5.561106343999037,0.0911555074999999,0.0002289,3.777379619063001e-05,0.0,221,4,70.62079259856412,236.50737999999998,mp-980945,Ti3Nb,https://materialsproject.org/materials/mp-980945,-46.40808057343994,-43.77647885199684,-80.70907882675813,-4.767187387609384
-7.6297967557142865,-213.63430916,3.4476123754334727,-2.7931108907090487,1.0000001,0.03488409482066804,0.018799999999999928,9,28,334.07964282511347,693.6164,mp-1193133,CeB4ClO8,https://materialsproject.org/materials/mp-1193133,28.345482236424303,-8.708160760388337,12.57062645373428,-38.065959552532505
-7.870909923333333,-47.22545954,8.679527357357282,-0.05804056750000086,9.6318269,1.3209859972586202,0.0,191,6,84.97435612764241,444.15532,mp-2812,HoFe5,https://materialsproject.org/materials/mp-2812,-52.53880817847094,-16.81470396974867,-54.49124600947167,-16.1162080437541
-2.6969717125,-21.5757737,2.2287556618798576,0.4943975544050003,0.07666955,0.006898513261042882,0.0,194,8,129.52238663203315,173.84339999999997,mp-1185783,Mg3N,https://materialsproject.org/materials/mp-1185783,-51.36011409075634,-35.627068520290216,-59.60401893563624,-26.971152601706468
-5.646226280625,-90.33962049,4.26814750993989,-2.6208022684375,1.9999988999999998,0.1505543997726317,2.7113,123,16,154.81524791602382,397.9276,mp-1032644,Mg6ZnNiO8,https://materialsproject.org/materials/mp-1032644,-29.785566635324212,-69.50995940756512,-48.48826466631837,-57.277098812754105
-6.8514379492592585,-739.95529852,9.898064054243653,-0.7048515800925931,0.00010689166666666666,7.009308670750196e-07,0.0,176,108,1777.2400467660752,10593.69,mp-1211968,SmGe3Rh5,https://materialsproject.org/materials/mp-1211968,-50.049317337818756,1.4582575138080234,-54.93997653351641,18.255412176701093
-7.6844326349999985,-276.63957486,9.769427770930044,-0.7784302807142853,0.11018519999999998,0.002392855925328545,0.0,189,36,536.6413598851061,3157.2151440000002,mp-1195798,Yb5P12Ru19,https://materialsproject.org/materials/mp-1195798,-50.98163773769192,2.46111132315243,-54.99777764544967,20.677932224410593
-4.251966295,-17.00786518,15.775428345234337,0.4930622424999998,0.07455360000000001,0.012780701412443814,0.0,221,4,67.98159626681803,645.8377519999999,mp-1206376,MnAu3,https://materialsproject.org/materials/mp-1206376,-48.86681255752747,-41.795755936400376,-64.04616630546694,-25.70297079159363
-6.440968489310344,-186.78808619,5.953868770693378,-0.8311978658620689,1.8618198000000001,0.04577969743799384,0.0,225,29,473.96050560234926,1699.3871176000002,mp-1192673,Zr6Al16Rh7,https://materialsproject.org/materials/mp-1192673,-39.304299047659256,-22.39277511632431,-40.95613859701291,-16.962841672400465
-5.307091058529412,-180.44109599,5.19317107547561,-0.9812621313445388,0.00211065,3.753428747898403e-05,0.0,51,34,655.3381844793425,2049.505144,mp-667294,Ca5(PPd)6,https://materialsproject.org/materials/mp-667294,-47.25918694856762,22.70488306378948,-44.430503940011135,28.61363959891173
-8.7924856775,-246.18959897,5.149885973414177,-2.5140449769642856,14.000004375,0.21807254772487245,1.5956999999999997,62,28,748.1774276705992,2320.348,mp-1192904,Ba(GdS2)2,https://materialsproject.org/materials/mp-1192904,10.091826723722797,-10.170911009789062,13.878753003061266,-5.826411945240317
-6.786808241666668,-40.72084945,4.0315164075070085,0.06152037944444425,0.0038733000000000005,0.000415687151947366,0.0,187,6,108.5905322598737,263.64,mp-1094322,MgTi5,https://materialsproject.org/materials/mp-1094322,-48.0028664217705,-32.705582713612635,-59.199655197045146,-29.380021681081427
-7.0260607120000005,-35.13030356,6.850456817815077,-0.8413359888571434,0.0,0.0,0.0,139,5,65.58287593764621,270.558324,mp-10259,Zr(NiP)2,https://materialsproject.org/materials/mp-10259,-62.71386620256423,-30.60471512177015,-65.96393106010193,-17.953419834998513
-4.98556231,-19.94224924,2.6711212355326954,0.7926941699999999,0.005484725,0.000437953029476659,0.0,191,4,145.95021864801163,234.7736,mp-1094136,Ni,https://materialsproject.org/materials/mp-1094136,7.0915187727844025,-64.79098598947877,-28.25785087474017,-75.38205231502567
-3.703999741666667,-22.22399845,2.0202193049805004,-1.4029269942499998,0.0,0.0,1.0298,58,6,101.88839091173298,123.95787712,mp-755072,Na2O,https://materialsproject.org/materials/mp-755072,-16.93141224793078,31.56951144935121,-12.20500987175987,-9.80959234724884
-8.648501577586206,-250.80654575,7.603507824993019,-0.17052772344827605,45.7542636,1.3329100064875197,0.0,225,29,400.04437585423966,1831.779,mp-582924,Zr6Fe23,https://materialsproject.org/materials/mp-582924,-59.620266370170796,-32.8105182682972,-68.94487716945,-13.659434001093793
-8.278661585,-182.13055487,7.819448174702701,-0.05474141460227341,34.41559,1.4685175778099722,0.0,166,22,273.1199960466241,1286.1171,mp-972662,Sm2Fe17C3,https://materialsproject.org/materials/mp-972662,-51.73142460597394,-23.039011220458622,-57.18448363691533,-10.701051907149175
-8.76511546,-17.53023092,9.776010892069284,0.22105323999999985,0.3392179,0.150277000207026,0.0,187,2,26.30653641718652,154.87319499999998,mp-1226002,CoMo,https://materialsproject.org/materials/mp-1226002,-57.70233736132516,-46.77676577210833,-68.56255531638443,-35.44649821925746
-7.725043222068965,-224.02625344,8.916302616792542,-0.08900254517241453,50.7775719,1.3826983155347246,0.0,225,29,427.9784717080937,2298.04026,mp-1193308,Tm6Fe23,https://materialsproject.org/materials/mp-1193308,-56.55870782941807,-17.437084891697825,-50.38729872871429,-14.489832238632696
-6.645431983684211,-126.26320769,8.882004200033732,-0.012732971666666591,24.1146825,1.112240234125058,0.0,160,19,252.6738947236401,1351.51932,mp-1219201,Sm2Co16Ag,https://materialsproject.org/materials/mp-1219201,-55.14215894312661,-24.727791193000737,-56.677066744737104,-12.033398635587805
-5.909229981111111,-106.36613966,9.676559673071703,-0.3915985188888887,0.51610465,0.023815820894750782,0.0,166,18,252.5513206998021,1471.7076,mp-865205,Dy2Ni7,https://materialsproject.org/materials/mp-865205,-63.68498398784882,-16.53341928033619,-52.43945288923501,1.7434340608360406
-5.884879656140352,-335.43814039999995,9.369924429631293,-0.7031452211403512,0.0001653,2.256820895547446e-06,0.0,174,57,853.5976030285817,4816.5956,mp-1212094,Lu10Ni28As19,https://materialsproject.org/materials/mp-1212094,-50.724337926925934,0.5272102980806908,-54.861215911020786,18.84553023311079
-7.148846710625,-114.38154737,4.220750458074437,-2.366267574375,12.0000001,0.8809029480653021,0.5522999999999998,166,16,158.75617029465963,403.5257,mp-755272,Li3V5O8,https://materialsproject.org/materials/mp-755272,-5.051861554482798,-60.70387676629858,-23.106741134656872,-63.963998021239064
-9.426584355,-56.55950613,8.256159816701,-0.029490538333334367,3.5678285000000005,0.473642892711627,0.0,191,6,87.78703338783106,436.475,mp-1181137,GdFe5,https://materialsproject.org/materials/mp-1181137,-51.978101695302364,-15.189949201927645,-60.32288070784174,-4.7929246546023325
-6.980598128125,-111.68957005,4.353216940217172,-2.177720549615,19.9999998,1.4565465702919482,0.0,12,16,160.02323432313082,419.51187999999996,mp-770661,Li3Mn4VO8,https://materialsproject.org/materials/mp-770661,-5.8808703593333265,-60.44837751279921,-23.568668663025175,-63.818968202642324
-9.468460169166667,-113.62152203,11.66366138957244,-0.015073814166665755,0.0476096,0.0033514311046177413,0.0,194,12,165.55475702041701,1162.8601199999998,mp-1217791,Ta2Cr3Cu,https://materialsproject.org/materials/mp-1217791,-67.21122640856302,-15.912689808666734,-62.661406894320976,-3.822099468208888
-3.74605292375,-29.96842339,10.358032812129533,0.21218673625000006,0.13121785,0.011182508100048965,0.0,194,8,136.75119298230834,853.0202,mp-1183225,Ag3Rh,https://materialsproject.org/materials/mp-1183225,-49.67279538595851,-34.6171359887519,-59.08425382164312,-27.880671559209567
-6.668630268333334,-40.01178161,8.790600821455076,-0.1383113250000001,4.6008973,0.6372487567135977,0.006399999999999295,191,6,84.14163947940563,445.431,mp-22311,EuNi5,https://materialsproject.org/materials/mp-22311,-52.59843963152807,-16.87049122705181,-54.659861086308744,-16.226684034510633
-4.780666849027779,-344.20801313,5.736786458979559,-0.8597742414311114,0.000254475,2.5477160928810656e-06,2.057,41,72,1164.0496919118739,4021.5281600000003,mp-722980,Hg4HN3O10,https://materialsproject.org/materials/mp-722980,13.385303551778927,-5.995470308768968,11.815118259178224,-9.602847987749172
-5.263794360833333,-63.16553233,7.473171141714254,-0.2696837485416672,0.23578360000000004,0.017005392440726817,0.0,166,12,161.58623544178914,727.2106,mp-569494,SmMg2Ni9,https://materialsproject.org/materials/mp-569494,-58.91802622002846,-24.770567449771594,-60.23563309037048,-18.985681773211557
-4.394614553103448,-127.44382204,8.955365647206213,-0.18604523068965467,9e-06,2.3421636423675384e-07,0.0,225,29,447.81919186062635,2415.1101,mp-1192934,Tb6Cu23,https://materialsproject.org/materials/mp-1192934,-57.08057179696465,-16.994382213722094,-56.808522719389174,-20.911350804151024
-3.30134026,-13.20536104,8.453689074554452,0.17649421125000053,1.3e-06,2.1930968779688873e-07,0.0,187,4,69.08169154095404,351.6901000000001,mp-1219243,SiAg3,https://materialsproject.org/materials/mp-1219243,-46.69799541221429,-33.276042521473805,-56.72733684831884,-28.351442920740052
-8.4322103225,-33.72884129,4.7044144995661705,-1.5446665953566665,3.4e-06,1.091335113778392e-06,0.0,166,4,36.30765630688671,102.86193859999999,mp-1217025,TiAlN2,https://materialsproject.org/materials/mp-1217025,-46.155844750129404,-45.110193552298185,-50.44470558172925,-56.885981126758026
-6.454647832499999,-129.09295665,3.7785183462518153,-2.1327146009375,9.9e-06,2.482210081976895e-07,2.0516,36,20,464.80852723172086,1057.6611,mp-1189598,Y3GaS6,https://materialsproject.org/materials/mp-1189598,10.261228616403141,-12.13287673126418,10.21383313646742,-13.067308834119775
-7.777496929473684,-295.54488332,8.10815307275259,-0.12555145065789475,55.224813100000006,1.2987671702286256,0.0,2,38,495.54189825002226,2419.65378,mp-1224868,Ho4Fe29Si5,https://materialsproject.org/materials/mp-1224868,-55.33698492795394,-23.649003091790966,-54.07477492160896,-9.652283030782092
-4.289211158333333,-102.9410678,7.508097007189338,-0.19296679479166612,1.25e-06,4.2764199590955e-08,0.0,141,24,340.6489798719578,1540.2381544000002,mp-973410,NdAl2Cu9,https://materialsproject.org/materials/mp-973410,-64.55328065608461,-19.09734546801496,-63.61814261077035,-15.961259446353973
-10.260847425,-287.30372789999996,10.16892640363801,-0.6850939346257141,9.4575e-05,2.245932799335352e-06,0.0,227,28,490.7462842125137,3005.2668,mp-1193819,Zr4Re2N,https://materialsproject.org/materials/mp-1193819,-71.25054811607617,-2.7321633601882787,-65.20255893028296,7.525965626154008
-5.47202576548387,-169.63279873,3.6368841481803584,-2.6303899949018352,5.8599999999999995e-05,2.0318209471738248e-06,2.4498999999999995,25,31,336.1163278791478,736.15622118,mp-1034901,CsNaMg14O15,https://materialsproject.org/materials/mp-1034901,-18.558287051905307,-58.33231318766905,-43.054060775256936,-24.249292753975787
-9.108604982857145,-255.04093952,7.166850059430847,-0.6711447303399994,1.291562575,0.03310480505365824,0.0,227,28,454.67580559580045,1962.3708,mp-1193097,Zr4Fe2N,https://materialsproject.org/materials/mp-1193097,-69.28381547623019,-3.3979428951344484,-65.12711890313146,4.348419749251643
-6.836286606250002,-273.45146425,8.924355239107449,-0.3562312352500001,0.0,0.0,0.3814000000000002,60,40,625.2785869264984,3360.48,mp-21945,Ge3Ru2,https://materialsproject.org/materials/mp-21945,-57.905362837049395,-25.85738847430868,-55.296834989224756,-9.62258665623551
-5.70705357,-28.53526785,7.590208444730486,-0.09913716000000007,8.050085300000001,0.6446943402824693,0.0,139,5,145.52045775634633,665.16389,mp-1068010,Ba(MnBi)2,https://materialsproject.org/materials/mp-1068010,-7.959618295518004,-25.133196484325598,-34.0771928048097,-11.506708391219044
-6.318101379642857,-176.90683863,16.316655221710374,-0.7872844971428573,4.85e-06,1.1951102739869881e-07,0.0,15,28,472.94559654609674,4647.22,mp-1211161,Lu2(GePt3)3,https://materialsproject.org/materials/mp-1211161,-53.47487611990019,-5.61051896773497,-50.234370754360846,-3.8090728355434087
-5.45896089,-32.75376534,4.561511889482893,-2.5988371702083337,1e-07,1.975950341061175e-08,2.9016,164,6,58.979542807239426,162.0172,mp-1222123,Mg2ZnO3,https://materialsproject.org/materials/mp-1222123,-28.332108719230853,-65.74241931877505,-47.17459513678954,-66.24843709251536
-5.3496663225,-85.59466116,5.06314339446647,-1.5077497906850006,5.9999997,0.4861839721975954,0.0,12,16,143.8228924394077,438.529845,mp-756870,Li3Mn(NiO2)4,https://materialsproject.org/materials/mp-756870,-9.417084459530287,-64.34484166689863,-25.84998122348518,-62.98059571120256
-9.6379689975,-38.55187599,5.949045032446295,-0.8038798852825,7e-07,2.2850816918970004e-07,0.0,166,4,35.70045381624588,127.9004,mp-1216616,V2CN,https://materialsproject.org/materials/mp-1216616,-46.121206967050384,-44.86415439772893,-65.63482318074881,-22.73352031298739
-6.984531068,-69.84531068,12.789654850221767,0.3823493569999997,8.5e-07,7.245827576102352e-08,0.0,127,10,136.71254184058728,1052.9750772,mp-16496,Al(CuRe)2,https://materialsproject.org/materials/mp-16496,-62.334064683149634,-31.98184316461604,-66.12423566587985,-18.242906976213753
-5.257519749166667,-63.09023699,7.241434011653887,-0.24588893479166765,2.1904907000000002,0.15553541360246653,0.00480000000000036,166,12,164.13059836480087,715.75607,mp-5134,LaMg2Ni9,https://materialsproject.org/materials/mp-5134,-58.90207450713783,-24.735429463413507,-60.16301347737553,-18.916878700204908
-6.207348286428571,-86.90287601,7.260891566802374,-0.5380167135714292,4.5e-07,2.1369155992643225e-08,0.0,63,14,245.41582968729927,1073.108,mp-18279,Zr2CuGe4,https://materialsproject.org/materials/mp-18279,-52.59322546310861,-0.1032005386128002,-66.10299584739515,-18.95231468735579
-7.149607775,-100.09450885,9.046153019536069,-0.9597208550669641,6.87847595,0.2513244159745881,0.0,137,14,318.9590790331308,1737.6,mp-1103625,Np2Se5,https://materialsproject.org/materials/mp-1103625,-35.35084373349783,-9.040121853185914,-40.204478258543894,-11.261638569998114
-3.4479664616666668,-41.37559754,2.387602785053999,0.0668596008333336,1.1333333333333334e-06,6.041493082186103e-08,0.0,12,12,218.62046179465926,314.343,mp-1100452,MgSi,https://materialsproject.org/materials/mp-1100452,-56.715737179989574,-4.1884390007432435,-43.06341745308608,4.715535227243432
-4.038149990769232,-104.99189976,8.785314492598603,0.0676162676923079,0.0,0.0,0.0,176,26,378.3058285026895,2001.48,mp-2004,Cu10Sb3,https://materialsproject.org/materials/mp-2004,-53.744266483856094,-46.845625807599895,-62.99760976731982,-33.393537238883575
-6.23335658,-87.26699212,4.428346502653917,-1.2518460747023812,2.7793417999999996,0.11385280997896245,0.0,11,14,284.4956516072615,758.6966,mp-1247002,ZrCrAgS4,https://materialsproject.org/materials/mp-1247002,-29.872505995216514,-8.61649141212263,-38.77994798188418,-29.069466202338198
-8.051153363125,-128.81845381,6.207291266800415,-0.2697043481249981,9.4650573,0.5518446842300572,0.0,160,16,199.88666014621532,747.1999694,mp-1221730,Mn7Al4V5,https://materialsproject.org/materials/mp-1221730,-47.941283065875396,-50.41662816287816,-66.59040182417279,-43.76954749663499
-7.326886976500001,-146.53773953,12.503001375906743,-0.06656288350000067,5e-08,1.8330552685187436e-09,0.8456000000000001,116,20,317.88634452841995,2393.52,mp-510032,Ge3Os2,https://materialsproject.org/materials/mp-510032,-43.16389265051907,-17.87879901451728,-51.22991147779751,-15.78011065234926
-7.946066742307693,-103.29886765,7.8597998552986565,-0.24957544000000095,20.4648508,1.4526458976146552,0.0,71,13,164.1822671138241,777.1210000000002,mp-1225375,Dy(Fe5Si)2,https://materialsproject.org/materials/mp-1225375,-55.697105444332855,-23.275786191585976,-55.556681738277604,-8.360964469302997