energy_per_atom,energy,density,formation_energy_per_atom,total_magnetization_uB,total_magnetization_T,band_gap,sgr,num_sites,cell_volume,weight,mp_id,formula,URL,tsne_xrd_lin1_0,tsne_xrd_lin1_1,tsne_xrd_lin2_0,tsne_xrd_lin2_1
-8.886525426818181,-195.50355939,8.555095031784997,-3.857183831477273,0.0,0.0,3.402,63,22,298.80431643938783,1539.4394600000005,mp-754550,Tb3TaO7,https://materialsproject.org/materials/mp-754550,15.78648589232306,60.68461676157725,-4.631214942469776,39.301915482966685
-10.76562343,-64.59374058,11.064594108933392,-3.976491285312502,5.009180799999999,0.7216303507775329,0.0,123,6,80.8964277039661,539.0334799999999,mp-1219665,PuPaO4,https://materialsproject.org/materials/mp-1219665,26.24097136435922,64.72170867592375,-11.229220041950065,36.145838367572324
-6.3635967579166675,-152.72632219,4.724068357662912,-1.7217200404166668,1.9939146,0.07559260836313061,3.0004,12,24,307.40055678097383,874.5239999999999,mp-505273,NiMoO4,https://materialsproject.org/materials/mp-505273,21.072422537364517,0.5743878436998857,54.59855253069136,-6.302064644246512
-7.352680435,-14.70536087,4.106959702072187,0.4937484306250006,0.0026752,0.0007640866983435543,0.0,216,2,40.80290122461165,100.91655,mp-998894,YC,https://materialsproject.org/materials/mp-998894,27.74099092424171,64.75862189962555,-12.917367363980267,34.76554168092455
-7.1072340247916665,-341.14723319,5.394378156918663,-2.4691604638750007,3.315e-05,5.852279297355686e-07,1.1481999999999997,15,48,660.1397978133331,2144.51068,mp-1203708,KHo2Cu(MoO4)4,https://materialsproject.org/materials/mp-1203708,32.707643558616056,34.311058249662274,28.856125957519154,35.23520505484873
-9.411089763333333,-56.46653858,8.780931143688603,-3.890148342916666,0.9954358,0.13912672618961372,0.0,123,6,83.38349940265338,440.93197999999995,mp-753581,LaUO4,https://materialsproject.org/materials/mp-753581,28.902645463527,63.29730713121558,-11.935378253208684,35.90655052101008
-4.4058552744999995,-88.11710549,4.3661032092165355,-1.9566742174827585,0.0,0.0,2.3181000000000003,60,20,514.0288228747917,1351.5508152,mp-753803,Cs2CaO2,https://materialsproject.org/materials/mp-753803,11.190007896199623,7.6577998544177985,21.61016574884678,14.808935010156008
-6.177780983,-61.77780983,4.4401433302291125,-1.120073171952,0.0,0.0,1.1903,140,10,137.15068480308494,366.729528,mp-12927,Ba(BeN)2,https://materialsproject.org/materials/mp-12927,-28.972409994681104,35.31641333381169,-0.9791231579423518,20.518799409448928
-6.915781199166666,-82.98937439,6.131778766876015,-2.8450722839439653,0.0,0.0,3.8301,63,12,266.63776117721824,984.5982075999999,mp-1178405,Cs2HfO3,https://materialsproject.org/materials/mp-1178405,3.3190967508468936,-0.20187615263662706,12.971467085534217,1.633049205772205
-6.909914327857143,-96.73880059,6.106685036109085,-2.9253545243542853,3.3464847,0.20448486071452265,0.0,123,14,190.72389671246785,701.393185,mp-1218735,Sr2La2MnZnO8,https://materialsproject.org/materials/mp-1218735,-22.924467368884358,38.59374090865659,-14.829819030926002,58.75869974447846
-9.02026958346154,-234.52700917,8.574075337270731,-3.865371830721154,2.0000705,0.06373889662723871,0.038000000000000256,5,26,365.6942995578122,1888.23653,mp-1173414,Sm6U3O17,https://materialsproject.org/materials/mp-1173414,25.521641647362472,63.71825749907664,-9.50973621827358,36.33874038921389
-5.471526482000001,-54.71526482,7.5773637756210865,-0.5989576415000002,0.0,0.0,0.0,65,10,187.13790725546139,853.9468,mp-8466,SmNiGe3,https://materialsproject.org/materials/mp-8466,-46.07993916937984,13.709249434545043,-42.75854524779341,29.232271192976302
-8.03212732359375,-514.05614871,4.007698354460569,-3.1747214901874994,0.0,0.0,1.9568,11,64,924.7469596983348,2231.86976,mp-557195,KCa2Nb3O10,https://materialsproject.org/materials/mp-557195,19.13585590333817,21.843659180349132,31.240631277451087,38.530124839463866
-3.158910636818182,-69.49603401,6.579523925000544,-1.0969545038275006,1.4e-06,2.3085430095119705e-08,1.8016,128,22,706.7527273417672,2800.353600000001,mp-28242,Tl6SCl4,https://materialsproject.org/materials/mp-28242,-8.250813857305499,9.205011534208614,-0.6077916734810296,19.83760849208092
-5.044533383,-50.44533383,6.214729029236709,-0.7113619649999997,4.2999999999999995e-06,2.31272417946489e-07,0.0,127,10,216.68160417469898,810.952,mp-570561,Dy2MgSi2,https://materialsproject.org/materials/mp-570561,-7.8822368592165875,25.482030533750446,-5.471041917579528,19.90658335021284
-8.439536781000001,-84.39536781,6.261459702415505,-3.4722383763833333,0.319653,0.03034776538109845,0.0,123,10,122.7522593496532,462.86675999999994,mp-1211240,KThTi2O6,https://materialsproject.org/materials/mp-1211240,-27.822943188797442,48.22914249403781,-12.987646061639614,62.108969270676326
-6.7535919525,-189.10057467,4.628352881237475,-3.0554392121071423,1.0000001,0.026232405164770232,0.17559999999999998,63,28,444.26219649951975,1238.27393856,mp-1182396,Ba3Na(SiO4)2,https://materialsproject.org/materials/mp-1182396,6.993078947029852,0.9764102059658692,12.611493611004615,29.83093897184845
-7.631215964583332,-183.14918315,3.2254230949961347,-3.2668937745486115,0.0,0.0,5.737000000000001,113,24,249.03201720117482,483.7186,mp-752851,Ca2SiB2O7,https://materialsproject.org/materials/mp-752851,-13.319185043549936,33.40463869776975,-15.477515959892655,51.20248973485035
-3.1370406269230764,-81.5630563,4.813478752246314,-0.4996211251723078,0.0,0.0,0.3637000000000001,158,26,763.7712127546173,2213.97776,mp-643683,Ba5(Ga3H)2,https://materialsproject.org/materials/mp-643683,4.872690529321309,-7.305705812137562,10.626134016011894,7.993279515007963
-7.174067047857143,-301.31081601,3.1039269302582286,-3.4417627884580275,1.13e-05,2.4406031192701567e-07,5.5447,173,42,539.5835598591943,1008.6049784,mp-1227110,Ca5P3O12F,https://materialsproject.org/materials/mp-1227110,-0.7095544948090258,46.06637120445375,3.172554157138208,53.54513959323121
-7.956499355,-111.39099097,5.272454133809192,-3.6923789675,1.45e-06,7.996755864749588e-08,3.6776,36,14,211.31561605752128,670.957964,mp-1218207,SrLaScO4,https://materialsproject.org/materials/mp-1218207,-24.75540380051332,31.200630182706977,-17.29247177036401,43.61218214430779
-5.4526523939999985,-27.26326197,9.397662392612117,-0.4818562299999989,2e-07,2.6151369210457746e-08,0.0,139,5,89.1277598413418,504.41006,mp-4911,Th(CuGe)2,https://materialsproject.org/materials/mp-4911,-47.739304014852316,29.996158666427423,-26.43850865368621,33.882476009182
-10.001966215,-60.01179729,6.517832381927318,-3.4807413090033337,7.00000025,0.7671356069055453,2.9895000000000005,129,6,106.34163710703432,417.4048,mp-23050,GdClO,https://materialsproject.org/materials/mp-23050,-6.649134301792928,11.093312794701932,-11.446975359709166,42.38658511589402
-3.918500406,-19.59250203,7.315133545771415,-0.5246204713189655,1.3930573,0.21643960348576768,0.0,221,5,75.00836143028076,330.432569,mp-975405,RbAuO3,https://materialsproject.org/materials/mp-975405,-24.89106385467186,17.94432053908078,-25.417614153407502,54.138247661622714
-7.034594935555557,-253.24541768,6.6853510175262825,-1.5824301927511115,3.9418525,0.04760467960893722,0.0,62,36,965.0018598224516,3885.1096,mp-641183,Ce4Te3N2,https://materialsproject.org/materials/mp-641183,13.781480460902221,35.09029556568031,19.57058516961347,38.512377778118065
-1.948265275,-15.586122199999998,1.9421576531854448,-0.6838454796650002,0.0047418,0.00023835770354130602,0.5030000000000001,200,8,231.84165444414555,271.16076928,mp-1080771,NaCl7,https://materialsproject.org/materials/mp-1080771,-11.241332400971642,21.19777637123797,-17.565190040703925,-8.8106866476661
-7.533269185555557,-135.59884534,3.958079875393327,-3.19979640375,1.9999995,0.0925957430772456,1.5820999999999996,46,18,251.71917135156846,600.0006999999998,mvc-6127,Ca2YVO5,https://materialsproject.org/materials/mvc-6127,-19.785743173306134,45.99997223507311,13.234396163992347,63.299784722361935
-2.4656155319999997,-24.65615532,4.756538255432577,0.1902277070000004,4e-07,1.2916453661757844e-08,0.11609999999999987,140,10,360.9060219699237,1033.79882,mp-1096939,CuGeI3,https://materialsproject.org/materials/mp-1096939,2.96714168959818,9.753267214513826,8.31002253713888,25.55034270154871
-6.574354277714286,-460.20479944,6.257919644841738,-2.4924539219553568,1.99987565,0.016400358486530472,0.0,72,70,1421.1079825667568,5355.598000000001,mp-1195151,Ce2Zn(SeO)2,https://materialsproject.org/materials/mp-1195151,-18.986039065846704,25.713676084120998,-15.542835637541847,51.4410943695796
-4.302495491666667,-51.629945899999996,5.014586724644351,-1.4103181215813578,0.0,0.0,2.024,63,12,387.80305569237635,1171.1089037999998,mp-505709,CsSmZnSe3,https://materialsproject.org/materials/mp-505709,1.5276552012723708,1.164937680646431,-2.3610180599330075,-10.636692574080085
-4.806239148421053,-91.31854382,9.47262833029589,-1.2240763881578949,0.0,0.0,0.0,148,19,270.99289916581364,1545.8926,mp-14410,Tl6TeO12,https://materialsproject.org/materials/mp-14410,17.070042195373187,61.15126855273381,-6.870200352604788,38.31542847864906
-6.437147688333333,-231.73731678,7.368166030598331,-2.051499472685186,0.0,0.0,2.5125,13,36,459.27239233711805,2037.8896,mp-867885,In2WO6,https://materialsproject.org/materials/mp-867885,9.72695478164373,25.64603758739819,-0.7831346172788236,37.086639648395696
-4.150709188,-20.75354594,3.015289307300655,-1.83483960375,0.0,0.0,4.2774,221,5,64.28197245596151,116.7264,mp-28593,Li3BrO,https://materialsproject.org/materials/mp-28593,-30.227988165688725,36.36069166745753,-18.972702935044754,63.15548287319614
-7.433205410434782,-341.92744888,5.989654306675571,-3.534864899728261,2e-07,3.024781098248163e-09,2.5469000000000004,194,46,770.5724410476697,2779.4965544,mp-1214534,Ba5Lu2ZrAl2O13,https://materialsproject.org/materials/mp-1214534,-19.28567831927752,18.14279368128634,-19.751218477605217,48.2433125596712
-5.8874784447619035,-123.63704734,4.665356563301025,-2.6224079856209515,0.0006822,2.4240428893507926e-05,0.0,139,21,327.9811187651676,921.4772,mp-1214003,Ca4Sm2Cu3(ClO2)4,https://materialsproject.org/materials/mp-1214003,-16.207550486246262,59.3420776051748,12.461847870803787,53.843486155010034
-2.898095475,-28.98095475,4.132634417408558,-0.9697285812356324,0.0,0.0,0.7812,225,10,334.768809702773,833.1494,mp-1113437,Rb2AgAsBr6,https://materialsproject.org/materials/mp-1113437,-21.894843208979353,-20.028247015833053,-18.518752966670476,-11.110217688815208
-4.3872006775,-17.54880271,3.92817836073933,-0.7471217852500001,0.0,0.0,1.8409,166,4,80.42538506364681,190.25464,mp-690794,Sr2HN,https://materialsproject.org/materials/mp-690794,24.39900156260675,65.1523467128876,-18.590230671749048,-9.612551272815072
-4.799661327,-47.99661327,6.202361575358424,-2.606966954164,2.9999998,0.20350896493655274,3.0026,225,10,171.79681493523472,641.68678848,mp-555970,NaTl2MoF6,https://materialsproject.org/materials/mp-555970,-18.58590786846718,-48.78069623615436,-25.31536334989721,-8.36923514092517
-2.7684621975,-11.07384879,4.660972598832268,-0.53941317,2.8100000000000002e-05,1.7035487181651502e-06,0.0,139,4,192.23355141944344,539.581,mp-1183360,Ba3Te,https://materialsproject.org/materials/mp-1183360,-8.083689694469754,-26.341412054007996,-12.788196281010265,-30.06361446854045
-7.0743636305,-141.48727261,7.443300134196246,-3.0520418698749983,0.0,0.0,2.6975,14,20,373.0075027102716,1671.9912800000002,mp-8763,Tm2S2O,https://materialsproject.org/materials/mp-8763,17.550650732977733,21.705492430067853,12.691609021212999,13.109714259419006
-8.991980983076925,-350.68725834,11.979948420502891,-0.2650727809294882,23.5277417,0.3770830742096308,0.0,191,39,727.1443469017171,5245.9783,mp-21906,U20Si16C3,https://materialsproject.org/materials/mp-21906,-20.683632472038767,43.289685273666194,-7.517476023069882,61.272597280971404
-7.18662446375,-114.98599142,6.090587621690575,-0.4127351749399999,1.56e-05,6.257501537208073e-07,0.0,64,16,290.53674117521183,1065.6416,mp-1246017,BaRuN2,https://materialsproject.org/materials/mp-1246017,0.9212911418839524,27.106047414658065,4.604531107790519,45.793284115604116
-5.3840436025,-129.21704646,7.024639010779205,-1.3121257578645842,0.0,0.0,0.9712999999999998,92,24,589.7308557882577,2494.76,mp-29289,BaPt2S3,https://materialsproject.org/materials/mp-29289,-0.10723476593459944,10.995567862895989,4.383371500869889,24.07319157511552
-9.055959253500001,-181.11918507,5.498687755036224,-1.126689022427999,0.0,0.0,2.0601000000000003,15,20,334.4405853165772,1107.46228,mp-989631,LaMoN3,https://materialsproject.org/materials/mp-989631,21.052685278961686,-11.943747969810605,37.86337522115887,-2.9319977093167773
-7.8268680191666675,-93.92241623,6.139292094058519,-2.3183462865416677,7.00000085,0.4299288820753444,0.9409,12,12,189.7487391869998,701.533,mp-555331,KGdPdO3,https://materialsproject.org/materials/mp-555331,-9.363893055373367,27.56382671084198,-4.037716906344333,59.2205307301325
-8.088205735192307,-420.58669823,6.5096175686976085,-3.2418192059615385,1.0012309000000001,0.02332416243249646,0.10220000000000028,60,52,500.2713299848737,1961.1553600000002,mp-1198383,Ho2B3O8,https://materialsproject.org/materials/mp-1198383,31.029087567038232,26.88425376082977,41.260338867288056,23.760870324397818
-10.091707300555557,-363.30146282,8.432935864997622,-3.4961476686111106,6.9002718,0.16741174608370746,0.01639999999999997,62,36,480.34989411829076,2439.4246399999997,mp-505434,EuTa2O6,https://materialsproject.org/materials/mp-505434,16.977768429188085,54.63093834643772,-1.3836234092452948,38.480029522686294
-8.194783204,-163.89566408,6.483625884177682,-3.1631660184999992,6.000000599999999,0.2845154023604337,2.2219,26,20,245.76664408211695,959.60344,mp-1222955,LaPrCr2O6,https://materialsproject.org/materials/mp-1222955,-27.478520836914345,47.900723526775685,-11.773636740670405,65.06395360138211
-8.870276890000003,-266.10830669999996,7.174266605071554,-2.9673743979166662,6.999968166666666,0.18353159949595,1.7627000000000002,185,30,444.49066342926653,1920.3972,mp-1212640,GdInO3,https://materialsproject.org/materials/mp-1212640,10.437990159986393,56.79344303585671,-7.761759954390625,42.04671048517425
-7.802403101999999,-117.03604653,5.817319589408075,-3.02196226,1.0,0.05311978386183644,1.6970999999999998,1,15,219.39217228126708,768.5904099999999,mp-674986,La3(MoO5)2,https://materialsproject.org/materials/mp-674986,9.0702404087296,19.29454312138973,26.293969910379833,-5.2899945357715845
-6.8164047675510195,-334.00383361,6.574158646180674,-2.167992802459185,9.0000001,0.16983374393952896,1.1501,1,49,617.5838893111234,2445.04607712,mp-1221439,Na4Li5(WO3)10,https://materialsproject.org/materials/mp-1221439,-10.804780264527473,50.9148447553976,51.09888307291021,15.996328160414302
-8.75660461590909,-192.64530155,7.22391062240809,-2.8853185851136374,18.00000005,0.6616310170269022,0.0,20,22,317.0546136597588,1379.2956,mp-1212908,Eu3SbO7,https://materialsproject.org/materials/mp-1212908,23.63110829762948,63.69646572390872,-8.673939806982492,37.29891563168129
-4.744750471111111,-42.70275424,8.01760481381995,-0.08181465450458268,0.0058502,0.0002990400508915267,0.7752999999999997,12,9,227.99156677899208,1100.815,mp-1247172,Bi4Se3N2,https://materialsproject.org/materials/mp-1247172,5.1800743436918575,22.77215048487326,2.962077838042947,24.67675363608689
-7.895600096,-39.47800048,10.076560892797511,-0.886465643999999,9.000000000000001e-07,1.2020106529459086e-07,0.0,139,5,87.25927902217786,529.51085,mp-1068635,Y(SiIr)2,https://materialsproject.org/materials/mp-1068635,-47.53360062729827,30.094722362144807,-26.563854912313463,34.27573413666922
-4.453194775,-89.0638955,5.710171415309443,-0.8323697784375007,6.25e-07,1.483464002059201e-08,1.2068000000000003,62,20,490.9988023126383,1688.4199999999996,mp-1188095,SnPbS3,https://materialsproject.org/materials/mp-1188095,33.02811417454186,28.694281517267186,9.438715070359823,19.040739390458235
-6.23019457,-80.99252941,5.554053865707035,-1.7628109109907701,8.999999,0.6777356440196138,1.1042999999999998,12,13,154.7602995718151,517.6313349999999,mp-18870,Mn3Cd2O8,https://materialsproject.org/materials/mp-18870,17.90736203857904,33.66232851413121,23.26873584025161,40.59713897217755
-6.794534925000002,-135.8906985,7.924804750576039,-0.9643127275000004,1.47e-05,5.216454923294489e-07,0.0,72,20,328.41221610409787,1567.3239999999998,mp-1212876,Er2Si5Rh3,https://materialsproject.org/materials/mp-1212876,-45.30734838187039,23.214750449426823,-32.574069012414306,19.498032769079327
-7.753914025714287,-54.27739818,6.86699539557016,-2.570002717857143,8.0000004,1.0489521501589238,0.0,107,7,88.88157846664221,367.561,mp-1218235,SrGdNiO4,https://materialsproject.org/materials/mp-1218235,-23.85485156816668,41.55396143043213,-13.03781138258168,59.93897897100043
-8.08537346025,-323.41493841,6.1143313416351415,-3.0263769113375,0.0,0.0,1.7476999999999998,6,40,521.421861723157,1919.94644784,mp-1099860,K5Na3Ta6Nb2O24,https://materialsproject.org/materials/mp-1099860,-29.432401447978034,35.43461657635172,1.6234209256192458,42.27201332370575
-7.478074677249999,-299.12298709,6.189788824917399,-2.3667943185,17.94716815,0.3102013928866557,0.0,217,40,674.2634459431464,2513.3696,mp-505043,Eu3Sb5O12,https://materialsproject.org/materials/mp-505043,30.28088294835708,63.57935199225257,-10.335028285191248,33.36192633473803
-7.350794459375,-117.61271135,7.1314695357770574,-0.6025913587499998,20.922899899999997,0.6392438607009824,0.0,63,16,381.44571368584747,1638.184,mp-1189484,Eu3Ge5,https://materialsproject.org/materials/mp-1189484,-37.66171231925016,23.66147137486156,13.871406294003863,48.453678663488425
-6.746495256666668,-40.47897154,5.354985944222472,-2.569939616041668,0.0001955,2.591763585385105e-05,0.0,123,6,87.90808219866558,283.4902,mp-1236187,BaLiZrO3,https://materialsproject.org/materials/mp-1236187,-2.92774416493026,9.702628552939762,-1.2265491801659996,-24.28636777615897
-8.921438955000003,-713.7151163999999,5.397859218979059,-3.1883339520000016,0.0,0.0,2.1536,57,80,1018.165203479953,3309.71588,mp-28155,LaNb5O14,https://materialsproject.org/materials/mp-28155,6.509195599482562,21.958517335960217,25.819454954754022,37.2946374674159
-7.546772065833332,-181.12252958,6.783251529056328,-3.313315736354168,0.0,0.0,4.7188,113,24,263.00228111447205,1074.3563279999996,mp-14420,Er2Be2GeO7,https://materialsproject.org/materials/mp-14420,-2.3272712565174047,12.77852391228395,7.779068120026094,31.032111515543605
-4.8946842777777775,-44.052158500000004,5.867151430628728,-2.599750446348889,1.0,0.07177478588244117,0.0,225,9,162.36989953056366,573.6985192000001,mp-1208154,Tl2VF6,https://materialsproject.org/materials/mp-1208154,-24.733089298507924,7.99735235603076,-28.631602964289737,-8.076544962706599
-5.960412609374999,-286.09980525,3.8061163419172765,-0.6700790268349989,0.070879875,0.0016697152202068352,0.0,206,48,494.71828748054963,1133.94224,mp-1246022,Li3NbN2,https://materialsproject.org/materials/mp-1246022,2.0424426453810303,-36.276535964835546,1.4625167501673724,-32.46937512343817
-5.026892954,-50.26892954,3.707835124343544,-3.0976956932329665,2.0000002,0.14502972351979734,0.0,225,10,160.71279259351724,358.85728848,mp-560671,Rb2NaVF6,https://materialsproject.org/materials/mp-560671,-23.437487292873048,10.351752525406953,-29.215678937862858,-9.05429175132974
-4.040640835416666,-193.9507601,4.677416977360164,-0.4393027378645833,1.6666666666666667e-08,1.846485968279151e-10,1.5180000000000002,15,48,1051.9138309889968,2963.0376,mp-542609,AgAsS2,https://materialsproject.org/materials/mp-542609,11.54515081890029,23.247174206595,2.8588962151355,26.93724524014419
-7.021982603333334,-42.13189562,4.130415564538389,-2.959326927916667,5e-08,5.144895184803448e-09,3.3526,129,6,113.25852475073229,281.71862400000003,mp-989190,ScBrO,https://materialsproject.org/materials/mp-989190,-23.793207545709077,46.30008581057257,-14.873269496644097,55.070178327185275