energy_per_atom,energy,density,formation_energy_per_atom,total_magnetization_uB,total_magnetization_T,band_gap,sgr,num_sites,cell_volume,weight,mp_id,formula,URL,tsne_xrd_lin1_0,tsne_xrd_lin1_1,tsne_xrd_lin2_0,tsne_xrd_lin2_1
-4.898759388999999,-48.98759389,5.598935124362283,-0.16142029800000018,2.99470705,0.11595160409165392,0.0,148,10,300.99204067892026,1014.8722,mp-541449,CrGeTe3,https://materialsproject.org/materials/mp-541449,-19.012662510376565,-35.16696330936101,20.170026979865586,-15.52949076428258
-6.851699205,-13.70339841,4.756480264159976,0.6377000968965518,8.485456300000001,0.9762442796512352,0.0,187,2,101.29642693553434,290.1554519,mp-1185562,CsGd,https://materialsproject.org/materials/mp-1185562,-19.07535741088951,-35.118675995263374,20.29100101305275,-15.613505505117393
-3.165075115,-31.65075115,4.013737155614245,-1.456755088474138,5e-08,1.4237895985436834e-09,1.5665000000000002,194,10,409.2621825752906,989.2395114,mp-1205638,Cs3BrO,https://materialsproject.org/materials/mp-1205638,-18.408493196506747,-35.412256098125994,-15.618716243874399,-29.780500654673773
-5.594184029615384,-145.44878477,5.190107753498488,-1.614130438942309,0.0,0.0,2.4606,190,26,542.4316640072436,1695.4005399999999,mp-28485,Sb5IO7,https://materialsproject.org/materials/mp-28485,-13.246282572706251,22.31142608077148,-17.798486212082157,37.58758518348096
-3.795955376666667,-113.87866129999999,4.299291005500422,-0.8653722707356323,2.999999766666667,0.029174373526624386,0.6301000000000001,185,30,1198.3870559033933,3102.73626,mp-672346,RbVI3,https://materialsproject.org/materials/mp-672346,-18.43347773551267,-35.31709709276811,-20.534369312429238,-7.7065235086512045
-7.649415195454545,-168.28713430000002,5.937214198649214,-2.6853406802233546,0.0,0.0,2.4847,26,22,357.8235546467102,1279.3888238000004,mp-562854,CsNb2BiO7,https://materialsproject.org/materials/mp-562854,7.772130562732454,-23.0682276089898,21.120865427132326,-18.369732042831302
-3.6884253166666663,-110.6527595,3.908629171556068,-0.9754974376000002,2.0000175833333333,0.019551846068274703,0.0,173,30,1192.1296015236962,2806.0722600000004,mp-640578,KTiI3,https://materialsproject.org/materials/mp-640578,8.475337547106504,18.461507746451822,17.84072410321177,-14.942059635652056
-6.18283425,-49.462674,6.999247910075809,-2.0841557190625,0.0,0.0,1.196699999999999,129,8,164.19792150346643,692.1017400000001,mp-546790,LaCuTeO,https://materialsproject.org/materials/mp-546790,-15.71739233724409,22.000515449942288,-16.189151639608607,40.624810130323894
-8.273976475454544,-91.01374123,5.264223558778666,-3.2164159059051736,0.0,0.0,1.4415,123,11,179.67994274524548,569.6194819,mp-553248,CsLaNb2O7,https://materialsproject.org/materials/mp-553248,-11.32711504917765,-24.974697876087326,21.085692650617926,-18.36722300481259
-8.248668813181819,-181.47071389,5.43701490537061,-3.2057896945415383,0.0,0.0,2.3882,26,22,351.19892833090387,1149.9120238,mp-554929,CsNdNb2O7,https://materialsproject.org/materials/mp-554929,-10.96219662276541,-24.55229648827309,21.5762015406175,-18.56464579210284
-8.290395895000001,-182.38870969,4.9689484177489085,-3.2218223785540765,0.0,0.0,1.9664,74,22,349.0087808504434,1044.36366,mp-553965,RbLaNb2O7,https://materialsproject.org/materials/mp-553965,-11.050849750082747,-24.39034304037761,21.63787199358623,-18.551442675838818
-4.8401015377777785,-43.56091384,4.125384543406011,-1.5386910309530646,0.0,0.0,1.8413,146,9,244.58168806638145,607.6301076000002,mp-562815,Cs4CO4,https://materialsproject.org/materials/mp-562815,7.839295619023037,-18.46139828402988,16.606356090789863,-13.085436800591712
-7.7982033982352945,-265.13891554,6.632314110201283,-2.735082704117648,0.0,0.0,3.9497,15,34,516.7641179476838,2063.9936,mp-17950,Nd2(WO4)3,https://materialsproject.org/materials/mp-17950,11.118341304019463,21.37176010009735,39.88895690536456,-4.625762688637498
-7.893284689705883,-268.37167945,6.507965727148513,-2.6926078005882355,2.0000001,0.04461510373193009,0.07899999999999974,15,34,522.4269083979451,2047.4896,mp-17686,Ce2(WO4)3,https://materialsproject.org/materials/mp-17686,11.187658762925482,21.235865543508073,39.84942911418288,-4.765523700115743
-5.9946619012,-599.46619012,4.24691775439895,-2.4298708014499995,0.0,0.0,2.9164,78,100,1686.5819910352084,4313.5239999999985,mp-560656,CaTeO3,https://materialsproject.org/materials/mp-560656,6.605215547313884,27.63097245831905,32.21091238050881,-4.83044680409442
-3.1275315110000004,-31.27531511,6.561882048503448,-0.4653240404374998,3.55e-06,1.3484281567129354e-07,1.2705000000000002,12,10,306.81597485652696,1212.43174,mp-570961,CdBiSe2I,https://materialsproject.org/materials/mp-570961,-0.28554423569778914,-11.712520537157452,0.42254028017679773,-0.731290239052241
-5.991827163888888,-215.70577790000002,2.8663804734517555,-2.2453028908892056,0.0,0.0,5.7674,14,36,430.11911221476987,742.460728,mp-24171,SrPH3O4,https://materialsproject.org/materials/mp-24171,28.096764016445952,-21.016519926429726,11.423062108579447,-33.772866737802154
-5.1596945534375,-330.22045142,2.8161058157821386,-2.0491313689375,0.000119425,1.151541365596213e-06,3.3075,66,64,1208.62934415069,2049.7128,mp-680301,K3AsO4,https://materialsproject.org/materials/mp-680301,-18.1486640353925,15.033477297437734,30.400898030765713,-3.4782251182375266
-6.723597620833334,-645.4653716,2.9201581703825847,-2.7550768061844906,0.0,0.0,5.5484,64,96,1252.0610683169486,2201.8249920000003,mp-1020705,Rb2Li3B(P2O7)2,https://materialsproject.org/materials/mp-1020705,0.582114170051809,-14.566312713998954,66.57087107552628,-21.79743376095717
-6.618517471666666,-158.84441932,4.735913243710222,-2.5846493934375,4.00000035,0.11309701596874686,2.0075000000000003,113,24,412.17942639656684,1175.5496,mp-1190820,Ba2FeGe2O7,https://materialsproject.org/materials/mp-1190820,6.037663253800218,27.47804155569643,33.21950706408039,-6.313738277446643
-5.078542263,-50.78542263,5.007806383718786,-0.18068898000000005,2.9999999,0.11389304220270445,0.5246000000000004,148,10,306.97391584331933,925.7632,mp-3779,CrSiTe3,https://materialsproject.org/materials/mp-3779,-19.301717453227585,-35.19289622534224,20.19695019167285,-15.576895159443312
-6.607720867777778,-118.93897562,8.876953089284381,-1.9673200747222224,0.0,0.0,1.9045,41,18,261.0624345872484,1395.5944,mp-23329,Bi2WO6,https://materialsproject.org/materials/mp-23329,-11.073487179712926,-24.56093381315916,-10.727811836078539,33.01193180042573
-5.585318684,-27.92659342,8.647050027557317,-1.4901715952500003,0.0,0.0,0.14900000000000002,115,5,89.48058679821614,465.959,mp-1017551,Bi2O3,https://materialsproject.org/materials/mp-1017551,-10.130033073304023,-25.12622229687568,-1.7864074327589157,-28.798765483983654
-7.084512057045455,-311.71853051,4.1803204461147585,-2.294397810340909,3.000001125,0.05832995176515347,2.2417,62,44,599.3868736471079,1508.9252,mp-541360,V3CdO7,https://materialsproject.org/materials/mp-541360,5.0446110367232695,30.19606331955337,53.07489384331557,-10.415681462049358
-6.542029208974358,-255.13913915,5.270570960653419,-2.5355215872435903,0.00011926666666666667,2.074877641804592e-06,3.5566,145,39,669.890807311288,2126.2415100000003,mp-685195,SrLaTl(AsO4)2,https://materialsproject.org/materials/mp-685195,5.782751386190992,-20.782989637102528,17.150143472810168,-16.73285241497077
-7.434153684642857,-416.31260634,7.588255559668387,-2.514615275625,0.00049355,7.1423097063871945e-06,1.7395999999999998,38,56,805.3226344067778,3680.12664,mp-1228636,BaNb4Bi4PbO18,https://materialsproject.org/materials/mp-1228636,20.745040214999076,58.38225338253036,33.241330631816076,-4.6281925220831255
-4.584854893,-45.84854893,7.675977445238748,-1.6710612079880005,0.0,0.0,2.2374000000000005,67,10,249.34216660131958,1152.6045464,mp-1206410,Pb2IOF,https://materialsproject.org/materials/mp-1206410,-19.62788846421592,13.77763375860603,-16.60811510452665,38.03438179210054
-4.1618483095,-83.23696619,5.762107711007933,-1.263453228,0.0,0.0,0.1528999999999998,148,20,789.1120726127664,2738.2365900000004,mp-1190279,Tb7RhI12,https://materialsproject.org/materials/mp-1190279,-24.552040087766613,-37.99497671780718,-34.1204233103866,-23.78271431310535
-6.2570038669444425,-450.50427842,3.3520184084206424,-2.3937577402346744,0.0,0.0,3.0438,92,72,1466.651163264812,2960.63,mp-1209602,Rb5V3O10,https://materialsproject.org/materials/mp-1209602,8.47537430656053,-24.696653184010195,21.46427068955731,-18.538292096880923
-2.0649494379166664,-49.55878651,3.9092002341442513,-0.23144646132183916,3.396666666666667e-05,3.279226644641817e-07,0.0,185,24,1207.1435626082366,2841.8277341999997,mp-542220,Cs3As,https://materialsproject.org/materials/mp-542220,1.3591630645902475,-14.519516302117774,31.531126903827936,-6.453482474743866
-4.8384011171428565,-33.86880782,6.04483914317845,-1.4517185878571428,2.4e-06,1.1504904538488815e-07,0.6121000000000003,10,7,243.11158220020423,884.9960000000001,mp-1227387,Ca(ErTe2)2,https://materialsproject.org/materials/mp-1227387,-23.808302377021146,-37.70521230701647,-33.356559849213376,-24.11761238891756
-7.251732212826087,-333.57968179,7.588277218856231,-2.3288248191847822,0.00044875,7.6421746337346e-06,1.2672,30,46,684.3289792934853,3127.22428,mp-645592,Nb3(BiO3)5,https://materialsproject.org/materials/mp-645592,6.901095438335237,27.208372095357753,-10.457787088933717,33.06089224273408
-5.329309102142857,-74.61032743,5.341326249166043,-1.2572936985714287,3.72e-05,9.132265513422371e-07,0.3273999999999999,11,14,474.724709768926,1527.0099,mp-1209743,Pr3RuBr3,https://materialsproject.org/materials/mp-1209743,-24.85676624500188,-37.83478188229333,-34.13997957624762,-23.927855601333547
-4.7947051571428565,-33.5629361,6.287812906907633,-1.4198918778571432,0.0002085,1.0218631377410192e-05,0.6514999999999995,10,7,237.78844889642377,900.4119999999999,mp-1227408,Ca(LuTe2)2,https://materialsproject.org/materials/mp-1227408,-23.91733524794702,-37.414096834475686,-33.27657036856617,-24.03914906607288
-5.696461194375,-364.57351644,3.614674072441669,-1.9322899976171881,0.0,0.0,3.478800000000001,61,64,1021.6612423105247,2223.96,mp-27845,CaSe2O5,https://materialsproject.org/materials/mp-27845,8.771014273458004,26.629886222852672,44.90407757874234,-4.133305006424516
-6.569591744761905,-137.96142664,3.04114825183225,-2.8061493799811656,2.8666666666666666e-06,9.970473840090123e-08,4.2981,189,21,335.07253065887534,613.6593095999998,mp-867757,RbCaCO3F,https://materialsproject.org/materials/mp-867757,5.539509007747687,-20.77064912041596,-5.2963346300582295,29.071312341333787
-4.313709439166667,-258.82256635,2.18663019248472,-1.1510658119523811,0.000158125,1.473757751319915e-06,2.7043,4,60,1250.408345951408,1646.562096,mp-1147724,Li4Zn(PS4)2,https://materialsproject.org/materials/mp-1147724,-18.380023001167107,14.764204409114502,-9.51262376338146,-3.20749053902575
-6.2087948509375,-198.68143523,4.230464461804627,-2.5096458484878568,1.000000025,0.022404663724124044,0.4507000000000001,19,32,520.1624629323444,1325.189448,mp-556604,BaCuPClO4,https://materialsproject.org/materials/mp-556604,6.90708505651662,19.96194429740197,30.46186206208076,0.44388124709058463
-3.7400741414285714,-104.72207596,4.873633891176039,-0.6605512974060959,0.0,0.0,1.5473000000000003,82,28,763.6702959137996,2241.3501556999995,mp-1226259,Cs3Ag9(SbS3)4,https://materialsproject.org/materials/mp-1226259,-12.51551145850556,22.94337808097988,20.221063571157853,-15.180855069624052
-5.0610675190909085,-111.34348542,2.94291021264249,-0.5381724670454546,0.029217200000000002,0.0010148184680504845,0.0,124,22,335.52714302386164,594.6419999999999,mp-1182576,BaO10,https://materialsproject.org/materials/mp-1182576,4.8381862100558735,-11.192745161740561,14.385333286674824,-22.93560706782131
-6.3786204062500005,-306.17377949999997,3.150027905586229,-2.3950116038779776,0.0,0.0,1.2752,62,48,756.0602887683012,1434.239696,mp-1224154,K2P2PdO7,https://materialsproject.org/materials/mp-1224154,38.05029218077639,-35.0241958671296,36.106410266690155,-57.060756165146465
-3.98794137,-39.87941370000001,4.572880805412276,-0.2678082230000001,0.0,0.0,1.2468999999999992,162,10,318.0031769312361,875.7340771999999,mp-31220,AlSiTe3,https://materialsproject.org/materials/mp-31220,-19.47249266574293,-35.41211519088967,20.16394123629675,-15.595204012402615
-4.1135709195,-82.27141839,5.8926818134873695,-1.17682220725,1.0,0.015131019374903241,0.0,148,20,770.2101546370018,2733.21088,mp-567566,Ho7FeI12,https://materialsproject.org/materials/mp-567566,-24.812372856493567,-37.99758622826115,-34.169191210056034,-23.77747075433001
-3.8289746205,-76.57949241,4.5595766028155165,-0.8111202937413791,4.0000002,0.0565759670539717,0.22120000000000006,60,20,823.9587204330288,2262.4598476,mp-580597,CsCrI3,https://materialsproject.org/materials/mp-580597,-18.26747035781165,-35.46050955579967,18.91984065977937,-13.716954586485159
-3.439982767,-34.39982767,3.4806016477802415,-0.3131376034759999,5.65e-06,1.593986846634951e-07,0.0,194,10,413.0866330796138,865.8574,mp-13288,Ba3LiN,https://materialsproject.org/materials/mp-13288,29.50142994136023,-20.29062926844537,3.2495722570851986,-27.44822522248845
-7.91276819125,-379.81287318,4.334149901965703,-2.607122314416666,7.000000075,0.1031175408073805,3.1751,60,48,791.1210221193893,2064.894,mp-1211580,KGd(MoO4)2,https://materialsproject.org/materials/mp-1211580,6.071509741902172,18.562703495930137,34.96416535037534,-2.797293466737216
-8.15278414111111,-293.50022908,6.834763752471767,-3.2838618819444445,0.0,0.0,3.2259,15,36,541.9325156848446,2230.58936,mp-770889,La2WO6,https://materialsproject.org/materials/mp-770889,1.7065872986432826,-17.261511330042087,27.912764325302163,-6.268848817631245
-6.612709008333333,-158.7050162,2.770669519381553,-2.2930440081041668,2.9999998,0.08309722924976327,2.4697,113,24,420.7383603824037,702.01719,mp-1190373,K2V2CoO7,https://materialsproject.org/materials/mp-1190373,60.579346170426206,-36.3548503703791,68.91314398834177,-24.198129372367145
-3.298000216666667,-89.04600585,7.4537806164650595,-0.5652279246875006,0.0,0.0,0.5885999999999996,146,27,883.8686132293758,3967.4844,mp-667,Tl2S,https://materialsproject.org/materials/mp-667,-11.121047142368989,-19.8929703382742,-20.52894632033365,-7.0118650928611
-8.203903975,-328.156159,6.089591372921512,-3.754582278250001,0.0,0.0,3.6593,206,40,719.4810411803293,2638.508,mp-16705,Pr2O3,https://materialsproject.org/materials/mp-16705,-12.112707328274993,-26.64165253617401,-6.456411550555626,-18.292240480939476
-4.7764164490625,-152.84532637,4.337860848387722,-1.6871081000337504,0.000307625,5.472567234619397e-06,3.6856,62,32,655.1005263086564,1711.3328,mp-1199855,ZnSb2Cl2O3,https://materialsproject.org/materials/mp-1199855,5.984019790931478,30.01453191311386,31.543134773127946,-3.9128107171038886
-3.820842917,-38.20842917,4.5239408945916155,-0.9144882942413796,2.9999995,0.08435795889464098,0.6034999999999999,194,10,414.45038439482363,1129.1207238000004,mp-22991,CsVI3,https://materialsproject.org/materials/mp-22991,-18.092384463834005,-35.5848339847728,-15.400751073012614,-29.947435901000272
-2.852140135,-5.70428027,1.4348585945521355,2.315763816625,2.9999925,0.5910990016150123,0.5835,225,2,59.14763316579647,51.108999999999995,mp-1057017,KC,https://materialsproject.org/materials/mp-1057017,-26.145404011793012,-41.57074090476396,-15.15582989407691,-27.873622864878104
-6.50168293625,-156.04039047,4.544568402130133,-2.811356183854168,0.0,0.0,3.6144,113,24,406.4850692416285,1112.4696,mp-1190545,Ba2MgGe2O7,https://materialsproject.org/materials/mp-1190545,5.995772240977608,27.53458028499033,33.366510112412705,-6.469094180735412
-5.910571968666668,-177.31715906,2.81132540961356,-2.4786815777768205,0.0,0.0,2.1782,147,30,851.1851029108223,1441.0732,mp-753548,Rb6Ti2O7,https://materialsproject.org/materials/mp-753548,21.335639053338248,-16.097882427494724,21.64817246673144,-19.51232491935397
-8.116690856470589,-275.96748912,6.217116547000965,-2.4786414379411763,12.002882199999998,0.2729037152959541,0.0,15,34,512.5704003864752,1919.0816,mp-1225913,Eu2Mo(WO6)2,https://materialsproject.org/materials/mp-1225913,11.194465101730364,21.395431308705348,39.9744560487328,-4.667647568986523
-3.4558913375,-96.76495745,4.353178938935093,-0.9108119774014776,5.86913965,0.05450713124976258,1.0526000000000002,167,28,1254.8694468413482,3289.6975714,mp-541738,Cs3Cr2I9,https://materialsproject.org/materials/mp-541738,-18.34872465359433,-35.341797082256114,-12.706644871537392,-28.775036422019518
-5.4687166355555545,-98.43689944,7.340012521363295,-1.4991620624826396,1.5e-07,4.949733064662939e-09,2.4614000000000003,36,18,353.1725232546443,1561.1139999999998,mp-510293,Pb3SeO5,https://materialsproject.org/materials/mp-510293,-10.068958888180648,-24.97733577910219,-1.3553355390853223,-29.109754091527854
-5.12570265673913,-235.78232221,3.4667917780796054,-1.550105046648239,3.0000001,0.03900493492974322,0.019799999999999932,64,46,896.3531293171093,1871.362,mp-1197961,Rb3Ga2(Se2O7)2,https://materialsproject.org/materials/mp-1197961,6.69307789405492,-21.147390253281003,32.90932680417426,-13.249897343296672
-5.8712727183333335,-70.45527262,5.445964164876382,-1.0378804752777782,1.705e-05,1.193814913037924e-06,0.0,88,12,166.44272257120866,545.8716,mp-761035,AgRuO4,https://materialsproject.org/materials/mp-761035,26.701684595436355,59.35805644813674,-9.186054145062863,33.01960954369612
-3.3998828700000003,-20.39929722,1.966508996117312,-2.179779020046667,1.15e-05,7.647316539480679e-07,4.936,164,6,175.25329858195948,207.54536928,mp-1223818,K2NaCl3,https://materialsproject.org/materials/mp-1223818,-26.483552608371888,-39.98133375751975,-35.673105908550795,-22.759955387871265
-2.8276917276190483,-59.38152628,3.842448017252328,-0.48446901156609207,0.0,0.0,0.1014999999999997,164,21,868.4587575492978,2009.5929999999998,mp-1219816,Rb12Sn2Sb6O,https://materialsproject.org/materials/mp-1219816,-10.937460898814628,-19.4566367644386,-20.788411428068788,-7.7717780278354365
-4.114014686,-82.28029372,5.697107269283376,-1.2274667835,0.0,0.0,0.2706999999999997,148,20,785.2987170246753,2694.264285,mp-1105706,Tb7CoI12,https://materialsproject.org/materials/mp-1105706,-24.590491733879045,-37.97984802750078,-34.12222704966527,-23.836738291499998
-5.2704792975,-42.16383438,4.412899279648814,-1.8713020294612068,0.0,0.0,2.2566,15,8,180.03814885984778,478.4532,mp-10418,RbSbO2,https://materialsproject.org/materials/mp-10418,7.382586143624942,14.276107466536805,13.297624260321195,1.4503447120052102
-4.949720884285715,-138.59218476,4.597489164394994,-1.7370322312376854,5e-08,7.31689672176789e-10,2.5788,62,28,796.3802972569406,2204.9164152,mp-540796,Cs2Sn2O3,https://materialsproject.org/materials/mp-540796,11.134924758632538,19.530760877044,38.95705816026069,-4.432227979827305
-2.356989098095238,-49.49677106,5.115383916610671,-0.5652928486063219,0.5770308333333333,0.007220217912050366,0.0,166,21,931.3783585682801,2869.1634228000007,mp-1192166,Cs4Tl2O,https://materialsproject.org/materials/mp-1192166,-18.317737408570615,-35.288483214953985,-12.806075000178087,-28.712162059626888
-5.278243723,-52.78243723,6.31305500067214,-2.1192980795,0.0,0.0,2.9515,63,10,265.773715220361,1010.42134,mp-551243,BaBiIO2,https://materialsproject.org/materials/mp-551243,-0.5280526517025789,-16.904038444202552,-1.1419770986856173,-33.07112558535645
-7.628556344285713,-160.19968323,4.022942757305811,-2.9135041591496607,1.0,0.041644639903769855,0.2116999999999996,160,21,279.8454927090081,677.974062,mp-561145,Sr3CePC3O13,https://materialsproject.org/materials/mp-561145,-2.17538456199857,-23.67651258267436,13.497695723524265,-14.81086111720261
-6.738096688020833,-646.85728205,2.5210154886285423,-2.7617590523432547,0.0,0.0,5.5903,64,96,1205.9542878871255,1830.868992,mp-1019778,K2Li3B(P2O7)2,https://materialsproject.org/materials/mp-1019778,33.74218742823888,-17.721761282934857,66.70924995197564,-21.99210787679914