energy_per_atom,energy,density,formation_energy_per_atom,total_magnetization_uB,total_magnetization_T,band_gap,sgr,num_sites,cell_volume,weight,mp_id,formula,URL,tsne_xrd_lin1_0,tsne_xrd_lin1_1,tsne_xrd_lin2_0,tsne_xrd_lin2_1
-4.7630988465,-285.78593079,4.993875018533065,-1.1067383588333333,1.0080683000000001,0.021571284444033587,0.0,2,60,544.6172337972923,1637.872,mp-758491,Li5Ni9O16,https://materialsproject.org/materials/mp-758491,-11.471588161856651,-65.65726046758398,-28.821983176401115,-61.694921434622145
-6.609748050833333,-79.31697661,10.99591059017867,-0.3753236224999992,3.875e-06,2.303713391292294e-07,0.0,62,12,196.029163889767,1298.0839999999998,mp-636334,SnRh2,https://materialsproject.org/materials/mp-636334,-62.04543032338909,-26.031127124785264,-64.09569763948022,-16.904264783794975
-1.4571596633333332,-17.48591596,4.024819886098142,-0.01857877083333322,5e-08,2.6238156642355492e-09,0.0,38,12,222.08238428127368,538.2840000000001,mp-1094488,MgZn,https://materialsproject.org/materials/mp-1094488,-48.86170100846206,-30.49456574813904,-57.41082678337136,-28.6485970720806
-8.48862648625,-67.90901189,6.470529560045117,-0.4869688696874999,5e-08,6.0862651205093775e-09,0.0,194,8,95.74069270567962,373.0674,mp-9957,V2GeC,https://materialsproject.org/materials/mp-9957,-45.79491090024406,-36.179395753777385,-59.6265119335805,-34.345771974254696
-7.103840721111111,-127.86913298,7.339308163919114,-0.4440890335185191,3.05e-06,1.870783511122362e-07,0.0,86,18,190.00005797026816,839.7688599999999,mp-975663,Pr(CoB)4,https://materialsproject.org/materials/mp-975663,-49.94884789320972,-6.171317358342267,-59.799343864349225,1.0794911519573398
-7.35428882,-102.96004348,4.11364741052402,-2.5965164764285706,4.00000085,0.3036042583096061,0.9768,74,14,153.54286944373496,380.3712,mvc-16820,MgV2O4,https://materialsproject.org/materials/mvc-16820,-6.273265766045785,-61.585033266080906,-23.718937169914888,-64.17646820274398
-5.233787270833333,-125.6108945,6.149964436372088,-1.8348813027083333,0.0,0.0,1.3024999999999998,15,24,292.5380173178038,1083.4424,mp-769026,Li2BiO3,https://materialsproject.org/materials/mp-769026,-8.187449228833518,1.1572120216730697,8.749738835718079,-40.11859882533548
-7.391834546875,-354.80805825,9.07433872558208,-0.5960001799305559,0.9617934000000001,0.01668907116792043,0.0,15,48,671.6253090804637,3670.2272,mp-1196249,Ti11Ni9Pt4,https://materialsproject.org/materials/mp-1196249,-54.71683983210063,-20.259905970850642,-46.7315500349278,-24.82069296707857
-3.458037952916667,-82.99291087,5.445825212088264,-1.2903376449633337,2.0048223999999997,0.029297071168387125,0.23789999999999975,14,24,797.497127709126,2615.4338199999997,mp-567543,UHg3(TeCl3)2,https://materialsproject.org/materials/mp-567543,24.706205147106022,-5.195600119153611,6.745588048709776,-24.636080790165554
-1.4257133725,-11.40570698,5.612939492372479,-0.07000951374999986,3.3e-06,2.94734534437338e-07,0.0,194,8,130.48492543592116,441.06400000000014,mp-1094478,MgZn3,https://materialsproject.org/materials/mp-1094478,-50.38874125098805,-35.50317380915669,-58.76001574298563,-27.063333010160807
-2.199102487535212,-312.27255323,7.960090013473092,-0.3160781699295775,0.00205995,9.742338884795081e-06,0.06990000000000007,194,142,2464.1711823124797,11812.444,mp-1197303,Dy13Zn58,https://materialsproject.org/materials/mp-1197303,-54.87053787951314,-3.3048579604314603,-35.061690807831766,5.210230154124806
-5.95077617796875,-380.84967539,3.663276160767933,-2.9472514007812505,0.9999962,0.018921450490661143,2.7478,123,64,615.9158090372356,1358.757395,mp-1037175,Mg30CoNiO32,https://materialsproject.org/materials/mp-1037175,-31.914710897725506,-70.39079656100456,-52.35446522222261,-63.71115919740949
-4.748508309375,-75.97613295,4.856711891229946,-0.6758662775885416,0.0,0.0,1.7751,40,16,513.9685719012032,1503.24516,mp-571288,KTa(AgSe2)2,https://materialsproject.org/materials/mp-571288,32.741479547582806,-44.19243531534788,4.255961773249937,-58.030422225807726
-8.418890873333334,-50.51334524,6.896148465888588,-0.2989937908333336,6.538609200000001,0.8801345212567779,0.0,216,6,86.57923680853224,359.559912,mp-1215207,ZrScFe4,https://materialsproject.org/materials/mp-1215207,-75.97788531823466,-19.525985838588714,-69.77019460687676,-6.697341166769411
-4.6197724575,-129.35362881,7.906462957497202,-0.4671873135714288,5.3e-06,1.3456109323508587e-07,0.0,63,28,459.0223058507463,2185.58117,mp-1193443,Nd2(Ga3Co)3,https://materialsproject.org/materials/mp-1193443,-52.13839905405568,-5.908628125935434,-47.4972868618958,-0.4790464087562804
-6.0580367045,-242.32146818,8.236115894193743,-0.3822607675,0.0,0.0,0.028899999999999263,62,40,948.3858735198813,4703.90384,mp-1208475,Ta2Ni3Te5,https://materialsproject.org/materials/mp-1208475,3.0925086303335894,-47.54061712484536,1.6576518050815392,-52.452708199799545
-7.70068727125,-61.60549817,6.985430044312095,0.3553652718750007,9.6845126,0.7662456631412691,0.0,194,8,147.29471572912814,619.62827,mp-1186625,PmMn3,https://materialsproject.org/materials/mp-1186625,-46.286597844719886,-31.254207173570446,-53.65296531472336,-23.206460879451534
-5.1499571275000005,-144.19879957,8.402257222570112,-0.5423304542857151,3.45e-06,8.260402525063006e-08,0.0,63,28,486.73806564921927,2462.874,mp-1209216,Sm2(Ga3Ru)3,https://materialsproject.org/materials/mp-1209216,-45.72641094702179,-7.54450676039736,-42.29854615790612,5.695496480899037
-3.049778695641025,-118.94136913,10.539489538183568,-0.2745614253076922,7.2000000000000005e-06,9.852262027691069e-08,0.0,200,39,851.6751394409919,5405.60685768,mp-607437,Na2In5Au6,https://materialsproject.org/materials/mp-607437,-55.072417357909615,-19.888815163486505,-56.81613981569478,-21.236544208242048
-6.2475457133333325,-599.76438848,3.6065772179723146,-2.2322706978424995,35.02897539999999,0.4842827949906044,1.0174999999999996,1,96,842.9577768417731,1830.846635,mp-778190,Li32Mn3Cr13O48,https://materialsproject.org/materials/mp-778190,-11.123383212642754,-68.84383313950747,2.8931522511677064,-81.26534779752366
-6.81196625125,-54.49573001,8.904610727918882,-0.6142047750000009,0.0020356,0.0001882700145922933,0.0,123,8,126.0052712185512,675.701,mp-570199,Ti3Pd5,https://materialsproject.org/materials/mp-570199,-81.1535030599907,-5.498388172860468,-62.26490339813196,-22.95650895400695
-4.750152121474359,-741.02373095,2.410180802582443,-0.2926562161317944,0.0114463,5.6514127057564646e-05,2.5974,19,156,2360.3995770875918,3425.9897600000004,mp-605659,HgH24C8(I2N)2,https://materialsproject.org/materials/mp-605659,41.35947232880408,-27.42192741373,11.832710959438506,-61.154020171327744
-5.250960577058824,-89.26632981,8.267414154153272,-0.2288444470588239,0.0008115,3.618317359598456e-05,0.0,99,17,261.372141330956,1301.3074,mp-1220167,Ni11(GeTe2)2,https://materialsproject.org/materials/mp-1220167,-70.09343541807168,-46.06318187000603,-65.19413223944136,-16.594035843311936
-7.5877233906896535,-220.04397833,9.027674132703142,0.07920413172413791,19.057188699999998,0.5395174135722056,0.0,225,29,411.652535962065,2237.9871000000007,mp-1193316,Tb6Fe23,https://materialsproject.org/materials/mp-1193316,-56.001435932817934,-17.752707454717807,-61.0426854032044,-4.890910895710163
-7.134258315416666,-171.22219957,7.689263046297655,-0.27420565559027804,15.435108600000001,0.5961897084279763,0.0,191,24,301.718987854055,1397.13467,mp-1220135,NdY3(Co4B)4,https://materialsproject.org/materials/mp-1220135,-59.93614506927599,-14.534378909695745,-55.49336987328591,-1.6893183542949832
-3.1654019555,-63.30803911,2.2124131830297205,-0.03267411350000025,3.905e-05,1.1742930162450358e-06,0.0,12,20,387.54486578117707,516.3439999999998,mp-1100449,Mg3Si2,https://materialsproject.org/materials/mp-1100449,-53.11740299473525,-4.135438764105584,-43.03315247952065,4.814883627564137
-6.879659693828125,-880.59644081,6.2998635232947215,-1.0607905532812492,0.0011827,7.207794744488022e-06,0.0,176,128,1912.2717689827048,7254.903904000002,mp-1208729,Y15(Ni4P3)7,https://materialsproject.org/materials/mp-1208729,-51.05148095780221,0.8735219598940913,-56.028703672703244,20.789998707147152
-6.441064692,-32.20532346,5.210815835818668,-0.709125109,0.013120699999999999,0.0018817058630281745,0.0,119,5,81.26109965733495,254.9995,mp-1227116,CaFeSi2Rh,https://materialsproject.org/materials/mp-1227116,-27.607545342627727,5.621245476161253,-50.58354673447296,15.746089939173615
-6.761082762777778,-243.39897946,6.861892040447137,-0.8161360061111106,0.0002448,4.088241722295844e-06,0.0,6,36,697.8342402710217,2883.6800000000007,mp-1215774,Zr3GeAs5,https://materialsproject.org/materials/mp-1215774,-47.53061612344089,-11.970231724640222,-44.970540615236814,3.3388721547109266
-7.224045411666666,-86.68854494,4.930763846270212,-0.935744565885417,0.000244,8.412900456403341e-06,1.4225999999999996,156,12,338.00373833500095,1003.66,mp-1027376,MoW(SeS)2,https://materialsproject.org/materials/mp-1027376,-7.361472815011033,-82.02701444748114,-21.899385199507197,-50.83278329031946
-8.400216295,-100.80259554,11.446768764303446,-0.7129161533333329,0.199710775,0.012969814825485823,0.0,62,12,179.45069678671481,1237.0264,mp-1212428,HfFeAs,https://materialsproject.org/materials/mp-1212428,-52.14132882291195,-8.420470353731105,-58.491946092932395,1.4030856380771686
-3.859632754375,-61.75412407,3.215508946712116,-0.07427060765625004,3.8e-06,9.73038448530903e-08,0.0,225,16,455.12534682045884,881.316,mp-649627,Cu3SbS4,https://materialsproject.org/materials/mp-649627,6.9733602949836255,-58.50835373299493,-9.594796031913585,-61.312742912793524
-2.90168059,-11.60672236,9.256106555198887,-0.02250824749999936,3e-07,4.954770179692476e-08,0.0,187,4,70.56269624971596,393.3276,mp-1224795,GaAg3,https://materialsproject.org/materials/mp-1224795,-47.072305377978495,-32.667733006615336,-59.06729559782818,-29.22531204232481
-4.104123695,-16.41649478,5.66318011605756,-0.2211551062499999,2e-07,4.9032736347029764e-08,0.0,225,4,47.535853149528144,162.11849999999995,mp-7473,LiCu2Si,https://materialsproject.org/materials/mp-7473,-34.78234823041808,-25.963099442037077,-61.73660158537938,12.361004894134267
-8.1850566225,-65.48045298,11.861768559859064,-0.0852339674999989,8e-07,8.187399514712572e-08,0.0,194,8,113.87317549722694,813.433,mp-867352,TcRh3,https://materialsproject.org/materials/mp-867352,-55.23818475059218,-46.8929186239341,-66.5491998207815,-35.87481869702236
-7.3488043,-36.7440215,4.22597419005904,-3.2096371022500008,1.0000002000000001,0.16424788138582372,0.0,221,5,70.95413959098111,180.574112,mp-1187191,SrScO3,https://materialsproject.org/materials/mp-1187191,-26.929026550614772,24.437494480219307,-27.775719748111143,55.163366266298425
-8.896648525,-71.1731882,5.689355370063399,-0.4925261793587498,0.000105,1.741058331992887e-05,0.0,166,8,70.2835039259194,240.80604,mp-1216447,V4HC3,https://materialsproject.org/materials/mp-1216447,-46.89735800384465,-44.29662911290036,-65.67311762458358,-22.99624094859221
-8.8915519825,-35.56620793,10.970527487632756,-0.25892623857142816,0.0,0.0,0.0,141,4,64.15446483473299,423.843284,mp-12597,TaP,https://materialsproject.org/materials/mp-12597,-39.90526161352697,-18.063965596892047,-42.90411215341962,-21.171404169344605
-6.37475761225,-254.99030449,7.964755477150361,-0.3901396757499995,3.25e-07,3.3981748545335502e-09,0.0,62,40,1114.5898057684853,5346.11656,mp-505206,Ta3SiTe6,https://materialsproject.org/materials/mp-505206,-11.628826442399927,-4.515421464979296,4.540154910227018,-47.944510486674574
-8.286332799047619,-174.01298878,7.776254477157076,-0.20184985379809528,34.2929406,1.4699705646646342,0.0,8,21,271.8776556489215,1273.1949000000004,mp-1219270,Sm2V(Fe8N)2,https://materialsproject.org/materials/mp-1219270,-51.1226767532253,-25.487162347542444,-50.588615529388434,-10.439711625657154
-5.9098195816666665,-35.45891749,9.82004710483074,-0.3402943783333328,1.5564171999999998,0.2289915833336145,0.0018000000000002456,191,6,79.21071420122959,468.434,mp-11491,LuNi5,https://materialsproject.org/materials/mp-11491,-54.35516131908182,-17.680555352617898,-55.527328784715785,-16.137956489323248
-8.8704622675,-70.96369814,12.998511120237547,0.03977270999999938,0.00010229999999999999,7.85347180757421e-06,0.0,194,8,151.80685121745006,1188.3268,mp-1184747,Hf3Ni,https://materialsproject.org/materials/mp-1184747,-47.46289336789301,-30.821772760542842,-74.34775450102381,-0.6717334140103254
-4.638708777142859,-32.47096144,6.9408550520268975,-0.33007092809523897,5.39e-05,5.765308621666965e-06,0.0,123,7,108.95411372779984,455.415195,mp-1025229,TiGa5Co,https://materialsproject.org/materials/mp-1025229,-53.25408638834678,-35.71368327422118,-60.436351130985386,-29.520617362592702
-5.4036375475,-151.30185133,4.014574382001938,-0.5659242796428572,2.02e-05,5.584784978344818e-07,0.0,63,28,421.52403238177254,1019.0905128,mp-1209089,Sc2(Al3Co)3,https://materialsproject.org/materials/mp-1209089,-57.117883022657935,-24.78000262261834,-54.214504918328245,-9.131713055218325
-8.76406340111111,-157.75314122,13.294221694015649,-0.4254169296296293,1.945e-05,8.0674573399808e-07,0.0,193,18,280.9702614762453,2249.4387999999994,mp-1208348,Ta5Ga3B,https://materialsproject.org/materials/mp-1208348,-53.68851628930337,-19.76249847256997,-47.378100365858906,-15.608007172972984
-7.274507664642857,-203.68621461,5.418062801291537,-0.521852472559525,3.509480125,0.10453223813868667,0.0,216,28,391.2640676505728,1276.6296,mp-1217190,Ti4Fe2O,https://materialsproject.org/materials/mp-1217190,-67.86628776855136,-15.43201291188462,-70.2980014960464,-22.60813226985229
-6.913511865833333,-82.96214239,4.065149085249669,-0.9747581967187504,0.00024485,8.438165203080375e-06,1.3651,164,12,338.16566645549483,827.8599999999999,mp-1026916,MoSeS,https://materialsproject.org/materials/mp-1026916,-7.3749152260522095,-81.94578194903076,-21.96047356122357,-50.602256904197
-8.395395822500001,-100.74474987,9.59740011533084,-0.4147849598809532,0.0,0.0,0.0,62,12,161.33306850213552,932.455048,mp-21911,PRu2,https://materialsproject.org/materials/mp-21911,-62.45052801766837,-23.960611346375746,-54.48874213532015,15.994403194254065
-6.6840002975,-347.56801547,3.3286972196962212,-1.566875837953076,0.0,0.0,3.2689,14,52,688.301015899337,1379.7602,mp-1202556,Tb(NO3)3,https://materialsproject.org/materials/mp-1202556,40.04640896781801,-32.01782812759084,13.035864412989035,-56.36104456827962
-8.130360697,-81.30360697,6.061887153739632,-0.5227933697500007,0.64492905,0.05699757550008381,0.0,63,10,131.86604616882934,481.3841,mp-1206116,YFe2SiC,https://materialsproject.org/materials/mp-1206116,-45.24005322747917,1.4669328438111868,-53.7835345097719,17.739428222311627
-6.53231447125,-156.77554731,4.803422839697097,-2.1294963054083333,24.0000017,1.095112721762498,0.08760000000000012,5,24,255.40528275773426,738.8080249999998,mp-771140,Li5Mn5(SnO6)2,https://materialsproject.org/materials/mp-771140,-17.431745565736154,-57.871412276334766,-33.96282543769509,-61.19228949155729
-9.999412733571429,-279.98355654,12.045749584931846,-0.2474897377566947,0.0008228999999999999,1.681091904243457e-05,0.0,194,28,570.4702923814998,4138.26,mp-1212479,Hf9Mo4Se,https://materialsproject.org/materials/mp-1212479,-67.96520150744645,-5.130884564125757,-62.955155155284395,2.9971671434699885
-3.8667984360000003,-38.66798436,7.243772548195988,-0.3179260995781249,6.19e-05,2.161928202335569e-06,0.3218999999999994,8,10,333.67741289563565,1455.6016,mp-1227439,Bi4(TeSe)3,https://materialsproject.org/materials/mp-1227439,-22.31547872219102,-35.539418187260615,-32.91356259860484,-23.4782224532474
-6.07669853857143,-42.53688977,4.12102427896925,-1.1881015485119053,2.9998254,0.2582268848636155,0.0,10,7,135.3854364793746,335.9913,mp-1216979,TiCrAgS4,https://materialsproject.org/materials/mp-1216979,-29.777556783940703,-7.910514890244802,-38.655861926551474,-29.969853424618766
-7.016542051,-280.66168204,6.760575470506625,-0.6306157525000003,0.278076225,0.005293750410094546,0.0,128,40,612.1781509908782,2492.3693399999997,mp-639228,Tb2Mn3Si5,https://materialsproject.org/materials/mp-639228,-35.85175371314949,1.1579828588371677,-22.157866347540985,16.052543840966422
-7.667840274583334,-184.02816659,11.064687770371716,-0.5996776798611118,5.7999999999999995e-06,2.7981350388809405e-07,0.0,55,24,241.566524637349,1609.63284,mp-982777,TmB4Os,https://materialsproject.org/materials/mp-982777,-37.70016831015587,-11.702453769157055,-38.08134690677305,-10.62631762021011
-8.349420991666667,-50.09652595,7.375768805887862,-0.2872127155555558,4.586576999999999,0.9845357078836516,0.0,42,6,54.2918504776561,241.1531,mp-1226213,CrFe3B2,https://materialsproject.org/materials/mp-1226213,-65.02789705247655,-36.5906951971316,-75.53056061622091,-24.264255203551176
-10.724839555,-300.29550754,14.312707798297012,-0.3827826789285719,0.00030255,6.3865131334449285e-06,0.0,194,28,552.0911369418918,4758.647000000001,mp-1193862,Hf9Re4Si,https://materialsproject.org/materials/mp-1193862,-68.34181902538833,-5.318000625826269,-63.66796949855338,2.837084983635328
-4.739161772580644,-146.91401495,6.162060830117126,-0.8089524093548384,27.9999988,1.0655759074662736,0.0,166,31,306.23233629850233,1136.3914,mp-33255,Ni15O16,https://materialsproject.org/materials/mp-33255,-6.619336192358872,-62.187292579752864,-48.113727809158675,-57.59397686209896
-2.78174211375,-22.25393691,2.481356037768232,0.15715261062499986,2.4138724999999996,0.1829600962176985,0.0,38,8,153.7571691820051,229.7605,mp-1099275,Mg6FeSi,https://materialsproject.org/materials/mp-1099275,-69.46475826715415,3.2052468476755647,-66.97409578258245,14.269419622407913
-8.27872301,-33.11489204,8.087685110348064,-0.27361049375000057,0.9193524,0.22352524888452147,0.0,225,4,47.93280612313922,233.45759,mp-865554,Mn2VGe,https://materialsproject.org/materials/mp-865554,-49.974893336560974,-51.77605791872686,-69.71368921732274,-43.522541825931576
-5.8951497235714285,-165.06419226,3.5287177699898846,-1.0065527335119049,2.001521375,0.036882255369712284,0.0,26,28,632.4412516016561,1343.9652,mp-1238857,TiCrAgS4,https://materialsproject.org/materials/mp-1238857,22.057870208333746,-41.80209132222469,2.5169512554564952,-69.21229896109611
-4.869932461428571,-68.17905446,5.93550190584513,-0.7672893492857144,8.395e-05,7.0002510154335415e-06,0.09480000000000023,88,14,139.7605222297581,499.566,mp-768225,Cu2NiO4,https://materialsproject.org/materials/mp-768225,-32.132751394113704,3.6318726122874176,-16.642421995230087,11.913651683323133
-5.7361540275,-137.66769666,3.9239558862607766,-1.7887551907050003,19.3623897,1.011323995986448,0.0,8,24,223.12388968407947,527.2554749999998,mp-1175051,Li7Mn2(CoO4)3,https://materialsproject.org/materials/mp-1175051,6.543094615418202,-79.90064073897503,-24.99716122197492,-74.4301293258072
-6.826376215,-40.95825729,6.358263689972754,-1.0758782665104174,4.1e-06,4.164966121217224e-07,0.0,99,6,114.72281929037732,439.2778,mp-1215461,Zr2As3S,https://materialsproject.org/materials/mp-1215461,-34.07074342387747,-11.899777560981445,-43.18045703845557,-10.506455439062004
-6.340264563333334,-38.04158738,7.405640555299108,-0.9175071283333338,5.5e-07,5.33389189732439e-08,0.0,12,6,120.16995747744929,535.9317,mp-1215971,YGePd,https://materialsproject.org/materials/mp-1215971,-53.29301093838541,13.484373718902946,-43.4873507287234,6.127668780406352
-3.1820046279166667,-76.36811107,5.264637869450902,-0.5293267322710132,1.25e-07,1.7909797436303154e-09,1.0512,14,24,813.3861378114267,2578.7912,mp-6300,RbHgSbSe3,https://materialsproject.org/materials/mp-6300,17.129605359276322,-9.829141992458439,10.273578298938752,-46.23261643114361
-7.3708683499999985,-88.45042020000001,5.3538726482213645,-0.907793915885416,0.0049078,0.00016894121651672586,1.355,156,12,338.5545592132388,1091.56,mp-1029062,MoW3(SeS)4,https://materialsproject.org/materials/mp-1029062,-7.313587009518198,-82.02154813973603,-21.75366722197696,-50.904994349708154