energy_per_atom,energy,density,formation_energy_per_atom,total_magnetization_uB,total_magnetization_T,band_gap,sgr,num_sites,cell_volume,weight,mp_id,formula,URL,tsne_xrd_lin1_0,tsne_xrd_lin1_1,tsne_xrd_lin2_0,tsne_xrd_lin2_1
-7.1893751820833325,-172.54500437,5.703002599761512,-2.8029421683333333,0.0,0.0,3.8836,14,24,329.7913469181379,1132.6447999999998,mp-556843,NdAsO4,https://materialsproject.org/materials/mp-556843,9.28856174816742,16.693157837593606,22.630829748770694,36.822668664060885
-7.165433280769231,-93.15063265,4.272812656307448,-3.0379031046153853,0.0,0.0,3.6859,166,13,191.4923689414512,492.7382,mp-19386,Sr3V2O8,https://materialsproject.org/materials/mp-19386,-15.460583662027775,19.347801154713267,-14.111266386093245,46.31444061643786
-3.2143406220833337,-154.28834986,5.409895186073934,-0.3805361120833333,3.25e-07,2.638415610033335e-09,0.2296999999999993,229,48,1435.5475447759522,4676.892,mp-27466,LiTe3,https://materialsproject.org/materials/mp-27466,-24.320067748376555,-38.880207191847504,-15.208389176421035,-27.702999987846443
-5.34152149,-37.39065043,5.693080823281611,-1.9231597658928583,7.499999999999999e-06,5.252393022702203e-07,0.6783000000000001,119,7,166.41078726669645,570.5316399999998,mp-34735,Ho2CdS4,https://materialsproject.org/materials/mp-34735,-14.191412948700385,-14.313979178020643,-10.921814422534569,-8.607694060201062
-4.784793881111111,-86.12628986,4.67335898460958,-0.4675613319444444,3.3333333333333334e-08,8.726707596012888e-10,0.0,189,18,445.149354986382,1252.8117,mp-29819,Ba2Si3Ni,https://materialsproject.org/materials/mp-29819,-1.2108933395914092,11.852443614644706,-0.6553036905052271,18.770392073349086
-4.904907296999999,-49.04907297,7.836022906906992,-1.023674480583333,6e-07,4.5220436187635364e-08,0.0,148,10,154.63006226923036,729.6936000000002,mp-23548,AgBiO3,https://materialsproject.org/materials/mp-23548,-8.922952241970636,15.837852104390766,-24.592110338752672,8.973471178701066
-9.1079502796875,-291.45440895,6.678123118406723,-3.9905144257812495,0.0,0.0,4.0102,62,32,533.4095527451401,2145.19176,mp-768234,La2HfO5,https://materialsproject.org/materials/mp-768234,11.119790058671025,21.608825888144327,38.380749238186205,-0.6686805193607251
-4.5422276864999995,-90.84455373,4.151815608886662,-1.6431691331379312,0.0,0.0,2.2278,19,20,514.5730287772576,1286.5775999999996,mp-27931,Rb2SnO2,https://materialsproject.org/materials/mp-27931,0.7394628321979102,19.196780398459907,2.694257499202218,24.438921189335453
-7.376847339285715,-206.55172549999997,4.0511431368967985,-2.834171663482142,1.00000005,0.03011477184224749,1.7180000000000002,9,28,386.98833304503546,944.1182,mp-1218556,Sr2V3O9,https://materialsproject.org/materials/mp-1218556,17.750006045634603,33.62122084198309,21.77766634912839,38.48527676315523
-7.339181210555554,-264.21052358,3.9978153559880383,-2.6906306341666677,0.0,0.0,2.8228,62,36,474.34196668085883,1141.9976,mp-19038,SrV2O6,https://materialsproject.org/materials/mp-19038,7.219577400424909,8.051114468568352,32.1822912464778,37.192169186638175
-6.1214714936000005,-306.07357468,7.275765500175653,-2.0632328699666287,3.00225255,0.04683187032905317,1.8654,15,50,747.1075879618812,3273.5030508,mp-1213921,CoBi6P2(O7F)2,https://materialsproject.org/materials/mp-1213921,23.458761997449713,55.58803341557118,36.84957736148152,-0.9104112443804216
-4.77651716125,-38.21213729,6.598949434803567,-1.7514974680100581,4.5e-07,3.7252775897700884e-08,1.9381,194,8,140.77686887154962,559.4445038,mp-755004,CsInO2,https://materialsproject.org/materials/mp-755004,-13.010894832638042,33.980611377426484,-10.928076494686382,50.05376128369977
-4.428540171363637,-97.42788377,4.959090556385325,-0.06085179561467025,0.0,0.0,0.0021999999999997573,137,22,635.8080923554437,1898.7990228,mp-1246324,Cs6MoN4,https://materialsproject.org/materials/mp-1246324,3.3108483798932014,19.334452470930753,2.291998045425661,20.603195497221872
-6.9461178077499985,-555.68942462,6.32995651743154,-3.2439172189999987,3.0,0.03938305882542149,0.0,230,80,887.7470506458279,3384.081972,mp-3800,Yb3Al5O12,https://materialsproject.org/materials/mp-3800,-12.605357226046513,8.813531643161774,-21.230666018156334,50.096823603355475
-8.078073025,-64.6245842,6.143506850990592,-2.036759596875001,4.999985,0.4004833707361153,0.0,11,8,145.49954707163602,538.3056,mp-1206663,GdBrO2,https://materialsproject.org/materials/mp-1206663,1.9315794162730169,20.59666401898381,1.7810217680963838,48.751225195180645
-7.120914702142858,-99.69280583,7.969995631259934,-0.2859389659523807,0.1141101,0.004797114564522536,0.0,140,14,277.2179981771241,1330.5476,mp-570271,Ti4FeBi2,https://materialsproject.org/materials/mp-570271,6.463358952143098,-6.920083056446438,13.952661544391113,3.2154229914809247
-5.771485831428572,-80.80080164,4.77966348817452,-0.6145455895914286,6.17e-05,1.9061427663766395e-06,0.0,176,14,377.2308187774289,1085.8139,mp-1245853,Ba3YN3,https://materialsproject.org/materials/mp-1245853,1.8688126935040459,-7.767915710289913,11.957005469026404,8.036848661055911
-8.066914155,-32.26765662,6.111804034050731,0.033268755000001704,22.034558800000003,1.5027904436041502,0.0,139,4,170.8769020876318,628.932,mp-1187831,YbEu3,https://materialsproject.org/materials/mp-1187831,28.953187508464406,63.08401032387303,-12.181875897647775,33.70807897868544
-4.4910145476,-112.27536369,5.5805915730552815,-0.6919340102000001,0.0007099999999999999,1.5725899979568005e-05,0.0,65,25,526.1629540610038,1768.2815499999995,mp-1190840,Li8Pr7Ge10,https://materialsproject.org/materials/mp-1190840,-47.41838137683553,19.07794234376918,-26.791588068707863,27.712335625358573
-3.00998763,-30.099876300000002,4.198872050413872,-1.006608419068965,0.0,0.0,0.32210000000000005,225,10,330.4828860046465,835.6656,mp-1113383,Rb2CuSbBr6,https://materialsproject.org/materials/mp-1113383,-21.590373882358904,-20.00382574029964,-18.21746427958291,-11.3045618021727
-5.620083065,-22.48033226,8.323689531727117,-0.8243616250000008,4.970000000000001e-05,6.670652308391174e-06,0.0,38,4,86.82914240150373,435.2435,mp-1225524,Er2SiGe,https://materialsproject.org/materials/mp-1225524,-32.7893578364832,21.73782549853946,-39.699303639771145,25.07285360187109
-4.343860287777779,-117.28422777,7.048689135424053,-1.2993357261111111,0.0034270000000000004,6.252805544977476e-05,0.6145000000000005,65,27,638.7289623558241,2711.2894,mp-1226909,CdBi8(Br5O4)2,https://materialsproject.org/materials/mp-1226909,-12.346396050046248,32.43941613716162,-12.543930940347847,52.0007081013654
-7.5951034834375,-243.04331147,6.259947217314477,-2.8332440923437487,2.999999975,0.09281974188458032,2.5142,55,32,376.66764975281137,1419.9724,mp-1208812,SmCrGeO5,https://materialsproject.org/materials/mp-1208812,-2.6112435681327466,27.71570076371645,0.4942112657633722,49.39457821472378
-5.430063517000001,-54.30063517,3.499782638916788,-3.6073330847329657,0.0,0.0,6.9079999999999995,225,10,167.4267505194509,352.87170048,mp-1114456,Rb2NaScF6,https://materialsproject.org/materials/mp-1114456,-23.678766058955393,6.36060977721735,-27.860244633815388,-9.589778312541329
-6.1953668760000005,-30.97683438,4.531152075125613,-1.6951735585833334,0.033835199999999996,0.004614149944639762,0.0,38,5,85.45834381706403,233.1922,mp-995191,BaTiO3,https://materialsproject.org/materials/mp-995191,3.94224798689868,18.629548099180244,1.7583344282375473,-28.897138497742706
-6.6372194570000005,-132.74438914,8.31013246649592,-1.8260415334420004,3.9999989,0.18698105822445216,0.25,62,20,249.309992752364,1247.66658,mp-1105271,MnBiO3,https://materialsproject.org/materials/mp-1105271,-20.93720412658572,44.80416241246768,-6.924424736774332,63.01233144066289
-8.852186755,-53.11312053,10.440944516080464,-2.5157498124479183,1.9999997999999999,0.220058979288595,0.0,129,6,105.91763757905615,665.9766199999998,mp-3217,USeO,https://materialsproject.org/materials/mp-3217,-8.025994414816488,15.82533018745069,-24.90939180862287,40.298240540223176
-7.0211859655,-140.42371931,4.252425087029596,-2.7562017231380005,0.906137775,0.04050981074607905,0.0,62,20,260.6822428499063,667.5734099199999,mp-557590,NaNbO2F,https://materialsproject.org/materials/mp-557590,-6.061015802293287,19.190926765741747,25.446830018564068,52.54979366221426
-5.404945049375,-86.47912079,4.154833442825194,-1.894593470421724,1.99999985,0.07444613524774164,1.8208,36,16,313.0871430658548,783.3750976,mp-18722,Cs2LiMnO4,https://materialsproject.org/materials/mp-18722,8.788376908193502,17.82232139951153,31.01422334873052,1.1175259319541024
-8.61660196388889,-620.3953414,5.456360758427764,-3.1561422271875,12.00179535,0.16037638540146507,0.0,161,72,872.1340117859273,2865.7428,mp-1227918,CaEu2B2O7,https://materialsproject.org/materials/mp-1227918,3.55050565777948,21.43874581281148,-5.6155387107483214,28.993158242001314
-6.0043540604,-300.21770302,7.286925557696008,-2.1046421373666293,0.0,0.0,2.5296,15,50,748.9147822684565,3286.4546608,mp-1205442,ZnBi6P2(O7F)2,https://materialsproject.org/materials/mp-1205442,23.453674968630395,55.573552823877534,36.859327442165,-0.9159071428003412
-7.4672848625,-59.7382789,8.969334037302943,-2.180933442723214,0.0,0.0,0.0,129,8,126.8387682294398,685.114444,mp-1087483,ThCuPO,https://materialsproject.org/materials/mp-1087483,-6.490117803255215,14.707062163476026,5.260656338658866,24.433321299101333
-6.17220744625,-98.75531914,4.057062674748975,-1.669037448281251,5.000000225,0.1388162980771629,0.4421,62,16,419.7657428710042,1025.5801800000002,mp-8347,BaMnS2,https://materialsproject.org/materials/mp-8347,8.865060123759227,13.337641011665205,12.157660023606711,7.981838921145233
-6.66092526375,-53.28740211,5.91275220717453,-0.3023774338541667,3.6000000000000003e-06,2.3994043857313237e-07,0.0,12,8,174.85436565303002,622.6113999999999,mp-864790,Nd2BC,https://materialsproject.org/materials/mp-864790,6.961156285511577,8.614699355806852,7.809494488252022,25.380375476036505
-5.718761385416666,-137.25027325,9.785399203392194,-1.4157651629166659,0.0,0.0,0.9749000000000004,64,24,304.38473523098406,1793.7104,mp-1191753,HgWO4,https://materialsproject.org/materials/mp-1191753,1.4991443864604836,26.729483403400774,-5.921707403888411,27.929825908709887
-8.895601881764705,-151.22523199,6.857603792209034,-3.580799718455882,0.0,0.0,3.0179,71,17,250.1322382376424,1032.98251,mp-557028,Sr2LaTa3O11,https://materialsproject.org/materials/mp-557028,2.8009751645757843,18.155461612103856,31.484329298862658,36.81352819350439
-5.546849737142856,-38.82794816,5.1693508029969655,-2.5351127503485715,0.9999992,0.12055868580752803,0.0,107,7,96.66707438992474,300.9300032,mp-1218709,Sr2NiO3F,https://materialsproject.org/materials/mp-1218709,-21.80724971993997,37.986115495653685,-14.912353424604635,57.9183219179842
-7.1202727642307675,-185.12709187,6.400012774472534,-3.1141408747907686,0.0,0.0,3.5178,176,26,419.76181850921034,1617.8367,mp-555930,Pr3W(ClO2)3,https://materialsproject.org/materials/mp-555930,-0.14887461710661193,12.246569360075929,7.29560608578866,29.9948952529242
-3.801212322352941,-129.24121896,3.6538990303691317,-1.3674413342118137,0.00068505,8.228443686797924e-06,1.8941,190,34,970.2463037149153,2134.9585544,mp-1194539,Al2Ag2Bi2S3Cl8,https://materialsproject.org/materials/mp-1194539,7.000936778250535,1.3330312497306906,9.781133507359142,13.213188933965414
-8.543981007000001,-85.43981007,6.3547266476886595,-2.656576609125,0.0,0.0,1.7678000000000005,123,10,146.72729740947062,561.5115599999999,mp-1095131,SrTa2O7,https://materialsproject.org/materials/mp-1095131,-1.0629343387982575,16.844653089523288,2.6609728542206383,37.786220976416324
-3.8126783995454554,-83.87892479,4.6734239862709535,-1.9874980294318176,0.0,0.0,3.5856,186,22,801.5246711066292,2255.8124399999997,mp-29910,Sr4I6O,https://materialsproject.org/materials/mp-29910,-3.8733464373195656,21.413490810402067,0.5606436547684315,15.958535907979961
-6.076782175625,-97.22851481,7.812402838452231,-1.8828681717187497,0.0,0.0,2.3283,36,16,242.5629969756725,1141.1956,mp-23446,GeBi2O5,https://materialsproject.org/materials/mp-23446,23.22014911445004,55.87873899332232,-7.364040292106313,37.1508496651831
-7.859401048928571,-220.06322937,6.523084622787478,-3.3662539475685715,4.00000075,0.1228191355521136,1.7100999999999988,141,28,379.55215709043597,1490.99225,mp-770950,LiLa4MnO8,https://materialsproject.org/materials/mp-770950,-7.325080053798008,19.04172934225166,-24.349717246553645,38.08722281445218
-7.101396081458333,-340.86701191,7.251934228780072,-0.5446082943229152,1.0738702,0.011011463553488664,0.0,225,48,1136.538554328378,4963.510429999998,mp-1200955,La21Mn8Bi7C12,https://materialsproject.org/materials/mp-1200955,-0.2369390333904861,26.20996954941103,-13.796470109124384,44.00410521017929
-4.588572644,-22.94286322,4.95119754006536,-0.33298763600000003,1.4099999999999999e-05,1.721522536259689e-06,0.0,119,5,95.45173521231432,284.6066158000001,mp-1226654,CeAl3Cu,https://materialsproject.org/materials/mp-1226654,-46.84573879669559,31.15740063733816,-0.05226174828865103,42.27145329256806
-6.02042181,-42.14295267,4.113163521362466,-2.2697956066071443,2.2e-06,1.2852237436183596e-07,0.6162000000000001,139,7,199.49010922758575,494.13800000000003,mp-3813,Ba2ZrS4,https://materialsproject.org/materials/mp-3813,4.585337542941719,-1.2079937815354334,12.348912325727301,6.131374213203366
-5.1009600639285715,-142.82688179,4.306091014243293,-2.6031542178571425,0.0,0.0,2.3516,62,28,931.3441917129567,2415.1512,mp-771161,Ba3(BrO)2,https://materialsproject.org/materials/mp-771161,12.183041822493632,11.927661197659422,13.144528528971716,1.6281991156882134
-8.067731482857143,-56.47412038,5.695931169437365,-0.5572797057142854,21.70261,1.5267847723092214,0.0,44,7,165.65767962897706,568.234,mp-1225258,Eu3Si4,https://materialsproject.org/materials/mp-1225258,-2.6130263657959363,18.356383507046804,8.568813779552578,30.81680575659166
-7.106275573846153,-184.76316492,6.958692971844075,-3.1156819184446163,0.0,0.0,3.4707,176,26,399.59472118028367,1674.5508000000002,mp-1208868,Sm3W(ClO2)3,https://materialsproject.org/materials/mp-1208868,-0.2876335364342267,12.73622003651459,7.5594200066493,30.419559730292224
-6.3829819643055545,-459.57470143,4.0236441138433365,-2.3719274358333333,8.0005252875,0.10271938096780976,0.025499999999999638,57,72,907.7025098529937,2199.44956,mp-1203339,Ca2FeCoO5,https://materialsproject.org/materials/mp-1203339,-12.383886797106822,43.04838693085005,-5.225152042053447,68.66957746132381
-5.5502841258333335,-66.60340951,5.703730611711813,-0.938683869224139,6.95637835,0.1848747626186414,0.0019000000000000128,125,12,438.51352518333084,1506.2356,mp-19914,RbGdTe4,https://materialsproject.org/materials/mp-19914,-9.643542162047147,17.638726183905522,-1.8958036857506064,23.276693790847016
-1.999221535,-7.99688614,1.5880466573200842,0.003073260000000077,0.003595525,0.00024996999156164394,0.0,194,4,167.63004622906632,160.312,mp-1183484,Ca,https://materialsproject.org/materials/mp-1183484,-14.368981832785925,26.731434182713414,-19.989202318615746,39.09560035108711
-7.296604185,-29.18641674,5.221706945151644,-0.72948811875,7.929999999999999e-05,1.223553337697136e-05,0.0,38,4,75.53143030146686,237.5150386,mp-1215490,Zr2AlSi,https://materialsproject.org/materials/mp-1215490,-23.947410821231014,39.384508311006066,-7.925877817598937,49.77895352240311
-7.284480409545455,-320.51713802,5.572481904724143,-3.2783858252272733,3.885e-05,5.538822625961575e-07,2.5467,55,44,817.4307916844368,2743.1564,mp-771193,Ba3Y2O6,https://materialsproject.org/materials/mp-771193,18.57665569441319,55.037993334435384,0.35893059589279896,35.70779769835251
-2.855219558,-28.55219558,4.620755721091191,-1.1127984569080458,1e-07,3.514159555230561e-09,0.0644,225,10,331.6316345173769,922.8261037999998,mp-1113553,Cs2GaAgBr6,https://materialsproject.org/materials/mp-1113553,-21.73134531813821,-20.553210237410386,-19.16672855276456,-11.99156411787122
-4.2431139380000005,-42.43113938,4.507941345328363,-2.538287965314,0.0,0.0,0.6703,225,10,169.03114545573118,458.8765882,mp-1112558,K2GaAuF6,https://materialsproject.org/materials/mp-1112558,-23.616896101911326,5.573845690692174,-12.651071618909395,-38.11834550100936
-6.407277427391303,-147.36738083,6.051688566021785,-2.2895792602898557,1.3577417999999999,0.04565427730577813,0.0,139,23,346.5876981390561,1263.1084,mvc-16276,Ba2Ti4Tl2Zn3O12,https://materialsproject.org/materials/mvc-16276,17.309187205251526,52.63742173863871,3.592990090636468,50.01515068556321
-5.05610611,-25.28053055,5.622126011465949,-0.5847511660000002,0.3028011,0.03648385849427969,0.0,119,5,96.7239699483983,327.4806158,mp-1226634,CeAl3Pd,https://materialsproject.org/materials/mp-1226634,-8.600115199289473,10.904277515566982,-27.919864785956346,29.649206264552355
-5.00986046875,-40.07888375,7.544218496739546,-0.2897772712500002,4.362407599999999,0.18925538396668026,0.0,139,8,268.63056505519216,1220.45169,mp-1079799,BaMnBi2,https://materialsproject.org/materials/mp-1079799,0.6797264191145176,7.235855343830836,-28.18076605293218,-0.6483255956721247
-4.02934002125,-32.23472017,3.6431908912721163,-1.0129641391718749,0.0,0.0,2.1615,140,8,189.51059283685237,415.78261576,mp-10166,NaAlSe2,https://materialsproject.org/materials/mp-10166,-17.672841784327517,21.010325976747698,-41.68160985679543,36.47197245642799
-7.670345330000001,-153.40690659999999,4.362208169647661,-2.8441880761500014,3.5e-07,1.6344769355204736e-08,2.2292,31,20,249.55522967334025,655.57739712,mp-1190015,NaNbO3,https://materialsproject.org/materials/mp-1190015,-11.084216543349381,50.58360645806931,10.443634209028831,36.06260623308519
-4.944419202083333,-118.66606085,6.8735738367090224,-1.2200875078472222,2.325e-06,7.33171157930668e-08,0.0,182,24,369.5685557609398,1529.7784,mp-759209,Ag2SnO3,https://materialsproject.org/materials/mp-759209,-0.9749199403266158,63.42001826942567,8.15381122326591,51.10773193408482
-5.269976025714286,-36.88983218,7.01163574784273,-0.7485865860119054,0.320256,0.02338349478865577,0.0,47,7,159.61190581364897,673.9622,mp-1233009,BaLiTi2Bi2O,https://materialsproject.org/materials/mp-1233009,-0.5853528023465133,27.85328643043703,4.9324322893878785,37.104499041410286
-6.069002462857143,-84.96603448,5.965439436597239,-0.6728019581628573,0.3507578,0.014770897697316885,0.0,176,14,276.7437839220208,994.1942,mp-1029741,Sr3IrN3,https://materialsproject.org/materials/mp-1029741,-4.027499242508692,20.396202712068177,5.795365390261692,27.57940459585002
-7.859303674285713,-110.03025144,6.523997039394102,-3.3661565729257146,4.0000006,0.24567262055013656,1.6471999999999998,65,14,189.7495373244665,745.496125,mp-754290,LiLa4MnO8,https://materialsproject.org/materials/mp-754290,-7.2371235287508275,18.94665532414952,-9.383474778948274,44.765879570178015
-7.617691252,-38.08845626,7.219437753257911,-3.3426856502187503,0.0,0.0,2.166,164,5,94.69002195245193,411.6788,mp-13972,Sm2SeO2,https://materialsproject.org/materials/mp-13972,-13.50047476723573,23.319182798768388,-18.175582641649388,38.440896346444994
-4.550446643333333,-54.60535972,6.230264259738831,-1.0677725266666669,0.00010090000000000001,2.2702122062111263e-06,0.0,194,12,517.9670571473954,1943.388,mp-27652,ThI2,https://materialsproject.org/materials/mp-27652,-9.711845185846038,17.70973559841543,-21.43124745999028,30.473641791082212
-8.564353121086956,-393.96024357,5.635275471233045,-2.7511931465036232,7.0000004,0.1284666885643404,1.9516,127,46,635.0164309612959,2155.0186,mp-1212605,GdNb5Ag2O15,https://materialsproject.org/materials/mp-1212605,9.468690643509866,32.760452182710324,30.87546702884151,36.5925199926887
-5.145861511428572,-72.04206116,5.311828474765599,-0.3272201095914288,1.9998293999999999,0.07202536261206448,0.0,176,14,323.58242314166887,1035.0942,mp-1246600,Ba3CuN3,https://materialsproject.org/materials/mp-1246600,4.65881728002351,16.104575063590925,1.3877002948340635,21.94930401842554