energy_per_atom,energy,density,formation_energy_per_atom,total_magnetization_uB,total_magnetization_T,band_gap,sgr,num_sites,cell_volume,weight,mp_id,formula,URL,tsne_cry_lin1_0,tsne_cry_lin1_1,tsne_cry_lin2_0,tsne_cry_lin2_1
-6.63978885828125,-424.94648693,4.823678264989968,-1.9301665947265607,59.999566599999994,0.956539900714434,1.1392999999999995,186,64,731.0085391729626,2123.4972,mp-1218653,SrFe12O19,https://materialsproject.org/materials/mp-1218653,-27.4941287942764,-35.09482976670327,6.642765628773192,-2.9266548582788894
-7.63981150375,-183.35547609,3.288427953486181,-2.687701428273809,2.000000275,0.07908482471705154,1.6267999999999998,62,24,294.7232017441864,583.6514480000001,mp-26110,VPO4,https://materialsproject.org/materials/mp-26110,-14.80235643613588,-49.08331817116775,7.831637703495885,0.8161406653278771
-7.122237077125,-569.77896617,6.457620175819727,-2.460560541375,9.0000004,0.10756670157961884,1.5523000000000002,148,80,975.0841670740275,3791.9754,mp-3282,Tb3Fe5O12,https://materialsproject.org/materials/mp-3282,-23.42861665971716,-33.57663301289466,6.708041164337684,-3.412549477808618
-5.987737558636362,-263.46045258,7.740063837870258,-0.5048061131818183,0.0,0.0,0.0,62,44,1016.6408949719008,4738.7416,mp-22174,Zr3NiSb7,https://materialsproject.org/materials/mp-22174,35.60481627557103,30.728185241420668,-8.604250342815693,-0.5045126942092143
-4.608197469875,-368.65579759,3.646299511070174,-1.0077838130625012,1.950922925,0.0108852376712195,0.0,112,80,2088.717106686236,4586.515572,mvc-12090,Al5(BiS4)3,https://materialsproject.org/materials/mvc-12090,18.79403514160944,-6.898702654536071,5.743332085612937,-5.564371631809292
-6.500524167692308,-507.04088508,5.2363424764793605,-1.7560470879807706,4.1568593,0.056874751582443935,0.0,166,78,851.7717648822384,2685.9764,mp-705834,BaFe15O23,https://materialsproject.org/materials/mp-705834,-27.428310955115556,-33.483494566725014,4.157657652336853,-3.842622017059967
-4.622746205,-9.24549241,5.0419683301123115,0.0,0.0,0.0,0.0,227,2,47.84701051976385,145.28,mp-32,Ge,https://materialsproject.org/materials/mp-32,36.17253734740089,27.131447740095226,-8.604250342815693,-0.5045126942092143
-5.60294261875,-89.6470819,3.032462694060144,-0.9807325888658333,0.0,0.0,2.2521,43,16,244.0805784809174,445.73793856,mp-558460,NaAg(NO2)2,https://materialsproject.org/materials/mp-558460,5.3570786528051135,-17.096391812602374,8.258547144845188,-0.35058150189929804
-5.363813583750002,-128.73152601,6.138659619459599,-1.0537436104635418,0.0,0.0,0.3845000000000001,62,24,543.072381240152,2007.62307712,mp-505448,NaHfCuSe3,https://materialsproject.org/materials/mp-505448,47.10086689155892,-4.968286837408738,5.508928110412959,-5.701548599512432
-7.08263828,-70.8263828,6.02013623176079,-2.680896216346001,5.0000005,0.4050668506951116,1.2722000000000002,225,10,143.85361228606223,521.5284449999998,mp-20399,Ba2MnMoO6,https://materialsproject.org/materials/mp-20399,-3.211919824431352,-37.9578845637975,7.287417082414706,-0.4635405843248783
-5.38004528,-64.56054336,3.011998574541641,-3.0274076032708326,9.9999996,0.5869320567287147,2.8281,139,12,198.55900138342102,360.15981239999996,mp-554144,K3Mn2F7,https://materialsproject.org/materials/mp-554144,0.2716305865725512,-76.32049158489181,6.062829488262597,-0.3196746395293674
-5.70985110625,-45.67880885,5.589183542975803,-0.4081215487500005,2.25e-07,1.640435625063653e-08,0.0,140,8,159.8456247695904,538.0219999999999,mp-1079083,SiPd,https://materialsproject.org/materials/mp-1079083,34.48753767403827,49.35139247144973,5.080135719862811,-5.362855515047246
-3.240310496,-32.40310496,4.3651746635290625,-0.929722482691379,3.0000002,0.08018685112502028,1.0847,225,10,436.00909822462114,1146.16749308,mp-1112148,Cs2NaMoI6,https://materialsproject.org/materials/mp-1112148,10.495171256190693,-7.688703972244107,7.241672036035903,-2.639712670154684
-4.827281423333334,-101.37290989,3.437533928728554,-1.7027583977976195,0.0,0.0,0.8703000000000003,189,21,474.0655701978391,981.378,mp-866580,Ca2SnS4,https://materialsproject.org/materials/mp-866580,42.87422280032419,0.9819901886752628,6.2408745505668985,-6.680614945710538
-6.390142874736843,-607.0635731000001,3.2724619696142723,-2.3334700501714294,0.0,0.0,1.1714,8,95,1469.8682881744742,2896.702792,mp-1224722,K14P16Pd9O56,https://materialsproject.org/materials/mp-1224722,-10.143245500580587,-25.696509797614013,5.57515282067078,-2.271442220919589
-5.323215499444443,-95.81787899,1.8220596986334219,-1.0187748151736111,0.0002440833333333333,1.7454567357651252e-06,0.4544000000000002,167,18,1629.6954936107447,1788.216,mp-1098704,CeSe2,https://materialsproject.org/materials/mp-1098704,33.182407971227605,8.58564536009385,5.2934833885115635,-6.48752419419024
-5.460309686875,-174.72990998,2.6623462257377577,-3.1708220232437503,2.000000875,0.05845802286657952,2.1904,62,32,398.7158408628174,639.262064,mp-777901,Li2VF5,https://materialsproject.org/materials/mp-777901,-21.023212721093536,-52.02580759789607,8.725277366688736,1.8178638362534856
-6.6909782325,-214.11130344,2.903430587095821,-2.7076139093750005,2.000000025,0.06539356079679552,2.2399,33,32,356.42851608736953,623.2105544,mp-770519,Li2AlVO4,https://materialsproject.org/materials/mp-770519,-21.7327016737406,-54.72628958130265,8.60265438266224,1.816902033080469
-4.969343149,-49.69343149,3.4173287312927068,-1.627916810100001,3.00000005,0.2626496336852568,1.6345,12,10,133.11343484407394,273.94259,mp-753408,KLiCoO2,https://materialsproject.org/materials/mp-753408,-24.742967579231077,-53.241078780087,7.523816337123033,0.2889603321526449
-6.092723092999999,-426.49061651,5.131643450673642,-1.525068952285715,9.79972904,0.1505831839335568,0.5483000000000002,1,70,758.4291552507394,2343.81,mp-699378,Fe2NiO4,https://materialsproject.org/materials/mp-699378,-28.166044619520225,-33.687014907569,7.0667498650642875,-1.8301237489828148
-6.277102962857143,-175.75888296,4.3747491147828965,-1.1140755008928571,2.9999998,0.06873280716850508,0.1999000000000004,26,28,508.6681808463453,1340.1044,mp-1239256,ZrCrCuS4,https://materialsproject.org/materials/mp-1239256,16.659740233929654,4.418730819458305,2.4796517179491,-4.3748659356136015
-5.998243221388888,-215.93675597,4.313070376300089,-2.2069778230355563,4.9999862,0.13883913976728868,0.109,6,36,419.6955061402173,1090.1136384000001,mp-759395,FeOF,https://materialsproject.org/materials/mp-759395,-42.667816825084344,-76.80099607127595,0.4348532891821636,-2.3735111257332555
-5.37619275175,-215.04771007,8.273634219766452,-0.5831446102499995,1.395e-05,1.7034706263664362e-07,0.0,223,40,954.3704544174284,4755.1498999999985,mp-683897,Pr3Sn13Rh4,https://materialsproject.org/materials/mp-683897,0.4911320052546181,49.98826410807197,-8.604250342815693,-0.5045126942092143
-4.6731168375,-18.69246735,9.122317065331089,-0.6089109300000004,0.0017354,0.00024053962815493202,0.0,225,4,84.07955130484144,461.8984,mp-977540,CaBiPd2,https://materialsproject.org/materials/mp-977540,27.264417381926265,40.241178128113646,-8.604250342815693,-0.5045126942092143
-5.6691549923333335,-170.07464977,3.5634307909699774,-1.6825458720326671,1.5e-07,4.763440703462538e-09,2.6274,2,30,366.984670264344,787.5300985599998,mp-730154,NaAs3H2O9,https://materialsproject.org/materials/mp-730154,20.060472788769392,-40.72243401462646,9.216669847523864,0.1544072149621543
-4.2587697810625,-681.40316497,4.057114560242205,-2.1511277609827504,5.7056009,0.02801956456168616,0.0,1,160,2373.1076301556004,5798.09886272,mp-686372,Na17Pd15F48,https://materialsproject.org/materials/mp-686372,-10.150620781635515,-24.65068754894101,2.7539861753073653,-2.4307068507889484
-6.180286098571429,-86.52400538,3.08670869364458,-1.4618031285119062,6.9999716,0.2997940264363093,0.0,166,14,272.1139023422451,505.8215,mp-1247189,Mg2TiV3S8,https://materialsproject.org/materials/mp-1247189,22.570262377713565,11.278907334364257,-8.604250342815693,-0.5045126942092143
-4.763518351111111,-171.48666064,5.772728155168675,-1.2138503669444451,7.75e-07,1.4225913465531531e-08,1.9174,14,36,634.890702844318,2207.1456,mp-779690,Hg(TeO3)2,https://materialsproject.org/materials/mp-779690,4.49615510953072,-21.843090371706733,8.00242317837826,-0.6823548274182857
-4.823810386666667,-43.41429348,12.113383026457694,-0.20603746333333264,6.666666666666667e-08,3.0816907880231173e-09,0.0,164,9,252.11408442518643,1839.1344,mp-569581,Bi2Pt,https://materialsproject.org/materials/mp-569581,-2.510729505737678,38.17723200467228,-8.604250342815693,-0.5045126942092143
-8.4751259665,-169.50251933,6.6449037732846925,-3.458454384012667,4.9999991999999995,0.2334010657110331,1.923,14,20,249.65744848692933,999.04289,mp-18794,Sm2TiMnO6,https://materialsproject.org/materials/mp-18794,-17.982455665707047,-32.86297700383919,6.386666249207591,0.17146164634367275
-6.640349354,-929.64890956,5.037590057096367,-1.9552864048392864,128.0355061,0.8981807243637829,0.4544999999999999,194,140,1661.2849071480566,5039.8528000000015,mp-1201385,Ba3Fe26O41,https://materialsproject.org/materials/mp-1201385,-27.358967464680816,-35.16934815209886,4.914656842084533,-4.448739291771774
-7.9281416805,-158.56283361,4.591703917415306,-3.1441761079666675,6e-06,2.8375413308144586e-07,1.8563,5,20,246.4259740501745,681.41433784,mp-1221230,Na3LaTi2Nb2O12,https://materialsproject.org/materials/mp-1221230,3.5668437965034783,-40.612380199977295,8.666649011844118,1.361226266053519
-6.764011731666668,-81.16814078,8.581193385254744,-0.7889081428645842,1.95480155,0.06620031934602492,0.0,62,12,344.12800582008094,1778.3556399999998,mp-1208121,UTeSe,https://materialsproject.org/materials/mp-1208121,-12.496320236835649,20.03285614556645,-8.604250342815693,-0.5045126942092143
-6.173433437142857,-86.42806812,3.1877037878581236,-1.2453349337500004,13.0000015,0.563576110944157,0.0,166,14,268.8241332134553,516.056345,mp-1246817,Mg2MnCr3S8,https://materialsproject.org/materials/mp-1246817,19.076210712132596,9.69662305085452,-5.136886560781937,-3.5579003193493963
-5.7669353628125,-184.54193161,3.8744730482786927,-1.3973639405175788,12.0000006,0.2890668720039832,0.3601000000000001,2,32,483.79388234162,1128.818,mp-1201589,Fe3Se3O10,https://materialsproject.org/materials/mp-1201589,-24.837424814732927,-38.45917880426696,5.151108747636968,0.02566298302606378
-8.32996591137931,-241.56901143,6.028499588452543,-3.5599425457471265,0.0,0.0,2.4077,160,29,385.91965333670083,1401.06099,mp-677222,Ba3La3Ti4NbO18,https://materialsproject.org/materials/mp-677222,5.828841842102716,-41.04938206926664,6.603709301538895,-0.9573934991715412
-7.0416461845,-140.83292369,2.5457894227175752,-1.8972220015000003,4.99999975,0.24434619607750505,2.1285,4,20,238.47443457150973,365.6076,mp-763588,LiFe(CO3)2,https://materialsproject.org/materials/mp-763588,-16.88744070841095,-70.65107486171141,8.37606918608596,-0.5029213526930569