energy_per_atom,energy,density,formation_energy_per_atom,total_magnetization_uB,total_magnetization_T,band_gap,sgr,num_sites,cell_volume,weight,mp_id,formula,URL,tsne_xrd_lin1_0,tsne_xrd_lin1_1,tsne_xrd_lin2_0,tsne_xrd_lin2_1
-6.1164254133333325,-36.69855248,3.987698168401932,-0.19952388562666576,0.0,0.0,0.4990999999999999,186,6,77.32124035464949,185.68293856,mp-1245896,NaFeN,https://materialsproject.org/materials/mp-1245896,-47.337110425981464,-30.031780140345784,-15.226290505046373,-52.12463794685336
-5.830905058214285,-163.26534163,4.106310852564342,-1.8903918633721437,11.00000015,0.5071116323817028,0.9209,2,28,252.79387428796787,625.12847,mp-1174389,Li4MnCo2O7,https://materialsproject.org/materials/mp-1174389,1.7944307005860367,-73.20115531890342,-21.188797566689892,-76.4792243125826
-7.253355812833332,-435.20134877,4.100545242060128,-1.9289883741768885,27.0000027,0.4505538216022538,1.5893000000000002,12,60,698.3844442959056,1724.59481,mp-771265,TiMn9O20,https://materialsproject.org/materials/mp-771265,21.209780312468787,-68.66465018825271,-8.782269062166849,-71.3497265480696
-6.39464359142857,-89.52501028,4.20679586192662,-1.8463064030628564,11.000000199999999,0.8888368849220709,0.4867999999999997,12,14,144.2274921345204,365.384735,mp-753229,Li2Mn3NiO8,https://materialsproject.org/materials/mp-753229,6.915604355538667,-67.15676482956209,-6.751471216399363,-68.08550911052205
-5.81432778125,-139.54386675,3.990206930502612,-1.866928944455001,18.0000002,0.9560380280727404,0.17379999999999995,2,24,219.41927211804045,527.2554749999998,mp-1174895,Li7Mn2(CoO4)3,https://materialsproject.org/materials/mp-1174895,13.550178530524127,-83.16234433290795,-16.95626638528082,-87.57946113454466
-5.694891514375,-91.11826423,3.95501947680046,-1.86354322881,10.0,0.8273293648698721,0.0,8,16,140.86366648417854,335.504635,mp-1174172,Li5Mn(CoO4)2,https://materialsproject.org/materials/mp-1174172,19.179256286675788,-72.17375692053669,-12.351920990101053,-76.04790059766499
-5.847158216666667,-140.33179719999998,4.065851960422707,-1.8997593798716668,18.000000399999998,0.974162293226904,0.4768000000000003,12,24,215.33698442877377,527.2554749999998,mp-1174502,Li7Mn2(CoO4)3,https://materialsproject.org/materials/mp-1174502,21.583802771845495,-75.08239672917361,-13.146365010706944,-77.50976908628121
-5.7720423609375,-184.70535555,4.1835360147531935,-1.8366933975599995,25.117395600000002,1.0200166891227205,0.0,6,32,286.9754567370496,723.001465,mp-1100607,Li9Mn2Co5O16,https://materialsproject.org/materials/mp-1100607,1.6130874137955722,-72.56331217261423,-21.185071189499983,-75.78245200775396
-6.444968059333331,-96.67452089,4.242855045946815,-1.964539316192,11.0000006,0.8791775086656719,0.0,166,15,145.81210077263762,372.56552999999997,mp-753150,Li3Mn3CoO8,https://materialsproject.org/materials/mp-753150,4.712352004110646,-69.39083954080768,-12.723510393196596,-66.23609280513821
-6.314008541428572,-88.39611958,4.094139226569993,-1.8649972164971425,14.9999991,1.182941073649184,0.0,12,14,147.77655877690785,364.350245,mp-768068,Li2MnFe3O8,https://materialsproject.org/materials/mp-768068,5.119438077432409,-66.01836962612825,-8.208336920343484,-67.22198635669984
-6.5658609125,-367.6882111,3.8039081067877074,-2.0399292395085715,37.94620020000001,0.7777501761221364,0.0,12,56,568.5983604764507,1302.526385,mp-531021,Li11Mn13O32,https://materialsproject.org/materials/mp-531021,19.184257803342785,-68.17061938239601,-16.154252256862527,-70.00618771053824
-6.21579168625,-149.17900047,4.009920861797249,-2.0815257853683327,13.999999300000002,0.7587574275058101,0.6112000000000002,2,24,215.03169885838253,519.265175,mp-1175161,Li7Mn4CoO12,https://materialsproject.org/materials/mp-1175161,19.596314769830464,-82.52521707780281,-11.704066991490205,-80.73673587523868
-9.360578821666666,-56.16347293,4.8815443815248125,-1.4450031902377771,0.0,0.0,0.0,136,6,74.6602723992879,219.4814,mp-8282,Ti2N,https://materialsproject.org/materials/mp-8282,-49.031573052936466,-30.20377529164494,-60.11666179458837,-28.365800868392636
-5.865390482916666,-140.76937159,4.080140958173945,-1.917991646121667,18.000000399999998,0.9775858814324652,0.7883,1,24,214.58285614796108,527.2554749999998,mp-1174934,Li7Mn2(CoO4)3,https://materialsproject.org/materials/mp-1174934,16.425408803935746,-73.03021900210375,-9.463380382507236,-78.24109320772223
-6.943186288,-69.43186288,3.914038476344857,-1.9730201755379997,10.0000007,1.0259388803996172,0.8872000000000002,12,10,113.5941507919537,267.751535,mp-753228,LiMn3O6,https://materialsproject.org/materials/mp-753228,6.12117337250337,-64.08738523572056,-7.291099782763829,-65.50053805734336
-7.275375835333333,-109.13063753,3.935993268664813,-2.5884772744444438,8.9999992,0.7049402805620661,1.9098,12,15,148.7878853314451,352.6735,mp-757225,Li3TiCr3O8,https://materialsproject.org/materials/mp-757225,3.241239226567488,-66.03677617911217,-11.281290651935661,-65.50341373039633
-5.7473208378125,-183.91426681,4.124233369889949,-1.8119718744349989,25.9970704,1.0407748806086154,0.0,10,32,291.1018972337468,723.001465,mp-1100732,Li9Mn2Co5O16,https://materialsproject.org/materials/mp-1100732,6.372377737810713,-72.10448208678207,-22.6593791527622,-74.58735329860293
-6.4176695725,-205.36542632,3.924775232484048,-2.1319448639600003,26.0032331,1.0188242316193776,0.4371999999999998,2,32,297.44420424874824,703.025715,mp-1100502,Li9Mn7O16,https://materialsproject.org/materials/mp-1100502,3.6530921990151626,-78.08149898718567,-28.61403580951352,-77.98867274929225
-5.7742482334375,-184.77594347,4.16303805106611,-1.8388992700599989,23.553949499999998,0.9518385276083352,0.0,6,32,288.3884662793893,723.001465,mp-1100600,Li9Mn2Co5O16,https://materialsproject.org/materials/mp-1100600,6.442958901972348,-72.04573360452919,-22.11222573468889,-74.15650834323743
-6.498829006875,-103.98126411,4.122487406300417,-2.2398114075000004,7.9999994999999995,0.6231424348629674,1.6838000000000006,12,16,149.61669617949792,371.4414,mp-754256,Li2CrFeO4,https://materialsproject.org/materials/mp-754256,2.6808716507162784,-66.68089793458749,-11.640373022159391,-65.26405403105632
-5.4340650845,-108.68130169,4.0998187337412295,-1.7012668258749997,6.738054099999999,0.4432775482692964,0.0,12,20,177.14797248135403,437.37278,mp-1174033,Li3Co2O5,https://materialsproject.org/materials/mp-1174033,17.577510016416,-73.49103779932148,-13.489311435668686,-76.75902712843731
-5.725279910666669,-85.87919866,4.767309350809831,-1.7672419960000003,11.0000001,0.8226591744449289,0.4447000000000001,12,15,155.8296772780291,447.37778499999996,mp-757171,Li3Co3SbO8,https://materialsproject.org/materials/mp-757171,2.8651179448037536,-61.00985374735129,-9.712006895836168,-61.53784543075253
-6.345160669583334,-152.28385607,4.215247749532276,-2.175809951458335,4.0000001,0.2100875464706776,1.3689000000000004,1,24,221.8896885549167,563.262885,mp-1177804,Li2VCoO4,https://materialsproject.org/materials/mp-1177804,2.531123206261062,-67.49079131100014,-11.345311244664384,-65.8753197396459
-7.65685259,-68.91167331,3.9306008443731337,-2.299917399009629,6.0000005,0.6523046945489891,1.366,12,9,107.19590867077395,253.73949,mp-775831,TiMn2O6,https://materialsproject.org/materials/mp-775831,22.06489667106668,-67.74261538471082,-7.609535663620146,-70.95869297545896
-6.264742189166667,-75.17690627,4.275692847782873,-1.9918087178683344,10.0,1.050589403068915,0.0,12,12,110.92882470084488,285.628685,mp-1173968,Li3Mn2CoO6,https://materialsproject.org/materials/mp-1173968,1.6602620870785658,-67.92977299372829,-19.807257479551037,-74.27021428445866
-6.010733027142857,-84.15026238,4.533877729645628,-1.6669009586399994,3.9999817,0.34066854748526576,0.0,12,14,136.83695241301848,373.61483,mp-755265,Li2MnCo3O8,https://materialsproject.org/materials/mp-755265,8.623972319152026,-66.88050034695073,-4.158138260792476,-69.22597035903286
-5.7584593971875,-184.27070071,4.153365280073504,-1.8231104338099997,24.0015797,0.96767409336493,0.0,2,32,289.06009408073214,723.001465,mp-1175744,Li9Mn2Co5O16,https://materialsproject.org/materials/mp-1175744,-1.7103981714346792,-76.87025949606259,-21.611379389531738,-77.97225671745727
-5.7697290640625,-184.63133005,4.128668048234167,-1.8343801006849996,25.5579022,1.0242932952537367,0.0,6,32,290.78921932781174,723.001465,mp-1100590,Li9Mn2Co5O16,https://materialsproject.org/materials/mp-1100590,6.345195674531182,-71.86764602500145,-21.789692530340165,-74.36934418189388
-6.30036127,-100.80578032,4.154740822146247,-2.1598982325,18.0000013,1.398548304725447,1.7204000000000002,10,16,149.9935185274418,375.2903,mp-755815,Li4CrFe3O8,https://materialsproject.org/materials/mp-755815,2.465137336682132,-66.84804060897311,-11.82860426581335,-65.25270667451261
-5.78677674125,-185.17685572,4.186591888348117,-1.851427777872499,19.9999995,0.8127926584573338,0.3184,8,32,286.7659878554337,723.001465,mp-1100683,Li9Mn2Co5O16,https://materialsproject.org/materials/mp-1100683,11.031180067861154,-80.10460624439901,-15.353492453107245,-83.82670547587163
-6.093389909,-121.86779818,3.915582781018312,-2.024230935019,11.999999699999998,0.7752136867346392,0.8393999999999999,8,20,180.4002898395266,425.38732999999996,mp-1174280,Li6Mn3CoO10,https://materialsproject.org/materials/mp-1174280,18.96496963545397,-82.99978506912393,-18.41033516863832,-83.26828879530095
-6.3110402665,-126.22080533,3.8387921381281638,-2.129761054067,7.0004944,0.4475743342555977,0.5871999999999997,2,20,182.28081668988384,421.39218000000005,mp-1174008,Li3Mn2O5,https://materialsproject.org/materials/mp-1174008,12.717165905901885,-82.97873648587917,-17.269410394873127,-84.94684893169281
-5.8084046267857135,-162.63532955,4.127078675662006,-1.8678914319435709,10.701182800000002,0.4958309014699966,0.0,8,28,251.5217932655377,625.12847,mp-1174792,Li4MnCo2O7,https://materialsproject.org/materials/mp-1174792,6.77287682051668,-71.88658910470056,-21.436339601035094,-74.83445813920287
-5.7947085796875,-185.43067455,4.169574329165295,-1.859359616309999,25.9999998,1.052335507849047,0.6349,2,32,287.93638482756955,723.001465,mp-1175553,Li9Mn2Co5O16,https://materialsproject.org/materials/mp-1175553,12.728495933903707,-72.3124758450931,-12.236347939527931,-81.48333821542253
-6.577234399999999,-78.92681280000001,4.06137945533347,-2.276930179374999,1.0000002000000001,0.10382086817748416,1.0762,12,12,112.25168222875723,274.5474,mp-757121,Li3V2FeO6,https://materialsproject.org/materials/mp-757121,3.19150168214404,-66.70869984361325,-11.525409977703497,-64.54903652677504
-6.92583398625,-110.81334378,3.993956885865308,-2.472175735625,2.9999995999999998,0.2332123325770299,1.9579,12,16,149.91569815247738,360.5798,mp-754324,Li4V3CrO8,https://materialsproject.org/materials/mp-754324,2.4186443903622568,-66.29455652680198,-11.807043672328096,-65.54295696180553
-6.74149951,-53.93199608,4.077499949889649,-2.263535880745,6.9999997,1.0838921109269086,0.5782999999999996,10,8,75.26436357391256,184.81374499999998,mp-1101152,Li2MnCrO4,https://materialsproject.org/materials/mp-1101152,4.389938677116794,-75.39235422461202,-10.987770153956294,-63.809050469385745
-5.6899080741666666,-204.83669067,4.466218956288071,-1.5558269726388885,23.0,0.7605781631996492,0.5017999999999998,2,36,352.4207014322502,947.8777550000001,mp-759050,Li6FeCo9O20,https://materialsproject.org/materials/mp-759050,23.791089739210683,-73.78808097985016,-5.655566729012108,-70.08352242050957
-5.7577288725,-184.24732392,4.113405778981555,-1.8223799091225,25.7178005,1.026891447108635,0.0,8,32,291.86815576141515,723.001465,mp-1100619,Li9Mn2Co5O16,https://materialsproject.org/materials/mp-1100619,3.875136167938522,-75.68900356745596,-23.085081795468593,-77.38632160787726
-5.7962861803125,-185.48115777,4.145410188675919,-1.860937216935,25.9999992,1.0462368316494999,0.7332999999999998,1,32,289.61480383517045,723.001465,mp-1175950,Li9Mn2Co5O16,https://materialsproject.org/materials/mp-1175950,1.7923063393151737,-73.09241451935667,-21.63132550950821,-76.88924432742134
-6.162845075833333,-147.90828182,3.8916745105105686,-2.0285791749516666,16.0000551,0.8415833367946289,0.0,6,24,221.56531664484126,519.265175,mp-1175303,Li7Mn4CoO12,https://materialsproject.org/materials/mp-1175303,3.3281072142270762,-79.45847984144142,-30.05350258929987,-78.31723300904943
-5.7936460128125,-185.39667241,4.1804488636556965,-1.8582970494349995,23.9999999,0.973920068688028,0.8548999999999998,1,32,287.18738053401853,723.001465,mp-1176009,Li9Mn2Co5O16,https://materialsproject.org/materials/mp-1176009,12.736083555764498,-72.65165717690441,-11.876878916978676,-82.05259314135445
-5.8001006325,-139.20241518,4.022645355195014,-1.8527017957050012,17.9999995,0.9638101107135372,0.0,2,24,217.64988533243422,527.2554749999998,mp-1174877,Li7Mn2(CoO4)3,https://materialsproject.org/materials/mp-1174877,18.295216133523823,-79.81256760616532,-14.315275502437927,-85.91981388338581
-5.786590437142857,-162.02453224,4.085346857845411,-1.846077242300716,10.0000009,0.4586570074734149,0.0,8,28,254.09108836304057,625.12847,mp-1174845,Li4MnCo2O7,https://materialsproject.org/materials/mp-1174845,13.042416769634972,-75.64414823517053,-14.486140083275886,-79.61245676979905
-5.38162767,-64.57953204,4.5602667854641625,-1.577153499375001,9.9999999,1.0731604232551442,0.0,12,12,108.59573651318195,298.23179,mp-754066,Li3Co2CuO6,https://materialsproject.org/materials/mp-754066,16.294763915995215,-74.18087822989487,-8.468627795809269,-79.62957501985404
-6.787953201666666,-40.72771921,4.983817383922495,-2.0118347275,2.9999999,0.4413513035088351,1.7977999999999996,10,6,79.21624536806817,237.7537,mp-754974,CrSbO4,https://materialsproject.org/materials/mp-754974,13.971529296844102,-64.61605338972015,-9.502743494140894,-62.903220412453955
-6.412802708928572,-179.55847585,3.9117065850995583,-2.151945975652143,10.9999909,0.4957516908396621,0.8496000000000001,2,28,258.586322174801,609.14787,mp-1174294,Li4Mn3O7,https://materialsproject.org/materials/mp-1174294,12.719261756076696,-82.39812036051829,-17.764430454126863,-85.67422074714854
-6.361847436666667,-152.68433848,3.8816251012006178,-2.1341480037416667,17.9999012,0.9516498142213003,0.5444999999999998,2,24,220.42983810817384,515.270025,mp-1175318,Li7Mn5O12,https://materialsproject.org/materials/mp-1175318,2.195281229852239,-78.13155409176989,-28.534701014373816,-79.06942379815146
-5.761293273125,-184.36138474,4.150616950689745,-1.8259443097474997,23.999999399999997,0.9669701013786538,0.0,6,32,289.25149510850036,723.001465,mp-1100583,Li9Mn2Co5O16,https://materialsproject.org/materials/mp-1100583,12.339276335424106,-72.25347881590244,-14.425556570683376,-80.51424514590805
-5.889968729166667,-70.67962475,4.314933888409908,-1.8039023219550003,11.8419347,1.2382001295395226,0.0,164,12,111.4574863415221,289.623835,mp-1173922,Li3Mn(CoO3)2,https://materialsproject.org/materials/mp-1173922,13.619163190406473,-67.72742302269694,-13.072770441649258,-68.46005092771627
-5.777187755,-184.87000816,4.1527349001779665,-1.8418387916224992,24.0000015,0.9674636051681144,0.26339999999999986,1,32,289.10397303671925,723.001465,mp-1176250,Li9Mn2Co5O16,https://materialsproject.org/materials/mp-1176250,6.8841790305379496,-71.93463779141794,-22.435420174479365,-77.12423987995629
-5.802588509642857,-162.47247827,4.102814455021704,-1.8620753148007143,10.00000045,0.4606180529971126,0.18659999999999988,8,28,253.009303937674,625.12847,mp-1174840,Li4MnCo2O7,https://materialsproject.org/materials/mp-1174840,-1.4898850585802517,-77.09472695490076,-23.88119645439676,-75.06184042943698
-5.669077734423077,-294.79204219,4.6790720135529975,-1.552706690096154,32.0,0.7535898824523013,0.1903999999999999,2,52,494.871390136418,1394.450125,mp-758799,Li9Co15O28,https://materialsproject.org/materials/mp-758799,7.694365054149687,-68.92662381229803,-22.35860641752038,-78.79658602154201
-5.7574058065625,-184.23698581,4.105976352524224,-1.8220568431849988,26.0000003,1.0362843907158026,0.10519999999999996,1,32,292.3962671805501,723.001465,mp-1176227,Li9Mn2Co5O16,https://materialsproject.org/materials/mp-1176227,10.696012555178994,-81.51200369871117,-15.10194117247544,-86.94411403305641
-6.984904384,-104.77356576,4.0273190199567415,-2.316234056,10.9999992,0.8713828604308618,0.7431999999999999,166,15,147.11639280065478,356.8026,mp-768634,Li3Cr4O8,https://materialsproject.org/materials/mp-768634,2.1581606852269517,-68.20393356016376,-12.560584088105587,-66.22723149467596
-6.351466738749999,-152.43520173,3.868871466712004,-2.1237673058249995,17.9999978,0.9485281230697846,0.22929999999999984,12,24,221.1564793548021,515.270025,mp-1175375,Li7Mn5O12,https://materialsproject.org/materials/mp-1175375,5.538717258745941,-72.9126717799335,-23.088136409601297,-73.70232468359336
-5.8652043525,-140.76490446,4.079119855491664,-1.9178055157049996,18.0000003,0.9773412237773114,0.7238000000000002,2,24,214.6365714438451,527.2554749999998,mp-1174528,Li7Mn2(CoO4)3,https://materialsproject.org/materials/mp-1174528,16.442030758299484,-73.08499367417886,-11.169336884254149,-79.18223446819464
-5.870175663333334,-140.88421592,4.070470862498208,-1.922776826538333,17.9999998,0.9752689316646094,0.9047,1,24,215.092634210357,527.2554749999998,mp-1174929,Li7Mn2(CoO4)3,https://materialsproject.org/materials/mp-1174929,13.32124146609164,-72.0154203214815,-13.462217446332176,-79.30946395167949
-5.2128560293333335,-78.19284044,4.523974781287087,-1.375526218666667,9.8761502,0.7932463196777095,0.0,166,15,145.09653720308668,395.30120000000005,mp-771350,Li3FeCu3O8,https://materialsproject.org/materials/mp-771350,6.591761514497943,-67.97888006110524,-6.504717921782596,-68.6341317640148
-4.756306595,-76.10090552,4.017549667117003,-1.89528415452,1.9999999,0.16215046449873444,0.504,1,16,143.7438273875239,347.77740960000006,mp-759011,Li5Ni3O5F3,https://materialsproject.org/materials/mp-759011,14.124657369899412,-84.15363941428912,-16.299628437803232,-88.28703030581387
-5.7692499046875,-184.61599695,4.133871347718212,-1.83390094131,23.2301671,0.93217714368299,0.0,8,32,290.42320324563997,723.001465,mp-1100632,Li9Mn2Co5O16,https://materialsproject.org/materials/mp-1100632,5.408319605127999,-69.79501520996426,-22.043913967844873,-74.02115403035063
-6.575015668333332,-157.80037604,3.8476649370052334,-2.3170444122916667,12.9999991,0.7013139905172303,0.0,12,24,216.02710569467166,500.5603,mp-757087,Li7Cr5O12,https://materialsproject.org/materials/mp-757087,16.33342086194557,-70.4607780129326,-15.022749267372813,-77.69716199425429
-6.1651131630769225,-80.14647112,4.983559303902188,-1.3779056246892316,8.9999999,0.7518699942528126,0.0,12,13,139.5009544061725,418.666025,mp-773238,Mn(CoO2)4,https://materialsproject.org/materials/mp-773238,7.468891762647746,-72.07396598504144,-9.006560131438132,-81.61319235421922
-5.79250169125,-185.36005412,4.174026295964268,-1.8571527278724995,23.9999998,0.9724237976632176,0.7427999999999999,1,32,287.62927530439583,723.001465,mp-1175753,Li9Mn2Co5O16,https://materialsproject.org/materials/mp-1175753,13.479051826675473,-75.559054199995,-11.636823475631658,-82.607850502232
-5.794295358125,-185.41745146,4.166695437322588,-1.8589463947474991,23.9999995,0.9707159138257848,0.6558000000000002,1,32,288.13532850415163,723.001465,mp-1176059,Li9Mn2Co5O16,https://materialsproject.org/materials/mp-1176059,7.0037992881135,-71.89352328494074,-21.20870671903269,-75.4225670453023
-5.7959280540625,-185.46969773,4.191567048291537,-1.8605790906849995,23.9999999,0.9765102745480648,0.7259000000000002,1,32,286.42561237307206,723.001465,mp-1175567,Li9Mn2Co5O16,https://materialsproject.org/materials/mp-1175567,13.608315846321766,-75.47239874352061,-10.026617066015971,-81.76168815465955
-7.5124362825,-90.14923539,3.837143329251002,-2.1671324316288896,8.9999992,0.7114376801542619,1.4152,166,12,147.42903919151811,340.676335,mp-756808,TiMn3O8,https://materialsproject.org/materials/mp-756808,5.770443593531871,-67.18738132542678,-8.14436373425072,-65.96499218935398