energy_per_atom,energy,density,formation_energy_per_atom,total_magnetization,band_gap,sgr,mp_id,formula,URL,cell_volume
-5.684820185,-22.73928074,4.931482516987247,-1.7856208418750017,0.0,0.6652,166,mp-22526,LiCoO2,https://materialsproject.org/materials/mp-22526,32.955998241784926
-4.8363081625,-19.34523265,4.317387266422593,-1.342543284375,1.0,0.3160000000000003,8,mp-25587,LiNiO2,https://materialsproject.org/materials/mp-25587,37.5513546030501
-5.216569659999998,-26.082848300000002,3.77288080363793,-1.182910050948,3.0000002999999995,0.0,164,mp-24105,Co(HO)2,https://materialsproject.org/materials/mp-24105,40.90868043690038
-5.9843264275,-23.93730571,4.358311748649456,-1.9624179518750005,5.0000002,0.08809999999999985,123,mp-1222302,LiFeO2,https://materialsproject.org/materials/mp-1222302,36.113492993557614
-4.7003487925,-18.80139517,3.6022842902368795,-1.206583914375,1.0,0.5773000000000001,44,mp-25316,LiNiO2,https://materialsproject.org/materials/mp-25316,45.00581496011438
-4.7372547119999995,-23.68627356,3.5821565274719256,-1.5606482795000003,0.0,2.9545000000000003,71,mp-19183,Li2NiO2,https://materialsproject.org/materials/mp-19183,48.47625734527004
-7.4174429725,-29.66977189,4.784565492813567,-0.7503108236899987,2.9999702999999998,0.0,166,mp-1247154,MgMnN2,https://materialsproject.org/materials/mp-1247154,37.2245953120769
-0.6917045999999999,-2.7668183999999996,0.19204473733337407,0.9915390125,0.0,0.6013999999999999,71,mp-1096283,Li2CaCd,https://materialsproject.org/materials/mp-1096283,1438.547832447319
-4.57552803,-13.72658409,4.6270864528279745,-0.5531657425000004,0.0,1.5217999999999998,166,mp-25210,NiO2,https://materialsproject.org/materials/mp-25210,32.54703370226544
-5.663696715,-22.65478686,4.081997414565212,-2.343254503735001,4.0,0.0,123,mp-775022,LiFeOF,https://materialsproject.org/materials/mp-775022,39.77803173365604
-6.7090591733333325,-20.12717752,4.566347980326988,-1.3986493428199995,2.9999999,0.0,123,mp-1221542,MnO2,https://materialsproject.org/materials/mp-1221542,31.614328509101334
-5.3567902940000005,-26.78395147,3.6127272873473055,-1.323130684948001,3.0000001,2.4779,5,mp-625939,Co(HO)2,https://materialsproject.org/materials/mp-625939,42.722177138332746
-5.157631832,-25.78815916,3.4218872627460746,-1.1239722229479994,2.9999998,2.2636,156,mp-625943,Co(HO)2,https://materialsproject.org/materials/mp-625943,45.104810086197524
-4.9054136900000005,-24.52706845,3.779132080596805,-1.6318000995,0.9981527,0.0,12,mp-1239022,Li2CuO2,https://materialsproject.org/materials/mp-1239022,48.081800145385905
-5.681710306666666,-17.04513092,4.4399989831628215,-1.1187687324999989,1.0000001,1.1238,166,mp-1062939,CoO2,https://materialsproject.org/materials/mp-1062939,34.008144653903294
-5.2395381725,-20.95815269,4.379000011071384,-1.4827316104999992,4.0000001,0.9700000000000002,160,mp-1221066,NaCoO2,https://materialsproject.org/materials/mp-1221066,43.19971148991479
-4.144400986666667,-12.43320296,3.3082280552030965,-0.12203869916666694,2.0000001,0.2025,71,mp-634706,NiO2,https://materialsproject.org/materials/mp-634706,45.52223613684412
-6.8950273425,-27.58010937,4.36973204600437,-2.5111362296149995,5.0000005,1.7532999999999994,166,mp-1080243,MgMnO2,https://materialsproject.org/materials/mp-1080243,42.272941351869804
-4.4805752875,-17.92230115,4.061968063215463,-2.268483990595,0.0,1.8469,166,mp-753098,LiCuF2,https://materialsproject.org/materials/mp-753098,44.34835353983589
-4.8989723079999985,-24.49486154,3.778451904731483,-1.189660270948,1.9999997,3.1137,5,mp-625074,Ni(HO)2,https://materialsproject.org/materials/mp-625074,40.74297888261287
-7.22329803,-21.66989409,5.153052943080564,-1.8644532825,2.0,0.0030000000000001137,225,mp-1009555,CrO2,https://materialsproject.org/materials/mp-1009555,27.066830508346158
-5.61224985,-22.448999399999998,4.880569505942435,-1.3801095040300009,0.0,0.0,166,mp-27913,CoHO2,https://materialsproject.org/materials/mp-27913,31.281155040754182
-2.5740072575,-10.29602903,2.029375490956098,-0.12346011487499985,9.63e-05,0.0,71,mp-1014873,NaLi2As,https://materialsproject.org/materials/mp-1014873,91.47506458507466
-4.856122765,-19.42449106,4.661128960445373,-1.3623578868750004,1.0,0.0,166,mp-25411,LiNiO2,https://materialsproject.org/materials/mp-25411,34.78207566791651
-5.151829084,-25.75914542,3.5817519664565425,-1.6508750795000005,1.0,0.8842000000000003,71,mp-755133,Li2CoO2,https://materialsproject.org/materials/mp-755133,48.59290432889792
-4.9625752,-19.8503008,4.380980254394717,-1.3475513743749996,1.9999818999999999,0.0,156,mp-754912,LiCuO2,https://materialsproject.org/materials/mp-754912,38.84556927069385
-8.065767406666668,-24.19730222,5.064064789878653,0.4481153384133343,1.0475796999999998,0.0,225,mp-1014264,CrN2,https://materialsproject.org/materials/mp-1014264,26.23562371998475
-5.04870458,-10.09740916,3.4445141575474345,0.5718148300000001,3.8265572,0.0,221,mp-973060,MgCr,https://materialsproject.org/materials/mp-973060,36.7834038560485
-4.9010871940000005,-24.50543597,3.8606055523583063,-1.1917751569480004,2.0,3.1594,12,mp-1180084,Ni(HO)2,https://materialsproject.org/materials/mp-1180084,39.87596869859016
-5.33588983,-26.67944915,3.485272160326933,-1.3022302209480003,2.9999999,2.3773,1,mp-626708,Co(HO)2,https://materialsproject.org/materials/mp-626708,44.28451151661622
-4.90463132,-24.523156600000004,3.864830078591959,-1.1953192829480002,2.0000004000000002,3.1318,164,mp-27912,Ni(HO)2,https://materialsproject.org/materials/mp-27912,39.83238151042563
-7.773738305,-15.54747661,5.006959121912642,-1.9619280393750005,3.0000002999999995,1.1025,225,mp-19184,VO,https://materialsproject.org/materials/mp-19184,22.20069609441389
-4.76572655,-28.5943593,3.660457997915577,-0.24473720166666746,0.9433431999999999,0.0,216,mp-1227272,Be4AlFe,https://materialsproject.org/materials/mp-1227272,53.926864122499005
-6.05817754,-18.17453262,4.064962259599124,-1.3316237891666678,3.9999995999999998,0.0,12,mp-1062652,FeO2,https://materialsproject.org/materials/mp-1062652,35.88423458975412
-4.597667945,-18.39067178,4.39295587304541,-2.101401130595,2.0214096,0.0,166,mp-1097040,LiCoF2,https://materialsproject.org/materials/mp-1097040,39.26327919816364
-5.7575403875,-23.03016155,4.582699653013719,-1.735631911875,0.9999998,1.6783000000000006,166,mp-19419,LiFeO2,https://materialsproject.org/materials/mp-19419,34.34522720577708
-4.16030157,-20.80150785,3.6023055761475837,-1.2115235873000003,0.0,2.0103,71,mp-752558,Na2NiO2,https://materialsproject.org/materials/mp-752558,63.000973333933345
-4.942298498,-24.71149249,3.5867582045786945,-1.6686849075000003,0.9921721,0.0,71,mp-4711,Li2CuO2,https://materialsproject.org/materials/mp-4711,50.66064202217823
-5.275820434,-26.37910217,3.943941579297815,-1.7748664295000005,3.0000002999999995,2.5515,164,mp-755297,Li2CoO2,https://materialsproject.org/materials/mp-755297,44.13040283087877
-5.038167085,-10.07633417,3.383003017903431,0.5823523249999996,3.9117241000000003,0.0,123,mp-1185858,MgCr,https://materialsproject.org/materials/mp-1185858,37.452214696357295
-8.6081796025,-34.43271841,4.031788531815575,-2.078938881875,5e-07,0.0,166,mp-1219429,Sc2CO,https://materialsproject.org/materials/mp-1219429,48.5675171028216
-6.734591828000001,-33.67295914,4.817450465885728,-1.3673575727753338,3.9999305,0.0,221,mp-1185996,MnBO3,https://materialsproject.org/materials/mp-1185996,39.20782213589762
-9.54181505,-19.0836301,4.930719935796039,-1.0259762861899997,0.139475,0.0,216,mp-1001826,VN,https://materialsproject.org/materials/mp-1001826,21.872875174833126
-4.7425998575,-18.97039943,4.346190444003154,-0.9158939765300004,0.9999998999999999,0.0,156,mp-999337,NiHO2,https://materialsproject.org/materials/mp-999337,35.035662704005304
-7.55171802,-15.10343604,5.156662863032352,-1.6266584943750004,3.9999995000000004,0.0,225,mp-19091,CrO,https://materialsproject.org/materials/mp-19091,21.89578517993791
-4.672124473999999,-23.36062237,3.621904002393263,-0.9628124369480006,1.9999997999999999,0.5337999999999998,156,mp-625072,Ni(HO)2,https://materialsproject.org/materials/mp-625072,42.50399404890907
-9.67883481,-19.35766962,6.146288683519215,-1.162996046189999,9.000000000000001e-07,0.0,225,mp-925,VN,https://materialsproject.org/materials/mp-925,17.54701531786435
-5.001704854166666,-60.02045825,2.542715147983228,-1.4487312379208326,0.0,5.2860000000000005,12,mp-1224894,GaH6N2F3,https://materialsproject.org/materials/mp-1224894,104.99808482065384
-5.645019938,-28.22509969,3.4437617173404496,-1.5131930229480006,3.9999998,2.3351999999999995,164,mp-626680,Fe(HO)2,https://materialsproject.org/materials/mp-626680,43.32921932738814
-9.4590252,-18.9180504,5.146223665186327,-0.6644371761899991,1.8822870999999999,0.0,216,mp-1018157,CrN,https://materialsproject.org/materials/mp-1018157,21.29721389506372
-9.870359665,-19.74071933,6.238656999159655,-1.35452090119,2.7300000000000003e-05,0.0,187,mp-1018027,VN,https://materialsproject.org/materials/mp-1018027,17.2872176964137
-4.979954142,-24.89977071,4.047610620154298,-1.1292258541499998,4.1515635,0.0,221,mp-1186126,NaCoO3,https://materialsproject.org/materials/mp-1186126,53.300375370832796
-5.9862579775,-23.94503191,3.791187542306847,-1.6314084990300008,5.0,2.1214000000000004,156,mp-755285,FeHO2,https://materialsproject.org/materials/mp-755285,38.91703625723404
-1.2294167975,-4.91766719,1.9418403143527567,0.0925910528749998,1e-05,0.0,221,mp-1186094,Na3Zn,https://materialsproject.org/materials/mp-1186094,114.91183113676054
-4.3757636233333335,-26.25458174,3.714875607490279,-0.3017033400000001,1.5e-06,0.0,216,mp-1227279,Be4AlNi,https://materialsproject.org/materials/mp-1227279,54.41013962182123
-6.496226534,-32.48113267,3.5731286583440878,-1.2954242490000003,0.8298491,0.0,8,mp-27249,CuCO3,https://materialsproject.org/materials/mp-27249,57.41963266678952
-1.230637315,-4.92254926,1.9154675822278,0.09137053537499984,4e-07,0.0,139,mp-1186091,Na3Zn,https://materialsproject.org/materials/mp-1186091,116.49397169015657
-5.632450786000001,-28.16225393,3.4028236122724453,-1.5006238709480002,4.0,2.28,5,mp-626689,Fe(HO)2,https://materialsproject.org/materials/mp-626689,43.85049704714471
-4.377014624,-21.88507312,3.4724553039972026,-1.3312294833000002,0.9996367,0.0,71,mp-755974,Na2CuO2,https://materialsproject.org/materials/mp-755974,67.67738349822304
-8.71472839,-17.42945678,5.3752805305475055,-2.6529571177083344,0.0,0.0,225,mp-2664,TiO,https://materialsproject.org/materials/mp-2664,19.729695955692538
-5.158271698333333,-30.94963019,3.3918189995881294,-0.36607147296888937,2.33e-05,0.0,136,mp-1077353,TiH2,https://materialsproject.org/materials/mp-1077353,48.84250585169408
-4.60487813,-13.81463439,2.7689715778852344,-0.4208372458333336,0.9999218000000001,0.0,69,mp-614565,CuO2,https://materialsproject.org/materials/mp-614565,57.297760560678384
-5.706843023333334,-17.12052907,2.671126818846814,0.2100585043733337,2.1899646,0.0,187,mp-1245887,NaFeN,https://materialsproject.org/materials/mp-1245887,57.71604821704348
-5.0746712075,-20.29868483,4.355434000487604,-1.4596473818749995,0.0,0.3752,12,mp-9158,LiCuO2,https://materialsproject.org/materials/mp-9158,39.07341310339671
-8.887137875,-17.77427575,5.4081213672166415,-2.8253666027083355,0.0,0.0,187,mp-755264,TiO,https://materialsproject.org/materials/mp-755264,19.609887305254272
-9.56549318,-19.13098636,5.800036220560792,-0.4131537193749999,1e-07,0.0,225,mp-1282,VC,https://materialsproject.org/materials/mp-1282,18.02309188748148
-9.192959235,-18.38591847,6.530509526008309,-0.6771204711899994,5.3e-06,0.0,221,mp-1002105,VN,https://materialsproject.org/materials/mp-1002105,16.51464120038568
-1.796517365,-7.18606946,2.171228992841475,0.23210684662500006,5.5100000000000004e-05,0.0,139,mp-1186036,Na3Cu,https://materialsproject.org/materials/mp-1186036,101.346676371507
-5.4972819125,-21.98912765,4.701613491634865,-1.5980825693750005,3.7731201000000003,0.0,123,mp-1222334,LiCoO2,https://materialsproject.org/materials/mp-1222334,34.567267055955284
-4.4915283420000005,-22.45764171,3.1558755268662217,-1.2179147514999995,0.0006602,0.0,139,mp-1147636,Li2CuO2,https://materialsproject.org/materials/mp-1147636,57.57751593032795
-1.70730482,-6.82921928,2.041447269054127,0.05416348662499981,1.0300000000000001e-05,0.0,221,mp-1186028,Na3Ga,https://materialsproject.org/materials/mp-1186028,112.81407813326759
-6.53420779,-19.60262337,3.548856861186461,-0.19430975745999984,2.2716675,0.0,38,mp-1246674,LiMnN,https://materialsproject.org/materials/mp-1246674,35.50755837186863
-5.720062415999999,-28.60031208,3.9844417968347465,-1.7179801352500002,4.0350427,0.0,221,mp-1076368,MgFeO3,https://materialsproject.org/materials/mp-1076368,53.40649954399462
-2.8446407725,-11.37856309,2.9831123725566684,-0.12091601000000017,1.24e-05,0.0,225,mp-1185377,LiMg2Ni,https://materialsproject.org/materials/mp-1185377,63.59374458924182
-6.05391022,-18.16173066,3.8975664768230898,-1.3273564691666675,4.0,0.0,164,mp-1224855,FeO2,https://materialsproject.org/materials/mp-1224855,37.42541921718527
-3.4678674666666667,-20.8072048,3.3749235507897346,-0.03092925500000021,1.8000000000000001e-06,0.0,216,mp-1222012,MgBe4Cu,https://materialsproject.org/materials/mp-1222012,60.961480250786025
-4.234399228,-21.17199614,3.8596001554775237,-0.7080185121500001,1.0000015,0.0,221,mp-1186154,NaNiO3,https://materialsproject.org/materials/mp-1186154,55.79359720578462
-4.567300695,-18.26920278,4.6350434326528225,-1.2159285980000003,1.0000001,0.5083000000000002,12,mp-19149,NaNiO2,https://materialsproject.org/materials/mp-19149,40.727417310408704
-4.6885955588888875,-42.19736003,2.8943048560586573,-1.5383544960400002,1.0,0.2555,12,mp-632759,CuH4(OF)2,https://materialsproject.org/materials/mp-632759,78.92946912389606
-5.299133548,-26.49566774,4.310900152404272,-1.3952185732499998,2.8272565,0.0,221,mp-1076820,MgCoO3,https://materialsproject.org/materials/mp-1076820,50.55165966783546
-5.3568278120000015,-26.78413906,3.747323239330161,-1.4079322181500005,4.8291097,0.0,221,mp-1186134,NaFeO3,https://materialsproject.org/materials/mp-1186134,56.20307712931849
-8.944958999999999,-17.889917999999998,5.588395284201203,-1.0201592295233342,0.0001004,0.0,221,mp-998903,TiN,https://materialsproject.org/materials/mp-998903,18.385187370283525
-2.46991844,-4.93983688,0.4302673446048252,-0.2294429372036637,1.0,0.3495999999999997,12,mp-1179684,RbS,https://materialsproject.org/materials/mp-1179684,453.5965959948968
-5.70893884,-28.5446942,3.955829021053595,-1.2781029152500003,4.4997017,0.0,221,mvc-11225,AlFeO3,https://materialsproject.org/materials/mvc-11225,54.91632340197437
-6.059308276666666,-18.17792483,2.6730902596609663,0.01471031320666801,3.3699068999999997,0.0,123,mp-1246694,KMnN,https://materialsproject.org/materials/mp-1246694,67.11696081887325
-5.59968414,-16.79905242,4.631188095056904,-0.3404848507142854,0.0009031000000000001,0.0,107,mp-1008925,LiFeP,https://materialsproject.org/materials/mp-1008925,33.61810014762432
-6.34787676,-25.39150704,4.014431092103886,-2.030469005740001,3.9999998999999997,1.2563999999999995,12,mp-18957,NaMnO2,https://materialsproject.org/materials/mp-18957,45.47031207136676
-1.7200319375,-6.88012775,2.056674385690477,0.041436369124999935,2.7600000000000003e-05,0.0,225,mp-1186045,Na3Ga,https://materialsproject.org/materials/mp-1186045,111.97883015336883
-1.8039799325,-7.21591973,2.444170249656525,-0.13070316125000006,2e-07,0.0,216,mp-1222610,Li2MgZn,https://materialsproject.org/materials/mp-1222610,70.38184120439826
-4.806387605,-19.22555042,4.528942706790828,-0.9796817240300006,0.9999998999999999,0.13929999999999998,8,mp-1067482,NiHO2,https://materialsproject.org/materials/mp-1067482,33.621900805930935
-4.49205575,-26.952334499999996,3.6036529504900767,-0.19913960166666675,0.0031299,0.0,216,mp-1071690,Be5Co,https://materialsproject.org/materials/mp-1071690,47.9197840787845
-4.479332208571429,-31.35532546,3.343488568544809,-2.53684105068,1.0000001,0.0,65,mp-752843,Li2CuF4,https://materialsproject.org/materials/mp-752843,76.19663486543467
-2.235885235,-8.94354094,2.966893987908636,-0.007810947499999887,3e-07,0.0,44,mp-978279,Mg3Cu,https://materialsproject.org/materials/mp-978279,76.37577171982795
-7.445011864,-37.22505932,4.4333168061088255,-0.2703407373333334,0.5657278,0.0,71,mp-1010,MnB4,https://materialsproject.org/materials/mp-1010,36.77497591078645
-2.0131154375,-8.05246175,2.193056064228197,0.4352498266249998,0.0011267999999999999,0.0,225,mp-1186073,Na3Ni,https://materialsproject.org/materials/mp-1186073,96.66369856123099
-4.596275315,-45.96275315,3.3088130377827727,-2.7128819610949995,0.0,1.0962000000000005,87,mp-752773,Li4CuF5,https://materialsproject.org/materials/mp-752773,93.49629829976948
-2.0147423725,-8.05896949,2.2218914302106487,0.4336228916249998,7.42e-05,0.0,139,mp-1186066,Na3Ni,https://materialsproject.org/materials/mp-1186066,95.40921191650493
-0.460179555,-1.84071822,0.2170724871478468,0.905271895125,2.2e-06,0.0,71,mp-1097677,NaMg2Cd,https://materialsproject.org/materials/mp-1097677,1407.626872408568
-6.820857086666668,-20.46257126,4.941993201660967,-0.3840353533333338,8.599999999999999e-06,0.0,123,mp-20738,FeSi2,https://materialsproject.org/materials/mp-20738,37.63804066790792
-7.482827745,-14.96565549,4.4421009554943005,-1.8020548003645835,1.26e-05,0.0,187,mp-1018028,TiS,https://materialsproject.org/materials/mp-1018028,29.880051776200617
-4.1401146475,-49.68137577,2.242130769483936,-1.424208937604167,1.0000001,0.0,221,mp-1102163,Li8AsO3,https://materialsproject.org/materials/mp-1102163,132.1597930571707
-3.810575855,-53.34806197,1.7084916740823837,-0.6272788662242859,0.0,1.3702,187,mp-28989,Li10BrN3,https://materialsproject.org/materials/mp-28989,185.96388121347292
-5.122989405,-20.49195762,4.042914866207027,-0.210906305,1.5730418,0.0,221,mp-983590,Be3Fe,https://materialsproject.org/materials/mp-983590,34.04178603386607
-4.4694791700000005,-26.81687502,3.8932348506179295,-0.11588322250000024,6.4e-06,0.0,216,mp-1227282,Be4SiNi,https://materialsproject.org/materials/mp-1227282,52.38832983636338
-5.427556606,-27.13778303,3.4143513372364485,-1.3647467872499999,4.7093032,0.0,221,mp-1185320,LiFeO3,https://materialsproject.org/materials/mp-1185320,53.878898492052976
-5.2724032225,-21.08961289,3.9306091297974217,-0.18546552500000055,0.8833506999999999,0.0,221,mp-973292,MnBe3,https://materialsproject.org/materials/mp-973292,34.631275751030515
-7.719667263333334,-23.15900179,3.118296820065705,-0.42281803291666736,0.17837279999999997,0.0,164,mp-29941,Sc2C,https://materialsproject.org/materials/mp-29941,54.27524700928591
-5.42606692,-27.1303346,4.409899077873118,-1.09339830125,1.8084637,0.0,221,mvc-11226,AlCoO3,https://materialsproject.org/materials/mvc-11226,50.42465831462406
-8.005651403333333,-24.01695421,5.316402851831048,-0.34106572111111194,0.9712911,0.0,191,mp-374,CrB2,https://materialsproject.org/materials/mp-374,22.9940680771625
-7.24082712,-14.48165424,4.11582847680135,0.0436946839285719,2.175051,0.0,216,mp-1009135,MnP,https://materialsproject.org/materials/mp-1009135,34.66128637880328
-4.027664266666666,-12.082992800000001,3.3292422302332985,-1.71420008746,5.45e-05,0.0,123,mp-1147672,CuF2,https://materialsproject.org/materials/mp-1147672,50.646898782893906
-5.1109669575,-20.44386783,2.779581324151196,-1.8082387689099997,0.0,2.3835,166,mp-22936,Ca2NCl,https://materialsproject.org/materials/mp-22936,77.43321923227182
-5.0010203025,-20.00408121,4.74568147088532,-1.3859964768749995,2.0001403000000004,0.0,166,mp-25372,LiCuO2,https://materialsproject.org/materials/mp-25372,35.860323325468386
-4.618231036666667,-27.70938622,3.3745337385678833,-0.1003421333333338,1.5488058999999998,0.0,216,mp-1025010,Be5Fe,https://materialsproject.org/materials/mp-1025010,49.65373467945718
-6.5650217725,-26.26008709,3.7650782306441246,-1.7722802342699993,4.0,0.6742000000000004,8,mp-1002573,MnHO2,https://materialsproject.org/materials/mp-1002573,38.786909570248895