energy_per_atom,energy,density,formation_energy_per_atom,total_magnetization,band_gap,sgr,mp_id,formula,URL,cell_volume
-5.543034012000001,-55.43034012,5.258684770650915,-1.4849901624895836,0.00042860000000000006,0.0,194,mp-1079893,BaTiSe3,https://materialsproject.org/materials/mp-1079893,266.55728013231214
-5.876588734583333,-141.03812963,5.154029828211304,-1.349899257203332,5.9783197,0.0,8,mp-758477,Mn3Cu3(TeO8)2,https://materialsproject.org/materials/mp-758477,279.2171972337035
-6.31240138375,-50.49921107,8.487151140287526,-0.28887670583333325,3.6172775,0.0,166,mp-1217085,TiMn(Ni2Sn)2,https://materialsproject.org/materials/mp-1217085,112.500376414559
-6.062708266153847,-78.81520746,8.002656165084517,-0.08844855230769172,11.5684488,0.0,69,mp-1222429,Lu(MnGa)6,https://materialsproject.org/materials/mp-1222429,191.50725640774482
-5.829153214166666,-139.89967714,5.182810565552233,-1.363093210536667,13.0000008,0.0,8,mp-756438,Mn3Ni3(TeO8)2,https://materialsproject.org/materials/mp-756438,273.00244721655054
-3.2412427194444446,-58.34236895,3.151301208059969,-1.8241884698489401,4.0799999999999996e-05,1.0971,123,mp-1225983,Cs4InSbCl12,https://materialsproject.org/materials/mp-1225983,628.971566726861
-3.2935942686363635,-72.45907391,3.5197479929952173,-1.96503432127558,0.0,1.984,167,mp-29983,Cs6Cl4O,https://materialsproject.org/materials/mp-29983,901.3259715562621
-7.983722089166666,-95.80466507,7.95181075290938,-0.7653238975000001,0.314787775,0.0,62,mp-1207418,ZrFeAs,https://materialsproject.org/materials/mp-1207418,185.4289893295829
-5.5928157480000005,-55.92815748,5.230376352804135,-0.37369250400000026,0.0003707,0.0,127,mp-754185,Y2MgNi2,https://materialsproject.org/materials/mp-754185,202.8718391869449
-6.274562573214285,-175.68775205,7.287735990250247,-0.5986032480357143,6e-06,0.0,69,mp-1227027,Ce2Si9Ni17,https://materialsproject.org/materials/mp-1227027,348.79630629662614
-7.4441475513636375,-163.77124613,7.799925811596085,-3.0817364314772737,0.0,3.0055,227,mp-753692,Ho2Ge2O7,https://materialsproject.org/materials/mp-753692,249.99288556748786
-3.708153689,-37.08153689,4.421791612220021,-1.038214663574713,2.0000001,0.0,194,mp-567698,CsTiI3,https://materialsproject.org/materials/mp-567698,421.7155740746859
-6.86948606125,-54.95588849,6.1752319055743765,-1.9197872083482137,0.70806505,0.013799999999999812,129,mp-19370,LaCoPO,https://materialsproject.org/materials/mp-19370,131.66132135710114
-5.873813927916667,-140.97153427,5.015378576670925,-1.4239827216666672,21.0000001,0.0,1,mp-761932,Fe3Co3(TeO8)2,https://materialsproject.org/materials/mp-761932,283.2553147425397
-6.179194737083333,-148.30067369,5.326074367137537,-2.045515253333333,2.00000015,0.09959999999999992,15,mp-1182246,BaGe3O8,https://materialsproject.org/materials/mp-1182246,301.3260737877212
-8.296786571428571,-116.15501200000001,7.857836463593999,-0.09777339967261968,22.2960288,0.0,44,mp-1225715,DyTiFe11C,https://materialsproject.org/materials/mp-1225715,176.80791506530795
-4.836052032777777,-174.09787318,4.400890109972844,-1.4302322112847226,1.999999925,0.1834,14,mp-1196645,Cd2SO6,https://materialsproject.org/materials/mp-1196645,532.5983131821955
-7.944494815384615,-103.27843259999999,7.782272994264157,-0.2463096061538469,20.5269469,0.0,71,mp-1217843,Tb(Fe5Si)2,https://materialsproject.org/materials/mp-1217843,165.0551084973804
-6.29044395375,-150.97065489,5.236994989188581,-1.6035036237499998,7.0,0.0,8,mp-757983,Cr3Co3(TeO8)2,https://materialsproject.org/materials/mp-757983,267.6074531382907
-1.62379025875,-12.99032207,2.8153380312471383,0.09723856674999998,0.00490045,0.0,194,mp-1185155,KBa3,https://materialsproject.org/materials/mp-1185155,532.1100198075075
-5.408476543333332,-81.12714815,7.600561590592681,-0.7379221979999993,2.7191579,0.0,200,mp-1219936,Pd7O8,https://materialsproject.org/materials/mp-1219936,190.71524672391666
-6.586568081111111,-118.55822546,4.983678006359824,-2.1116145189236115,6.40005505,0.0,140,mp-10502,BaCe2MnS5,https://materialsproject.org/materials/mp-10502,421.7069039188109
-7.188054051578948,-136.57302698,7.95981402750382,-0.3367502044736859,6.5229095,0.0,166,mp-1105562,Pr(Co2B)6,https://materialsproject.org/materials/mp-1105562,190.45993117214968
-8.294066249285715,-116.11692749,7.811166550231981,-0.09348016395833372,22.3080315,0.0,44,mp-1217503,TbTiFe11C,https://materialsproject.org/materials/mp-1217503,177.10438348440886
-2.467806655,-19.74245324,5.953109114270261,-0.002829162499999871,5.155e-05,0.0,194,mp-1185630,MgIn3,https://materialsproject.org/materials/mp-1185630,205.72064247353245
-7.685833606315789,-146.03083852,8.194539881094968,-0.345070438421052,13.867155300000002,0.0,166,mp-645286,Gd(Co2B)6,https://materialsproject.org/materials/mp-645286,188.31597190245577
-3.269665461,-32.69665461,4.40737667897919,-0.9575272862413796,2.00000015,0.8212,194,mp-1080570,CsNiBr3,https://materialsproject.org/materials/mp-1080570,325.0044460104971
-3.605138749166666,-43.26166499,5.713347683403237,-0.3229651838333331,0.0,0.4122999999999992,12,mp-541622,KCu3Te2,https://materialsproject.org/materials/mp-541622,281.88575339195523
-3.7245637607142856,-52.14389265,5.317828180429295,-0.4007251449553572,4.6e-06,1.3459999999999999,146,mp-1229145,Ag6SbAsS6,https://materialsproject.org/materials/mp-1229145,323.5878758052535
-3.658362369166667,-43.90034843,4.952383584615405,-1.0082027630411876,0.0,1.4479000000000002,139,mp-8666,CsAgO,https://materialsproject.org/materials/mp-8666,344.38501769083643
-7.836260308333332,-94.03512370000001,6.657358309053913,-0.5530645653571433,1.0199999999999999e-05,0.0,124,mp-581733,Zr4CuP,https://materialsproject.org/materials/mp-581733,229.18334059167145
-4.359677126666667,-52.31612552,5.739911733642549,-0.18662301250000013,0.00016705,0.0,74,mp-1095284,BaGe5,https://materialsproject.org/materials/mp-1095284,289.60188331907875
-8.671764294615384,-112.73293583,7.769548728962898,-0.2461987884615389,13.515965300000001,0.0,71,mp-1225229,Gd(Fe5Si)2,https://materialsproject.org/materials/mp-1225229,164.9673583442378
-4.95329655,-39.6263724,10.335560841962122,-0.1839257625000004,0.0035683,0.0,225,mp-1079855,LiPd7,https://materialsproject.org/materials/mp-1079855,120.79922638210864
-5.916408183333334,-141.9937964,4.953917759387744,-1.405222410833333,8.00000065,0.0,186,mp-1178313,Fe3TeO8,https://materialsproject.org/materials/mp-1178313,283.6640615486703
-3.174967355,-31.74967355,3.5913077821103907,-1.5326367260413791,0.0,3.1203,225,mp-1113061,Cs2KAlBr6,https://materialsproject.org/materials/mp-1113061,375.1334848529927
-3.6197084077777784,-32.57737567,5.2228825127983,-0.4801467194444445,6.666666666666667e-08,0.0,189,mp-7239,PrMgGa,https://materialsproject.org/materials/mp-7239,224.0830524658453
-8.304868095,-116.26815333,8.103058441821178,-0.11153885752976274,21.958748899999996,0.0,44,mp-1222300,LuTiFe11C,https://materialsproject.org/materials/mp-1222300,174.012026741224
-4.09428880875,-32.75431047,6.492507840106225,0.2652078619642859,0.0003174,0.0,194,mp-1187044,Sn3P,https://materialsproject.org/materials/mp-1187044,198.01313303346012
-6.45145655125,-51.61165241,6.4633964400281325,-2.312651158828124,5e-08,1.6136999999999997,129,mp-542314,NdCuSO,https://materialsproject.org/materials/mp-542314,131.46428588120048
-1.7851309330769232,-23.20670213,6.860585764542207,-0.12309562884615377,0.0,0.0,139,mp-11567,ScZn12,https://materialsproject.org/materials/mp-11567,200.86060739670341
-5.50640866375,-88.10253862,6.257280529060059,-1.234435982656251,9.5e-07,0.051899999999999835,223,mp-1188365,PrPd3S4,https://materialsproject.org/materials/mp-1188365,312.31046155037336
-6.161916537500002,-147.8859969,4.965594312766682,-1.4931393013700005,21.9999999,0.0,1,mp-772448,Mn3Co3(TeO8)2,https://materialsproject.org/materials/mp-772448,285.18530623655147
-2.6995195385714292,-37.79327354,4.122861481266367,-0.9972980609889796,0.0,1.828,164,mp-29415,Cd3PCl3,https://materialsproject.org/materials/mp-29415,382.27574631311535
-4.621860637999999,-46.21860638,6.514710291164608,-1.4149064001666667,0.0,1.7092,141,mp-1096838,Ba(AgO)2,https://materialsproject.org/materials/mp-1096838,196.2975442808165
-6.457508965625,-103.32014345,5.3990811654553275,-2.090452265,4.0,0.15280000000000005,141,mp-1208650,SrMoO2,https://materialsproject.org/materials/mp-1208650,265.1886807005355
-5.856143463333333,-70.27372156,7.2630652879340705,-0.3237527878645838,0.0,0.4353000000000007,14,mp-1101894,FeAsSe,https://materialsproject.org/materials/mp-1101894,191.7973710659147
-4.237648876000001,-42.37648876,4.132924161202399,-1.2653209292413792,2.99998195,0.6589999999999998,194,mp-23038,CsVBr3,https://materialsproject.org/materials/mp-23038,340.3576489372644
-7.706946995172413,-223.50146286,6.481128326778321,-2.341279081939656,2.44e-05,0.0,197,mp-541611,La4Ru6O19,https://materialsproject.org/materials/mp-541611,375.6137393255482
-5.4250173933333325,-195.30062616,4.158221194477655,-1.4902033463600002,0.0,2.2086,9,mp-625789,Sn3(HO2)2,https://materialsproject.org/materials/mp-625789,674.3130740157897
-3.6749442777777777,-33.0744985,5.012263550706359,-0.4877458969444438,1.6666666666666665e-07,0.0,189,mp-21509,LaMgGa,https://materialsproject.org/materials/mp-21509,231.5092473159113
-4.22058555,-42.2058555,4.1649329004340485,-1.1367578992413792,3.9999998999999997,0.0,186,mp-27179,CsCrBr3,https://materialsproject.org/materials/mp-27179,338.58282795842183
-5.1021725674999985,-142.86083189,5.148822602260922,-1.4155688960714283,3.99999935,0.0,186,mp-771960,Li2Ni3TeO8,https://materialsproject.org/materials/mp-771960,287.392095014503
-5.508343107999999,-55.08343108,5.545288244061571,-1.2138836611562496,0.86871955,0.0,36,mp-676597,BaVSe3,https://materialsproject.org/materials/mp-676597,254.6218162071076
-5.524667091875,-88.39467347,4.355507277345125,-0.94680681765625,2.8699999999999996e-05,1.1927,115,mp-1217849,TaV(Cu3S4)2,https://materialsproject.org/materials/mp-1217849,331.56792861278524
-3.680714,-51.529996000000004,4.899353137242915,-0.3940536360267857,1.5e-06,1.9109000000000005,161,mp-1104271,Ag3SbS3,https://materialsproject.org/materials/mp-1104271,367.101873694636
-3.1346561339999996,-31.34656134,3.584657686563455,-1.5138199318620689,0.0,3.3854,225,mp-1113534,Cs3AlBr6,https://materialsproject.org/materials/mp-1113534,419.2841751885079
-3.126470982,-31.26470982,3.9373570024031816,-1.3199879515747128,0.0,2.036,225,mp-1113281,Cs2AlInBr6,https://materialsproject.org/materials/mp-1113281,374.0974771987419
-4.618748954615385,-60.04373641,6.353761021228408,-0.28350978450549474,0.0,0.0,87,mp-14785,Ba(Cu2P)4,https://materialsproject.org/materials/mp-14785,201.1303722676689
-7.005169566923077,-91.06720437,6.075691875089992,-1.4502619103461536,2.1000000000000002e-06,0.0,87,mp-1210521,Na(RuO2)4,https://materialsproject.org/materials/mp-1210521,151.75870962353295
-6.426145394583332,-154.22748947,4.839349216982327,-1.6960135922033337,24.9999998,0.3353000000000001,1,mp-775968,Mn3Fe3(TeO8)2,https://materialsproject.org/materials/mp-775968,289.44601161153645
-2.63565017625,-21.08520141,5.4073298574944015,-0.2890840970833333,0.0011458,0.0,6,mp-1228028,Ba3SrAg4,https://materialsproject.org/materials/mp-1228028,285.92381725674164
-4.70361297,-42.33251673,8.461504495972811,0.16020032169333356,3.3e-06,0.0,123,mp-1225700,Cu6AuN2,https://materialsproject.org/materials/mp-1225700,118.97549723416994
-4.956014851111111,-178.41653464,4.317165750218173,-2.7514159353718783,2.9999021,0.06870000000000001,11,mp-1201167,Cs2ZrCu3F12,https://materialsproject.org/materials/mp-1201167,596.6893072753134
-5.0224602625,-40.1796821,6.957701901429467,0.2744001362500006,4.1110686,0.0,194,mp-974906,MnSn3,https://materialsproject.org/materials/mp-974906,196.21264218828833
-5.372813974444443,-48.35532577,5.772179754218423,-0.5367949986666668,1.4e-06,0.0,79,mp-1223845,K(SiPd)4,https://materialsproject.org/materials/mp-1223845,166.02580476225552
-4.243394554,-42.43394554,4.0246079054470645,-1.2550578232413792,4.9999998,1.2909000000000002,194,mp-23048,CsMnBr3,https://materialsproject.org/materials/mp-23048,352.8157828285055
-6.368247520500001,-127.36495041,6.330051156214838,-0.8744267545000001,0.0,0.0,14,mp-18655,Ba(SiRh)2,https://materialsproject.org/materials/mp-18655,418.99704578049756
-7.263469721578946,-138.00592471,7.955514198672062,-0.3516057810526308,6.9274974,0.0,166,mp-1205398,Ce(Co2B)6,https://materialsproject.org/materials/mp-1205398,190.39763216604015
-7.947012328461539,-103.31116027,7.843301233576871,-0.252627342692308,20.5975112,0.0,71,mp-1224130,Ho(Fe5Si)2,https://materialsproject.org/materials/mp-1224130,165.0421629864136
-7.629180211818181,-167.84196466,6.024944944662079,-3.034773891022728,0.0,2.752,227,mp-3370,Y2Sn2O7,https://materialsproject.org/materials/mp-3370,290.61903627426517
-6.8168432175,-54.53474574,6.282975417358512,-1.9726813758984372,2.1767425,0.0,139,mp-675328,Ce4GeS3,https://materialsproject.org/materials/mp-675328,192.74776374059104
-4.846753253875,-387.74026031,4.17671273457094,-0.28677495237499995,7.5e-08,0.0,204,mp-30443,Be17Ru3,https://materialsproject.org/materials/mp-30443,725.8324441010004
-5.8240117157142866,-81.53616402,4.216300558384411,-1.5083484723214298,6.99999965,0.2873000000000001,66,mp-1105072,Eu(GaS2)2,https://materialsproject.org/materials/mp-1105072,330.56391937287674
-1.9998573675,-15.99885894,3.647972979568726,-0.16635439090517234,4.5e-07,0.0,194,mp-1185538,Cs3As,https://materialsproject.org/materials/mp-1185538,431.1952531833841
-6.529482101666668,-156.70757044,4.791899039991231,-1.7811872054166666,22.0000003,0.29879999999999995,8,mp-757950,Cr3Fe3(TeO8)2,https://materialsproject.org/materials/mp-757950,289.2537331244325
-8.301596730714285,-116.22235423,7.9317148239621185,-0.10530018074404726,22.2452692,0.0,44,mp-1225513,ErTiFe11C,https://materialsproject.org/materials/mp-1225513,176.15739072242783
-7.103840721111111,-127.86913298,7.339308163919114,-0.4440890335185191,3.05e-06,0.0,86,mp-975663,Pr(CoB)4,https://materialsproject.org/materials/mp-975663,190.00005797026816
-5.720125224166666,-68.64150269,7.06297588902547,-0.2932531183333336,6.434082,0.0,160,mp-1224816,GdMg3Ni8,https://materialsproject.org/materials/mp-1224816,164.50564791954903
-6.571790591666668,-157.72297419999998,4.874198206668291,-1.7595811984533338,22.9999146,0.0,8,mp-775891,Mn3Fe3(SbO8)2,https://materialsproject.org/materials/mp-775891,283.39742765773656
-4.144475461428572,-58.02265646,5.0416126171787825,-1.0527754792857142,0.85244005,0.0,220,mp-1214488,Ba4As3,https://materialsproject.org/materials/mp-1214488,509.9075243592959
-6.820983265416667,-163.70359837,4.87367995760096,-1.8537423392866677,18.999998899999998,0.0,8,mp-772061,Mn3Cr3(TeO8)2,https://materialsproject.org/materials/mp-772061,283.4729804863595
-6.692666052083332,-160.62398525,4.82622825222226,-1.7435882198233337,10.9999994,0.0,186,mp-770922,Mn3TeO8,https://materialsproject.org/materials/mp-770922,289.29676636263196
-7.4733294674074076,-201.77989562,3.4676188934374936,-3.3678792537407407,4e-07,2.0116,2,mp-1192578,K2Ca4U(SiO4)4,https://materialsproject.org/materials/mp-1192578,404.5829465087309
-3.054694257,-30.54694257,4.467876316138503,-1.2405297029080458,0.0,1.2019,225,mp-1113577,Cs2AlAgBr6,https://materialsproject.org/materials/mp-1113577,327.0938593198817
-1.6968013523076924,-22.05841758,7.574774463015013,-0.1659254607692307,8.7e-06,0.0,139,mp-1104493,TbZn12,https://materialsproject.org/materials/mp-1104493,206.90677096478956
-3.342376875625,-53.47803001,4.084964229958581,-0.5563136987499995,0.09661785,0.0,140,mp-17757,Sr5Ge3,https://materialsproject.org/materials/mp-17757,533.3446070502531
-6.266932249,-125.33864498,6.305443057159654,-1.7445296787499998,19.6862474,0.0,204,mp-1188625,LuFe4(CuO4)3,https://materialsproject.org/materials/mp-1188625,205.6705792943101
-8.9908490012,-224.77122503,5.674072452709918,-3.738669637200001,0.0,3.7069,148,mp-769802,Ba2Zr7O16,https://materialsproject.org/materials/mp-769802,342.1744879772959
-8.298883165714285,-116.18436432,7.954383329167251,-0.10182585931547652,22.036371399999997,0.0,44,mp-1224127,HoTiFe11C,https://materialsproject.org/materials/mp-1224127,175.16924513591078
-6.23956235375,-49.91649883,4.261306799113802,-1.617028705781251,4.0000018,0.0,129,mp-1078516,BaCrS2,https://materialsproject.org/materials/mp-1078516,197.53037610272486
-3.26314263625,-26.10514109,5.6157187086587514,-0.2871137262499999,0.0,1.0392,12,mp-1206891,RhI3,https://materialsproject.org/materials/mp-1206891,286.0072315584517
-3.245428288333333,-38.94513946,3.8552794784705897,-0.6801797549999998,2.5e-08,0.2966000000000002,62,mp-20726,SrCaSn,https://materialsproject.org/materials/mp-20726,424.52964155080133
-7.809332780833333,-93.71199337,8.879674882148414,-0.5190076958333331,0.02202835,0.0,62,mp-1101967,NbCoAs,https://materialsproject.org/materials/mp-1101967,169.62142819024817
-2.516605662,-25.16605662,3.8322924950375867,-1.0334862368620688,0.0,1.1753,225,mp-1114294,Cs3GaI6,https://materialsproject.org/materials/mp-1114294,532.9031647166374
-5.482763908055556,-197.37950069,4.778795960161063,-1.5479498610822218,0.0,2.3050999999999995,114,mp-625541,Sn3(HO2)2,https://materialsproject.org/materials/mp-625541,586.7467327463239
-8.264299394444445,-148.75738909999998,7.4224836362617985,0.05961520005333259,0.8668183,0.0,2,mp-1246241,Fe4RuN4,https://materialsproject.org/materials/mp-1246241,170.23859160232925
-8.226487383,-164.52974766,5.0286740849559255,-3.4343269069083333,1.0000003,0.05079999999999973,5,mp-1221390,Na2LaCeTi4O12,https://materialsproject.org/materials/mp-1221390,233.94407185432001
-4.242472325,-33.939778600000004,4.273364280196375,-0.9662974049999996,0.04068005,0.0,193,mp-23282,ZrI3,https://materialsproject.org/materials/mp-23282,366.7698058755122
-8.205074670833334,-98.46089605,6.707948522254112,-0.6420515595238095,0.0434339,0.0,124,mp-1103567,Zr4NiP,https://materialsproject.org/materials/mp-1103567,225.05237604095316
-4.7616988077272735,-104.75737377,4.248551348578441,-2.2139434332911363,0.0,2.4505000000000003,36,mp-1013750,Sn4SF6,https://materialsproject.org/materials/mp-1013750,485.35182877511573
-7.780701319375,-124.49122111,8.152624055830708,-0.3234885943750001,1.25e-06,0.0,140,mp-570293,Nb5Ga3,https://materialsproject.org/materials/mp-570293,274.4408764765851
-5.835140246666668,-70.02168296,8.571841510174803,-0.3232134233333343,7.5e-08,0.7001999999999997,14,mp-1102857,SbTeRu,https://materialsproject.org/materials/mp-1102857,271.541509532802
-4.327731814285714,-60.588245400000005,9.659319621639463,-0.6000069053571424,0.0,0.0,146,mp-30662,Zn3Ga4Pd7,https://materialsproject.org/materials/mp-30662,209.7410252441256
-6.492647970526316,-123.36031144,4.321164407437179,-0.913578709423158,1.8446031999999999,0.0,12,mp-1247459,Sr8Cr3N8,https://materialsproject.org/materials/mp-1247459,372.3684944768139
-6.567357105,-52.53885684,6.905656530620193,-1.8081464028125005,0.7336814,0.0,129,mp-1079008,LaCoAsO,https://materialsproject.org/materials/mp-1079008,138.8707054235025
-6.931939530416668,-166.36654873,4.807671058535751,-1.9465355104166675,8.00000055,0.4236,186,mp-770187,Cr3TeO8,https://materialsproject.org/materials/mp-770187,284.31665213717633
-5.1815871675,-41.45269734,4.926775488907382,-1.5236653645312508,0.0,0.0,129,mp-7486,BaNiS2,https://materialsproject.org/materials/mp-7486,175.3641490034363
-5.4431861325,-43.54548906,5.043689147297641,-1.4523298645312508,0.02139485,0.0,129,mp-19832,BaCoS2,https://materialsproject.org/materials/mp-19832,171.4570711251632
-3.484383895,-41.81260674,3.2064816209690075,-0.3137493129501916,0.0,1.3013999999999997,15,mp-9718,Rb3BAs2,https://materialsproject.org/materials/mp-9718,431.96282317652344
-7.278623703888888,-131.01522667,6.530928478579226,-0.2263529671688897,3.5e-07,0.0,2,mp-1246335,Zr(NiN)4,https://materialsproject.org/materials/mp-1246335,194.26531235588706
-5.3138069925,-42.51045594,4.984808392813825,-1.4894179570312502,0.6565515000000001,0.0,99,mp-1228387,Ba2CoNiS4,https://materialsproject.org/materials/mp-1228387,173.4024483565765