energy_per_atom,energy,density,formation_energy_per_atom,total_magnetization,band_gap,sgr,mp_id,formula,URL,cell_volume
-7.522131026666668,-45.13278616,3.87907132835058,-1.6041826518799998,0.0,1.3478,164,mp-672350,ZrNCl,https://materialsproject.org/materials/mp-672350,120.44675457977802
-3.5912082053571432,-100.55382975,3.3652661213762967,-0.8617154888258932,0.0,1.8881,14,mp-18411,Na3GeSe3,https://materialsproject.org/materials/mp-18411,747.0390147140708
-5.357295144999998,-32.14377087,5.419104038821588,-0.8852040112066663,4.270000000000001e-05,0.0,164,mp-1206023,ZrHBr,https://materialsproject.org/materials/mp-1206023,105.49288092990909
-3.178922915,-31.78922915,0.5042436077355479,0.20085110329999975,5.377265,0.0,65,mp-1213437,NaTl3O6,https://materialsproject.org/materials/mp-1213437,2411.018220124237
-4.806428414666667,-144.19285244,2.6399984180838927,-0.9584564391595242,6.999999799999999,0.0,4,mp-1180454,Na2TePO11,https://materialsproject.org/materials/mp-1180454,478.72199353945905
-6.548588400000001,-52.388707200000006,4.915672246382618,-2.96652333075,0.0,3.8076,194,mp-768864,KNdO2,https://materialsproject.org/materials/mp-768864,145.48528236462542
-7.13130821,-21.39392463,1.2081262697423478,-1.4506494627083342,0.26614190000000004,0.0,42,mp-555293,NbS2,https://materialsproject.org/materials/mp-555293,215.84253750718244
-6.35821379,-178.02998612,5.034527515351077,-0.8811065366071428,8.52096135,0.0,31,mp-1239138,TaCr3(CuS4)2,https://materialsproject.org/materials/mp-1239138,475.3170498890443
-5.73969063,-493.61339418,2.0348034727615856,-1.2575610471704646,0.0,3.4062,9,mp-1199223,LaH16N7O19,https://materialsproject.org/materials/mp-1199223,909.2113227865468
-6.5841574750000005,-65.84157475,5.8940073614725925,-2.002256871108667,4.0000001,0.0,194,mp-550807,MnInO3,https://materialsproject.org/materials/mp-550807,122.69731025849389
-3.1805499175,-101.77759736,4.286651570763324,-0.3473087856250001,2.3e-06,0.0,63,mp-1211196,Li8CaSn7,https://materialsproject.org/materials/mp-1211196,717.8636267155524
-6.13126377625,-49.05011021,4.103610301450556,-1.5361693344062504,0.0,0.6318000000000001,194,mp-7937,NaNbS2,https://materialsproject.org/materials/mp-7937,145.6963147765944
-6.977640925833334,-167.46338222,3.2228271249982408,-2.4884554311904767,0.9999998,1.3329,15,mp-26864,LiMo(PO4)2,https://materialsproject.org/materials/mp-26864,301.75073417284233
-8.32350888375,-66.58807107,7.105303477935772,-0.16059823993999878,0.39187225,0.0,194,mp-1247540,CrCoN2,https://materialsproject.org/materials/mp-1247540,64.94297395931673
-7.135611271666666,-42.81366763,3.9802906455266576,-1.454952524375,0.47699635,0.0,194,mp-10033,NbS2,https://materialsproject.org/materials/mp-10033,131.0281398587523
-7.651016641666666,-45.90609985,9.416257330408474,0.19523153170666774,0.00041645,0.0,129,mp-1246820,ReTeN,https://materialsproject.org/materials/mp-1246820,115.61864286332847
-4.61426026875,-36.91408215,4.025941180290826,-0.6588450928125003,0.0,0.4183,194,mvc-14413,TeO3,https://materialsproject.org/materials/mvc-14413,144.85440963778026
-5.4403071635,-108.80614327,4.486331461998383,-1.6221947133750014,13.0,0.0,12,mp-1222861,Li5Co4NiO10,https://materialsproject.org/materials/mp-1222861,181.04133939208256
-9.148325713,-182.96651426,9.180941604696507,-0.5237292948333334,0.0008725,0.0,65,mp-1219294,ScNb2B2Ru5,https://materialsproject.org/materials/mp-1219294,274.10216124415234
-3.40310474,-13.61241896,8.6224252361811,-0.010428831249999604,5e-07,0.0,187,mp-1215518,ZnCu3,https://materialsproject.org/materials/mp-1215518,49.31049303747769
-6.684641935921053,-508.03278713,3.0819747655765486,-2.441573517987938,0.0,6.1844,62,mp-1019539,BaB2S3O13,https://materialsproject.org/materials/mp-1019539,998.1337284484606
-4.264293686538462,-110.87163585,5.378380185033626,-1.4231845611258014,0.0,1.8542000000000003,127,mp-1193105,Ba4In2Te2Se5,https://materialsproject.org/materials/mp-1193105,882.3538747136466
-7.627680783333332,-183.0643388,2.657331645794505,-3.2841625128819447,0.0,4.686,167,mp-558669,SrAl2B2O7,https://materialsproject.org/materials/mp-558669,343.9403592367295
-6.3636196017857145,-178.18134885,4.996041242812165,-0.8865123483928576,8.96957305,0.0,31,mp-1239140,TaCr3(CuS4)2,https://materialsproject.org/materials/mp-1239140,478.9785852197903
-5.3257134725,-42.60570778,6.137718631290956,-1.4997182252083334,0.0,0.2439,194,mp-549158,InCuO2,https://materialsproject.org/materials/mp-549158,113.82588969877229
-4.6038372315,-184.15348926,3.42835997642423,-2.6933327209026894,0.00043345,4.4735000000000005,62,mp-1213272,CsSm2Cl7,https://materialsproject.org/materials/mp-1213272,1320.922695981606
-6.874020681538463,-178.72453772,3.258875902924933,-2.583390021098902,1.99999995,1.6204,9,mp-26863,Li2Mo(PO4)2,https://materialsproject.org/materials/mp-26863,305.48633445665195
-3.6569810508333336,-87.76754522,7.585219952742526,-0.1877195333333332,5e-08,0.0,194,mp-13227,YbMg2Cu9,https://materialsproject.org/materials/mp-13227,347.45043939355077
-4.1219850299999985,-41.2198503,0.2910078966276932,-0.11425930978448308,4.0321789,0.0,65,mp-1207372,RbEr3O6,https://materialsproject.org/materials/mp-1207372,3898.686941089971
-1.68067865,-6.7227146,2.6559287749693987,0.003374710000000114,0.000369875,0.0,194,mp-867202,Sr,https://materialsproject.org/materials/mp-867202,219.12700680232115
-3.40087229,-13.60348916,8.575423391734674,-0.008196381249999884,0.0,0.0,166,mp-1215529,ZnCu3,https://materialsproject.org/materials/mp-1215529,49.58076355561419
-7.436742507272728,-81.80416758,4.277700580026538,-2.3501534576177274,6.139775,0.0,139,mp-656880,Y2Mn2S2O5,https://materialsproject.org/materials/mp-656880,167.62400813942736
-7.5896408825,-30.35856353,8.78351238430758,0.04976775749999973,8.125907000000002,0.0,65,mp-1224754,Fe3Pd,https://materialsproject.org/materials/mp-1224754,51.79169252563894
-3.2297339588888887,-116.27042252,3.646725626479628,-1.13833997525,0.0,1.7876,62,mp-18101,K2Cd3S4,https://materialsproject.org/materials/mp-18101,990.2777438329192
-3.1322095843333333,-93.96628753,5.310664793497337,-0.31462050033333305,0.0,1.1926,2,mp-1193453,Te7IrBr7,https://materialsproject.org/materials/mp-1193453,1028.5579638500183
-5.845705806666667,-17.53711742,1.9688921026698163,-1.5412651223958338,0.0001484,0.9778000000000002,166,mp-1080274,CeSe2,https://materialsproject.org/materials/mp-1080274,251.35984478497085
-6.257882163333334,-37.54729298,5.927112052546439,-1.0972311462500002,4.15e-06,0.0,12,mp-1025023,TbCBr,https://materialsproject.org/materials/mp-1025023,140.55063988257155
-7.60949221625,-60.87593773,6.063190027545677,-0.6665955601041675,7.155e-05,0.0,194,mp-20315,Ti2InC,https://materialsproject.org/materials/mp-20315,121.90746142502415
-7.777672425,-46.66603455,5.177527451537763,-1.7346694491266668,3.5e-07,1.4867,166,mp-541912,ZrBrN,https://materialsproject.org/materials/mp-541912,118.7529761594527
-7.91454224,-79.1454224,6.8333033386478474,-3.71559025025,0.0,3.5637000000000003,194,mp-754184,ErAlO3,https://materialsproject.org/materials/mp-754184,117.73131163975236
-6.7945253682758615,-197.04123568,3.1928861774852404,-2.7022570929568968,0.0112473,0.052799999999999965,12,mp-1220870,Na6Zr2Si4O17,https://materialsproject.org/materials/mp-1220870,366.5061566226149
-3.3043352308333334,-39.65202277,4.537420313602516,-0.038871984583333706,0.0005425166666666667,0.0,8,mp-1094182,LaMg,https://materialsproject.org/materials/mp-1094182,358.37635278258716
-7.20444443,-21.61333329,3.380546015398878,-0.558236115729167,5.3500000000000006e-05,1.5384,187,mp-1023936,WSe2,https://materialsproject.org/materials/mp-1023936,167.8740119866224
-9.613355052000001,-48.06677526,9.575176093189613,-0.1066525949999999,1e-06,0.0,69,mp-1216444,V4Os,https://materialsproject.org/materials/mp-1216444,68.3272801707715
-4.1812148335,-83.62429667,4.991466014643972,-0.4441009612968756,0.00025110000000000003,1.0332999999999997,26,mp-1219516,Sb4(SeS)3,https://materialsproject.org/materials/mp-1219516,545.6645285350043
-4.4888629225,-53.86635507,3.2894975361060808,-1.2991455036197916,0.006940000000000001,0.0,139,mp-866849,Ca3Sn2S7,https://materialsproject.org/materials/mp-866849,293.84874420048453
-9.180128452,-45.90064226,9.572740212876454,-0.14399880200000012,4e-06,0.0,69,mp-1216454,V4Ir,https://materialsproject.org/materials/mp-1216454,68.68934245095724
-6.351393670833333,-76.21672405,7.600998231715574,-0.40085527333333343,0.2597871,0.0,166,mp-569196,YNi3,https://materialsproject.org/materials/mp-569196,173.66916857487985
-6.395304491,-63.95304491,4.69088725323484,-0.6909860659999999,0.0,0.0,65,mp-10284,YSi3Ni,https://materialsproject.org/materials/mp-10284,164.15040641105995
-6.54636684375,-52.37093475,6.745172794952249,-0.4933335142383344,2.47e-05,0.0,123,mp-1079768,Ti2HPd,https://materialsproject.org/materials/mp-1079768,100.02955982524264
-9.218148698333334,-55.30889219,3.808304312744408,-2.340623800364584,6.9986226999999985,0.0,139,mp-1072244,EuS,https://materialsproject.org/materials/mp-1072244,240.7270905081182
-9.51112171625,-76.08897373,7.825009285287687,-0.5294875424400001,2.6514429,0.0,194,mp-9374,MnMoN2,https://materialsproject.org/materials/mp-9374,75.9248244990655
-5.109870958148148,-275.93303174,2.168831736351112,-1.3382609015914813,3.9986781000000002,0.5212,14,mp-707251,CdH6(SO4)4,https://materialsproject.org/materials/mp-707251,769.7858461674421
-7.087076105714287,-99.21906548,3.261787103968753,-1.9735386662499996,2.00000005,1.5101999999999998,63,mp-1244569,Mo2O5,https://materialsproject.org/materials/mp-1244569,276.8190309102435
-5.55121509,-222.04860359999998,3.5758724665761656,-2.3430796109520005,3.000000025,1.2913,61,mp-1203061,TcF4,https://materialsproject.org/materials/mp-1203061,646.3836492282567
-4.056488325625,-64.90381321,2.651133636099401,-0.7314200556249997,2.9375e-05,0.30210000000000026,60,mp-1188146,CaAs,https://materialsproject.org/materials/mp-1188146,576.2405117090797
-6.530806968611111,-235.10905087,4.05832485522267,-0.997827287446666,6.665e-05,0.7283,52,mp-1246531,Sr3Y2N4,https://materialsproject.org/materials/mp-1246531,812.9336904097449
-6.298020472857143,-352.68914648,2.5722181491522984,-1.92606297325148,0.00059825,3.7786,2,mp-603633,SnP4H8N2O13,https://materialsproject.org/materials/mp-603633,628.361522128168
-6.834245325,-41.00547195,4.938733031922624,-1.1452262858854163,0.7702507,0.0,164,mp-1220413,NbSeS,https://materialsproject.org/materials/mp-1220413,137.13477354707138
-6.37377198375,-50.99017587,4.24244155957739,-1.6362847607812512,0.0,0.7321,194,mp-7936,LiNbS2,https://materialsproject.org/materials/mp-7936,128.36515829061383
-7.920609545,-79.20609545,6.933461232426644,-3.7395041402500016,1.1e-05,3.6406,194,mp-1101265,TmAlO3,https://materialsproject.org/materials/mp-1101265,116.83302768222076
-8.14593695875,-65.16749567,6.246248229866223,-1.0530313599399983,0.0,0.7705000000000002,194,mp-864954,MgMoN2,https://materialsproject.org/materials/mp-864954,78.82775456498582
-8.140391826,-40.70195913,5.0572978947351315,0.10465082866666647,0.4302323,0.0,69,mp-1217156,Ti4Cr,https://materialsproject.org/materials/mp-1217156,79.94024700608178
-2.571410965,-15.42846579,3.8554374755866863,-0.4012418426666669,0.0,0.4468000000000001,194,mp-7438,KZnSb,https://materialsproject.org/materials/mp-7438,194.9069009701512
-3.610632727,-36.10632727,0.19359133922714575,0.6449285565625005,4.510472900000001,0.0,65,mp-1207379,Y3TlS6,https://materialsproject.org/materials/mp-1207379,5691.124734743784
-7.0191604625,-56.1532837,6.020725315598158,-0.5355448017708344,0.0,0.0,194,mp-9961,Ti2CdC,https://materialsproject.org/materials/mp-9961,121.43956602086168
-3.939479601666666,-23.63687761,7.564146860319549,-0.8050587199999999,1.5e-07,0.0,194,mp-16245,CaSbAu,https://materialsproject.org/materials/mp-16245,157.5350150009392
-6.0415568199999985,-90.6233523,7.6998673022534305,-2.1913858569999998,0.0013856,0.0,139,mp-1208840,Sr2HoCu2(BiO4)2,https://materialsproject.org/materials/mp-1208840,218.50877558770628
-4.651903500357143,-130.25329801,2.2292934988583006,-0.4627568776978578,0.0,0.8285,4,mp-1194474,BaCl2O11,https://materialsproject.org/materials/mp-1194474,572.3992266836196
-8.277669873043479,-380.77281416,4.613447437887942,-3.1181728311195647,0.00012109999999999999,2.4692000000000003,35,mp-1220952,NaSr2Nb5O15,https://materialsproject.org/materials/mp-1220952,649.8637173115484
-6.408204137857143,-179.42971586,5.758978181029705,-1.2257356539880948,3.00000265,0.5571000000000002,31,mp-1247338,HfCrAgS4,https://materialsproject.org/materials/mp-1247338,538.1727364931479
-4.884803846666666,-29.30882308,5.717198054514817,0.1892739992066665,5e-08,0.0,129,mp-1245707,SbTeN,https://materialsproject.org/materials/mp-1245707,152.98776883918237
-7.775433533333333,-46.65260120000001,3.7008379205510895,-1.8574851585466658,0.0,3.0525,164,mp-632657,ZrNCl,https://materialsproject.org/materials/mp-632657,126.24750456883616
-8.2684883,-66.1479064,5.807069494294808,0.33062096912250105,0.23393350000000002,0.0,194,mp-1245843,RuCN2,https://materialsproject.org/materials/mp-1245843,80.69208112416975
-6.362711115357143,-178.15591123,5.041717308082006,-0.8856038619642855,8.65885425,0.0,26,mp-1239148,TaCr3(CuS4)2,https://materialsproject.org/materials/mp-1239148,474.63921912992936
-3.9985959363333334,-239.91575618,3.343158893174045,1.5690411591826674,4.0000002,0.6927,205,mp-1179109,TeC6(I3N)2,https://materialsproject.org/materials/mp-1179109,1965.143215178975
-6.467755357000001,-258.71021428,3.644816155892311,-2.6838389579026893,13.999977375,2.5352,62,mp-1213349,CsGd2Cl7,https://materialsproject.org/materials/mp-1213349,1267.5886017651403
-1.96910945,-7.8764378,7.69327564308734,0.010333736250000223,3e-07,0.0,65,mp-1215483,Zn3Cu,https://materialsproject.org/materials/mp-1215483,56.0701615345752
-6.671096531,-200.13289593,8.323097310943552,-2.02567136625,0.18300165,0.0,63,mp-17097,SrIrO3,https://materialsproject.org/materials/mp-17097,392.43790715057276
-7.330672436666667,-87.96806924,4.274640231998095,-2.5342712278162494,7.9999858999999995,0.0,71,mvc-3216,Y2MgMn2S2O5,https://materialsproject.org/materials/mvc-3216,177.18560559599837
-5.2666717525,-21.06668701,9.043587272200963,0.0918436749999998,1.1889502,0.0,65,mp-1225694,CuNi3,https://materialsproject.org/materials/mp-1225694,43.99898493045755
-3.3758981416666667,-20.25538885,4.345356611761127,-0.5918842343333335,0.0,0.6038000000000001,194,mp-7436,KCuTe,https://materialsproject.org/materials/mp-7436,175.97158670598398
-5.918331952000001,-59.18331952,4.803115704528467,-1.80739295725,0.00011675,0.1006999999999998,194,mvc-14411,AlSbO3,https://materialsproject.org/materials/mvc-14411,136.03420644507136
-6.549687291538461,-85.14593479,8.721999445857366,-0.12737509923076884,12.9864215,0.0,191,mp-4298,Tm(MnSn)6,https://materialsproject.org/materials/mp-4298,230.52260104242373
-5.446992301666668,-32.68195381,2.429617442969186,-0.8840507275000012,2.9999322,0.0,64,mp-1077196,CoO2,https://materialsproject.org/materials/mp-1077196,124.29621636075798
-8.265210589130435,-190.09984355,4.143444710194219,-3.2439999491485514,0.2571006,0.0,12,mp-756557,LiY4Ti4(S2O5)2,https://materialsproject.org/materials/mp-756557,337.55716508535136
-6.916421868333334,-41.49853121,5.242708885803565,-0.9776681992187513,2.1000000000000002e-06,1.2811000000000003,164,mp-1221404,MoSeS,https://materialsproject.org/materials/mp-1221404,131.10530067546335
-4.0840144425,-130.68846216,2.0207593874519065,-1.3383012066116071,0.0,2.4273,15,mp-570531,NbP2NCl12,https://materialsproject.org/materials/mp-570531,976.7147127059004
-4.68334506225,-187.33380249,2.6677219125748537,-2.7739922315320005,0.00065595,4.1941,62,mp-769009,Ba2YCl7,https://materialsproject.org/materials/mp-769009,1523.1017200243973
-8.503126476363636,-93.53439124,4.163569669685569,-3.340405018655304,0.0,0.7880000000000003,139,mp-25305,Y2Ti2S2O5,https://materialsproject.org/materials/mp-25305,166.57865229011176
-6.532906714000001,-65.32906714,5.6138154547736345,-2.6970652959166683,4.235e-05,2.1588000000000003,194,mp-754157,AlInO3,https://materialsproject.org/materials/mp-754157,112.28247782210835
-3.167642013,-31.67642013,5.446965325814348,-0.3628476416666668,4.1e-06,0.0,115,mp-1227351,Ca2Ga7Ag,https://materialsproject.org/materials/mp-1227351,206.10850295772053
-6.022255185333332,-90.33382778,7.74894139511407,-2.1727942616666662,8.8e-06,0.0,139,mp-1208931,Sr2ErCu2(BiO4)2,https://materialsproject.org/materials/mp-1208931,217.62397654964522
-6.561702331538461,-85.30213031,8.645627431462072,-0.13170679192307616,13.017700099999999,0.0,191,mp-20630,Ho(MnSn)6,https://materialsproject.org/materials/mp-20630,231.78993066485396
-6.120902556,-61.20902556,5.056251007662006,-2.03355331625,0.00033505,0.0,194,mvc-15937,AlSnO3,https://materialsproject.org/materials/mvc-15937,127.22049285342551
-6.880987400294117,-233.95357161,2.6328477113521616,-2.3819576410924377,0.9999983,0.0,4,mp-504341,Sb(PO3)4,https://materialsproject.org/materials/mp-504341,552.0496565316006
-6.827133751388889,-245.77681505,4.890749679238495,-1.9371979625462967,10.999877425,1.3538,55,mp-1203720,FeCo2BO5,https://materialsproject.org/materials/mp-1203720,359.245353158518
-5.93110701875,-94.89771230000001,7.545617840319582,-2.0882512175,2e-07,0.0,123,mp-22301,Sr2DyCu3(PbO4)2,https://materialsproject.org/materials/mp-22301,235.64149937262408
-7.1070934275,-85.28512113,7.541136448680178,-0.15775163499999914,3.582724366666667,0.0,166,mp-2588,YCo3,https://materialsproject.org/materials/mp-2588,175.52298024055858
-7.326269553846153,-95.24150420000001,7.67651176903986,-0.3078468807692299,12.0544201,0.0,191,mp-22084,Zr(MnGe)6,https://materialsproject.org/materials/mp-22084,185.3147630592572
-6.502867208545455,-715.31539294,2.183789091103153,-1.2691816247829095,0.006959699999999999,3.5810000000000004,2,mp-1209730,TbH8C21(O2F3)5,https://materialsproject.org/materials/mp-1209730,1314.239219587403
-4.5716657475,-36.57332598,5.603277754785294,-0.4422911735416673,1.6029636,0.0,194,mp-1078847,CoAgO2,https://materialsproject.org/materials/mp-1078847,117.82942035139648
-6.659988508611112,-239.75958631,5.001067881191843,-1.9196752453240733,6.9999306,2.5635000000000003,55,mp-1213761,CrNi2BO5,https://materialsproject.org/materials/mp-1213761,345.57191189316075
-4.09467451,-16.37869804,8.201984794583238,0.13548124375000106,2.3e-06,0.0,187,mp-1225745,Cu3Ge,https://materialsproject.org/materials/mp-1225745,53.3021467757225
-1.6044349960000002,-8.02217498,0.3379628127534243,0.3247573762759998,2.9999862999999998,0.6608999999999998,123,mp-1208947,Sr2HI2,https://materialsproject.org/materials/mp-1208947,2113.0320014871504
-4.864478146333334,-291.86868878,2.3039515061682216,-1.0587460066789292,0.0,2.136,14,mp-572763,TaP4(SCl)5,https://materialsproject.org/materials/mp-572763,1852.0962002359408
-1.901390374166667,-45.63336898,2.9313119057210053,-0.09183657827777776,7.875e-07,0.0,20,mp-31430,Na2In,https://materialsproject.org/materials/mp-31430,728.7128736963515
-6.50788028142857,-91.11032394,5.239628079447048,-0.2898553980357142,0.0002951,0.0,194,mp-1104803,Dy(AlC)3,https://materialsproject.org/materials/mp-1104803,177.14310646486214
-4.23539999125,-271.06559944,3.823933901376775,-1.6260229528462506,0.0,3.6543,56,mp-557130,Zn2TeCl2O3,https://materialsproject.org/materials/mp-557130,1310.8139626223162
-6.692845342999999,-66.92845343,6.9148806816700255,-3.1016080202500005,0.99999995,0.0,194,mp-759116,YbAlO3,https://materialsproject.org/materials/mp-759116,119.11889086607611
-2.4466205983333333,-14.67972359,3.824728582801472,-0.0012818850000000381,0.00061655,0.0,187,mp-1094507,Mg2Sb,https://materialsproject.org/materials/mp-1094507,147.93522213154367
-2.848756555,-11.39502622,1.728779123035611,0.772097145,0.34794895,0.0,59,mp-1181516,CuTe,https://materialsproject.org/materials/mp-1181516,367.201791264692
-4.935636188999999,-296.13817134,3.7081134620544423,-2.1104101953379995,0.0,3.7063,14,mp-557231,KTeO2F,https://materialsproject.org/materials/mp-557231,1169.8408441766414