energy_per_atom,energy,density,formation_energy_per_atom,total_magnetization,band_gap,sgr,mp_id,formula,URL,cell_volume
-7.4255704425000015,-415.83194478,4.345248794550318,-2.4040709533418374,1.0000075000000002,0.0466000000000002,62,mp-554866,PWO5,https://materialsproject.org/materials/mp-554866,901.2966628325099
-6.7151623763636366,-147.73357228,6.018519456683769,-2.2755966019945157,7e-07,2.423,14,mp-19144,Rb2W2O7,https://materialsproject.org/materials/mp-19144,359.01375324766065
-5.094347249166667,-61.13216699,7.712380117983417,-0.601215433125,6.37e-05,0.0,65,mp-1101908,Nd3Ni2Sn7,https://materialsproject.org/materials/mp-1101908,297.358516020883
-4.9179913797222214,-177.04768967,4.277174810298554,-0.5184587580422225,2.958387775,0.0,62,mp-1196142,Te2NO6,https://materialsproject.org/materials/mp-1196142,567.135113223669
-8.4729421375,-33.89176855,10.906577283503829,-0.06968235250000099,1.9e-06,0.0,65,mp-1220645,Nb3Au,https://materialsproject.org/materials/mp-1220645,72.42370085794863
-4.3892876780000005,-21.94643839,4.0715190844722216,-1.1094164657500003,0.013528,0.0,123,mp-1207058,Er2I2O,https://materialsproject.org/materials/mp-1207058,246.47004217601383
-4.266869035666668,-256.01214214,2.3999818813745484,-1.2348314423523812,0.0,2.0563,18,mp-554554,K9Bi(PS4)4,https://materialsproject.org/materials/mp-554554,1657.507436458325
-2.888902444375,-46.22243911,4.3310441570790505,-0.3568246883750001,0.00078495,0.00990000000000002,57,mp-31486,K2SnBi,https://materialsproject.org/materials/mp-31486,622.474567225871
-4.91033688,-137.48943264,5.836524052855524,-0.5756088558928576,7.775e-06,0.17010000000000058,62,mp-601716,FeBiSbS4,https://materialsproject.org/materials/mp-601716,585.9109829907375
-5.17243812,-20.68975248,11.399140356781487,0.005703829999999854,0.3011765,0.0,194,mp-1186427,Pd,https://materialsproject.org/materials/mp-1186427,62.0097863894343
-1.7987944133333331,-10.79276648,0.26320538228171475,2.4705644733333334,1.9397218,0.14439999999999964,123,mp-1207353,Er2CuSb3,https://materialsproject.org/materials/mp-1207353,4815.868512875086
-4.605443900000001,-18.421775600000004,8.626057941479626,0.0,0.00079475,0.0,194,mp-1184067,Dy,https://materialsproject.org/materials/mp-1184067,125.12672455047976
-5.331809413333334,-31.99085648,5.424534080787828,-1.0389095350000002,0.6175630999999999,0.0,164,mp-29535,CeSiI,https://materialsproject.org/materials/mp-29535,180.67357558232868
-2.7797526125,-11.11901045,9.320273761062829,0.029717151666667,0.0002658,0.0,187,mp-1223787,InAg3,https://materialsproject.org/materials/mp-1223787,78.1112081020338
-2.9175424540000003,-14.58771227,7.686302130447242,0.02423860133333306,0.00043210000000000004,0.0,12,mp-1223890,In4Pb,https://materialsproject.org/materials/mp-1223890,143.9837722073103
-3.0332791225,-12.13311649,8.988895336946028,0.12006261249999994,2.4e-05,0.0,187,mp-1229105,Ag3Sb,https://materialsproject.org/materials/mp-1229105,82.27321351649466
-5.991203522999999,-59.91203523,8.617413338879784,-0.4633014340000002,0.0,0.0018000000000002456,12,mp-22768,Nd2Ge2Ir,https://materialsproject.org/materials/mp-22768,241.24777306628874
-6.2559441030769225,-162.65454668,5.974921516771955,-2.4945121525961547,2e-07,0.0,46,mp-541330,Sr2SmGaCu2O7,https://materialsproject.org/materials/mp-541330,352.62853171895125
-4.98586377453125,-319.09528157,3.9005069136682056,-2.2880345343666435,1.9999967,0.3063,92,mp-1213742,Cs2Sb2SO5F6,https://materialsproject.org/materials/mp-1213742,1252.2810437046744
-7.96553624,-63.72428992,6.818052773139119,-0.4013991005949995,2.0072086,0.0,194,mp-10371,Cr2GaN,https://materialsproject.org/materials/mp-10371,91.43946343186084
-7.213331086749999,-288.53324347,7.489729582966214,-0.08442433800000089,26.9472396,0.0,140,mp-1197734,Pr6Fe13Bi,https://materialsproject.org/materials/mp-1197734,789.4657445659846
-4.8763848075,-58.51661769,7.144200489201835,-0.7079188550574708,1.99992595,0.0,63,mp-867843,RbUTe3Au,https://materialsproject.org/materials/mp-867843,419.8941338348371
-6.433053621153847,-167.25939415,4.556580958601411,-1.1758353114830764,0.0,1.5532,15,mp-1019520,Ba3Ca2(SiN3)2,https://materialsproject.org/materials/mp-1019520,460.8889351528278
-4.98137374,-29.88824244,5.393438045707168,-1.0720211199999998,3.8e-06,0.0,164,mp-1206235,PrSiI,https://materialsproject.org/materials/mp-1206235,182.20272326820088
-2.8258596475,-11.30343859,9.909384947524844,0.0028139258333332857,2e-07,0.0,194,mp-8566,Ag,https://materialsproject.org/materials/mp-8566,72.30291616404234
-3.98596570375,-31.88772563,5.909104684742294,-0.8895718351041668,3.1e-06,0.5365999999999997,129,mp-559470,AgPbBrO,https://materialsproject.org/materials/mp-559470,230.97725376006798
-2.1576528116666664,-12.94591687,0.3891789525599165,2.283988035,3.9311529999999997,0.1280000000000001,123,mp-1206301,Sm2As3Au,https://materialsproject.org/materials/mp-1206301,3082.5374672368766
-7.08380140375,-283.35205615,7.62987370389441,-0.03145944325000158,26.317940000000004,0.0,140,mp-1201794,Pr6TlFe13,https://materialsproject.org/materials/mp-1201794,772.963989005807
-2.97134706125,-47.54155298,4.420557266555647,-0.7750247424999999,2e-07,2.8565,14,mp-752602,BiBr3,https://materialsproject.org/materials/mp-752602,674.187621355559
-2.9442518875,-11.77700755,10.094564974484696,0.15181452624999991,4.1e-06,0.0,187,mp-1229111,Ag3Bi,https://materialsproject.org/materials/mp-1229111,87.60934095265908
-6.963275067307693,-181.04515175,6.014728332135266,-2.3116596450961544,6.9438527,0.0,46,mp-560285,Sr2GdCoCu2O7,https://materialsproject.org/materials/mp-560285,348.14145029724307
-7.16018486125,-286.40739445,7.759412030654084,-0.06250927775000151,26.5111363,0.0011999999999998678,140,mp-4585,Pr6Fe13Au,https://materialsproject.org/materials/mp-4585,756.885450575604
-5.3959877616666665,-64.75185314,5.328280070929674,-2.1378839133133334,6.95e-06,2.7582000000000004,62,mp-756654,SbOF,https://materialsproject.org/materials/mp-756654,195.41198928968427
-8.909552961290322,-276.1961418,7.96916556989326,-3.786453048185484,1.8671183,0.0,65,mp-674412,Ce8U2O21,https://materialsproject.org/materials/mp-674412,402.7746025519583
-1.52435709,-6.09742836,7.111342769619586,0.004480770000000023,2.02e-05,0.0,194,mp-1187875,Yb,https://materialsproject.org/materials/mp-1187875,161.62330225967767
-5.100186511666666,-30.60111907,5.212096599890832,-1.143197199166666,0.0002969,0.0,164,mp-1206265,LaSiI,https://materialsproject.org/materials/mp-1206265,187.26623440102753
-4.2308060925,-67.69289748,5.288859405404955,-0.8728322667812503,0.0,0.6823000000000001,36,mp-558063,KCu(BiS2)2,https://materialsproject.org/materials/mp-558063,407.44733321607544
-1.424726185,-5.69890474,8.786504878127737,-0.0315070254166665,6.409999999999999e-05,0.0,187,mp-1226933,Cd3Ag,https://materialsproject.org/materials/mp-1226933,84.11853514025931
-3.00057809,-36.00693708,4.156229167611952,0.047086293333333515,0.300796375,0.0,38,mp-1094815,CeMg2,https://materialsproject.org/materials/mp-1094815,301.6069405461614
-9.675257428333332,-58.05154457,12.496807617821252,-0.6126330104427081,2.09e-05,0.0,99,mp-1217968,Ta4SeS,https://materialsproject.org/materials/mp-1217968,110.92796377212895
-4.57430359,-18.29721436,8.832422835049293,0.003758194999999631,0.001207825,0.0,194,mp-973986,Ho,https://materialsproject.org/materials/mp-973986,124.03085330240049
-5.628780704,-112.57561408,5.666960546783844,-0.9849116183976284,0.000721725,0.2591000000000001,62,mp-685607,CsTaSe3,https://materialsproject.org/materials/mp-685607,645.505957346563
-3.90865300375,-31.26922403,8.295577689094056,-0.44123212874999984,9.800000000000001e-06,0.0,129,mp-1079397,HoZnSn2,https://materialsproject.org/materials/mp-1079397,187.26426086154297
-3.85175352875,-30.81402823,8.491941498774805,-0.4093035325000001,3.535e-05,0.0,129,mp-1080619,TmZnSn2,https://materialsproject.org/materials/mp-1080619,184.49991158176076
-9.01118013,-180.2236026,6.899184364451121,-0.7240136955416658,0.0013353,0.0,10,mp-1216792,V11ReB8,https://materialsproject.org/materials/mp-1216792,200.50406903289246
-4.363929713571428,-122.19003198,4.743723923731535,-0.742151293482143,0.0,2.2699,126,mp-571623,Al2BiSe4,https://materialsproject.org/materials/mp-571623,810.4118831953691
-6.470490863214287,-181.17374417,4.929785308935903,-0.9933836098214286,8.90036235,0.0,14,mp-1239141,TaCr3(CuS4)2,https://materialsproject.org/materials/mp-1239141,485.4160204186301
-4.7326951620000015,-47.32695162,6.598061034609553,-1.0465022918750009,8.0000095,1.8969,166,mp-1215636,ZnNi4O5,https://materialsproject.org/materials/mp-1215636,95.68008915045476
-4.700376377,-47.00376377,6.050642851390847,-1.2892574723749999,1.9999997,0.0,107,mp-1228075,BaBi2Br2O5,https://materialsproject.org/materials/mp-1228075,218.20534896046985
-6.357353543333333,-38.14412126,7.0157815257202545,-2.9161748045833336,0.0,2.2407000000000004,166,mp-753163,HoIO,https://materialsproject.org/materials/mp-753163,145.72024184840896
-6.294063675833333,-151.05752822,6.407511833277622,-0.7007937015624996,0.00099645,0.0,15,mp-1173033,Nb3IrSe8,https://materialsproject.org/materials/mp-1173033,571.4970785055981
-4.182867125833334,-50.19440551,5.352586661133326,-1.3651859036646912,0.0,2.0647,63,mp-11121,CsTbCdSe3,https://materialsproject.org/materials/mp-11121,397.7918897345539
-2.369966585,-9.47986634,9.6274953250586,-0.019777816249999525,1.9e-06,0.0,166,mp-1226736,CdAg3,https://materialsproject.org/materials/mp-1226736,75.20345649657503
-6.46964871375,-258.78594855,7.8478720287847015,-0.17526268625000013,15.5381785,0.0,140,mp-1200065,La6Co13Bi,https://materialsproject.org/materials/mp-1200065,765.3435632613888
-4.971077475833334,-59.65292971,5.768635631367619,-1.6130179758246532,0.0,1.7195,63,mp-1101818,BaLaAgSe3,https://materialsproject.org/materials/mp-1101818,357.5065965384574
-5.7848049792,-289.24024896,2.4737088878273776,-0.8516298882749993,8.1254047,0.0,15,mp-1201251,MgUS2O21,https://materialsproject.org/materials/mp-1201251,889.3740631867796
-7.535072492142858,-105.49101489,7.378335406861497,-2.0565970355357144,1.99999975,0.3114999999999997,59,mvc-4845,W2O5,https://materialsproject.org/materials/mvc-4845,201.50483674644758
-5.05974884875,-40.47799079,2.3555837610762724,1.4876478766964292,4.1618955,0.0,123,mp-1206079,Th2(CoP)3,https://materialsproject.org/materials/mp-1206079,517.2809267598674
-7.449611680375,-595.96893443,4.9409425988564974,-2.679677302375,5.999999975,3.5609,14,mp-1252103,Be3Si3(WO6)2,https://materialsproject.org/materials/mp-1252103,901.9857725507544
-7.1858051015,-287.43220406,7.759022926600121,-0.07231276775000026,26.1883375,0.0,140,mp-1196232,Nd6Fe13Pb,https://materialsproject.org/materials/mp-1196232,769.8667694483038
-7.239668265666666,-217.19004797,7.341531057562296,-3.176596640916667,0.0,2.8694,185,mp-769015,DyGaO3,https://materialsproject.org/materials/mp-769015,380.2898104936876
-3.824302349375,-183.56651277,2.7012788243500223,-0.2568711012000004,4.00134845,0.004699999999999927,15,mp-630336,AuCl5O18,https://materialsproject.org/materials/mp-630336,814.165076267472
-4.15226949525,-166.09077981,3.127935276725636,-2.4875353900223787,0.0,5.0825999999999985,47,mp-1226690,Cs8Na4Y3HoCl24,https://materialsproject.org/materials/mp-1226690,1294.1231596258037
-5.419545630714286,-75.87363883,8.073572065388042,-0.7947772178571435,2.4e-05,0.0,63,mp-1208462,Tb3Ge4,https://materialsproject.org/materials/mp-1208462,315.6450348135092
-4.474294565666667,-268.45767394,3.0719592247572947,-0.4151020452559995,2.5e-08,2.8443,33,mp-1200236,SnH8C2I3N,https://materialsproject.org/materials/mp-1200236,1179.506546729427
-5.638998319285713,-78.94597647,4.87578201137478,-0.8626022744642857,0.1519808,0.0,12,mp-1238890,Cr2HgS4,https://materialsproject.org/materials/mp-1238890,294.82506378779965
-3.937710288125,-63.00336461,4.208344105294783,-1.17623466,2.0002732,0.2218,15,mp-1208662,SrUI6,https://materialsproject.org/materials/mp-1208662,857.8821711990466
-4.35311148,-121.88712144,4.049425248669387,-1.0109403723706891,0.0,1.9943,14,mp-559227,RbGeBiS4,https://materialsproject.org/materials/mp-559227,812.5054534729446
-7.2221941995000005,-288.88776798,7.810008269781776,-0.09886321549999906,26.45173385,0.0,140,mp-1202553,Nd6Fe13Bi,https://materialsproject.org/materials/mp-1202553,765.5980064868309
-5.664356615,-22.65742646,5.4266588701744505,0.03263122624999948,0.0001494,0.0,194,mp-1222741,LaY,https://materialsproject.org/materials/mp-1222741,139.41896834277034
-6.64309266642857,-93.00329733,5.592753986771329,-1.2791072258928569,2.8368387999999998,0.0,11,mp-1239233,HfCrCuS4,https://materialsproject.org/materials/mp-1239233,250.76465726625045
-5.246975427857143,-73.45765599,6.457983078086972,-1.5045065021428574,0.0,0.0,63,mvc-6087,Zn(SnO2)2,https://materialsproject.org/materials/mvc-6087,188.64400319577933
-6.770662737857143,-94.78927833,3.852935709909334,-0.2866463901785709,0.0043878,0.019599999999999614,194,mp-1104050,Y(AlC)3,https://materialsproject.org/materials/mp-1104050,177.46262274088852
-7.5162805375,-30.06512215,7.152829002577133,0.05122710499999972,8.05e-05,0.0,187,mp-1217416,TbZr3,https://materialsproject.org/materials/mp-1217416,100.42806671552296
-3.0338536475,-12.13541459,7.043158640370032,0.03238946624999972,0.000103,0.0,12,mp-1224025,In3Sn,https://materialsproject.org/materials/mp-1224025,109.1984354170607
-4.5612213725,-18.24488549,9.12142413153468,0.006189822499999664,0.000924225,0.0,194,mp-1184113,Er,https://materialsproject.org/materials/mp-1184113,121.79681386863878
-7.19841451875,-57.58731615,5.836289640323857,-0.9259299695833336,0.0,0.0,194,mp-1822,TiAs,https://materialsproject.org/materials/mp-1822,139.74307413271544
-7.0986825865,-283.94730346,8.190523888600211,-0.06654033025000103,25.95124205,0.0,140,mp-1196845,Sm6TlFe13,https://materialsproject.org/materials/mp-1196845,743.0500967807782
-1.8846076983333333,-11.30764619,0.1457511931137928,1.3274000821354168,1.99299235,0.0647000000000002,47,mp-1207331,TbSeI,https://materialsproject.org/materials/mp-1207331,8312.0792984747
-4.378951946,-21.89475973,3.2409449822824734,-1.0125726297500008,0.5570661,0.0,123,mp-1206474,Pr2I2O,https://materialsproject.org/materials/mp-1206474,282.63132963207755
-8.30273584,-232.47660352,5.161651929283594,-3.0981899965952384,5.999987975,0.0,57,mp-21307,NaEuTiO4,https://materialsproject.org/materials/mp-21307,369.0857935433707
-4.412221824821429,-247.08442219,2.8419047682284884,-0.3494725133099997,0.0,1.9774000000000005,56,mp-568713,H8C2I3N,https://materialsproject.org/materials/mp-568713,997.5371767649461
-7.248991606666666,-217.4697482,7.475575115066543,-3.191396404916666,0.0,2.8758,185,mp-769045,HoGaO3,https://materialsproject.org/materials/mp-769045,376.7099197995252
-2.069912943333333,-12.41947766,0.29674232093799024,2.459693705833333,3.9510207000000004,0.14910000000000026,123,mp-1206361,Er2CuAs3,https://materialsproject.org/materials/mp-1206361,3485.2849245338125
-7.7822583575,-217.90323401,4.603252704587199,-2.6649533245535717,10.0000015,1.2317,42,mp-1022731,BaNb2Fe2O9,https://materialsproject.org/materials/mp-1022731,417.60055715611975
-6.4926768332142855,-181.79495133,4.546880026477688,-1.015569579821429,8.999999800000001,0.14939999999999998,1,mp-1239123,TaCr3(CuS4)2,https://materialsproject.org/materials/mp-1239123,526.2942396207595
-7.191830950000001,-287.67323799999997,8.109486840991941,-0.09296255575000174,25.5931309,0.0,140,mp-1198585,Sm6Fe13Pb,https://materialsproject.org/materials/mp-1198585,751.6288229147713
-7.7807245525,-217.86028747,4.605780648033905,-2.6634195195535706,10.00043045,1.1067,36,mp-1096902,BaNb2Fe2O9,https://materialsproject.org/materials/mp-1096902,417.3713515832805
-9.116809758214286,-255.27067323,5.3232328339583255,-3.370438587666667,6.98612295,2.2356000000000003,57,mp-541513,NaGdTiO4,https://materialsproject.org/materials/mp-541513,364.4782966093449
-3.9668639139999997,-79.33727828,4.757190387986137,-0.2793246469181554,1.165e-05,1.4105000000000003,2,mp-19985,TlIn(PSe3)2,https://materialsproject.org/materials/mp-19985,596.8268503516641
-4.856451153,-485.6451153,2.548116891990578,-1.3160890710535431,2.000000025,0.3982,2,mp-1205173,Re2P3N2(Cl5O)3,https://materialsproject.org/materials/mp-1205173,2797.350471265301
-6.596532118125,-105.54451389,5.398816606060788,-2.4150040918675,0.0,1.4759999999999995,59,mp-556839,CaBiCO4F,https://materialsproject.org/materials/mp-556839,211.65139616850166
-1.85635974,-11.13815844,0.2364315969234957,1.9915675433333333,2.9426639999999997,0.14329999999999998,123,mp-1206571,Sm2ZnSb3,https://materialsproject.org/materials/mp-1206571,5136.932687978914
-2.9330505741666664,-35.19660689,4.837461620312261,-0.06720998416666646,8.183333333333333e-06,0.0,8,mp-1094204,MgSb,https://materialsproject.org/materials/mp-1094204,300.8354222708356
-6.917305518000001,-34.58652759,6.358715941804657,-0.15784667847599962,4.9421078000000005,0.0,123,mp-1207983,U2Br2N,https://materialsproject.org/materials/mp-1207983,169.71015852249437
-6.315829071875,-101.05326515,7.167617123907723,-2.421726520859375,4.7799999999999996e-05,0.0,139,mp-1214673,Ba2La2TlCu2O9,https://materialsproject.org/materials/mp-1214673,238.14412836068894
-8.61660196388889,-620.3953414,5.456360758427764,-3.1561422271875,12.00179535,0.0,161,mp-1227918,CaEu2B2O7,https://materialsproject.org/materials/mp-1227918,872.1340117859272
-2.7021187525,-10.80847501,6.994381064042942,0.04973958416666635,5e-08,0.0,194,mp-1184511,In,https://materialsproject.org/materials/mp-1184511,109.03596458298395
-7.228592474,-289.14369896,8.047405050764825,-0.1198854295000004,26.10111425,0.0,140,mp-1204028,Sm6Fe13Bi,https://materialsproject.org/materials/mp-1204028,758.1620233681874
-4.256653375625,-68.10645401,4.950748752708313,-1.868080099375,9.4e-06,2.1637000000000004,51,mp-570615,BaThBr6,https://materialsproject.org/materials/mp-570615,569.3875578250106
-6.555667232,-32.77833616,5.987402968229432,0.15980939152399998,5.6024624,0.0,123,mp-1207997,U2I2N,https://materialsproject.org/materials/mp-1207997,206.3049585445149
-10.3489646875,-41.39585875,11.14052005869599,0.00951217249999914,6.65e-06,0.0,194,mp-867351,Tc,https://materialsproject.org/materials/mp-867351,58.42916670410735
-5.957947265,-95.32715624,4.108145768370749,-2.211150160039062,5.000107900000001,0.6625000000000005,129,mp-1105354,Ca2FeCuSO3,https://materialsproject.org/materials/mp-1105354,226.04049576670513
-6.587487397,-197.62462191,5.908726473423847,-2.0055867931086664,3.999999833333333,0.02150000000000052,185,mp-1193141,MnInO3,https://materialsproject.org/materials/mp-1193141,367.1749842284031
-7.259418998333333,-217.78256995,7.614269000574173,-3.2039539145833333,1.0833333333333333e-06,2.8838,185,mp-1213088,ErGaO3,https://materialsproject.org/materials/mp-1213088,372.8952163560206
-5.914543901354167,-567.79621453,2.1543007414686324,-0.5838360836894445,0.00025745,2.273,14,mp-1204011,AgH7CN8O7,https://materialsproject.org/materials/mp-1204011,1082.1561241321444
-4.4641121425,-17.85644857,9.333673781579387,0.01406612749999958,4.945e-05,0.0,194,mp-971769,Tm,https://materialsproject.org/materials/mp-971769,120.21926519445597
-5.0952444963636365,-56.04768946,6.715187969941468,-2.0001534181618186,0.0,0.3190999999999997,107,mp-1218398,SrBi3Cl3O4,https://materialsproject.org/materials/mp-1218398,218.82344331512732
-7.790962202083333,-186.98309285,5.240629419300294,-2.7521219303125,0.39463045,0.0,5,mp-1223070,LaNb2CuBrO7,https://materialsproject.org/materials/mp-1223070,367.6600439904251
-6.357129616666668,-38.1427777,6.324083577080437,-2.8698551037500013,0.0,2.2017,166,mp-754960,SmIO,https://materialsproject.org/materials/mp-754960,154.00685307871944
-4.7091121000000005,-23.5455605,2.929271592682458,-1.2855687527500002,0.5006556,0.0,123,mp-1211271,La2I2O,https://materialsproject.org/materials/mp-1211271,310.43321342012086
-4.249854037142858,-118.99591304,3.4834918180705805,-0.741410059107143,2.00386145,0.2247,14,mp-1193215,LiIO5,https://materialsproject.org/materials/mp-1193215,407.7446291137911