energy_per_atom,energy,density,formation_energy_per_atom,total_magnetization,band_gap,sgr,mp_id,formula,URL,cell_volume
-3.0954761910000004,-30.95476191,0.2289753235544844,0.5319198153625002,4.516385400000001,0.0,65,mp-1207281,Na(SmS2)3,https://materialsproject.org/materials/mp-1207281,4833.195334323871
-6.747977435,-323.90291688,3.5890127589522285,-0.7863483175000011,1.1025e-05,1.7793,14,mp-630303,RhC2IO2,https://materialsproject.org/materials/mp-630303,1057.9670521614978
-8.057524893,-161.15049786,4.990557066628882,-3.5729199052500014,0.0,1.9585000000000004,47,mp-1218479,Sr4ZrTi3O12,https://materialsproject.org/materials/mp-1218479,258.6351233687027
-6.298004795,-25.19201918,9.106193015057393,-0.6640228217968742,1.6100000000000002e-05,0.0,187,mp-567736,TaPbSe2,https://materialsproject.org/materials/mp-567736,99.57696171502904
-4.4382889938888885,-159.77840378,6.3893451022355325,0.07453646338666667,0.0,0.07249999999999979,52,mp-1245961,Cd3(GaN2)2,https://materialsproject.org/materials/mp-1245961,553.7836905537823
-5.4813656861764715,-186.36643333,7.623063176150429,-1.9869980787500003,0.0001806,0.0,49,mp-684884,Ba4TlBiPb2O9,https://materialsproject.org/materials/mp-684884,662.6706129054672
-5.645993866666667,-16.9379816,1.4056680239693309,-1.3415531823958335,4.429999999999999e-05,0.4462999999999999,42,mp-1080280,CeSe2,https://materialsproject.org/materials/mp-1080280,352.0748888688086
-4.856986595,-19.42794638,4.773051764666743,-0.8637649000000005,0.70608865,0.0,164,mp-1065933,YI,https://materialsproject.org/materials/mp-1065933,150.16030802251888
-5.546347654324324,-205.21486321,6.246792357255321,-1.8430226690202696,0.861409,0.0,47,mvc-12772,Sr6YTl3(Cu2O7)3,https://materialsproject.org/materials/mvc-12772,517.0355052945146
-6.060364209042553,-569.67423565,1.8807239468247487,-1.0701604304861696,1.5e-07,3.5553,15,mp-707323,LaH16C2N11O17,https://materialsproject.org/materials/mp-707323,1068.5471249357342
-6.0185744925,-24.07429797,8.139755796599893,-0.6219959176302083,2e-07,0.0,187,mp-1208590,TaInSe2,https://materialsproject.org/materials/mp-1208590,92.55352795122515
-6.2900757725,-50.32060618,11.804180751593274,-0.9568507008333338,0.00266985,0.0,194,mp-510441,YInPt2,https://materialsproject.org/materials/mp-510441,167.09005448424938
-2.591928547,-25.91928547,0.3421649086722315,0.04702717952801727,4.0003712,0.0,65,mp-1207131,Rb(YbS2)3,https://materialsproject.org/materials/mp-1207131,3867.7629335188276
-7.44604505,-59.568360399999996,6.192765514597197,-1.0143787028566669,3.4e-06,0.0,194,mp-1029374,BaTiN2,https://materialsproject.org/materials/mp-1029374,114.33961466242407
-9.020100706000001,-90.20100706,4.7167071025854925,-3.6113492905833326,0.22709545,0.0,194,mvc-13995,YTiO3,https://materialsproject.org/materials/mvc-13995,130.09904380901963
-3.6597116980952378,-153.70789132,1.874673238039363,-0.5398864133333328,0.0002355,0.9754,43,mp-649878,Sn(S4I)4,https://materialsproject.org/materials/mp-649878,2018.4475963829905
-6.461449285,-25.84579714,4.564921257527238,0.0059348650000004,0.00191855,0.0,194,mp-1187717,Y,https://materialsproject.org/materials/mp-1187717,129.36182376942398
-6.421716483181817,-423.83328789,2.432978196818894,-0.9122417868248492,1.035e-05,1.7757,14,mp-850513,H12PtC6(N3O4)2,https://materialsproject.org/materials/mp-850513,670.6083604317648
-4.588565066,-45.88565066,0.2717451483113725,0.2805271192999996,14.6472112,0.07140000000000057,65,mp-1213541,Na(MoO2)3,https://materialsproject.org/materials/mp-1213541,2485.849443862981
-7.2055016602564095,-562.0291295,4.893376690533146,-2.1555392274748706,14.0007005,0.3571999999999997,2,mp-766233,BaMn4O8,https://materialsproject.org/materials/mp-766233,987.6430893032705
-3.1959266947727274,-140.62077457,2.8280745616499527,-1.2756426586654548,5e-08,1.4191,14,mp-542662,Ga2Te2Cl7,https://materialsproject.org/materials/mp-542662,1509.7518835612666
-6.771453288095237,-568.8020762,3.989099175535541,-2.845769654632789,0.0,5.3763000000000005,62,mp-698163,BaPHO4,https://materialsproject.org/materials/mp-698163,1165.4186743462528
-5.686469085,-34.11881451,2.1172586005652168,-1.123527510833334,0.00096875,0.0,166,mp-550206,CoO2,https://materialsproject.org/materials/mp-550206,142.63361843685536
-3.1771654789999997,-63.54330958,5.151221565666017,-1.1910162702413791,0.80110795,0.0,62,mp-1213177,CsTmI3,https://materialsproject.org/materials/mp-1213177,880.106598649352
-6.08158965375,-48.65271723,6.059586894523577,-2.3241878697916665,0.0,1.4085,194,mp-9631,AlAgO2,https://materialsproject.org/materials/mp-9631,91.44468655532995
-6.0338825275,-48.27106022,3.96598829866974,-1.4958048865312508,1.17e-05,0.8210000000000006,194,mp-7938,KNbS2,https://materialsproject.org/materials/mp-7938,164.24117708423339
-7.99176400857143,-111.88469612,4.862618808101524,-3.472142251309524,0.0,2.2644999999999995,129,mp-6521,LiLaTiO4,https://materialsproject.org/materials/mp-6521,176.0118609594446
-7.132689886666667,-42.79613932,3.038927460615325,-1.452031139375001,0.66887475,0.0,194,mp-1072712,NbS2,https://materialsproject.org/materials/mp-1072712,171.6164950100357
-8.093911444285714,-56.65738011,4.978320383466852,-2.5981484970714286,5.3e-06,0.0,164,mp-1220976,NaNb2O4,https://materialsproject.org/materials/mp-1220976,90.99359420315686
-3.7422305625,-14.96892225,4.6101844671238865,-0.04835838929687508,8.759999999999999e-05,0.0,12,mp-1063764,BiSe,https://materialsproject.org/materials/mp-1063764,207.42609273138535
-8.504741632678572,-476.26553143,6.5928007758663085,-0.2305291047699985,3.096812475,0.0,60,mp-1245689,Mn7SnN6,https://materialsproject.org/materials/mp-1245689,591.7133158728544
-6.65961454875,-53.27691639,12.0323693434074,-1.0120046999999994,1.185e-05,0.0,194,mp-1078547,YSnPt2,https://materialsproject.org/materials/mp-1078547,164.99550372435644
-6.0205448960000005,-90.30817344,7.570725948320549,-2.167080406,0.00024870000000000003,0.0,139,mp-1208746,Sr2TbCu2(BiO4)2,https://materialsproject.org/materials/mp-1208746,220.91898461272478
-4.767927012159091,-419.57757707,3.3311845477983555,-0.20428341037818207,0.0,0.4112,14,mp-570909,CuTe4H12C4N,https://materialsproject.org/materials/mp-570909,1292.2490798239558
-7.891569266666667,-23.6747078,2.7309303365578597,-1.2620815360416675,0.00041960000000000006,1.8095,187,mp-1023937,WS2,https://materialsproject.org/materials/mp-1023937,150.777872374364
-6.630735156666668,-39.78441094,1.9031521767990012,-1.2947210193750014,0.001436,0.0,2,mp-849060,VS2,https://materialsproject.org/materials/mp-849060,200.80445533551327
-2.008721320833333,-24.10465585,4.924117053055459,-0.17635850383333346,4e-07,0.0,69,mp-31470,Na4TlAu,https://materialsproject.org/materials/mp-31470,332.71295340358364
-6.687833363125,-107.00533381,12.084724690300222,-0.951750933125,2.5e-08,0.0,194,mp-570184,ThPd3,https://materialsproject.org/materials/mp-570184,303.01127241766557
-5.9223379375925935,-319.80624863,5.394049418978253,-1.6085155039351862,15.9892674,0.0,2,mp-1220223,Ni8B3SbO15,https://materialsproject.org/materials/mp-1220223,531.7931914452971
-3.0467155891666664,-36.56058707,4.199996091416093,0.0009487941666671179,0.845652375,0.0,12,mp-1039304,CeMg2,https://materialsproject.org/materials/mp-1039304,298.4639833389719
-6.61607131,-19.84821393,2.480943144642906,-0.6689573490624999,0.00048180000000000006,1.4317,187,mp-1023934,MoSe2,https://materialsproject.org/materials/mp-1023934,169.91297910419257
-7.074710996666667,-42.44826598,4.787233201806648,-1.140137473463542,7.18e-05,1.3297999999999996,156,mp-1221485,Mo2SeS3,https://materialsproject.org/materials/mp-1221485,127.31277563758339
-7.2935299613043485,-335.50237822,2.4211730309520805,-0.7813831616052174,0.00311275,2.7151,14,mp-1204008,Mn2Hg(CO)10,https://materialsproject.org/materials/mp-1204008,810.0699092113773
-6.021663737999999,-90.32495607,7.630412757968488,-2.1696673006666667,0.0003346,0.0,139,mp-1208859,Sr2DyCu2(BiO4)2,https://materialsproject.org/materials/mp-1208859,219.96882585554764
-6.71569393875,-107.45110302,4.072958840500965,-2.0408068092187515,4.0,0.0,63,mvc-8358,MgMo2O5,https://materialsproject.org/materials/mvc-8358,241.50588955364302
-5.2880182645,-211.52073058,2.4866790530316623,-1.4648772910392864,6.99999975,0.0018000000000000238,2,mp-1200129,K3Te(PO7)2,https://materialsproject.org/materials/mp-1200129,708.9540723300356
-7.832016902142858,-109.64823663,5.064197589409757,-0.2599970687500002,7.00015865,0.0,194,mp-1104806,Gd(AlC)3,https://materialsproject.org/materials/mp-1104806,179.83665106161803
-6.055211679861111,-871.9504819,2.8051075924260496,-1.8974971816131945,0.0,1.9235,2,mp-1194921,K5V9H20PtO37,https://materialsproject.org/materials/mp-1194921,1729.9555568115265
-3.7063356671739127,-170.49144069,3.199015180333843,-1.3595924361465217,0.0001508,1.4598,1,mp-1220960,NaAl6Sb7(TeCl3)8,https://materialsproject.org/materials/mp-1220960,1509.9315217319577
-4.467092353333333,-26.80255412,3.8410322588547166,-0.8210141810416663,0.0,1.4994999999999998,186,mp-9984,SnS2,https://materialsproject.org/materials/mp-9984,158.08925185342153
-4.06955900875,-32.55647207,5.448847185960452,-2.175122386011666,1.05e-06,1.6826,194,mp-752927,LiAgF2,https://materialsproject.org/materials/mp-752927,93.13542131534884
-7.205016685,-86.46020022,10.190846046947833,-0.27509386416666715,5.0726477,0.0,65,mp-1095452,U3Fe2Ge7,https://materialsproject.org/materials/mp-1095452,217.40936712622687
-3.442736281,-137.70945124,4.831028161508495,-0.5953788809019998,0.0,3.0705,14,mp-30937,HgClO3,https://materialsproject.org/materials/mp-30937,781.0536155867425
-3.527555875384615,-91.71645276,3.2371404984356515,-1.8286114828384608,3.5e-07,2.9048000000000003,14,mp-27218,Ge(BrF5)2,https://materialsproject.org/materials/mp-27218,433.38550255789767
-6.630937628333334,-39.78562577,1.9552489784523948,-1.2949234910416685,0.6108776,0.0,12,mp-1178763,VS2,https://materialsproject.org/materials/mp-1178763,195.45410354092382
-7.521829883333332,-45.13097929999999,4.185906514692661,-1.4788269074600002,0.00026869999999999997,2.8944,164,mp-1172825,ZrBrN,https://materialsproject.org/materials/mp-1172825,146.88497983871466
-7.235746764999999,-43.41448059,4.3062550463841465,-1.3053533877083332,0.0006752,1.3377,194,mp-1018809,MoS2,https://materialsproject.org/materials/mp-1018809,123.44948511862417
-4.30386728875,-34.43093831,4.5908983919817885,-0.6676877695312511,0.000124,0.0,6,mp-1219601,SbPb3S4,https://materialsproject.org/materials/mp-1219601,315.26705983575624
-7.196019113484849,-474.93726149,2.6397828063215902,-2.5511084894696983,2.00000015,0.0,14,mp-867974,Ca2Al2Si6SnO22,https://materialsproject.org/materials/mp-867974,972.9154900734857
-6.575175280666668,-197.25525842,1.7926936667724778,-0.3444409295096667,2.00001805,1.3707,18,mp-1193461,CdC4S2(NO)4,https://materialsproject.org/materials/mp-1193461,638.4084243844811
-3.2865024440625,-105.16807821,3.629372486273032,-0.4392218347708337,0.0,0.5947,64,mp-583615,K3In2As3,https://materialsproject.org/materials/mp-583615,1046.2668490937713
-5.644765635,-22.57906254,6.2192083650394885,-0.6837665526302077,7e-07,0.0,187,mp-20279,NbInSe2,https://materialsproject.org/materials/mp-20279,97.62766128880774
-3.1788788789999995,-31.78878879,0.4401178001084469,0.17808841895,5.379364900000001,0.0,65,mp-1212766,KTl3O6,https://materialsproject.org/materials/mp-1212766,2823.0836595634833
-4.3979898775,-17.59195951,1.9655456166418188,-0.81504464453125,0.00080845,1.7239,5,mp-561320,PbS,https://materialsproject.org/materials/mp-561320,404.27336821051404
-9.346100187000001,-93.46100187,5.154716387978007,-0.6108420690416679,0.18557089999999998,0.0,166,mp-1217169,Ti4CrC5,https://materialsproject.org/materials/mp-1217169,97.77508328150803
-7.1156400825,-28.46256033,9.67178781924605,0.05359015250000088,5.5706279,0.0,187,mp-1226422,Co3Rh,https://materialsproject.org/materials/mp-1226422,48.02227075378755
-6.09889075875,-48.79112607,6.120414427224038,-1.4089149925316662,3.99999955,0.0,194,mp-997162,MnAgO2,https://materialsproject.org/materials/mp-997162,105.70571200949678
-5.08821427875,-81.41142846,3.2910324142182312,-1.846068711195,4.0,0.8504,163,mp-28220,HfFeCl6,https://materialsproject.org/materials/mp-28220,451.13439554223373
-6.490361873333334,-38.94217124,1.8981008453658763,-0.9685148960416672,1.47e-05,0.0,12,mp-28910,CrS2,https://materialsproject.org/materials/mp-28910,203.18406483378794
-1.692054335,-6.76821734,8.027626016255496,-0.03026582291666635,0.0,0.0,187,mp-1215497,Zn3Ag,https://materialsproject.org/materials/mp-1215497,62.90302393934247
-6.16528352375,-98.64453638,7.391530865160358,-1.9671035125000005,6.1503804,0.08960000000000079,123,mp-20041,Sr2EuCu3(PbO4)2,https://materialsproject.org/materials/mp-20041,238.186824133906
-5.725252423139534,-492.37170839,2.1037541139757563,-1.246446330484418,0.0001299,3.4458,9,mp-1199123,PrH16N7O19,https://materialsproject.org/materials/mp-1199123,882.5726071577544
-5.062603124444443,-182.25371248,2.6729674354348534,-1.3160037012918249,6.0000005,0.0,173,mp-1210401,Na2TePH3O11,https://materialsproject.org/materials/mp-1210401,476.5743237566847
-7.23461572,-43.40769432,4.502638950295632,-1.3042223427083333,0.0,1.2294,194,mp-2815,MoS2,https://materialsproject.org/materials/mp-2815,118.06520001580319
-5.228424783125,-167.30959306,2.9477682556304945,-2.2331092342976793,0.0,4.1406,15,mp-973330,SbPH4(O2F3)2,https://materialsproject.org/materials/mp-973330,377.1472352883138
-6.151733844444443,-221.4624184,3.706856811255538,-1.0540465677644433,6.0000942,1.995,173,mp-1179066,TeMo3(NO6)2,https://materialsproject.org/materials/mp-1179066,569.2963423539745
-3.5217230956666667,-105.65169287,3.4686959524852887,-0.3560472818566675,3.99999995,0.0,194,mp-1192886,NiNF3,https://materialsproject.org/materials/mp-1192886,372.52753399971016
-6.993018875,-41.95811325,5.231176339029761,-0.4706881474999989,0.000168,0.0,123,mp-1018799,MgSc3Ru2,https://materialsproject.org/materials/mp-1018799,114.69196694839232
-6.507279525,-104.1164724,7.4558583790567425,-2.0720509331250003,6.9917583,0.0,123,mp-22543,Sr2GdCu3(PbO4)2,https://materialsproject.org/materials/mp-22543,237.30907719435135
-5.310686376428571,-74.34960927,8.766846689069077,-0.749897857857143,7.375e-05,0.0,63,mp-1104486,Tm3Ge4,https://materialsproject.org/materials/mp-1104486,302.05884124857937
-8.620377474222222,-387.91698634,5.084412835805315,-3.2313508372777773,0.0031982,0.0,38,mp-1218643,Sr3Nd2Nb10O30,https://materialsproject.org/materials/mp-1218643,640.2516675265585
-6.499001865833333,-77.98802239,2.704146419109556,-0.0785074264044437,0.0,2.9704,15,mp-568422,NaAg(CN)2,https://materialsproject.org/materials/mp-568422,224.61844623277292
-5.757595255,-103.63671459,5.146137720319147,-2.4791608648611105,1.0,0.0,63,mp-1214010,Ca3TlO5,https://materialsproject.org/materials/mp-1214010,261.1192617871114
-5.746533229534884,-494.20185774,2.0723405369579395,-1.2409680258332558,1.0,0.1862999999999999,9,mp-1204992,CeH16N7O19,https://materialsproject.org/materials/mp-1204992,894.682407964707
-5.842671873,-58.42671873,6.438644513409715,-2.1503173609166675,1.575e-05,1.3419999999999996,194,mp-8098,InGaO3,https://materialsproject.org/materials/mp-8098,119.94463093160564
-7.94110286625,-63.52882293,6.9626431631405765,-0.11112668743999964,8.5e-07,0.0,63,mp-1245595,CrNiN2,https://materialsproject.org/materials/mp-1245595,66.15923723637357
-8.273400359285715,-115.82760503,4.611768943209984,-3.7244398078571432,1.45e-06,3.1328,63,mp-756468,CaY2O4,https://materialsproject.org/materials/mp-756468,202.9958015218279
-2.4563715409999998,-24.56371541,0.16826907790026316,0.1233121884437498,2.9478343999999996,0.06840000000000003,65,mp-1213171,K3YbSe6,https://materialsproject.org/materials/mp-1213171,7540.35992558863
-8.135062664375,-260.32200526,3.591965174865672,-3.537311092760417,0.00092525,3.1781,2,mp-1227799,Ca2ZrTi(SiO5)2,https://materialsproject.org/materials/mp-1227799,402.57552024374434
-6.686837504,-200.60512512,8.302609768262988,-2.0414123392500003,0.0034488,0.0,15,mp-1193907,SrIrO3,https://materialsproject.org/materials/mp-1193907,393.40628800871593
-7.179049086666668,-86.14858904,4.008297684576105,-2.463394878203126,0.0,0.0,12,mp-15670,Y5S7,https://materialsproject.org/materials/mp-15670,277.1437033094511
-4.57009532,-73.12152512,3.693888463553463,-0.900449832546875,0.0,1.0028,70,mp-15220,K2VCuSe4,https://materialsproject.org/materials/mp-15220,457.20065950152764
-7.0966818016666675,-42.58009081,3.681924010309243,-1.4160230543750008,0.00526365,0.0,194,mp-774873,NbS2,https://materialsproject.org/materials/mp-774873,141.64607360724625
-6.847893972916666,-164.34945535,4.809225907018417,-1.2713445822916671,2.2e-06,0.0,15,mp-675367,Nb3IrS8,https://materialsproject.org/materials/mp-675367,502.35499172323625
-4.1848723660000005,-41.84872366,0.37704528965698536,-0.12308508679999974,5.4566124,0.0,65,mp-1207051,KSm3O6,https://materialsproject.org/materials/mp-1207051,2581.5624815146257
-5.285196742333333,-158.55590227,5.418045356333353,-1.5919172667833332,0.61579195,0.0,164,mp-676664,KBa2DyBi2O9,https://materialsproject.org/materials/mp-676664,636.3861149532012
-7.047137685,-56.37710148,5.387555708470993,-2.643627432291667,0.0,2.1186,194,mp-11022,ScAgO2,https://materialsproject.org/materials/mp-11022,113.93131782560643
-5.17951190125,-41.43609521,6.9294202904253215,-1.6014687497916666,0.0,0.5834000000000001,194,mp-11020,GaAgO2,https://materialsproject.org/materials/mp-11020,100.45064747320676
-3.832829936875,-61.32527899,4.8338892609022865,0.04975073062500002,6.5e-07,0.0,60,mp-628781,GeTe,https://materialsproject.org/materials/mp-628781,550.2920227138756
-5.72355637744186,-492.22584846,2.0581943176998583,-1.2451825146123263,0.0,3.4739,9,mp-1199121,NdH16N7O19,https://materialsproject.org/materials/mp-1199121,907.4893336474843
-6.652723702777778,-239.49805330000004,5.169635022531082,-1.8481210872685192,33.0389471,0.0,12,mp-1226643,Co11B4SbO20,https://materialsproject.org/materials/mp-1226643,364.0136534648614
-4.676571245,-46.76571245,0.3698369724957426,0.2494780527499998,14.5430685,0.05079999999999973,65,mp-1212055,Li(MoO2)3,https://materialsproject.org/materials/mp-1212055,1754.470120956783
-4.4416693796153845,-115.48340387,2.7453958617435057,-1.4540645925099474,0.00027185,1.0271,2,mp-1193618,Rb4Sn(SO)4,https://materialsproject.org/materials/mp-1193618,789.7326060208308
-3.967597213,-198.37986065,2.5724734876519726,-0.4414850160555994,18.0000002,0.9853,15,mp-1211112,Mo6H2N2Cl14O,https://materialsproject.org/materials/mp-1211112,1443.358223272862
-3.1879785866666666,-19.12787152,2.8424120785220865,0.03737276999999987,0.00482735,0.0,194,mp-1094406,YMg2,https://materialsproject.org/materials/mp-1094406,160.67370334460082
-3.410853745625,-54.57365993,3.967406611192483,-0.2739025686249996,1e-07,0.8439999999999999,59,mp-17112,K3Ge4Au,https://materialsproject.org/materials/mp-17112,506.29025957224906
-6.498834295714286,-90.98368014,5.13464407696392,-0.2776635851785717,9.640000000000001e-05,0.0,194,mp-972049,Tb(AlC)3,https://materialsproject.org/materials/mp-972049,178.45293446257617
-3.4708607575,-69.41721515,4.335395197477145,-0.5059224513229168,7.15e-06,0.0,12,mp-1237970,MgInSe3,https://materialsproject.org/materials/mp-1237970,576.065278681355
-3.807305672142857,-53.30227941,5.862689071515732,0.3200405478571428,1.4285714285714286e-06,0.0,2,mp-1179613,Sb,https://materialsproject.org/materials/mp-1179613,482.8196130847811
-6.059170295,-169.65676826,4.765891787554453,-0.8880312818452387,8.58628375,0.0,31,mp-1247008,NbCr3(AgS4)2,https://materialsproject.org/materials/mp-1247008,502.5290440732572
-7.050580315,-42.30348189,5.740175335500853,-1.789189167500001,5e-08,0.6634000000000002,194,mp-1094123,MoO2,https://materialsproject.org/materials/mp-1094123,74.02121353919063
-7.120412017604168,-683.55955369,3.808896051250533,-2.1654067717881937,9.000000125,1.5958000000000006,29,mp-1182660,Co3B7IO13,https://materialsproject.org/materials/mp-1182660,1024.2928217052781