energy_per_atom,energy,density,formation_energy_per_atom,total_magnetization,band_gap,sgr,mp_id,formula,URL,cell_volume
-6.56104241125,-52.48833929,4.105059405933166,-1.8080967540625004,7.315e-05,0.0,194,mp-1186987,ScO3,https://materialsproject.org/materials/mp-1186987,75.20180179679743
-6.455047806666666,-19.36514342,4.964462279501256,-0.4681715833333335,1e-07,0.0,225,mp-2379,CoSi2,https://materialsproject.org/materials/mp-2379,38.50064693904266
-8.109240405,-48.65544243,3.5224599142601347,-2.3525238467455565,0.0,1.5999000000000003,109,mp-1216730,TiNF,https://materialsproject.org/materials/mp-1216730,76.24858075281503
-2.89437389,-8.68312167,1.6002932784879642,-0.6920424821733334,0.0744937,0.0,139,mp-1147756,CuCl2,https://materialsproject.org/materials/mp-1147756,139.51367415417107
-7.070292071428571,-49.4920445,3.743681432569751,-3.30806814,0.0,4.3706,139,mp-8682,Ca2SiO4,https://materialsproject.org/materials/mp-8682,76.39799350345368
-4.7036908225,-18.81476329,4.666416454950176,-1.2310597779999997,1.9999939999999998,0.0,166,mp-578606,NaCuO2,https://materialsproject.org/materials/mp-578606,42.18039298019024
-6.6094055775,-26.43762231,4.115914897753801,-2.2556716355,2.9999997000000005,2.8168,166,mp-578604,NaCrO2,https://materialsproject.org/materials/mp-578604,43.162267547825074
-0.375523155,-1.50209262,0.26563888653387274,1.1725145375,1e-06,0.3138000000000001,71,mp-1095974,Ca2ZnCd,https://materialsproject.org/materials/mp-1095974,1612.6374604736777
-3.8815634925,-15.52625397,2.953575036626779,-1.4300637782812502,0.0,2.5489999999999995,115,mp-1221929,MgZnS2,https://materialsproject.org/materials/mp-1221929,86.49313625074528
-5.318043065,-31.90825839,3.2935358688052307,-0.19933360722222265,1.1493601999999998,0.0,227,mp-2749,TiBe2,https://materialsproject.org/materials/mp-2749,66.44238088139736
-7.163879224285713,-50.14715457,2.833219471056309,-2.635046814014694,5.0,3.6029,82,mp-753011,LiMnPO4,https://materialsproject.org/materials/mp-753011,91.92942054936653
-5.159964385,-20.63985754,3.403083485975233,-0.37460516166666746,2.27e-05,0.0,221,mp-998981,TiAl3,https://materialsproject.org/materials/mp-998981,62.85379648277529
-6.04754021,-48.38032168,4.259626263936761,-2.080906724375001,0.9999998999999999,1.7109,10,mp-754183,Li2VNiO4,https://materialsproject.org/materials/mp-754183,73.09917080103311
-5.762853258,-57.62853258,3.1757438345796087,-3.033248825906,4.99999995,3.1387,167,mp-752938,LiMnF3,https://materialsproject.org/materials/mp-752938,124.3143974427836
-5.935416316,-29.67708158,4.579540006807782,-1.9519093742500004,3.0219089,0.0,221,mp-1099934,CaCoO3,https://materialsproject.org/materials/mp-1099934,53.30553708044658
-4.845192652857143,-101.74904571,1.9052142456586327,-1.5867599672600003,0.0,5.0474999999999985,150,mp-23885,SrH12(ClO3)2,https://materialsproject.org/materials/mp-23885,232.37757506960875
-5.1810090275,-20.72403611,3.360857571288742,-0.3956498041666672,1.8000000000000001e-06,0.0,139,mp-542915,TiAl3,https://materialsproject.org/materials/mp-542915,63.64349345496387
-6.6215869375,-52.97269549999999,4.179509476265418,-2.1825492693749995,2.0,0.6767000000000003,12,mp-774467,LiVO2,https://materialsproject.org/materials/mp-774467,71.42053796672566
-5.0683820725,-20.27352829,0.5118326911153396,2.64307169,6.0804157,0.0,71,mp-1093862,CrSi2Tc,https://materialsproject.org/materials/mp-1093862,668.8680192888207
-7.24673010625,-57.97384085,3.9578027927490185,-2.7447377614583344,2.6951121,0.0,119,mp-755702,Li2TiVO4,https://materialsproject.org/materials/mp-755702,74.13140657006696
-4.885665014666667,-73.28497522,2.6133768469858487,-2.2025625764920007,3.0000002,2.4757,2,mp-759827,Li8Co(O2F)2,https://materialsproject.org/materials/mp-759827,137.5358387237311
-4.76334343,-33.34340401,1.9943375182856995,-0.1923911663942854,3.5636763999999994,0.0,71,mp-28637,Li4FeN2,https://materialsproject.org/materials/mp-28637,92.9398114607114
-2.31391698,-9.25566792,0.4403369177354238,2.111094733333333,2.077602,0.0,71,mp-1097145,MgTiCu2,https://materialsproject.org/materials/mp-1097145,751.4374515047416
-5.5289882273333335,-82.93482341,2.1405035514610846,-0.7121041104160004,0.9590110999999999,0.1726000000000001,2,mp-643052,CuH6(NO)4,https://materialsproject.org/materials/mp-643052,147.1000400318682
-1.8934375425,-7.57375017,0.3650869299103403,2.300391972083333,5.000000599999999,0.0,71,mp-1095952,ScTiZn2,https://materialsproject.org/materials/mp-1095952,1017.1946319973871
-0.9946366475,-3.97854659,1.4670521439352011,0.15632080024999995,0.0088816,0.0,225,mp-1185029,K3Zn,https://materialsproject.org/materials/mp-1185029,206.800392177237
-2.526172265,-10.10468906,2.5882144664150277,-0.36041068462500014,0.0,0.11930000000000017,225,mp-8860,Na3As,https://materialsproject.org/materials/mp-8860,92.31710627918572
-6.00379569,-30.01897845,3.22220094366397,-2.0252997815,3.9999998999999997,1.4731,12,mp-755566,Li2CrO2,https://materialsproject.org/materials/mp-755566,50.440185576807835
-8.18256640375,-65.46053123,4.744328179452578,-2.8694394693750014,0.0016533000000000001,0.0,65,mp-867744,LiTi3O4,https://materialsproject.org/materials/mp-867744,75.08995329810635
-2.41188477,-19.29507816,1.845539930504724,0.7068740916249996,3.04997245,0.0,194,mp-1186048,Na3Fe,https://materialsproject.org/materials/mp-1186048,224.60530654811265
-4.424765953333334,-13.27429786,1.1345309371334664,0.13817562083333235,1.0,0.9169999999999998,12,mp-1181781,CoO2,https://materialsproject.org/materials/mp-1181781,133.09123862597812
-6.099909466666666,-18.2997284,3.291251968887208,-0.37218567166666605,3.3e-06,0.0,191,mp-2841,ScSi2,https://materialsproject.org/materials/mp-2841,51.02167411005635
-4.252539055,-17.01015622,2.377160709911444,-0.5387330749999997,1.1e-06,0.0,63,mp-1563,CaSi,https://materialsproject.org/materials/mp-1563,95.2297018717397
-8.470188259,-84.70188259,3.701937877661549,-3.0192083549166666,1.00000005,0.0,167,mp-9716,TiBO3,https://materialsproject.org/materials/mp-9716,95.70122492209097
-7.6304347933333325,-45.78260876,3.721442391210688,-2.3470895524999995,0.0,1.0233,12,mp-714944,VO2,https://materialsproject.org/materials/mp-714944,74.01732535996938
-6.22777638375,-49.82221107,4.283404469697697,-2.030113350625,7.000000599999999,0.010699999999999932,10,mp-752940,Li2CrCoO4,https://materialsproject.org/materials/mp-752940,73.19517534819398
-6.495371865,-38.97223119,3.847196553653788,0.06782488222222227,3.435e-05,0.0,227,mp-568384,ScB2,https://materialsproject.org/materials/mp-568384,57.4731342866728
-5.919299159,-59.19299159,3.5772263299083757,-2.628521715418,4.00000005,0.6787,9,mp-759166,LiMnOF2,https://materialsproject.org/materials/mp-759166,107.57797297351493
-6.748644173333332,-40.49186504,4.26532397736281,-2.3735226953,4.00000035,0.0,65,mp-755209,MnOF,https://materialsproject.org/materials/mp-755209,70.02609312878022
-4.031605586,-20.15802793,2.8026956804914533,-1.0627906576250006,8.66e-05,0.0,12,mp-752881,Li2CuS2,https://materialsproject.org/materials/mp-752881,83.8701779363722
-5.7098773275,-45.67901862,3.294198954097308,-2.6478463638550003,4.0000001,2.4278,65,mp-753602,Li3Mn(OF)2,https://materialsproject.org/materials/mp-753602,73.47297882185569
-8.819488881666668,-52.91693329,5.0858143367019,-0.30560613658666586,2.1004842,0.0,58,mp-1080200,CrN2,https://materialsproject.org/materials/mp-1080200,52.246853512563604
-4.686784713333334,-42.18106242,3.1398612411733264,-2.67944282746,4.0003788,0.2947,12,mp-777463,Li2FeF6,https://materialsproject.org/materials/mp-777463,97.1603276314353
-7.3129522675,-29.25180907,3.4100607943750103,0.1253387728725004,0.0,1.0446,166,mp-1245873,GeCN2,https://materialsproject.org/materials/mp-1245873,54.86211177380262
-1.294381,-5.177524,0.2335148531674924,1.1861089212500002,2.0031908,0.0,71,mp-1095800,LiCa2Sn,https://materialsproject.org/materials/mp-1095800,1463.5067258875977
-0.383596395,-1.53438558,0.19094416184840585,1.40029319875,0.10063,0.0,71,mp-1095925,BaCaMg2,https://materialsproject.org/materials/mp-1095925,1965.5313233591448
-3.085985615,-12.34394246,3.7631622978166006,0.04329847624999994,6.6e-06,0.0,221,mp-983585,Al3Zn,https://materialsproject.org/materials/mp-983585,64.58023158397
-2.7611378625,-11.04455145,1.7706652651918249,0.5324755966249999,4.3836571,0.0,139,mp-1186052,Na3Mn,https://materialsproject.org/materials/mp-1186052,116.20095609182498
-7.584163458571429,-53.08914421,3.5787177740482257,-3.4688237859523814,0.0,1.8864,139,mp-1096860,Ca2TiO4,https://materialsproject.org/materials/mp-1096860,89.09830920350389
-6.8520365314285705,-47.96425572,4.01497351767327,-2.0276891552742846,1.0,0.9558,2,mp-1176656,LiMn2O4,https://materialsproject.org/materials/mp-1176656,74.78252357801261
-6.33707156,-50.69657248,4.119478275917158,-2.096217054495,8.9999999,0.21750000000000025,10,mp-754607,Li2MnFeO4,https://materialsproject.org/materials/mp-754607,76.04887474310371
-4.5512325375,-18.20493015,2.94658295423653,-0.5382957777149997,9.02e-05,0.0,225,mp-973053,ScH3,https://materialsproject.org/materials/mp-973053,27.038851222629372
-5.463295788,-54.63295788,3.142514336125502,-2.680818738703,4.0000002,1.2772,8,mp-759014,Li4MnO2F3,https://materialsproject.org/materials/mp-759014,90.72607828697754
-4.008607796666666,-36.07747017,3.043184115711989,2.361673249911112,6.9999994999999995,0.0,225,mp-1079107,Co(N3Cl)2,https://materialsproject.org/materials/mp-1079107,116.7050930028885
-1.22554772,-4.90219088,0.2899991481173652,1.249492935,2.0,0.0021999999999997573,71,mp-1096151,Ca2ZnGe,https://materialsproject.org/materials/mp-1096151,1249.4447779431362
-9.759813555,-39.03925422,5.738314698501487,-1.5394942878566662,3.8799999999999994e-05,0.0,166,mp-1216767,TiVN2,https://materialsproject.org/materials/mp-1216767,36.69940167833083
-7.19183140375,-57.53465123,3.980884052454766,-2.6615267439583343,1.9999997999999999,0.0,10,mp-752969,Li2TiCrO4,https://materialsproject.org/materials/mp-752969,74.14149433541225
-3.54956017,-14.19824068,0.5306786292320625,2.9215071800000003,6.9999997,0.0,71,mp-1093914,MnBe2Ru,https://materialsproject.org/materials/mp-1093914,544.5623649626464
-5.210280967,-52.10280967,3.0107983664221782,-3.047087649114,0.0,0.04530000000000012,225,mp-1111065,Na2ScCuF6,https://materialsproject.org/materials/mp-1111065,148.06970332192734
-3.12089899,-12.48359596,0.4692674578920234,2.6101549166666658,6.1580324,0.0,71,mp-1096293,Ti2GaCu,https://materialsproject.org/materials/mp-1096293,810.3447519785576
-4.80610066125,-38.44880529,2.984810849752444,-2.8242923321425004,4.0000001,0.0,148,mvc-15856,MgFeF6,https://materialsproject.org/materials/mvc-15856,108.00608867737904
-4.357853068,-43.57853068,2.9249488044580634,-2.5804030960640003,4.0000001,0.0,225,mp-1111934,Na3CoF6,https://materialsproject.org/materials/mp-1111934,137.32638326349053
-6.688516455499999,-133.77032911,2.0334674358277645,-1.1179525145625009,0.0,0.8699000000000001,146,mp-1189346,SrB12O7,https://materialsproject.org/materials/mp-1189346,268.9469573017712
-6.75421826125,-54.03374609,4.273259829722176,-2.370327148365,5.000000900000001,0.7773000000000003,58,mp-1002569,MgMnO2,https://materialsproject.org/materials/mp-1002569,86.45457279209646
-5.62079516125,-44.96636129,3.263239314403985,-1.012060788645833,3.9999998999999997,0.0,146,mp-33738,TiNiO6,https://materialsproject.org/materials/mp-33738,103.07349287341657
-2.5959297275,-10.38371891,0.4715086216083277,2.5376378533333326,2.8424685000000003,0.0,71,mp-1093797,TiBe2Pd,https://materialsproject.org/materials/mp-1093797,606.8388441798896
-5.938768156666666,-17.81630447,3.2442966787018372,0.5753511388888887,3.0208744,0.0,216,mp-1008753,Ti2Al,https://materialsproject.org/materials/mp-1008753,62.80989774999998
-5.78318303,-23.13273212,4.331939384701185,-0.21475102264333398,9.55e-06,0.0,194,mp-998969,TiH,https://materialsproject.org/materials/mp-998969,37.46993609110986
-7.56001026625,-60.48008213,4.066722268824142,-2.995527669791666,9.800000000000001e-06,0.0,141,mp-38280,LiTiO2,https://materialsproject.org/materials/mp-38280,70.89054565762149
-4.62167904,-13.86503712,4.316975745025139,0.0315666625400001,7e-07,0.0,123,mp-1147646,LiCuN,https://materialsproject.org/materials/mp-1147646,32.50078197583918
-5.03775502,-15.11326506,2.856686099081408,-0.7670848940799999,1.98e-05,0.0,225,mp-24237,ScH2,https://materialsproject.org/materials/mp-24237,27.303837975002136
-6.857398635,-54.85918908,4.176517000927878,-2.361271911875,2.99999995,1.7747999999999995,141,mp-762454,LiCrO2,https://materialsproject.org/materials/mp-762454,72.31030643667363
-7.591530543333333,-22.77459163,3.6662712917588185,-2.3081853025,1.0,0.0,166,mp-25199,VO2,https://materialsproject.org/materials/mp-25199,37.565579625516726
-3.1220945225,-12.48837809,0.4405480592951891,1.7512517212499996,0.0003967,0.0,71,mp-1097450,MgScNi2,https://materialsproject.org/materials/mp-1097450,703.5232728037147
-7.256688993999998,-36.28344497,3.544703593522662,-2.391793772583333,4.4e-05,0.0,221,mvc-11693,TiAlO3,https://materialsproject.org/materials/mvc-11693,57.548339374478296
-5.472839386153847,-71.14691202,2.60438188770377,-2.4252454642994508,0.0,5.109,216,mp-1103940,Li6PBrO5,https://materialsproject.org/materials/mp-1103940,148.25391189153657
-1.4192066275,-5.67682651,1.6561965869802535,0.17121127649999998,0.0154488,0.0,221,mp-1184834,K3Ga,https://materialsproject.org/materials/mp-1184834,187.50825027060543
-5.02932633875,-40.23461071,2.6770110064164645,-2.9977730302675,4.0001463,0.0,148,mvc-15840,CaFeF6,https://materialsproject.org/materials/mvc-15840,130.20844022157834
-7.089572765,-42.53743659,4.089557095168394,-1.779162934486666,0.0,1.4741,166,mp-25424,MnO2,https://materialsproject.org/materials/mp-25424,70.60032261561294
-7.953917617,-79.53917617,1.9266908040727664,0.3392595585479995,2.99999995,0.26370000000000005,215,mp-1245666,Co(CN)2,https://materialsproject.org/materials/mp-1245666,191.2779025036188
-3.7803337566666655,-11.34100127,4.491100242024377,-0.2395577228733335,2.6e-06,0.0,123,mp-1008881,MgNiH,https://materialsproject.org/materials/mp-1008881,31.060497352567538
-1.25414593,-5.01658372,0.34709139240920195,1.7576330608333333,3.1879647,0.0,71,mp-1093856,MgTiZn2,https://materialsproject.org/materials/mp-1093856,971.1356348826113
-5.073684335,-20.29473734,3.83039045698014,0.30810777500000075,3.36338615,0.0,51,mp-1185893,MgMn,https://materialsproject.org/materials/mp-1185893,68.70640022151612
-6.7555224825,-54.04417986,4.182989895842364,-2.5236815127083334,2.9999999,0.20759999999999976,119,mp-761572,Li2TiCoO4,https://materialsproject.org/materials/mp-761572,73.31311266171261
-5.37595053,-26.87975265,5.39963424024369,-0.6845376425833336,0.00041960000000000006,0.0,221,mp-1184042,CuBO3,https://materialsproject.org/materials/mp-1184042,37.62765722773076
-7.830234502000001,-78.30234502,3.406176705098389,-1.9536108491919992,4.99999975,3.455,9,mp-690525,MnCO3,https://materialsproject.org/materials/mp-690525,112.0751541841804
-3.1480013375,-12.59200535,2.528306322233407,0.32505121749999955,3.0168779,0.0,225,mp-1185800,Mg3V,https://materialsproject.org/materials/mp-1185800,81.34637476446304
-4.14788821,-53.92254673,2.61169123944226,-0.0545161338461541,0.062486599999999996,0.0,139,mp-1104104,Be12Fe,https://materialsproject.org/materials/mp-1104104,104.2672116578288
-6.0527756825,-24.21110273,3.768638584907969,-3.013081243809167,0.0462662,0.0,166,mp-1178963,TiF3,https://materialsproject.org/materials/mp-1178963,46.204428718312606
-5.201780821818182,-57.21958904,2.684500041400041,-2.4029590071481817,4.999999900000001,2.7067,8,mp-755038,Li5FeO3F2,https://materialsproject.org/materials/mp-755038,109.20464552921328
-5.118955081,-51.18955081,3.186073823816242,-2.7396642967140004,4.00000025,2.657,140,mp-1097043,LiFeF3,https://materialsproject.org/materials/mp-1097043,124.8567269925849
-6.32724156,-50.61793248,3.673304571401306,-0.8705978893025001,3.00000025,0.0,74,mp-1086672,MnO3,https://materialsproject.org/materials/mp-1086672,93.06587576989176
-1.778455525,-7.113822099999999,1.5734106462709003,0.8317938014999999,1.8054313000000002,0.0,139,mp-1185067,K3Co,https://materialsproject.org/materials/mp-1185067,185.98681303313418
-0.814179215,-3.25671686,0.2453078078856297,1.35267756625,1.8777142,0.0,71,mp-1095982,Ca2AlCd,https://materialsproject.org/materials/mp-1095982,1486.1692445200133
-0.4883444725,-1.95337789,0.18238557931449906,1.23175911,0.0009042999999999999,0.0,71,mp-1097272,Sr2LiMg,https://materialsproject.org/materials/mp-1097272,1879.9625798385823
-7.271157855,-58.16926284,3.419540588164529,-0.5281162836900002,0.5580616,0.0,122,mp-1246000,LiMnN2,https://materialsproject.org/materials/mp-1246000,87.30407519664787
-6.00789524,-48.06316192,3.6234254119780154,-3.0365566746424992,3.0000001,2.8431,167,mp-560338,CrF3,https://materialsproject.org/materials/mp-560338,99.8968125648421
-6.6176202,-52.9409616,4.0205857426555935,-2.1578196646150003,3.99999945,1.0628000000000002,59,mp-18767,LiMnO2,https://materialsproject.org/materials/mp-18767,77.54483380852116
-0.3478432675,-1.39137307,0.2725580061318259,1.21015718375,2.2e-06,0.4472999999999998,71,mp-1097624,SrCaZn2,https://materialsproject.org/materials/mp-1097624,1574.9891795767523
-5.57259648125,-44.58077185,3.4876452742630963,-3.0076314279758334,1.0000001,0.10159999999999993,2,mp-1025502,TiCuF6,https://materialsproject.org/materials/mp-1025502,107.3191646218004
-6.17867125,-49.42937,4.167096823192547,-2.291940293833333,2.0000003,1.6995999999999998,10,mp-1221264,Na2TiNiO4,https://materialsproject.org/materials/mp-1221264,86.28766060897715
-4.3751198875,-17.50047955,5.488267739966218,0.16964032603499926,0.0005712000000000001,0.0,221,mp-1018061,FeH3,https://materialsproject.org/materials/mp-1018061,17.811444062190468
-3.41329551,-10.23988653,3.595313284521941,-0.5497642357142851,0.0,1.3611999999999995,216,mp-10182,LiZnP,https://materialsproject.org/materials/mp-10182,47.721332463377266
-6.475777496666668,-58.28199747,3.409386124085514,-2.7376353516466656,1.9999997999999999,0.9507,1,mp-754467,LiV2(OF)3,https://materialsproject.org/materials/mp-754467,104.13961433239099
-7.403584266666668,-22.2107528,3.660545165709788,-0.8403875194444446,4e-07,0.0,191,mp-2252,ScB2,https://materialsproject.org/materials/mp-2252,30.201846193105926
-6.763036384545455,-74.39340023,3.061763547502128,-2.3759163387121216,4.0000003,0.0,148,mp-1177982,Li2Fe(BO3)2,https://materialsproject.org/materials/mp-1177982,101.6062624817045
-4.35470758,-13.06412274,4.441553501718334,-0.11900972937500025,7.03e-05,0.0,139,mp-1094089,NiS2,https://materialsproject.org/materials/mp-1094089,45.919305181538675
-7.124814781,-71.24814781,3.149959583172788,-1.980390598000001,5.0,2.1145,148,mp-753899,LiFe(CO3)2,https://materialsproject.org/materials/mp-753899,96.36721949765436
-3.902557658928572,-109.27161445,1.0197585587997169,0.5252700840200001,1.9399999999999997e-05,0.6983,12,mp-634464,K3B12H12Br,https://materialsproject.org/materials/mp-634464,552.0583304882416
-0.680202545,-2.72081018,0.30973258643295515,0.8206740750000001,0.000327,0.6681999999999999,71,mp-1096253,Li2ZnCd,https://materialsproject.org/materials/mp-1096253,1027.7531941734696
-1.0538930025,-4.21557201,1.0827031793181559,0.03299085641379307,0.0260879,0.0,139,mp-1185119,K3Rb,https://materialsproject.org/materials/mp-1185119,310.9766237297331
-6.8290069214285705,-47.80304845,3.958465356374864,-2.004659545274285,7.0000008000000005,0.015000000000000124,10,mvc-16811,LiMn2O4,https://materialsproject.org/materials/mvc-16811,75.85006428487843
-3.57288003,-14.29152012,0.4626112577158071,2.66828936,1.1669829,0.0,71,mp-1093958,Al2CoTc,https://materialsproject.org/materials/mp-1093958,757.0103138166679
-5.12444766,-25.6222383,2.4995471839699888,-1.3031689992250002,4.999999400000001,0.5698000000000003,119,mp-753940,KLiMnS2,https://materialsproject.org/materials/mp-753940,109.6867440316904
-5.098280635,-20.39312254,0.5198998223698319,2.4938094775,5.928371599999999,0.0,71,mp-1096361,MnSi2Tc,https://materialsproject.org/materials/mp-1096361,667.8858462709981