energy_per_atom,energy,density,formation_energy_per_atom,total_magnetization,band_gap,sgr,mp_id,formula,URL,cell_volume
-6.92153530631579,-263.01834164,8.919187968952887,-0.06350362236842133,25.2135278,0.0,194,mp-1200096,Sm2Co17,https://materialsproject.org/materials/mp-1200096,485.0199626868257
-7.304341503421052,-277.56497713,8.910374625210476,-0.10564624026315828,29.75399445,0.0,194,mp-1197249,Ho2Fe5Co12,https://materialsproject.org/materials/mp-1197249,490.60584508587897
-6.940065323157895,-263.72248228,9.059164497692887,-0.0913898936842103,25.30538565,0.0,194,mp-1199370,Tb2Co17,https://materialsproject.org/materials/mp-1199370,483.8058310211241
-6.5959773944736835,-250.64714099,9.25218704574008,-0.10295960236842093,19.9543194,0.0,194,mp-1204922,Ho2Co12Ni5,https://materialsproject.org/materials/mp-1204922,477.5930971999777
-8.06219383736842,-306.36336582,8.196903924482745,-0.006889133750001675,79.2109468,0.0,187,mp-1220311,NdEr3Fe34,https://materialsproject.org/materials/mp-1220311,515.5184323778217
-5.855458889210527,-222.50743779,9.320026067603193,-0.20065636500000114,6.92400465,0.0,194,mp-1197654,Dy2Ni17,https://materialsproject.org/materials/mp-1197654,471.35936479211813
-7.660826568157893,-291.11140959,8.51810845201379,0.06942609026315656,38.26386885,0.0,194,mp-1195706,Yb2Fe17,https://materialsproject.org/materials/mp-1195706,505.0738691086384
-5.8523094626315775,-222.38775958,9.402617928017234,-0.2003892663157896,6.8595155,0.0,194,mp-1202187,Ho2Ni17,https://materialsproject.org/materials/mp-1202187,468.9357970073325
-7.539132984473683,-286.48705341,8.56765499857657,-0.06991420078947379,30.01970395,0.0,194,mp-1203778,Tm2Ga2Fe15,https://materialsproject.org/materials/mp-1203778,509.7290377494748
-8.077450034210527,-306.9431013,8.672193801807081,-0.03172043263158068,36.24311535,0.0,194,mp-1195842,Lu2Fe17,https://materialsproject.org/materials/mp-1195842,497.575760745425
-7.071173350526316,-268.70458732,8.292399653880262,-0.004056394210525277,9.3642629,0.0,194,mp-1237201,Dy2Mn12Ga5,https://materialsproject.org/materials/mp-1237201,533.8105542077337
-5.855287463157895,-222.5009236,9.574317838349033,-0.2088612631578952,6.9323025,0.0,194,mp-1202260,Lu2Ni17,https://materialsproject.org/materials/mp-1202260,467.48911029362193
-6.9481119163157885,-264.02825282,9.485568973316118,-0.11013078894736708,25.08769935,0.0,194,mp-1204082,Lu2Co17,https://materialsproject.org/materials/mp-1204082,473.29029657120805
-6.940093696052631,-263.72356045,9.326673479397307,-0.10713262657894744,25.16886275,0.0,194,mp-1196360,Tm2Co17,https://materialsproject.org/materials/mp-1196360,477.0572304365121
-7.301065652631579,-277.4404948,8.518766264658293,-0.11759224894736887,28.57097775,0.0,194,mp-1197720,Tm2Ga3Fe14,https://materialsproject.org/materials/mp-1197720,518.0647434943069
-7.8239821615789475,-297.31132214,8.23449228724563,-0.10269511315789707,29.9090845,0.0,194,mp-1200417,Tm2Fe15Si2,https://materialsproject.org/materials/mp-1200417,496.7664815738375
-8.07459562763158,-306.83463385,8.383286795482107,-0.024493144473684413,38.4125319,0.0,194,mp-1724,Er2Fe17,https://materialsproject.org/materials/mp-1724,508.61622566491616
-5.479717131842105,-208.22925101,9.531385364056213,-0.14876787500000058,8.14933315,0.0,194,mp-1199108,Yb2Ni17,https://materialsproject.org/materials/mp-1199108,468.2519615489026
-5.849729945789473,-222.28973794,9.458454915466172,-0.20832380368421125,7.1052688999999996,0.0,194,mp-11527,Tm2Ni17,https://materialsproject.org/materials/mp-11527,468.97919737444045
-8.323153372272728,-366.21874838,8.10024138838962,-0.28539587577909165,39.4945554,0.0,194,mp-1212403,Ho2Fe17N3,https://materialsproject.org/materials/mp-1212403,541.7073461164758
-8.860738799318181,-389.87250717,8.51584561978218,-0.11367535369318205,3.0222187999999996,0.0,194,mp-1211163,Lu2Mn17C3,https://materialsproject.org/materials/mp-1211163,514.7502525502125
-7.483581243181818,-329.2775747,8.11654372049548,-0.08397832708454639,37.6619653,0.0,194,mp-1208578,Tb2Fe17H3,https://materialsproject.org/materials/mp-1208578,519.7488945410615
-8.84894755318182,-389.35369234,8.417210299626731,-0.0981075280113634,2.15065985,0.0,194,mp-1213058,Er2Mn17C3,https://materialsproject.org/materials/mp-1213058,514.6997389351601
-8.848906898863635,-389.35190355,8.323561510838905,-0.0970986382386343,3.1946934,0.0,194,mp-1212558,Ho2Mn17C3,https://materialsproject.org/materials/mp-1212558,518.6323765316256
-7.647286578684211,-290.59688999,7.9117811724327325,-0.08915198868421133,29.22091385,0.0,194,mp-1196052,Dy2Al2Fe15,https://materialsproject.org/materials/mp-1196052,510.70043033557124
-6.608511862045455,-290.77452193,8.638771113640287,-0.13315912458454512,21.69686185,0.0,194,mp-1213920,Ce2Co17H3,https://materialsproject.org/materials/mp-1213920,494.04993538677695
-7.485153589318182,-329.34675793,8.294436793984254,-0.09101008185727334,37.598777,0.0,194,mp-1213007,Er2Fe17H3,https://materialsproject.org/materials/mp-1213007,515.2752546145471
-7.479169680681817,-329.08346595,8.320749675606027,-0.09313825731181877,37.772110999999995,0.0,194,mp-1208090,Tm2Fe17H3,https://materialsproject.org/materials/mp-1208090,514.9830489298074
-8.294207843863637,-364.94514513,8.240252440745419,-0.09193956778409272,35.03923425,0.0,194,mp-1208084,Tm2Fe17C3,https://materialsproject.org/materials/mp-1208084,533.317170085903
-7.484294145454545,-329.3089424,8.12400897770976,-0.08669311935727303,37.7523807,0.0,194,mp-1213248,Dy2Fe17H3,https://materialsproject.org/materials/mp-1213248,522.1939096053306
-7.6480275944736835,-290.62504859,8.131416384010919,-0.10328938657894887,28.69953925,0.0,194,mp-1198100,Tm2Al2Fe15,https://materialsproject.org/materials/mp-1198100,502.1618478544042
-8.070680807105262,-306.68587067,8.408165603706896,-0.019457209210526717,37.89320135,0.0,194,mp-1196975,Ho2Fe17,https://materialsproject.org/materials/mp-1196975,505.27171235839853
-8.067493687105264,-306.56476011,8.190818260171993,-0.011069783421054294,39.1265558,0.0,194,mp-1194635,Tb2Fe17,https://materialsproject.org/materials/mp-1194635,513.8097501645071
-8.069882908684214,-306.65555053,8.196244448242732,-0.01577698289473891,39.3576609,0.0,194,mp-1196404,Dy2Fe17,https://materialsproject.org/materials/mp-1196404,516.366452238573
-8.15709516725,-326.28380669,8.248166996380299,-0.04715907018750158,37.5950375,0.0,38,mp-1224658,Ho2Fe17C,https://materialsproject.org/materials/mp-1224658,519.9090545517981
-6.5451314813157895,-248.71499629,9.400865755028144,-0.02262729710526245,26.601226300000004,0.0,194,mp-1199900,Yb2Co17,https://materialsproject.org/materials/mp-1199900,476.19319690984287
-8.06569331736842,-306.49634606,8.326320441450386,-0.01167141546052694,76.35544940000001,0.0,187,mp-1219139,SmEr3Fe34,https://materialsproject.org/materials/mp-1219139,508.7258254271356
-9.062966750789473,-344.39273653,8.05598812002439,-0.011180335526316148,25.53958995,0.0,194,mp-1196805,Gd2Fe17,https://materialsproject.org/materials/mp-1196805,521.0278720677273
-8.068958003157894,-306.62040412,8.462831237692617,-0.028248459473684907,37.891726,0.0,194,mp-30640,Tm2Fe17,https://materialsproject.org/materials/mp-30640,505.15041301603554
-6.944166909210527,-263.87834255,9.217538416523396,-0.10069178552631654,25.47748205,0.0,194,mp-1023,Ho2Co17,https://materialsproject.org/materials/mp-1023,479.8203551515688
-6.94655129,-263.96894902,9.28113690774228,-0.10419728105263236,25.47695035,0.0,194,mp-2531,Er2Co17,https://materialsproject.org/materials/mp-2531,478.1989595632194
-6.598890216578948,-250.75782823,9.26517684560508,-0.10699353921052678,19.9432604,0.0,194,mp-1203663,Er2Co12Ni5,https://materialsproject.org/materials/mp-1203663,478.59292889358767
-6.9416722397368416,-263.78354511,9.11326358252204,-0.0953147881578936,25.2781977,0.0,194,mp-569638,Dy2Co17,https://materialsproject.org/materials/mp-569638,483.5391791072511
-7.441406239210527,-282.77343709,7.7455979437943006,-0.1352607597368421,28.111755100000003,0.0,194,mp-1199551,Er2Al3Fe14,https://materialsproject.org/materials/mp-1199551,513.3628533953297
-5.855744553684211,-222.51829304,9.394652461133926,-0.204945472105264,7.09972715,0.0,194,mp-30608,Er2Ni17,https://materialsproject.org/materials/mp-30608,470.97980543101494
-7.065492355000001,-268.48870949,8.763506832477272,-0.07925286868421129,23.13101785,0.0,194,mp-2216,Ce2Co17,https://materialsproject.org/materials/mp-2216,485.8719288510713
-2.4962909327777782,-89.86647358,2.8713691400548087,-0.7724023768758338,0.0,1.8191,14,mp-556587,AuSCl7,https://materialsproject.org/materials/mp-556587,1103.8824437566648
-7.275508281666666,-523.83659628,3.583438853955745,-2.9270292262817463,7.5e-07,5.586200000000002,14,mp-1195468,NaHo(PO3)4,https://materialsproject.org/materials/mp-1195468,933.8434756231987
-6.840154764473684,-259.92588105,9.140725967537046,-0.18767175078947373,7.224603999999999,0.0,194,mp-580102,Gd2Ni17,https://materialsproject.org/materials/mp-580102,476.7903843424962
-1.8527129571052632,-70.40309237,7.7871141065106615,-0.22908433473684206,0.0,0.0,194,mp-570071,Dy2Zn17,https://materialsproject.org/materials/mp-570071,612.837187822927
-5.855406866315789,-222.50546092,9.205298930750713,-0.19828636421052626,6.8218512,0.0,194,mp-569945,Tb2Ni17,https://materialsproject.org/materials/mp-569945,474.65467622763555
-7.274705770694445,-523.77881549,3.5968271254415427,-2.9268184147539693,0.0,5.5375999999999985,14,mp-14691,NaEr(PO3)4,https://materialsproject.org/materials/mp-14691,934.6677871973673
-8.847459019545457,-389.28819686,8.48452841595074,-0.10473107846590968,2.3971174,0.0,194,mp-1208144,Tm2Mn17C3,https://materialsproject.org/materials/mp-1208144,511.92744455135414
-1.8614909515789475,-70.73665616,7.71963154923736,-0.2355443513157893,0.0,0.0,194,mp-30880,Tb2Zn17,https://materialsproject.org/materials/mp-30880,615.1187004827983
-7.280063345555555,-524.16456088,3.505514584513741,-2.9288396843373015,0.0001916,5.6024,14,mp-1200709,NaTb(PO3)4,https://materialsproject.org/materials/mp-1200709,943.2238736624114
-5.08204175275,-203.28167011,3.1333936002692493,-1.3159566983160715,0.0,2.7730999999999995,14,mp-561232,NaSm(PS3)2,https://materialsproject.org/materials/mp-561232,906.6099418117706
-7.850696396052631,-298.32646305,8.158860130661223,-0.2797276557894726,26.073576199999998,0.0,194,mp-1204517,Er2Fe14Si3,https://materialsproject.org/materials/mp-1204517,488.7081312639458
-7.1295091302777776,-513.32465738,3.4924129325860087,-2.5254669938095238,3.000064275,4.0667,14,mp-758351,LiP4WO12,https://materialsproject.org/materials/mp-758351,963.6241975920535
-6.957394743421053,-264.38100025,7.008313049174019,-0.14321715710526242,23.1844522,0.0,194,mp-1197186,Dy2Al5Fe12,https://materialsproject.org/materials/mp-1197186,535.5035650154332
-8.297210774090908,-365.07727406,8.048953284876568,-0.08337289528409092,35.30553385,0.0,194,mp-1213192,Dy2Fe17C3,https://materialsproject.org/materials/mp-1213192,540.6828603518607
-6.3603608234375,-203.53154635,3.5856852402175448,-0.3404618615625008,7.000089725,0.3157000000000005,14,mp-1195922,EuP7,https://materialsproject.org/materials/mp-1195922,683.1320662759416
-7.388480030499999,-591.07840244,3.554175278574163,-2.8512473686607147,0.0,5.4534,15,mp-554113,LuP5O14,https://materialsproject.org/materials/mp-554113,1035.0103342072937
-7.37548127875,-590.0385022999999,3.6706302332002823,-2.8382486169107155,1e-07,5.4099,62,mp-773020,LuP5O14,https://materialsproject.org/materials/mp-773020,1002.173444123002
-7.386753529624999,-590.94028237,3.502494234400229,-2.846911219535715,0.0,5.4553,62,mp-14155,HoP5O14,https://materialsproject.org/materials/mp-14155,1031.248791659727
-6.7682413982692315,-351.94855271,2.9308510922648536,-1.9056066441758248,2.99999995,0.0153,52,mp-1213544,Er(PO5)2,https://materialsproject.org/materials/mp-1213544,882.0409418904096
-7.3904240037500015,-591.2339203,3.465314358667268,-2.8555758694107154,0.0,5.231,15,mp-15382,TmP5O14,https://materialsproject.org/materials/mp-15382,1049.9876874221625
-7.0797600687500015,-509.74272495,3.638787577155145,-2.4757179322817464,3.000219925,4.1833,14,mp-758367,LiP4WO12,https://materialsproject.org/materials/mp-758367,924.8612452542228
-7.161166222361112,-515.60396801,3.1607518550058646,-2.557124085892857,2.99999985,3.9065,60,mp-757973,LiP4WO12,https://materialsproject.org/materials/mp-757973,1064.7383167689572
-7.922327966052633,-301.04846271,8.993305065660659,-0.07829002500000115,25.2539845,0.0,194,mp-1201816,Gd2Co17,https://materialsproject.org/materials/mp-1201816,486.1114617954486
-7.3960548925,-384.59485441,3.3109896903926335,-1.5515501360299988,7.000000975,2.53,14,mp-1203247,Gd(NO3)3,https://materialsproject.org/materials/mp-1203247,688.6212144457554
-7.387654157999999,-591.01233264,3.495319871789857,-2.846442742160715,0.0,5.4353,62,mp-779893,DyP5O14,https://materialsproject.org/materials/mp-779893,1028.747157329642
-7.38494569625,-590.7956557,3.5301136066165784,-2.845635915660715,0.0,5.4442,62,mp-3457,ErP5O14,https://materialsproject.org/materials/mp-3457,1027.5619448700238
-7.058939057375,-564.71512459,3.3229595769030875,-2.671557943535715,5e-08,0.0,15,mp-12210,YbP5O14,https://materialsproject.org/materials/mp-12210,1103.17583562195
-7.396564405499999,-591.72515244,3.3837595668318228,-2.855352989660715,0.0,5.2489,15,mp-554583,DyP5O14,https://materialsproject.org/materials/mp-554583,1062.6642676708657
-8.298364249999999,-365.128027,8.13272466422209,-0.08701565437499942,35.16229265,0.0,194,mp-1212484,Ho2Fe17C3,https://materialsproject.org/materials/mp-1212484,537.0984301338268
-8.324518381136365,-366.27880877,8.05942727637565,-0.2842716014609101,39.5154857,0.0,194,mp-1200240,Dy2Fe17N3,https://materialsproject.org/materials/mp-1200240,542.4476889646464
-7.394300328875,-591.54402631,3.4310454002750896,-2.8549905482857154,0.0,5.2327,15,mp-4871,ErP5O14,https://materialsproject.org/materials/mp-4871,1057.231828799535
-7.395443252374999,-591.63546019,3.399852066724774,-2.8556009422857147,0.0,5.2355,15,mp-12237,HoP5O14,https://materialsproject.org/materials/mp-12237,1062.3823849194528
-5.9100254388235305,-401.88172984,2.785323739765058,-0.5830423288758825,5.999377075,0.3435000000000001,14,mp-1204124,LuN3O13,https://materialsproject.org/materials/mp-1204124,1013.4473185532064
-7.478317295208334,-358.95923017,2.699400093760793,-1.9737211728125008,1.00000015,0.6721,19,mp-1199851,ErC3O8,https://materialsproject.org/materials/mp-1199851,815.1645779944173
-7.634905045625,-366.47544219,2.8489949557498564,-2.130308923229168,1.00000005,0.21629999999999994,19,mp-1199532,ErC3O8,https://materialsproject.org/materials/mp-1199532,772.3619635856628
-7.259839681029412,-493.66909831,3.16757777011128,-2.497205221827731,1.999999875,2.9507,60,mp-849758,P4WO12,https://materialsproject.org/materials/mp-849758,1047.8891584720693
-5.573324031052632,-211.78631318,9.469044545490943,-0.3607274884210528,0.00012209999999999999,0.0,194,mp-1200461,Lu2Ga3Ni14,https://materialsproject.org/materials/mp-1200461,484.2917143604892
-6.8618753641176475,-466.60752476,3.0823672377340725,-2.3763221510924373,0.067018525,0.06770000000000004,60,mp-684495,Bi(PO3)4,https://materialsproject.org/materials/mp-684495,1131.0322871211297
-6.514865198958333,-312.71352955,3.890373304924805,-2.4692563274370833,0.0,5.7551000000000005,14,mp-867625,ErH(SO4)2,https://materialsproject.org/materials/mp-867625,615.3087853256411
-8.299944374318182,-365.19755247,8.185805983321108,-0.08956401414772844,35.0774473,0.0,194,mp-1212962,Er2Fe17C3,https://materialsproject.org/materials/mp-1212962,535.5051310772135
-7.125016028636364,-627.00141052,2.976100213749552,-2.5358433750892857,1.999723075,2.8415,14,mp-772973,LiP5WO15,https://materialsproject.org/materials/mp-772973,1307.0519923077554
-5.325349433833334,-319.52096603,2.920255369848588,-0.5540805195000009,1.99999985,0.0,14,mp-1212077,Li2WO12,https://materialsproject.org/materials/mp-1212077,886.411026306025
-5.392546780166667,-323.55280681,2.487972085905819,-0.7380618658333342,5.0001215,0.0060999999999999934,14,mp-1202844,Li2WO12,https://materialsproject.org/materials/mp-1202844,1040.4242773168942
-6.858308570416668,-493.79821707,3.584272142993868,-2.515954277559524,3.175e-06,4.425599999999998,14,mp-758944,LiBi(PO3)4,https://materialsproject.org/materials/mp-758944,985.5167051008746
-5.267752724736842,-200.17460354,9.235824499902431,-0.3443759536842111,0.0009413000000000001,0.0,194,mp-1201787,Lu2Ga5Ni12,https://materialsproject.org/materials/mp-1201787,504.45308287562204
-5.144039238333333,-185.18541258,3.3920903164973955,-2.2520354299544443,0.0,3.507,14,mp-558352,KWNClF5,https://materialsproject.org/materials/mp-558352,719.397666397239
-7.322744119583334,-527.23757661,3.152242333805582,-2.9115876063373016,1.000013025,0.1581999999999999,14,mp-540753,KCe(PO3)4,https://materialsproject.org/materials/mp-540753,1043.2401553967125
-6.87057211375,-494.68119219,3.752746760971895,-2.5598606611428574,2.5e-07,4.6288,14,mp-23621,NaBi(PO3)4,https://materialsproject.org/materials/mp-23621,969.6786743316812
-5.973664759655173,-346.47255606,3.871400382250024,-1.9275364802801724,0.0,4.0093,2,mp-1200203,Bi2(S2O7)3,https://materialsproject.org/materials/mp-1200203,811.8155556052435
-7.395750632124998,-591.66005057,3.2220691149281877,-2.8465566326607146,0.0,5.3865,53,mp-560681,NdP5O14,https://materialsproject.org/materials/mp-560681,1078.3529995661759
-6.32317849763158,-240.28078291,8.771553226999572,-0.06993519868421129,5.29842525,0.0,194,mp-1201182,Eu2Ni17,https://materialsproject.org/materials/mp-1201182,492.85453760490236
-6.762415311923077,-351.64559622,2.5316463128201367,-1.884574067252748,3.003816775,0.1498,52,mp-1210882,Nd(PO5)2,https://materialsproject.org/materials/mp-1210882,960.7377370647384
-6.8814075442647065,-467.93571301,3.6180467429255967,-2.395854331239496,0.9999998999999999,0.0,14,mp-26574,Bi(PO3)4,https://materialsproject.org/materials/mp-26574,963.5743024764179
-5.6004655071590905,-492.84096463,2.8262147595218488,-1.6528830316757144,2.00000035,2.2486,52,mp-707992,DyP2H9O10,https://materialsproject.org/materials/mp-707992,924.8322980090127
-7.130647702999999,-427.83886218,4.3279428184968785,-2.6472932851585003,54.99999939999999,1.5905,1,mp-1228666,Ba4Fe12Si8ClO35,https://materialsproject.org/materials/mp-1228666,782.5370594325012
-7.01613353625,-561.2906829,3.640416893495269,-2.5102820686607155,0.0,5.1226,62,mp-1214465,BiP5O14,https://materialsproject.org/materials/mp-1214465,1072.5503620801067
-6.044750349782609,-556.11703218,2.579470272313081,-1.366513135938696,3.000000725,0.4146000000000001,86,mp-1238179,YbH7C4O11,https://materialsproject.org/materials/mp-1238179,1040.6424996600847
-6.798156039264707,-924.54922134,2.418245329642416,-1.2500212520808829,8.000072875,0.6752000000000001,14,mp-1182485,K4HfC8O21,https://materialsproject.org/materials/mp-1182485,2106.5864516870474
-7.623827027272727,-335.4483892,3.844245325440692,-2.0872712779427265,7.5e-08,3.2305,62,mp-1194953,TbH(CO2)3,https://materialsproject.org/materials/mp-1194953,504.4568277418186
-6.912378242941178,-235.02086026,4.097366826099962,-2.7627937654227948,4.5e-07,5.5128,15,mp-1208980,Sm2(SO4)3,https://materialsproject.org/materials/mp-1208980,477.33309433332846
-6.324206983913043,-581.82704252,2.614438698685265,-1.6459697700691298,1.0000448,0.01870000000000016,86,mp-1200794,YbH7C4O11,https://materialsproject.org/materials/mp-1200794,1026.7237833224526
-4.1208564604545455,-181.31768426,2.5414985077651946,0.27572424185727323,3.983834625,0.009500000000000008,14,mp-1199565,PtN4Cl5O,https://materialsproject.org/materials/mp-1199565,1161.3658095855653
-6.088303889500001,-365.29823337,2.826175194665556,-1.161723367868,2.875e-06,2.2287,14,mp-1181207,K2Pt(NO2)4,https://materialsproject.org/materials/mp-1181207,1074.765388680536
-7.90627229046875,-506.00142659,2.8429428448456813,-1.6112393256250002,9.000000325,1.0923,13,mp-1212087,LiGd(C2O5)2,https://materialsproject.org/materials/mp-1212087,869.6605277083763