energy_per_atom,energy,density,formation_energy_per_atom,total_magnetization,band_gap,sgr,mp_id,formula,URL,cell_volume
-6.148069396,-61.48069396,6.895830079474776,-0.5732622984999999,0.00015590000000000002,0.0,194,mp-1078802,LaVGe3,https://materialsproject.org/materials/mp-1078802,196.38331139362452
-9.066078235,-72.52862588,8.617301675393788,0.01305418749999987,1.4e-06,0.0,223,mp-11271,BeMo3,https://materialsproject.org/materials/mp-11271,114.39809005337183
-2.71254792625,-21.70038341,4.411932721772789,0.09431827625000012,1.8000000000000001e-06,0.0,225,mp-1094232,MgSn,https://materialsproject.org/materials/mp-1094232,215.30880526226665
-10.0452603025,-80.36208242,8.92156579790522,0.2383774825000007,1.9e-06,0.0,223,mp-30790,ZrMo3,https://materialsproject.org/materials/mp-30790,141.100200152208
-6.049657064,-60.49657064,7.039163021079554,-0.5034319820000001,1.4099999999999999e-05,0.0,194,mp-978084,PrVGe3,https://materialsproject.org/materials/mp-978084,193.32914124164185
-4.799608470714285,-67.19451859,4.515733188356731,-0.8251482297023821,4.000003100000001,0.040899999999999714,227,mp-21112,In2FeS4,https://materialsproject.org/materials/mp-21112,304.2841790210595
-5.58025590875,-44.64204727,5.039379992221201,-1.867400476953125,3.0000002,1.1487000000000005,63,mp-1078227,BaCoSO,https://materialsproject.org/materials/mp-1078227,161.0160492187311
-7.182179446842105,-136.46140949,8.28170326496632,-0.3422582450000002,6.6903763,0.0,166,mp-1188589,Er(Co2B)6,https://materialsproject.org/materials/mp-1188589,188.3408554193757
-7.189068323157895,-136.59229814,8.1863582927146,-0.3459864110526317,6.604435700000001,0.0,166,mp-1188842,Tb(Co2B)6,https://materialsproject.org/materials/mp-1188842,188.8440098521343
-2.649786322,-26.49786322,3.4208793426903314,-0.7711710777877154,0.00100375,1.2422,11,mp-998299,RbSeBr3,https://materialsproject.org/materials/mp-998299,392.3493630091128
-6.0489748,-60.489748,7.155419727649054,-0.3912500139999999,1.373138,0.0,194,mp-13007,PrCrGe3,https://materialsproject.org/materials/mp-13007,190.6775287543715
-9.311356765,-74.49085412,8.470006363663948,-0.2275736749999986,8e-07,0.0,223,mp-259,AlMo3,https://materialsproject.org/materials/mp-259,123.43325902089177
-7.903713035555556,-71.13341732,8.299221603472969,-0.5535817396031746,0.0,0.0,189,mp-7632,NiMoP,https://materialsproject.org/materials/mp-7632,111.41090815395107
-5.773650811,-57.73650811,5.2471031943727855,-1.5855280401562508,0.0,0.038000000000000256,194,mp-1079300,BaZrSe3,https://materialsproject.org/materials/mp-1079300,294.58782009665606
-8.013334738333333,-96.16001686,7.234835269917281,-0.5701622633333336,2.528066625,0.034800000000000615,62,mp-20059,ZrMnGe,https://materialsproject.org/materials/mp-20059,200.8777389943204
-2.332671345,-23.32671345,6.6812848968934695,-0.3290915784999999,1.405e-05,0.0,63,mp-861620,LaZn4,https://materialsproject.org/materials/mp-861620,199.09785567840117
-9.341700825,-112.10040990000002,7.735945134559934,-0.2854167058333334,0.00034219999999999997,0.01890000000000036,124,mp-22312,Nb4FeSi,https://materialsproject.org/materials/mp-22312,195.5723684589066
-2.71997918125,-21.75983345,5.497512243886501,-0.3426226845650002,3.125e-05,0.0,194,mp-1184519,In3Cl,https://materialsproject.org/materials/mp-1184519,229.50395636528722
-7.186761175263157,-136.54846233,8.248702600300112,-0.3448382521052637,6.5984103,0.0,166,mp-1106057,Dy(Co2B)6,https://materialsproject.org/materials/mp-1106057,188.13632242061576
-6.044512286000001,-60.44512286,7.177034416979472,-0.5020043805000001,7.105e-05,0.0,194,mp-977446,NdVGe3,https://materialsproject.org/materials/mp-977446,191.15819973992524
-9.22925303625,-147.66804858,7.296220638032253,-0.6390703503125009,7.6e-06,0.0,42,mp-1220752,Nb10(SiB)3,https://materialsproject.org/materials/mp-1220752,238.00187343665078
-4.584456609,-91.68913218,6.680012291457894,-0.3403162991979997,5e-08,0.0,31,mp-1189636,NdMg(NiH)4,https://materialsproject.org/materials/mp-1189636,202.52193178779513
-7.831223186,-117.46834779,5.902498827741076,-0.9643867981666668,1.1600008999999998,0.0,148,mp-1103562,Nb(Mo3S4)2,https://materialsproject.org/materials/mp-1103562,260.2472077354658
-7.776295166666666,-93.31554200000001,8.63043578710505,-0.9372264716666668,2.5125e-05,0.0,62,mp-1101959,ZrGeRh,https://materialsproject.org/materials/mp-1101959,205.3111478301706
-7.9099761292307695,-102.82968968,7.735628045314886,0.26189460519230706,28.3071184,0.0,139,mp-985581,SmFe12,https://materialsproject.org/materials/mp-985581,176.12949773938348
-4.102275449,-41.02275449,5.35219391106278,0.4594216450000005,0.001299,0.0,227,mp-1209964,Nd4Al,https://materialsproject.org/materials/mp-1209964,374.75540075719925
-5.0262990471428575,-70.36818666,4.351687596567899,-0.9519218932738102,5.00000045,0.9216999999999996,227,mp-22168,Mn(InS2)2,https://materialsproject.org/materials/mp-22168,315.0626204437469
-7.756657823636362,-170.64647212,5.713385628066511,-3.050733546477274,0.0,2.9476000000000004,227,mp-769396,Y2Ge2O7,https://materialsproject.org/materials/mp-769396,252.90775963620615
-6.0453896139999985,-60.45389614,7.2829577619721615,-0.3913820044999993,1.36801475,0.0,194,mp-13008,NdCrGe3,https://materialsproject.org/materials/mp-13008,188.85889943593293
-6.61692056,-92.63688784,4.482258474639749,-1.1321213406271429,0.0,2.0441,229,mp-9705,Ba4Na(BN2)3,https://materialsproject.org/materials/mp-9705,255.16848048349223
-4.068607773571428,-56.96050883,4.537911408822539,-1.0421770575266838,0.0,1.2816999999999998,12,mp-22007,CsIn5S8,https://materialsproject.org/materials/mp-22007,352.5752002149234
-4.42007984875,-35.36063879,5.6569401670973845,-0.10129978312500043,4.7971272,0.0,121,mp-1206870,MnCu2GeTe4,https://materialsproject.org/materials/mp-1206870,224.57877236289073
-4.938454031666667,-88.89217257,6.025255337007925,0.19123654283111174,0.00268135,0.0,2,mp-1246383,Zn4RuN4,https://materialsproject.org/materials/mp-1246383,230.80255452669365
-4.238209089,-42.38209089,3.890252280050874,-0.7427801971379309,5.0000005,0.9609,72,mp-8720,Rb2MnTe2,https://materialsproject.org/materials/mp-8720,410.68882485284684
-4.003089903,-40.03089903,4.558622369955351,-1.2534761658569995,8.5e-06,0.0,225,mp-989592,Sr6Sn2NF,https://materialsproject.org/materials/mp-989592,290.0064796069908
-8.568274896666667,-179.93377283,4.664112369925794,-3.512305900178572,0.09484069999999999,0.001000000000000334,12,mp-7733,Ba2Ti6O13,https://materialsproject.org/materials/mp-7733,274.08494684146444
-0.84439072125,-6.75512577,1.8611394329340127,0.050999332543103404,0.0001442375,0.0,223,mp-949029,Cs,https://materialsproject.org/materials/mp-949029,948.6433422599646
-4.8309943192307685,-62.80292615,8.192265180847624,-0.10168652249999938,3.9766586999999998,0.0,44,mp-1219048,SmGa7Co5,https://materialsproject.org/materials/mp-1219048,189.1329584063452
-4.044760235625,-64.71616377,3.786407422154275,-1.0568668992079742,0.0,1.7235,14,mp-561639,CsSbS2,https://materialsproject.org/materials/mp-561639,559.2343714065571
-4.903592995555557,-88.26467392,4.299707127885195,-1.8918962061458344,1.975e-05,1.6495000000000002,140,mp-1096842,Ba3SnS5,https://materialsproject.org/materials/mp-1096842,533.7382343197017
-4.0491062875,-97.1785509,4.454053317549104,-0.4477681899479175,0.0,1.5018000000000002,148,mp-13740,AgAsS2,https://materialsproject.org/materials/mp-13740,552.3328147422496
-6.0021732935714285,-84.03042611,5.683503252130934,-0.8112500666071429,0.9927914000000001,0.0,216,mp-1225064,FeCo(RhS2)4,https://materialsproject.org/materials/mp-1225064,228.74440135394894
-5.3508152621428575,-74.91141367,5.944472890390973,-1.9948325923214287,1.53e-05,0.0,229,mp-1147529,Ba4Cu3BrO6,https://materialsproject.org/materials/mp-1147529,255.8340713945844
-4.6413629496875,-445.57084317,3.0659706504153217,-0.5336093229808334,0.00017855,2.2181,218,mp-1029522,Li7SbN4,https://materialsproject.org/materials/mp-1029522,980.837915019784
-4.6082503275,-55.29900393,6.875623355820642,-0.5468644558333331,9.5e-07,0.0,63,mp-1095535,YGa4Ni,https://materialsproject.org/materials/mp-1095535,206.00470217550819
-8.623094091428571,-181.08497592,4.575391429553631,-3.2122625238576203,0.0,1.8972,8,mp-755526,Ba2Ti6N2O11,https://materialsproject.org/materials/mp-755526,277.95328514827895
-4.19639336875,-33.57114695,4.011727950807617,-1.44025290125,7.499999999999999e-06,3.0409,148,mp-571442,YI3,https://materialsproject.org/materials/mp-571442,388.7706867106586
-4.94351319875,-118.64431677,3.7155803238867056,-1.661810451927084,0.0,2.0933,113,mp-17244,Ba2ZnGe2S6O,https://materialsproject.org/materials/mp-17244,620.0752685157245
-8.611771014761906,-180.84719131,4.601977004622093,-3.2009394471909527,0.0,1.4581999999999995,12,mp-775944,Ba2Ti6N2O11,https://materialsproject.org/materials/mp-775944,276.3475518035853
-8.622765422380951,-181.07807387,4.5959899354114455,-3.2119338548100003,0.0,1.8794,8,mp-755881,Ba2Ti6N2O11,https://materialsproject.org/materials/mp-755881,276.7075421303902
-7.191558328947369,-136.63960825,8.056872070940809,-0.343798289605264,6.592800099999999,0.0,166,mp-1105798,Sm(Co2B)6,https://materialsproject.org/materials/mp-1105798,190.11368363918584
-4.235704408,-42.35704408,4.635163867475549,-1.2055041651129996,0.00024180000000000002,0.0,225,mp-989540,Sr6Sn2NO,https://materialsproject.org/materials/mp-989540,284.1431503026989
-5.67944649,-136.30671576,5.658499936666858,-1.2909698499999998,0.9999998999999999,0.0,186,mp-867653,Co3TeO8,https://materialsproject.org/materials/mp-867653,253.7804821847712
-5.039579459285714,-70.55411243,7.469161316110343,-0.3288659039285723,4.34e-05,0.0,97,mp-1218470,SrCa(Ni2Sn)4,https://materialsproject.org/materials/mp-1218470,238.34527779797492
-2.9289871814285715,-20.50291027,6.219446238842679,-0.08558366071428583,7.43e-05,0.0,119,mp-1215508,Zn(GaTe2)2,https://materialsproject.org/materials/mp-1215508,190.96697767681155
-3.7205190792857135,-52.08726711,4.9568969163779215,-0.8127104172172628,0.0,0.6920000000000002,166,mp-1224043,In2AgS3Br,https://materialsproject.org/materials/mp-1224043,344.10970373461953
-7.561259087000001,-226.83777261,4.803884652680842,-3.2279105202500005,2.65e-06,2.7391999999999994,71,mp-1218647,Sr4Nb2O9,https://materialsproject.org/materials/mp-1218647,470.3042647238121
-5.619219737777778,-101.14595528,4.812689420439222,-2.244475712256945,0.0,1.4558999999999995,140,mp-16452,BaLa2ZnS5,https://materialsproject.org/materials/mp-16452,442.2445676593924
-9.955723494375,-159.29157591,8.897502391869422,-0.5483158705650002,0.0,0.0,186,mp-2811,MoN,https://materialsproject.org/materials/mp-2811,164.15463992322336
-3.538004874,-35.38004874,4.3349684040983965,-1.0398989585236666,0.8393853000000001,0.0,225,mp-989402,Sr6In2NF,https://materialsproject.org/materials/mp-989402,301.98706598262777
-5.011441319166667,-60.13729583,6.453749110865375,-0.5813072421875004,0.0,0.0,198,mp-10848,AsPdS,https://materialsproject.org/materials/mp-10848,219.63666985260102
-6.273754125555557,-112.92757426,4.468439991919809,-1.1133952873540744,0.007380199999999999,1.1978,2,mp-1029799,Sr4TiN4,https://materialsproject.org/materials/mp-1029799,337.70418088527947
-8.614514378095237,-180.90480194,4.556200352492059,-3.203682810524286,0.0,2.1394,8,mp-776466,Ba2Ti6N2O11,https://materialsproject.org/materials/mp-776466,279.12404641909967
-5.4843643225,-197.43711561,4.57672928390808,-1.5495502755266668,0.0,2.4449,9,mp-1179534,Sn3(HO2)2,https://materialsproject.org/materials/mp-1179534,612.6521238528538
-6.732253912999999,-134.64507826,7.0457447993424225,-2.421717680679687,0.2418466,0.0,229,mp-1147534,La4Cu3SeO12,https://materialsproject.org/materials/mp-1147534,239.73638206150642
-4.141617959166667,-49.69941551,6.075566230787178,-0.8617163800000002,0.0,1.2577000000000005,205,mp-2310,CdO2,https://materialsproject.org/materials/mp-2310,157.87704490386085
-6.164385140357143,-172.60278393,4.259866354285721,-1.8426575360379465,0.0011243,0.0,1,mp-685968,Ba6Nb5S17,https://materialsproject.org/materials/mp-685968,714.7554181101978
-1.683712146153846,-21.8882579,7.596582173616811,-0.156636478076923,5.9699999999999994e-05,0.0,139,mp-1103837,HoZn12,https://materialsproject.org/materials/mp-1103837,207.62542627733737
-5.3200216992857134,-74.48030379,5.439443675768615,-1.5950789673214285,2.99999705,0.0,227,mp-20213,Yb2MnS4,https://materialsproject.org/materials/mp-20213,323.1532153380323
-1.6899932623076923,-21.96991241,7.655911041274948,-0.16081127769230746,2.8199999999999998e-05,0.0,139,mp-1104551,DyZn12,https://materialsproject.org/materials/mp-1104551,205.48932221479046
-5.173354604117646,-87.94702827,4.2049810619653645,-1.5926070052941181,0.0,0.5617999999999999,2,mp-1188648,Y6NiBr10,https://materialsproject.org/materials/mp-1188648,549.36980010762
-7.019225181666666,-84.23070218,8.578664683830324,-0.903088476666666,2.5e-08,0.008600000000000385,62,mp-1103608,ZrGePd,https://materialsproject.org/materials/mp-1103608,209.27132621622212
-4.8438768025,-38.75101442,6.625009306985793,-0.25369445499999976,1.205e-05,0.0,194,mp-972889,ScSn3,https://materialsproject.org/materials/mp-972889,201.06200139755748
-8.50443569625,-68.03548557,8.226610331703764,-0.16191415625000086,2.8999999999999998e-06,0.0,223,mp-2670,Nb3Ga,https://materialsproject.org/materials/mp-2670,140.66590085623145
-4.905283132999999,-98.10566266,4.465752002571628,-1.023294192375,0.0,1.2749999999999997,2,mp-28711,Sb2S2O,https://materialsproject.org/materials/mp-28711,481.3813786910625
-3.035752575,-42.50053605,3.9729752608589743,-1.207038602044335,1e-07,1.9837,164,mp-579560,Cs3Sb2Br9,https://materialsproject.org/materials/mp-579560,568.997236627107
-6.0649077107142855,-84.90870795,7.121103339798018,-0.6926889199999989,3.8556271,0.0,220,mp-1213824,Ce4Ge3,https://materialsproject.org/materials/mp-1213824,363.015942455912
-5.734915328333333,-68.81898394,6.589171598355057,-0.6428122349999997,4.325e-06,0.0,62,mp-1102603,YGaNi,https://materialsproject.org/materials/mp-1102603,219.06977227652058
-3.335157087272727,-73.37345592,4.090720340327052,-0.5795957998181817,1.65e-06,0.9884,2,mp-28107,Na4Ge2Te5,https://materialsproject.org/materials/mp-28107,710.5685727590628
-7.860320485384616,-102.18416631,7.691118913922954,-0.1552980132692312,19.5722414,0.0,69,mp-1219261,Sm(Fe5Si)2,https://materialsproject.org/materials/mp-1219261,165.16203033328435
-3.705213063333334,-33.34691757,4.0487424548837865,-0.989811449277778,3.0,0.9825,225,mp-23021,K2ReBr6,https://materialsproject.org/materials/mp-23021,305.071212257426
-3.217296891,-32.17296891,3.599654300048772,-1.4039906253620689,0.0,2.4534,225,mp-1113491,Cs3ScI6,https://materialsproject.org/materials/mp-1113491,555.9184064333956
-5.494512072000001,-54.94512072,5.483429596032962,-1.2000526251562498,0.99438345,0.0,194,mp-27363,BaVSe3,https://materialsproject.org/materials/mp-27363,257.494208572746
-7.463983473333332,-89.56780168,7.8771573259506065,-0.7038959716666671,0.035719975,0.0,62,mp-1103148,ZrCoGe,https://materialsproject.org/materials/mp-1103148,187.86647263280142
-4.7752381321428565,-66.85333385,4.618978532706652,-1.4563092563392859,0.0,2.2776,11,mp-14447,Ba2SiSe4,https://materialsproject.org/materials/mp-14447,444.76301494814294
-6.025917421,-60.25917421,7.4980946658362555,-0.3816591044999996,1.36811885,0.0,194,mp-13009,SmCrGe3,https://materialsproject.org/materials/mp-13009,186.14992280871917
-5.819458604583333,-139.66700651,5.572426132097405,-1.348904373749999,1.99999995,0.0,9,mp-761540,Co3SbO8,https://materialsproject.org/materials/mp-761540,254.2199237461063
-3.80611712,-30.44893696,7.326071381083561,0.2257540312499997,6.05e-06,0.0,194,mp-1184173,CuSn3,https://materialsproject.org/materials/mp-1184173,190.24886488287717
-8.9985305475,-71.98824438,8.387315683520644,-0.25798961874999904,0.42668385,0.0,223,mp-1373,Nb3Ge,https://materialsproject.org/materials/mp-1373,139.12569671776546
-7.07612064375,-169.82689545,4.636821802031991,-2.7258769087499988,0.0,4.021,1,mp-1228193,Ba3Sr(MoO4)4,https://materialsproject.org/materials/mp-1228193,408.02462564973996
-8.9894973425,-71.91597874,7.347633961106182,-0.2579654218750012,0.0787901,0.0,200,mp-1220347,Nb6AlSi,https://materialsproject.org/materials/mp-1220347,138.4240150131017
-6.1043117025,-48.83449362,6.137962457582308,-1.5600473145982152,5.345e-05,0.0,129,mp-1079685,LaNiPO,https://materialsproject.org/materials/mp-1079685,132.33101702225045
-4.58821963875,-36.70575711,5.865788603709017,-0.30149126982421937,0.0,0.4917999999999996,160,mp-1216358,VCu3Te3Se,https://materialsproject.org/materials/mp-1216358,199.10753302387795
-6.9871958167857136,-195.64148287,4.283191279414791,-2.7259692709821435,3.5600000000000005e-05,3.2310000000000003,174,mp-1228626,Ba2Si3Ge5O18,https://materialsproject.org/materials/mp-1228626,391.60286728344687
-6.69669915,-53.573593200000005,8.496856938537231,-0.09278513624999896,4.5044639,0.0,160,mp-1221922,Mn3Ni3Sn2,https://materialsproject.org/materials/mp-1221922,113.01985400079718
-2.620679771,-26.20679771,4.332299521201101,-1.2812460212413792,7.699999999999999e-06,2.9022,194,mp-541899,CsCdBr3,https://materialsproject.org/materials/mp-541899,371.81578787397314
-3.65087743,-43.81052916,5.45685162190905,-0.1927788323524305,1.005e-05,0.06340000000000012,36,mp-1096802,Ag2GeSe3,https://materialsproject.org/materials/mp-1096802,319.6747203856418
-4.9107634225,-39.28610738,6.586740935636908,-0.23211949375,9.165e-05,0.0,194,mp-1186995,ScSb3,https://materialsproject.org/materials/mp-1186995,206.8436436600597
-2.683608475,-26.83608475,4.128007397200632,-1.272227928241379,3.195e-05,3.3159,194,mp-29751,CsMgI3,https://materialsproject.org/materials/mp-29751,432.7722735372339
-5.779687549749999,-231.18750199,5.18625479568463,-1.90557404525,0.0,0.2932000000000001,15,mp-1207892,V3Cd5O12,https://materialsproject.org/materials/mp-1207892,580.726137750739
-5.2115943977777786,-93.80869916,5.459938687060921,-1.297436230555556,0.0008112,0.0,125,mp-1147739,Ba(CuO)4,https://materialsproject.org/materials/mp-1147739,277.06897703750866
-9.05537516625,-72.44300133,9.633796385189832,-0.15095070874999905,1.6e-06,0.0,223,mp-2377,GaMo3,https://materialsproject.org/materials/mp-2377,123.25652032493541
-7.879434813888888,-141.82982665,7.206670520973589,-0.4919066935185189,1.26e-05,0.11150000000000038,86,mp-1006322,Ce(FeB)4,https://materialsproject.org/materials/mp-1006322,187.43958036209918
-3.2725501116666664,-39.27060134,3.7614835595588096,-1.6454525925,0.0,3.5551,74,mp-850277,SrCaI4,https://materialsproject.org/materials/mp-850277,560.9312414996671
-7.968758789166666,-95.62510547,9.414413522609369,-0.6078176908333326,1.175e-06,0.0,62,mp-1102532,NbGeRh,https://materialsproject.org/materials/mp-1102532,189.4009971118587
-6.34895313,-50.79162504,8.59502600270533,-0.10798138874999984,7.576539299999999,0.0,166,mp-1221685,MnCr(Ni2Sn)2,https://materialsproject.org/materials/mp-1221685,111.8861338426406
-5.846367765,-46.77094212,6.834507227960232,-1.4925915278125004,5.5299999999999996e-05,0.0,129,mp-1079362,LaNiAsO,https://materialsproject.org/materials/mp-1079362,140.1998686871569
-8.171318289090909,-179.76900236,5.650230603616862,-2.972921856477273,4.0,0.0,227,mp-18265,Y2Mo2O7,https://materialsproject.org/materials/mp-18265,283.1250456637956
-3.6534994407142856,-51.14899217,4.793011002226258,-0.3883376071428571,1.6899999999999997e-05,0.3946000000000001,5,mp-1228728,Al4InAgTe8,https://materialsproject.org/materials/mp-1228728,468.1969168393705
-7.190069125789473,-136.61131339,7.919351808785769,-0.3397434830263146,6.670004,0.0,166,mp-1105815,Nd(Co2B)6,https://materialsproject.org/materials/mp-1105815,192.132195526594
-3.153237597,-31.53237597,3.615844185483613,-1.5202871532758622,0.0,3.2264,225,mp-1112531,Cs2RbAlBr6,https://materialsproject.org/materials/mp-1112531,393.8826164622291
-6.31491008,-50.51928064,8.594660852726996,-0.14362565375000005,5.3187445,0.0,166,mp-1221615,MnV(Ni2Sn)2,https://materialsproject.org/materials/mp-1221615,111.68713247638041