energy_per_atom,energy,density,formation_energy_per_atom,total_magnetization,band_gap,sgr,mp_id,formula,URL,cell_volume
-4.382825747166667,-262.96954483,1.882048965953781,0.3561662330146665,3.7125e-05,2.4704,14,mp-736259,HgH4C4(NCl2)2,https://materialsproject.org/materials/mp-736259,1491.0580655004426
-6.945739664485295,-944.62059437,2.356600853476498,-1.3976048773014709,6.000000099999999,0.5307000000000001,14,mp-1204255,K4HfC8O21,https://materialsproject.org/materials/mp-1204255,2161.6909969140834
-7.478773663333333,-358.98113584,3.8660443061118013,-3.3271790509375005,0.0,5.5246,62,mp-6383,BaBe2Si2O7,https://materialsproject.org/materials/mp-6383,555.82864440725
-6.784346294642857,-379.9233925,3.7281933578803454,-2.5481324931913263,1.225e-06,4.8008,19,mp-1210272,NaP3PbO9,https://materialsproject.org/materials/mp-1210272,832.1962966408096
-7.0902341026315785,-538.8577918,3.5518063611514084,-2.953760460741855,1.00000005,0.0,198,mp-1224614,K2YbTi(PO4)3,https://materialsproject.org/materials/mp-1224614,1092.1588274188246
-6.086857188166666,-365.21143129,2.8258778436283114,-1.1895662315346671,0.00154045,2.2243,14,mp-1224512,K4PdPt(NO2)8,https://materialsproject.org/materials/mp-1224512,970.6772077475848
-7.099105735384616,-369.15349824,3.6423403785654216,-3.038651727714285,0.0,1.3919,14,mp-1195550,K2Ce(PO4)2,https://materialsproject.org/materials/mp-1195550,744.4926430042842
-6.099484279583333,-585.55049084,2.557450963814347,-1.5259288002916669,7.525e-06,3.3023,33,mp-759030,KSmH4(N2O7)2,https://materialsproject.org/materials/mp-759030,1229.7858996718683
-6.896791898055557,-496.56901666,3.7396650743468487,-2.5544376051984132,7.525e-06,4.6458,14,mp-684497,LiBi(PO3)4,https://materialsproject.org/materials/mp-684497,944.5658908813143
-5.978938717777778,-215.24179384,3.077259433325504,-0.7003350861161116,0.0,0.8738999999999999,14,mp-555688,WS2(NCl)3,https://materialsproject.org/materials/mp-555688,855.5055799213095
-6.5888827375000005,-606.17721185,2.5724001077736323,-1.7759226180039136,0.0,3.5429000000000004,86,mp-1196220,TbH7C4O11,https://materialsproject.org/materials/mp-1196220,1007.0574459651615
-5.843046839473684,-222.03577990000002,8.969397974050366,-0.17657008289473713,6.90658525,0.0,194,mp-1203310,Sm2Ni17,https://materialsproject.org/materials/mp-1203310,480.79545625754247
-6.897150714444446,-496.59485144,3.1413919013207985,-2.5547964215873007,1.1e-06,4.6455,60,mp-684506,LiBi(PO3)4,https://materialsproject.org/materials/mp-684506,1124.4569870645514
-6.9161146129411755,-235.14789684,3.911645937313648,-2.7607952571875,0.0,5.4318,15,mp-29265,Nd2(SO4)3,https://materialsproject.org/materials/mp-29265,489.60772652378716
-7.842096213958333,-376.42061827,2.849033308689432,-1.095666877146666,0.0,2.5801,62,mp-648163,ReC5ClO5,https://materialsproject.org/materials/mp-648163,843.2816908051025
-6.1192020398333336,-367.15212239,3.088393279452017,-1.1926215182013329,0.0,2.1166,14,mp-6592,K2Pt(NO2)4,https://materialsproject.org/materials/mp-6592,983.5131107761522
-5.21354258625,-41.70834069,10.12152866488233,-0.3975609962500002,1.55e-06,0.0,63,mp-13453,BePd3,https://materialsproject.org/materials/mp-13453,107.71273628820424
-6.029590095789473,-229.12442364,8.222018942131216,-0.2720570436842108,0.14270045,0.0,194,mp-1202894,Ce2Si2Ni15,https://materialsproject.org/materials/mp-1202894,491.4974193684882
-6.915866035294116,-235.1394452,3.795406321837691,-2.758360105128677,0.0,5.3969000000000005,15,mp-1209756,Pr2(SO4)3,https://materialsproject.org/materials/mp-1209756,498.76736254827824
-7.342775225833334,-528.67981626,3.742632278182012,-3.3458360888544263,4.225e-06,4.9264,11,mp-1196570,Rb2LuSi4O10F,https://materialsproject.org/materials/mp-1196570,1130.9226692825998
-7.3270603065625,-468.93185962,2.7737221008825568,-1.617468556875001,2.00000495,1.0472,13,mp-1211683,LiSm(C2O5)2,https://materialsproject.org/materials/mp-1211683,874.8643989889002
-6.213355901944443,-447.36162494,3.3985359455780446,-2.348990216666667,2.00030145,0.735,61,mp-1251718,BaAl2O6,https://materialsproject.org/materials/mp-1251718,1122.955104654113
-3.829919507916667,-91.91806819,2.7807392217320586,0.2866822384100001,6.900000000000001e-06,0.004400000000000015,64,mp-1209678,SnPt(N2Cl3)2,https://materialsproject.org/materials/mp-1209678,695.7347256117208
-7.4207021865,-593.65617492,3.12433493680367,-2.8634333890357158,5e-08,5.000299999999998,53,mp-1204624,LaP5O14,https://materialsproject.org/materials/mp-1204624,1100.740445196362
-3.6851481331818183,-81.07325893,3.151148661434461,-1.1954481294854544,1.00138505,0.0,2,mp-669325,TeWCl9,https://materialsproject.org/materials/mp-669325,664.5183749643008
-6.585921685652174,-605.90479508,2.4137390061490707,-1.8595603251508692,9.699999999999999e-06,3.31,15,mp-1201323,KNdH6C4O11,https://materialsproject.org/materials/mp-1201323,1137.6655434569007
-7.923641438999999,-316.94565756,3.3979973310878475,-2.026717926874999,0.999998825,0.02760000000000007,62,mp-1201526,Ce(CO2)3,https://materialsproject.org/materials/mp-1201526,531.9681244441765
-6.6706611425,-213.46115656,3.994152777451671,-3.74480765961875,7.0,4.511900000000002,62,mp-642655,K2GdF5,https://materialsproject.org/materials/mp-642655,549.5094982737753
-6.467084400833333,-232.81503843,3.143379869412335,-2.2318453822222217,2.000000025,0.2472000000000001,33,mp-1182305,BaAl2O6,https://materialsproject.org/materials/mp-1182305,607.0541021106123
-7.367400806199999,-736.74008062,2.9951019137004815,-3.1846496327899985,0.0,4.5070000000000014,64,mp-555604,Na3Dy(Si2O5)3,https://materialsproject.org/materials/mp-555604,1419.2514216162738
-5.0637898149418605,-870.97184817,1.5361338413955066,-0.35659158114558154,0.000117675,3.1071,2,mp-1197314,Si3BiH27(C5Cl)2,https://materialsproject.org/materials/mp-1197314,2211.5427226938386
-2.589683249375,-82.86986398,3.25066952825573,-1.2422457915825005,0.9999998999999999,1.8568,55,mp-1212075,K2HgHCl4,https://materialsproject.org/materials/mp-1212075,861.4768288242252
-5.579239522592593,-602.55786844,2.055117113471844,-0.4795750941951848,8.332560825,0.0,14,mp-1182807,CeS4(N2O9)2,https://materialsproject.org/materials/mp-1182807,1979.2562031966393
-6.0730323925,-364.38194355,2.7706902941398943,-1.1464518708680005,0.000169375,1.9676,14,mp-669498,K2Pt(NO2)4,https://materialsproject.org/materials/mp-669498,1096.288274441348
-5.9026042615625,-188.88333637,3.777150204898705,-3.4508479399312497,5.9999997,0.01670000000000016,62,mp-1212263,K2EuF5,https://materialsproject.org/materials/mp-1212263,571.7841055151877
-5.53216681,-177.02933792,4.116049267574808,-3.7910589083687496,0.0,6.7518,62,mp-1212010,K2DyF5,https://materialsproject.org/materials/mp-1212010,541.7078522774873
-4.571161962083333,-219.41577418,2.7485139385948183,-0.8929927582299998,2.355e-05,1.8345,64,mp-707441,SnH12Pt(N2Cl3)2,https://materialsproject.org/materials/mp-707441,718.5068923894921
-5.299962822,-317.99776932,2.660590510619035,-0.7239536266646667,0.0001389,1.9874,62,mp-697283,H8W(S2N)2,https://materialsproject.org/materials/mp-697283,869.2226273519061
-5.95195351967742,-738.04223644,2.4386721434728766,-1.9755810544715664,0.00013625,4.3711,14,mp-706408,NdP3(H4O5)3,https://materialsproject.org/materials/mp-706408,1332.5579772098497
-5.5019204634375,-176.06145483,3.706932991682977,-3.7408561027437504,2.56e-05,6.6726,62,mp-1211860,K2NdF5,https://materialsproject.org/materials/mp-1211860,568.7784824186296
-5.769830707627119,-680.8400235,2.4963411462111877,-1.5861648880431347,8.605e-05,4.3906,15,mp-759211,La2H22S6N6O23,https://materialsproject.org/materials/mp-759211,1256.4119499812873
-6.212023054722222,-223.63282997,3.1907404963759807,-2.3476573694444443,1.99999975,0.6852,33,mp-1196014,BaAl2O6,https://materialsproject.org/materials/mp-1196014,598.0435094568174
-6.697607311527778,-482.22772643,2.9106899438289773,-1.5224803986574085,3.999948425,0.010199999999999987,14,mp-1199547,TlB5O12,https://materialsproject.org/materials/mp-1199547,1027.8778445171165
-4.5717876475,-146.29720472,2.967862811100769,-2.1672014981625,6.032629725,0.0,62,mp-617407,Na2EuCl5,https://materialsproject.org/materials/mp-617407,839.7267206419677
-5.53125701125,-177.00022436,4.076722017824046,-3.78739651086875,1.695e-05,6.7912,62,mp-1211691,K2TbF5,https://materialsproject.org/materials/mp-1211691,541.1094539789983
-5.5328156896875,-177.05010207,4.184110260280179,-3.7951305524312495,0.0,6.778499999999998,62,mp-1212022,K2HoF5,https://materialsproject.org/materials/mp-1212022,536.754204325069
-7.132112529264706,-484.98365199,2.7155243824336432,-1.5076790865147056,3.000000175,0.8697999999999999,13,mp-1211932,NaNdC4O11,https://materialsproject.org/materials/mp-1211932,957.0390784098763
-5.238005115833333,-188.56818417,2.8481417906186257,-2.0425522355702785,0.0,1.8163,19,mp-769377,SbSO4F3,https://materialsproject.org/materials/mp-769377,640.9030663167467
-5.195449585,-166.25438672,3.464567059016193,-1.6001084984105614,9.45e-06,2.8458,62,mp-17220,Rb3TaS4,https://materialsproject.org/materials/mp-17220,1084.371693092382
-7.32757508890625,-468.96480569,2.6653684289082684,-1.61493668515625,2.000000175,1.0807,13,mp-1211846,LiNd(C2O5)2,https://materialsproject.org/materials/mp-1211846,895.1835631748921
-4.0476364625,-178.09600435,2.6544209410465185,0.3489442398118188,3.0000001,0.030299999999999994,14,mp-1179942,PtN4Cl5O,https://materialsproject.org/materials/mp-1179942,1111.959835152425
-5.356519330294118,-182.12165723,3.65478313098746,-1.2672865462189409,0.0,1.8816,9,mp-1209358,Rb3Ta2AsS11,https://materialsproject.org/materials/mp-1209358,950.435142422698
-3.59321403375,-114.98284908,2.937267643286852,-1.6970322868199998,0.0,3.7417,14,mp-672273,AlBiCl6,https://materialsproject.org/materials/mp-672273,1014.617181669395
-7.523321888333332,-541.67917596,3.034342109684764,-3.1956957433161097,6.000012075,0.0,11,mp-1198799,K2EuSi4O10F,https://materialsproject.org/materials/mp-1198799,1141.549345032145
-5.9570878031578935,-452.73867304,2.6371371358503155,-1.1748591714802628,4.000000275,0.4307000000000001,14,mp-1179369,Th(SO8)2,https://materialsproject.org/materials/mp-1179369,1390.7212736597262
-4.834154577142857,-270.71265632,2.705181979824069,-2.2131306779201787,7.5e-08,4.9175,14,mp-1197346,SbH2SO3F7,https://materialsproject.org/materials/mp-1197346,827.0288444445199
-4.702316297,-188.09265188,4.345013978124582,-3.032375000499667,2.00000005,0.5108999999999999,14,mvc-10396,BaCaAgF7,https://materialsproject.org/materials/mvc-10396,639.3907321277117
-5.5149562159375,-176.47859891,3.8433413959742,-3.7599851633687496,0.0,6.7047,62,mp-17434,K2SmF5,https://materialsproject.org/materials/mp-17434,559.1645944008408
-8.121592655526316,-308.62052091,8.081012335715558,-0.02149088407894863,78.2223325,0.0,187,mp-1216207,YEr3Fe34,https://materialsproject.org/materials/mp-1216207,511.5407639996661
-7.4009775928125,-473.66256594,2.568767105971841,-1.6152624604687498,0.00108725,0.19520000000000004,13,mp-1199613,LiCe(C2O5)2,https://materialsproject.org/materials/mp-1199613,918.1791784722669
-5.115985926666666,-122.78366224,3.7168071000381278,-0.8096159906250003,0.05354255,0.0,62,mp-1214539,BaO5,https://materialsproject.org/materials/mp-1214539,388.37096100602906
-5.679208056666668,-34.07524834,7.2701706515372875,-0.2999437838888899,0.0086769,0.01729999999999876,115,mp-505804,Ti2CuSb3,https://materialsproject.org/materials/mp-505804,119.81181743487888
-7.381844968541666,-354.32855849,3.968814586999029,-2.9123528289995835,5e-08,4.8180000000000005,7,mp-1199009,Ba3B6H2O13,https://materialsproject.org/materials/mp-1199009,574.7558371199877
-6.1393121441666665,-221.01523719,2.614052411125391,0.888076954150555,2.00106715,0.5405,14,mp-1197127,PtC2(SN2)2,https://materialsproject.org/materials/mp-1197127,862.0456506512863
-5.533494651875,-177.07182886,4.312151699531632,-3.8082949539937503,0.0,6.8028,62,mp-1211536,K2TmF5,https://materialsproject.org/materials/mp-1211536,526.9836022789574
-2.7463199021428566,-76.89695726,2.7679058178555316,-1.6692109020057142,0.0,2.2969999999999997,62,mp-571661,K2HgCl4,https://materialsproject.org/materials/mp-571661,1009.3123703326776
-4.760143771696429,-533.13610243,2.007633379350807,-0.6597821609457141,1.2025e-05,3.9912,14,mp-1198262,BiH16C4N2Cl5,https://materialsproject.org/materials/mp-1198262,1582.8575929156955
-6.384920355869565,-587.41267274,2.8141371640506643,-1.528794998723912,0.0,3.679,58,mp-1211322,Li2Sm(NO3)5,https://materialsproject.org/materials/mp-1211322,1119.4024920669879
-5.022111298833334,-301.32667793,1.9358204949414155,0.5149789373306665,1.548395,0.0,14,mp-736545,HgH2C6(NCl2)2,https://materialsproject.org/materials/mp-736545,1525.1457448091055
-3.6775639155263153,-139.74742879,3.252352623953647,0.12586221605263184,15.9999997,0.0,14,mp-1197251,Mg(IO8)2,https://materialsproject.org/materials/mp-1197251,545.3904976178707
-3.08676486425,-123.47059457,3.016831716072773,-1.1557945562300005,2.000625225,0.373,14,mp-1180950,K2TlCl5O2,https://materialsproject.org/materials/mp-1180950,1082.891910843789
-8.075157908157895,-306.85600051,7.839531774917992,0.08422765657894765,9.392333500000001,0.0,194,mp-1232416,Pr2Mn12Co5,https://materialsproject.org/materials/mp-1232416,523.4983271773938
-3.4367977825,-137.47191130000002,3.1852778762650567,-1.6122326310029993,0.0,2.7153,55,mp-23926,K2HgH2Cl4O,https://materialsproject.org/materials/mp-23926,914.6272313044101
-6.836845990416666,-492.25291131,3.241582146069817,-2.494491697559523,7.25e-07,3.2667,60,mp-759360,LiBi(PO3)4,https://materialsproject.org/materials/mp-759360,1089.7024703911632
-4.5639284794999995,-182.55713918,4.602045076305654,-2.933783166499667,1.999999975,0.3674,14,mvc-10322,BaMgAgF7,https://materialsproject.org/materials/mvc-10322,580.9145488884775
-8.185056343684211,-311.03214106,7.966794774432173,0.008931616842104225,36.84716085,0.0,194,mp-1195962,Ce2Fe17,https://materialsproject.org/materials/mp-1195962,512.5759806238782
-4.793117174285714,-134.20728088,3.0385830502232736,-1.0913898182914292,1.000000025,0.9473,33,mp-1193507,Re(Cl2O)2,https://materialsproject.org/materials/mp-1193507,786.9768271773702
-6.495112206071428,-181.86314177,3.0562149055038383,-0.24623830436534486,5e-08,2.5701,18,mp-647987,RbBiC4(SN)4,https://materialsproject.org/materials/mp-647987,572.4303619683483
-4.436352672916667,-106.47246415,3.1604175847821967,-1.026601002381667,0.0,1.0149,14,mp-556006,OsCl4O,https://materialsproject.org/materials/mp-556006,731.4683161099864
-4.908286215625,-314.13031780000006,2.672937098002764,-0.4827627220308033,0.0021343000000000004,2.3741000000000003,14,mp-1200217,PH9PtC3Cl2,https://materialsproject.org/materials/mp-1200217,850.0254538929122
-6.783254983333332,-203.49764950000002,5.690741485802209,-2.782348690916666,0.0,2.6984,55,mp-771697,La2Ga4O9,https://materialsproject.org/materials/mp-771697,408.9223252558066
-4.5814587209375,-146.60667907,4.334702514057496,-3.2249265743062505,1.00009675,0.00439999999999996,62,mp-1211487,K2YbF5,https://materialsproject.org/materials/mp-1211487,530.5334165550468
-6.8300328555555545,-245.88118280000003,4.171054456110406,-4.2513970773144445,0.0,6.0508000000000015,14,mp-18506,SmZrF7,https://materialsproject.org/materials/mp-18506,596.4849430407172
-4.9881524325,-99.76304865,3.2297282747869693,-1.6393418404375004,1.0,0.2025999999999999,12,mp-1232288,PmMgS3,https://materialsproject.org/materials/mp-1232288,546.0188320629909
-5.670165197894738,-215.46627752,2.9672155553697217,-0.8712810530131591,3.9999997000000005,0.11530000000000018,2,mp-1181389,K2W2O15,https://materialsproject.org/materials/mp-1181389,767.6624126683597
-4.9843707325,-99.68741465,3.3160616125837308,-1.6415827974375006,1.0,0.20730000000000004,12,mp-1232244,SmMgS3,https://materialsproject.org/materials/mp-1232244,542.5395024840398
-5.9017629735,-118.03525947,4.183767771625446,-3.518525671901965,1.4999999999999999e-05,5.5407,59,mp-1219778,Rb2TaF7,https://materialsproject.org/materials/mp-1219778,384.89200715702003
-7.3529967465625,-470.59179178,2.5413984704265045,-1.6302648453124997,2.000006325,0.9939,13,mp-1211610,LiLa(C2O5)2,https://materialsproject.org/materials/mp-1211610,924.9033432199113
-8.0267980995,-160.53596199,4.79476916274759,-2.180516333937501,6.996003999999999,0.0,62,mp-1189927,EuZrS3,https://materialsproject.org/materials/mp-1189927,470.14461124912935
-6.780945725555557,-244.11404612,3.3804857662767787,-1.5642672810966662,3.5e-07,2.6987,19,mp-1219550,SbHC2O5,https://materialsproject.org/materials/mp-1219550,445.6017239480726
-4.352803518571428,-121.87849852,3.512703098340269,-2.698008186492857,3e-06,5.2511,62,mp-29355,NaTeF5,https://materialsproject.org/materials/mp-29355,464.36961001687774
-3.781657954444445,-136.13968636,2.420805644013824,-0.7102924123738895,0.00026260000000000004,2.119,2,mp-669465,Te2S4(NCl3)3,https://materialsproject.org/materials/mp-669465,1021.4501400527331
-5.2605998071875,-168.33919383,5.761360509923345,-1.3051846312500004,0.0,0.8336999999999999,33,mp-1178977,TeO3,https://materialsproject.org/materials/mp-1178977,404.8872358554872
-6.486427794411764,-220.53854501,4.746417127332247,-2.02819864882353,42.0000018,1.9535,12,mp-1228526,Ba3Fe10SnO20,https://materialsproject.org/materials/mp-1228526,492.9852674392574
-5.3306397025,-106.61279405,3.4629550612898425,-1.7442569429375,5.2e-06,0.3120000000000003,12,mp-1232197,CeMgS3,https://materialsproject.org/materials/mp-1232197,499.8771682442211
-5.260013280833333,-63.12015937,6.306301491792102,-1.3949314433333342,0.0,2.3232,62,mp-1102087,TeO2,https://materialsproject.org/materials/mp-1102087,168.09855252374845
-3.2038435358333337,-38.44612243,4.445907353243653,-0.9430743152533336,0.0,2.5129,62,mp-571146,SnICl,https://materialsproject.org/materials/mp-571146,419.91293990282156
-8.285213579545454,-364.5493975,2.627036917212167,-1.0394589372727268,6.25e-07,2.9931,15,mp-540820,Re(CO)5,https://materialsproject.org/materials/mp-540820,824.9040008432369
-4.67520934325,-187.00837373,2.8175046983799588,-1.5301631337060002,0.0,1.9694,14,mp-561379,GaRe(Cl3O)2,https://materialsproject.org/materials/mp-561379,1180.2550776637033
-4.336900202142857,-121.43320566,2.7967065041277452,-1.1404542401471431,5.000120775,0.3864,62,mp-1192979,Ce(ClO)3,https://materialsproject.org/materials/mp-1192979,699.3715559527195
-6.815743108194443,-490.73350379,3.0758349765132915,-2.4606609661706345,0.0,3.9234,14,mp-762336,LiSb(PO3)4,https://materialsproject.org/materials/mp-762336,960.0737939322091
-4.871173088125,-233.81630823,2.295167882951976,-1.0527842022400005,0.0,2.1439,176,mp-557961,SbCNCl4O,https://materialsproject.org/materials/mp-557961,1326.5490590625427
-4.168622861944445,-150.07042303,2.451500790701704,-0.8217464406631945,0.0,1.9165,9,mp-652663,K2PtS15,https://materialsproject.org/materials/mp-652663,1021.7992787839349
-4.9257811375000005,-98.51562275,3.292510059935449,-1.569526732937501,0.000554025,0.0,12,mp-1237949,PrMgS3,https://materialsproject.org/materials/mp-1237949,527.3515953213715
-4.351035782083334,-104.42485877,4.1724357936727055,-0.7402930043533331,0.0,1.5373,14,mp-676362,HIO4,https://materialsproject.org/materials/mp-676362,305.5041031476568
-6.2797884744642865,-351.66815457,2.6603548435145083,-1.61763274073398,3.00028615,0.7130000000000001,14,mp-696087,LaP2H2O9,https://materialsproject.org/materials/mp-696087,866.0203228620676
-4.379111739642857,-122.61512871,3.258348895964768,-2.7568974366357137,0.0,5.2124,57,mp-4648,KTeF5,https://materialsproject.org/materials/mp-4648,533.4566677572091
-6.3688641454166675,-458.55821847,2.7895462247385945,-0.9118934170633332,4.000000275,1.2964,14,mp-1202518,ThN3O14,https://materialsproject.org/materials/mp-1202518,1185.900506696397
-5.3559893022916665,-257.08748651,2.9810349129382883,-1.5644097603537503,0.0,2.7666,14,mp-765597,HS2IO8,https://materialsproject.org/materials/mp-765597,713.0878519627665
-4.0107505825,-64.17200932,3.157329844912686,-1.8460728813175,1.999999875,1.0505,62,mp-1189047,BaCl2O,https://materialsproject.org/materials/mp-1189047,471.7234784105276