energy_per_atom,energy,density,formation_energy_per_atom,total_magnetization,band_gap,sgr,mp_id,formula,URL,cell_volume
-2.320931475,-9.2837259,0.8558606302437789,1.1923303079166665,2.0,0.0,71,mp-1096078,InBiPb2,https://materialsproject.org/materials/mp-1096078,1432.2510221277305
-2.837960933333333,-17.027765600000002,4.524724028504688,-0.4887889583333329,5e-08,1.2275999999999998,136,mp-978846,SnI2,https://materialsproject.org/materials/mp-978846,273.42319182893624
-7.641567658571428,-106.98194722,5.872748045955054,-3.6383658957142853,0.0,3.5992,227,mp-754942,SrSm2O4,https://materialsproject.org/materials/mp-754942,255.79992132550362
-6.232813736500001,-249.31254946,7.423096402232778,-0.4448362233333335,1.1125e-06,0.0,63,mp-1201689,LaNi3B,https://materialsproject.org/materials/mp-1201689,583.0430433038924
-6.2521577540625,-200.06904813,4.456329076709476,-2.2782065114062497,0.0,1.8558,4,mvc-5477,CaSnAsO5,https://materialsproject.org/materials/mvc-5477,467.5795233598945
-7.197980664166668,-172.75153594,4.8705933840027225,-2.5557042917708324,0.9999998999999999,0.02129999999999921,81,mp-1238771,Li2CeSm(MoO4)4,https://materialsproject.org/materials/mp-1238771,321.87635727118607
-8.173720655,-32.69488262,4.712229075974274,0.04482648874999917,22.0323174,0.0,139,mp-1183620,CaEu3,https://materialsproject.org/materials/mp-1183620,174.7745142246765
-5.346869819999998,-128.32487568,5.314739300214051,-1.6382031810416666,1e-07,0.0,5,mp-756817,Li5Cu5(SbO6)2,https://materialsproject.org/materials/mp-756817,246.18669128877409
-3.3226318125,-39.87158175,3.4125311478265385,-0.6513028008333333,2.5e-08,0.06010000000000025,62,mp-22735,Ca2Sn,https://materialsproject.org/materials/mp-22735,387.0731048875109
-3.421772175,-13.687088699999999,4.8221643431979695,0.4435724967499999,0.0646482,0.0,221,mp-974827,KPr3,https://materialsproject.org/materials/mp-974827,159.03070914792266
-4.690255345,-18.76102138,7.5889887022954365,-1.0964844472135415,9.000000000000001e-07,0.0,123,mp-1225486,ErAgSe2,https://materialsproject.org/materials/mp-1225486,94.75462541473867
-5.162967016666667,-61.9556042,6.600264893645713,-0.5846489049999999,2.5e-08,0.0,62,mp-16646,PrMgRh,https://materialsproject.org/materials/mp-16646,269.8198709183349
-3.3087995275,-13.23519811,5.60697914439367,-0.2157364325000004,0.09197739999999999,0.0,225,mp-1185062,La2MgCd,https://materialsproject.org/materials/mp-1185062,122.76453135910016
-3.2718077046875,-104.69784655,3.288000560921418,-1.7478832724749995,0.9346677999999999,0.0,62,mp-1211842,K2PbCl5,https://materialsproject.org/materials/mp-1211842,934.6320170864777
-6.2550170225,-25.02006809,1.2071323375078848,4.886899915833333,4.0,0.06119999999999993,71,mp-1095927,Ta2TiW,https://materialsproject.org/materials/mp-1095927,816.5637905672554
-8.182515837999999,-163.65031676,4.755151805730003,-3.0358766852040238,0.0,3.4027,31,mp-9309,CsTa(BO3)2,https://materialsproject.org/materials/mp-9309,301.3471219206938
-4.63155816,-27.78934896,6.575262346804687,-1.6250726739599999,2e-07,0.0,166,mp-23896,LuHCl,https://materialsproject.org/materials/mp-23896,106.78945721075007
-4.80321672,-19.21286688,5.782376220185486,-0.9079947241666666,4e-07,1.1243,156,mp-1215907,YAgTe2,https://materialsproject.org/materials/mp-1215907,129.79448699168813
-6.7024713349999985,-40.21482801,6.582408999947808,-0.5510724055555549,1.14663335,0.0,139,mp-1077736,CeTiGe,https://materialsproject.org/materials/mp-1077736,131.49431043417428
-6.34178806625,-253.67152265,4.724748072643453,-2.5379286475,0.0,2.5256,60,mp-776023,CdSiO3,https://materialsproject.org/materials/mp-776023,529.9801020001742
-3.9284459825,-15.71378393,5.321023041417327,-0.22859594166666675,0.0,0.32410000000000005,186,mp-1007652,InAs,https://materialsproject.org/materials/mp-1007652,118.42460022502019
-6.7269965725,-26.90798629,1.1676766752856491,4.730450842500002,1.4775453,0.0,71,mp-1096627,Ta2MnW,https://materialsproject.org/materials/mp-1096627,854.2110368555939
-5.0064530125,-20.02581205,0.990100699023392,2.318844816666667,0.0,0.20029999999999992,71,mp-1093812,TaInRh2,https://materialsproject.org/materials/mp-1093812,841.2154355844135
-5.67158886,-28.357944300000003,7.761042749325008,-0.36998672200000016,6.8793044000000005,0.0,12,mp-1069357,Eu(CuSn)2,https://materialsproject.org/materials/mp-1069357,110.50429548241173
-2.4453808475,-9.78152339,0.8844490246343362,2.9258623762500005,4.0,0.0,71,mp-1097324,Hf2ZnHg,https://materialsproject.org/materials/mp-1097324,1169.6332086836237
-5.89094274875,-188.51016796,4.209103015340485,-2.751912699218749,1.2784572,0.0,123,mp-1035862,YMg14BiO16,https://materialsproject.org/materials/mp-1035862,352.7510289956895
-7.397926223157893,-562.24239296,2.9365066816258665,-2.989839022909775,0.0,3.051,1,mp-1225084,K2Sc2Mo(PO6)2,https://materialsproject.org/materials/mp-1225084,1171.651396152771
-5.1174943725,-20.46997749,5.75855773581424,0.05340098249999947,0.0086498,0.0,139,mp-1186728,Pr3Sc,https://materialsproject.org/materials/mp-1186728,134.85998476734275
-8.1933963012,-409.66981506,4.513558781837036,-3.126291353983333,0.0,4.386499999999999,13,mp-1019892,La2B8O15,https://materialsproject.org/materials/mp-1019892,444.6367424690327
-4.677850855,-28.06710513,6.090898149081079,-1.6575179106266669,2.3e-06,0.0,166,mp-24051,ErHCl,https://materialsproject.org/materials/mp-24051,111.0788278892806
-6.4703809625,-25.88152385,1.0949686168669657,3.907509558125,1.8165714,0.0,71,mp-1096065,Hf2MnRe,https://materialsproject.org/materials/mp-1096065,907.0670818549382
-2.7977648616666664,-16.78658917,3.77575620233,-1.0056959585689655,0.0,1.972,129,mp-5339,CsNaTe,https://materialsproject.org/materials/mp-5339,249.35660948253192
-5.600485824642856,-156.81360309,5.255972015410012,-1.7885560317857143,5.7158168,0.0,8,mp-774248,Li4Ni3Sb5O16,https://materialsproject.org/materials/mp-774248,337.6177551159121
-4.09374397,-20.46871985,4.996837187041686,1.0761805680240002,0.0008247999999999999,0.0,221,mp-10674,Sm3AlN,https://materialsproject.org/materials/mp-10674,163.5231427308296
-3.319500355,-13.27800142,6.954882078596157,-0.03550513833333335,2e-07,0.0,123,mp-1223863,InCuTe2,https://materialsproject.org/materials/mp-1223863,103.51720420310586
-4.128176057999998,-20.64088029,4.626233909049487,1.0709963590240008,0.0011425,0.0,221,mp-21910,Nd3AlN,https://materialsproject.org/materials/mp-21910,170.03484961286688
-5.1312778425,-20.52511137,8.374542743046304,-0.3670726758149998,0.28323190000000004,0.0,221,mp-1183784,Ce3Cl,https://materialsproject.org/materials/mp-1183784,90.37811116308431
-4.687698748333333,-56.25238498,6.556297648200997,-1.0556046702083333,3e-07,0.0,59,mp-754978,CdCu2O3,https://materialsproject.org/materials/mp-754978,145.63309729473465
-7.234503619999999,-159.15907964,3.041451979386568,-1.0952356228654545,0.0,2.8242000000000003,15,mp-638236,OsC4(ClO2)2,https://materialsproject.org/materials/mp-638236,407.4856254226564
-5.260265143294117,-894.24507436,1.2464452132101271,-0.3715751123204701,2.00139935,0.3046000000000001,15,mp-1196240,USi8H56(C4N)4,https://materialsproject.org/materials/mp-1196240,2044.5725729958122
-2.8166389460000003,-14.08319473,4.234148355256064,-0.7773476670689657,0.0,0.9996999999999998,221,mp-571458,RbGeI3,https://materialsproject.org/materials/mp-571458,211.31372349633423
-5.86149182,-23.44596728,0.8765393230926236,2.8769207299999997,0.5557679,0.0,71,mp-1097207,YHfRu2,https://materialsproject.org/materials/mp-1097207,889.501005903183
-5.9855558292857145,-167.59556322,5.217499233762308,-1.9557036928571432,7.980659599999999,0.0,8,mp-851349,Li4Fe3Sn2Sb3O16,https://materialsproject.org/materials/mp-851349,335.4462488697144
-6.379223175,-25.5168927,1.0355758534804622,4.3779299256250015,0.0001714,0.4697,71,mp-1093781,Nb2ReTc,https://materialsproject.org/materials/mp-1093781,753.6735801904783
-7.793840412083332,-561.15650967,3.4500091001398747,-2.917286536420635,6.99999985,3.3308,14,mp-561131,NaGd(PO3)4,https://materialsproject.org/materials/mp-561131,955.1734542175177
-1.5241905025,-6.09676201,0.8871557813283859,1.0629061675000002,1.99e-05,0.4448000000000003,71,mp-1093955,YHg2Au,https://materialsproject.org/materials/mp-1093955,1285.9943972496471
-6.2849340225,-25.13973609,1.0151064202285212,4.22446586375,0.1041119,0.0,71,mp-1097555,Ta2CoOs,https://materialsproject.org/materials/mp-1097555,999.5870682117015
-4.908838794333334,-294.53032766,2.8657529459800224,-1.4926004564628896,2.45e-06,3.9317,19,mp-706283,InH7N2OF4,https://materialsproject.org/materials/mp-706283,560.6221870629022
-5.92128306,-165.79592568,5.1172083203772525,-1.9659956005357153,13.999999599999999,1.3115999999999994,8,mp-755218,Li4Fe3Sn3(TeO8)2,https://materialsproject.org/materials/mp-755218,344.82102112881944
-3.207954064,-16.03977032,2.5871515526018096,-1.660702981238,0.0012495999999999998,0.0,123,mp-1207044,Yb2Br2F,https://materialsproject.org/materials/mp-1207044,336.89343138875967
-3.65315537,-29.22524296,4.6933202489883,-0.34756213,0.94112745,0.0,194,mp-1079867,Li2PrGe,https://materialsproject.org/materials/mp-1079867,160.93332338015668
-7.195325047916668,-172.68780115,4.748842120513523,-2.5502431610416667,0.9999998,0.0,81,mp-1222777,Li2CePr(MoO4)4,https://materialsproject.org/materials/mp-1222777,326.8234278189396
-3.030452112,-15.15226056,3.815434326678545,-0.3108027599999996,0.0,0.0,221,mp-1013705,Sr3BiAs,https://materialsproject.org/materials/mp-1013705,237.9597101803224
-8.224402430789473,-312.52729237,7.549119434190281,-0.0023586323684218033,38.38532825,0.0,194,mp-1226946,CeYFe17,https://materialsproject.org/materials/mp-1226946,518.4067852431601
-6.889377035,-27.55750814,8.373508432273395,-0.7526123087499998,3e-07,0.0,63,mp-1002107,LaRh,https://materialsproject.org/materials/mp-1002107,95.90640750719402
-5.2731175399999985,-26.3655877,6.040790274940679,-0.3909050952413793,5.9499999999999996e-05,0.0,139,mp-1206830,Cs(CoAs)2,https://materialsproject.org/materials/mp-1206830,110.12415376276547
-5.34725039375,-128.33400945,3.7869035025961613,0.17787774166666756,9.075e-06,0.9666,62,mp-1191774,BaSiC,https://materialsproject.org/materials/mp-1191774,622.3937842614656
-5.1688333125,-20.67533325,7.168427714662781,-0.2526572268750007,0.0160878,0.0,221,mp-867165,Pm3Si,https://materialsproject.org/materials/mp-867165,107.27199634516982
-5.45157306625,-130.83775359,4.22824716295506,-1.9348835998437497,0.0,2.5859,113,mp-18129,La2ZnGa2S6O,https://materialsproject.org/materials/mp-18129,542.7896367668751
-6.661982712142858,-186.53551594,4.861032926631432,-2.1961490239285726,12.9851969,0.0,1,mp-1177322,Li4Nb2Fe3Sb3O16,https://materialsproject.org/materials/mp-1177322,342.41584757850586
-6.558127765,-26.23251106,1.274385806999508,4.750366440624999,2.0000006,0.1503000000000001,71,mp-1096724,Ta2VRe,https://materialsproject.org/materials/mp-1096724,780.5614084481829
-3.929518399375,-125.74458878,3.0859865386393794,-2.211097206577083,0.0,0.7961999999999998,14,mp-758554,Li2AgF5,https://materialsproject.org/materials/mp-758554,466.5074286977252
-7.282106465,-524.31166548,3.3742303355070344,-2.925944780587302,0.00021155,5.6209,14,mp-1200123,NaSm(PO3)4,https://materialsproject.org/materials/mp-1200123,963.0618927002705
-3.4484879958333337,-41.38185595,5.6849921550445055,-0.6307334724999999,2.575e-06,0.0,62,mp-1213948,CaZnPd,https://materialsproject.org/materials/mp-1213948,247.5851060142934
-4.6489618525,-18.59584741,6.965925676058732,-0.17467422687500012,1.42e-05,0.0,221,mp-11222,Sm3Al,https://materialsproject.org/materials/mp-11222,113.96042468499542
-3.1976779100000003,-15.98838955,5.772362804457308,-0.6358367979999999,0.0,0.13670000000000027,164,mp-7771,Sr(CdAs)2,https://materialsproject.org/materials/mp-7771,132.98585834234967
-6.6523068625,-26.60922745,1.2858292540526568,4.912752336458333,1.2865381,0.0,71,mp-1095756,TiReW2,https://materialsproject.org/materials/mp-1095756,777.1140735263124
-3.65012485125,-29.20099881,4.902122031677287,-0.3491780818749999,0.91644315,0.0,194,mp-1025473,Li2NdGe,https://materialsproject.org/materials/mp-1025473,156.33745082247518
-3.934722255,-23.60833353,6.793353499438879,-0.5410077216666664,1.6e-06,0.0,139,mp-862993,ErMgSn,https://materialsproject.org/materials/mp-862993,151.68416898650028
-3.52981787,-14.11927148,1.3457016347001358,2.1097571225,1e-07,0.407,71,mp-1093729,HfPtAu2,https://materialsproject.org/materials/mp-1093729,947.0714259863853
-5.399750100357144,-151.19300281,5.165230629827139,-1.572501454285714,5.8587352,0.0,8,mp-774887,Li4Cu3Ni2Sb3O16,https://materialsproject.org/materials/mp-774887,307.679226560374
-6.157557505,-24.63023002,1.155464428002274,4.200322035625,3.0014258999999996,0.0,71,mp-1097571,Hf2VRe,https://materialsproject.org/materials/mp-1097571,853.8329221717055
-4.581388343,-183.25553372,4.284704782356182,-2.9255981497996664,0.0,3.9022,11,mp-27599,KIn2F7,https://materialsproject.org/materials/mp-27599,622.7518224945889
-6.383781787999999,-31.91890894,6.954648221831554,-0.5945563600000007,0.1421689,0.0,119,mp-1227957,BaFeAs2Ru,https://materialsproject.org/materials/mp-1227957,106.03279823289222
-6.2860930971739135,-289.16028247,2.8377033567223324,-1.4726532404500006,0.0,4.1099999999999985,15,mp-698494,K2BiH5(CO2)5,https://materialsproject.org/materials/mp-698494,599.5233440304958
-3.66402076,-14.65608304,0.923498356688253,2.044481271250001,2.9125080000000003,0.0,71,mp-1096123,HfScAu2,https://materialsproject.org/materials/mp-1096123,1110.1070268056626
-6.6097804910714295,-185.07385375,4.852195895823537,-2.143946802857144,11.0,0.5995999999999997,8,mp-765650,Li4Nb2Fe3Sb3O16,https://materialsproject.org/materials/mp-765650,343.03947025556363
-3.3676827275,-13.47073091,5.303638152463295,-0.4166992654817712,0.0,0.0,160,mp-1226742,CdInAsSe,https://materialsproject.org/materials/mp-1226742,119.32356840066375
-5.29213317,-21.16853268,6.365740286970867,0.2699097595833333,0.065861,0.0,221,mp-1186733,Pr3Ti,https://materialsproject.org/materials/mp-1186733,122.75602657024078
-5.38946968,-129.34727232,4.33882697549613,-1.9547179935416672,0.0,0.5726999999999998,15,mp-1211177,Li4CuSbO6,https://materialsproject.org/materials/mp-1211177,236.5693889388485
-5.7395463525,-22.95818541,1.1637716582432227,3.4278061133333337,1.0,0.0,71,mp-1093574,Hf2TiIr,https://materialsproject.org/materials/mp-1093574,851.9266424439355
-5.2325418475,-20.93016739,5.696314977067634,0.0455360656249999,4.6399999999999996e-05,0.0,139,mp-1185096,La3Sc,https://materialsproject.org/materials/mp-1185096,134.58260602771236
-5.420267362083332,-520.34566676,2.6320660786135153,-1.7775213072257638,0.0,3.9147,4,mp-1213578,KInH8(SO6)2,https://materialsproject.org/materials/mp-1213578,1055.1037891905908
-8.197440927666667,-245.92322783,5.033915542836867,-2.6444523346426667,0.5149007000000001,0.016300000000000203,193,mp-651175,CeSiNO2,https://materialsproject.org/materials/mp-651175,423.96311552834527
-4.1376446620000005,-20.68822331,4.414446585378667,1.072679284524,0.0021337,0.03679999999999994,221,mp-20684,Pr3AlN,https://materialsproject.org/materials/mp-20684,174.42968604615066
-6.385794400000001,-38.314766399999996,4.888835398197616,-1.1254344354166672,5.489999999999999e-05,0.0,12,mp-1206284,LaCBr,https://materialsproject.org/materials/mp-1206284,156.80049430412166
-5.55927788,-27.796389399999995,4.830907328959751,-1.855076485428571,5.5700000000000005e-05,0.0,164,mp-570988,La2PBr2,https://materialsproject.org/materials/mp-570988,161.07046203629815
-0.782430265,-3.12972106,0.8220126214856953,0.76498953375,0.9999998999999999,0.04919999999999991,71,mp-1096378,SrHg2Bi,https://materialsproject.org/materials/mp-1096378,1409.5788376735763
-8.067731482857143,-56.47412038,5.695931169437365,-0.5572797057142854,21.70261,0.0,44,mp-1225258,Eu3Si4,https://materialsproject.org/materials/mp-1225258,165.65767962897706
-4.046189466666667,-24.2771368,5.61122325700351,-0.6530941000000006,2e-07,0.0,12,mp-1182123,BaSb2,https://materialsproject.org/materials/mp-1182123,225.4094277847709
-3.5745067025,-14.29802681,7.754714425550066,0.04634699750000015,0.0,0.0,59,mp-623012,CuTe,https://materialsproject.org/materials/mp-623012,81.86127249097902
-7.139251886136364,-314.12708299,4.394702668312686,-2.5100615402759754,3.000000025,3.8285,14,mp-758416,LiP2WO7,https://materialsproject.org/materials/mp-758416,551.2445546830495
-4.89363803,-24.46819015,7.697016322143242,-0.7865240300000004,0.0,0.0,139,mp-6963,Ba(SbPd)2,https://materialsproject.org/materials/mp-6963,128.08085624092473
-4.480718750357143,-125.46012501,2.3904715236638587,-1.3561957248214287,2.5e-08,0.7773000000000001,55,mp-866470,Ca2SnS4,https://materialsproject.org/materials/mp-866470,908.9512066915948
-7.586288517857143,-106.20803925,5.528977590775856,-3.5691591935714286,0.0,3.6062,227,mp-753418,SrNd2O4,https://materialsproject.org/materials/mp-753418,264.35480208336793
-6.676272987999999,-33.38136494,5.662314684345268,-0.6268695900985222,1e-07,0.0,139,mp-1207015,Cs(PRu)2,https://materialsproject.org/materials/mp-1207015,116.42276557152435
-6.488033177380951,-272.49739345,3.9015821366165873,-2.4547724334013608,0.0,2.5567,159,mp-26725,LiSnPO4,https://materialsproject.org/materials/mp-26725,563.3899772501665
-6.006153353695653,-276.28305427,2.576894145087194,-0.5933355564782603,2.00029615,0.017100000000000004,64,mp-1180513,Na2Pt(CO4)4,https://materialsproject.org/materials/mp-1180513,702.5157914858203
-7.029701866428572,-196.83165226,4.837251495910198,-2.388837521352858,14.9999986,0.9693000000000004,8,mp-758581,Li4Mn3Nb2Sn3O16,https://materialsproject.org/materials/mp-758581,340.0242216678393
-6.160865925,-24.643463699999998,0.9525140898468596,4.322391065625001,0.9118405999999999,0.0,71,mp-1097051,Ta2ReNi,https://materialsproject.org/materials/mp-1097051,1057.841268431089
-2.7731480509375,-88.74073763,3.4417383678859705,-1.3023757769112505,1.99999975,0.8858,55,mp-1180943,K2HgCl4O,https://materialsproject.org/materials/mp-1180943,842.5835392377388
-5.6395575566666665,-33.83734534,9.439955957931863,-0.007008134999999528,0.03926325,0.0,194,mp-20237,CoNiSn,https://materialsproject.org/materials/mp-20237,83.14575710460139
-4.30377205,-17.215088199999997,0.8324903526272767,1.9885195149999992,1.0,0.0,71,mp-1096070,La2CuOs,https://materialsproject.org/materials/mp-1096070,1060.337653449481
-5.89448771,-23.57795084,0.957855867000696,3.1848492074999992,0.0005274,0.2408999999999999,71,mp-1097312,Zr2TcIr,https://materialsproject.org/materials/mp-1097312,819.4120977713126
-2.828447295,-11.31378918,5.301027404742621,-0.6263304117968751,1.95e-06,0.5652,186,mp-1070,CdSe,https://materialsproject.org/materials/mp-1070,119.89336872302735
-9.7564992,-48.782496,5.167941614553113,1.0336610035240001,21.9485247,0.0,221,mp-1069273,Gd3AlN,https://materialsproject.org/materials/mp-1069273,164.7506736721831
-2.9645658175,-11.85826327,5.687300879065026,-0.15539006249999998,0.0,1.6333999999999995,164,mp-570081,CuI,https://materialsproject.org/materials/mp-570081,111.21283974458525
-5.73702889,-28.68514445,7.558736017878138,-1.81636476515625,7e-07,0.3376000000000001,115,mp-1225508,Er2Se3,https://materialsproject.org/materials/mp-1225508,125.5274273547486
-6.48039665,-25.9215866,1.1314190619633229,3.5907023012500003,2.3763153999999997,0.0,71,mp-1093615,Hf2MnOs,https://materialsproject.org/materials/mp-1093615,883.7488868599157
-5.478246032,-27.39123016,7.461404494396695,-0.22512408543749984,5.828755999999999,0.0,139,mp-3021,Tl(FeSe)2,https://materialsproject.org/materials/mp-3021,105.48742933579194
-7.1158932560000006,-35.57946628,7.736903473182862,-0.8163833580000002,6.969018400000001,0.0,139,mp-20115,Eu(SiPd)2,https://materialsproject.org/materials/mp-20115,90.3520930288176
-6.526590122857143,-182.74452344,5.043950548448273,-2.113346062857143,8.105167999999999,0.0,1,mp-774912,Li4Nb2Co3Sb3O16,https://materialsproject.org/materials/mp-774912,333.04825228277156
-6.3374517675,-25.34980707,1.1130142809440264,4.6755229414583335,1.0040943000000002,0.031099999999999905,71,mp-1093941,Ta2TiRe,https://materialsproject.org/materials/mp-1093941,889.1449733242002