energy_per_atom,energy,density,formation_energy_per_atom,total_magnetization,band_gap,sgr,mp_id,formula,URL,cell_volume
-3.839728445555556,-34.55755601,2.814769736769327,-0.3834039168577779,0.0,1.9201,225,mp-23804,Mg2FeH6,https://materialsproject.org/materials/mp-23804,65.18968331444124
-2.7841469575,-11.13658783,2.4015518512816065,0.09139665000000008,3e-07,0.0,139,mp-1185204,Li3Ni,https://materialsproject.org/materials/mp-1185204,54.98115164567102
-4.815926251666666,-28.89555751,3.498324750067656,-0.17836717166666638,1.9999962,0.0,216,mp-1221618,MnBe4Al,https://materialsproject.org/materials/mp-1221618,55.995655317847884
-4.01598988,-8.03197976,2.6251169065915088,-0.2341344770312501,2.9199999999999998e-05,0.0,156,mp-1096941,CuS,https://materialsproject.org/materials/mp-1096941,60.479515314075606
-9.36914719,-18.73829438,4.879910347166045,-0.8078467227083337,0.0,0.0,225,mp-631,TiC,https://materialsproject.org/materials/mp-631,20.375222371277875
-0.6116438875,-2.44657555,0.14235960982924226,0.5589879691982756,1e-07,0.2791999999999999,71,mp-1093922,CsKNa2,https://materialsproject.org/materials/mp-1093922,2542.6436916388407
-8.221114246666668,-24.66334274,5.10856817911138,-0.7423614044444449,0.0,0.0,191,mp-1491,VB2,https://materialsproject.org/materials/mp-1491,23.586750808521
-4.685472101111111,-42.16924891,2.6374821232825716,-1.5352310382622223,0.9999998,0.6739,12,mp-23795,CuH4(OF)2,https://materialsproject.org/materials/mp-23795,86.61516366492133
-6.242400096,-31.21200048,4.052953607929957,-1.890004167442,3.0000007,0.0,221,mp-976446,MgMnO3,https://materialsproject.org/materials/mp-976446,52.132117773887
-6.222666447999999,-31.11333224,4.060987451947498,-1.4415168754419994,3.4813395,0.0,221,mvc-15603,MnAlO3,https://materialsproject.org/materials/mvc-15603,53.12342237221489
-3.867445136666667,-23.20467082,3.665721174911696,-0.07321222166666708,1.0199999999999999e-05,0.0,216,mp-1227275,Be4AlCu,https://materialsproject.org/materials/mp-1227275,57.337921297795155
-6.087082275,-12.17416455,3.8728375126456034,-0.2644670083333338,1e-05,0.0,221,mp-1061123,TiAl,https://materialsproject.org/materials/mp-1061123,32.09246967537839
-2.8730546375,-11.49221855,2.3514186563366573,0.33542343500000005,1.164747,0.0,139,mp-976017,Li3Co,https://materialsproject.org/materials/mp-976017,56.32271187542679
-2.169483608333333,-13.01690165,2.4986973859285437,-0.05789751749999982,8e-07,0.0,8,mp-973307,Mg5As,https://materialsproject.org/materials/mp-973307,130.55092241753863
-5.29001104,-31.74006624,3.989530110219746,-0.497810814635556,1.445e-05,0.0,129,mp-1077482,TiH2,https://materialsproject.org/materials/mp-1077482,41.524925181262866
-8.129863974,-40.64931987,3.474997048302175,-0.5709544008333325,2e-07,0.0,139,mp-10343,Sc2BC2,https://materialsproject.org/materials/mp-10343,59.60944745772125
-4.6761226780000005,-46.76122678,2.9727221368902814,-2.9483339377139997,0.0,5.7707,225,mp-1111076,Li3GaF6,https://materialsproject.org/materials/mp-1111076,114.25242371919038
-1.1299183175,-4.51967327,0.2456722157999137,0.9323201408333333,1.0,0.4607000000000001,71,mp-1096346,Li2MgAg,https://materialsproject.org/materials/mp-1096346,987.2111944174242
-9.322629955,-18.64525991,6.102431236181814,-0.5280419311899998,2.4982127,0.0,225,mp-2132,CrN,https://materialsproject.org/materials/mp-2132,17.96009195474146
-6.1873378825,-24.74935153,3.612648504216645,-1.9269469291149992,4.0000003,1.9061,12,mp-1002570,KMnO2,https://materialsproject.org/materials/mp-1002570,57.931536500239105
-4.22496482,-16.89985928,4.028323509670431,-0.8735927230000007,2.1251868,0.0,123,mp-1147543,NaNiO2,https://materialsproject.org/materials/mp-1147543,46.86151638028814
-5.4922831766666675,-16.47684953,4.697637115805363,-0.3060569557466663,3.2e-06,0.0,225,mp-24728,VH2,https://materialsproject.org/materials/mp-24728,18.71958066966165
-6.67113168,-13.34226336,5.3100619592363225,-0.21745546000000004,1.8823391,0.0,221,mp-12067,MnAl,https://materialsproject.org/materials/mp-12067,25.61752908960544
-2.812462925,-11.249851699999999,3.1766493712348485,0.16828688000000014,0.3303041,0.0,225,mp-978276,Mg3Co,https://materialsproject.org/materials/mp-978276,68.92138526006892
-4.7312398475,-18.92495939,4.328150704574424,0.10773861353500004,2.3866222,0.0,221,mp-1183679,CrH3,https://materialsproject.org/materials/mp-1183679,21.108951922842135
-7.580258969000001,-75.80258969,4.279691634828864,-0.3100969223333337,1.1e-06,0.0,58,mp-1078278,CrB4,https://materialsproject.org/materials/mp-1078278,73.90714926115375
-2.4429220325,-9.77168813,2.3194214381048424,0.012880522500000158,2e-07,0.0,139,mp-975882,Li3Cu,https://materialsproject.org/materials/mp-975882,60.402139932030444
-6.225296765,-12.45059353,3.8339009637293295,-0.40268149833333394,0.0,0.0,123,mp-1953,TiAl,https://materialsproject.org/materials/mp-1953,32.418396199610754
-4.97762912,-19.91051648,4.033457143010809,-1.0296642915299996,0.0,0.5762999999999998,12,mp-996953,CuHO2,https://materialsproject.org/materials/mp-996953,39.74991886719048
-5.875161846,-29.37580923,5.178508702062072,-0.9564085445833342,3.7885447,0.0,221,mp-1183397,CoBO3,https://materialsproject.org/materials/mp-1183397,37.75524090222089
-6.13208072125,-49.05664577,3.3857972653546837,-2.3513037837500006,1.0,0.028200000000000006,121,mp-752606,Li2CuSiO4,https://materialsproject.org/materials/mp-752606,83.1354559068253
-7.780675825,-31.1227033,4.496017751439116,-0.7158095876758344,2.5e-05,0.0,166,mp-1217074,Ti2HC,https://materialsproject.org/materials/mp-1217074,40.16621250333404
-3.634900453,-36.34900453,2.780937616916537,-0.3071597955649999,7.9999999000000015,0.0,225,mp-1079742,GeN2OF6,https://materialsproject.org/materials/mp-1079742,137.7204822801935
-8.4322103225,-33.72884129,4.7044144995661705,-1.5446665953566665,3.4e-06,0.0,166,mp-1217025,TiAlN2,https://materialsproject.org/materials/mp-1217025,36.307656306886706
-2.1236680233333334,-12.74200814,2.4695396815788007,-0.016264522499999916,4.04e-05,0.0,8,mp-1185812,Mg5Ge,https://materialsproject.org/materials/mp-1185812,130.55816235982675
-4.512775463333333,-40.61497917,2.330040282785903,-1.6731749701736105,0.0,2.4003,123,mp-755243,Li5CuSO2,https://materialsproject.org/materials/mp-755243,115.67613837453892
-4.527320265,-45.27320265,2.744809146887166,-2.8564886371640004,0.0,5.3441,225,mp-1111142,NaLi2GaF6,https://materialsproject.org/materials/mp-1111142,133.44837382671972
-5.571581527999999,-27.85790764,3.1434510276554537,-1.9724602175,4.0,1.7921000000000002,71,mp-755094,Li2FeO2,https://materialsproject.org/materials/mp-755094,53.73701094405816
-3.96745258,-23.80471548,3.702443166523543,0.10631599916666684,8e-06,0.0,216,mp-1227281,Be4CuSi,https://materialsproject.org/materials/mp-1227281,57.26435050971442
-4.163407576,-20.81703788,2.363395585827583,-1.2146295933000004,1.9999999,2.8435,139,mp-778404,Na2NiO2,https://materialsproject.org/materials/mp-778404,96.0265640269796
-4.500373669,-45.00373669,2.6905912503515985,-2.6108676192139995,0.0,4.1137000000000015,225,mp-1111074,Li3AsF6,https://materialsproject.org/materials/mp-1111074,129.44113580657714
-1.7296120175,-6.91844807,2.757195815902049,-0.13224466875000007,8e-07,0.0,225,mp-864762,LiMg2Zn,https://materialsproject.org/materials/mp-864762,72.84894352441438
-4.634090236666666,-55.60908284,3.1853444237992155,-2.7872188764283337,0.0,1.5711,12,mp-758720,Li5CuF6,https://materialsproject.org/materials/mp-758720,110.64271726893823
-3.719851275555556,-33.47866148,2.9192640299239523,-0.4919633440999998,4.0000007,0.0,225,mp-1079674,Ge(NF3)2,https://materialsproject.org/materials/mp-1079674,122.09393800038924
-4.385970728999999,-43.85970729,2.485498346011526,-2.5534217916640003,0.0,3.6192,225,mp-1111887,NaLi2AsF6,https://materialsproject.org/materials/mp-1111887,150.84411380590134
-5.518421837999999,-27.59210919,3.650180836939544,-1.9193005275,4.0000005,2.7179,164,mp-754868,Li2FeO2,https://materialsproject.org/materials/mp-754868,46.277066759481684
-4.378513300833333,-52.54215961,2.599537105745251,-1.5382998524166662,0.0,2.7432,2,mp-1228846,AsH4NF6,https://materialsproject.org/materials/mp-1228846,132.19636269042155
-9.266911985,-18.53382397,6.132122774249755,0.16417673562500035,1.3720998,0.0,225,mp-579,CrC,https://materialsproject.org/materials/mp-579,17.33262593368015
-5.003587368,-25.01793684,3.1218124274124905,-1.6322945073000006,3.9999998999999997,0.4065000000000003,71,mp-1176388,Na2FeO2,https://materialsproject.org/materials/mp-1176388,71.18264896081637
-6.39185741,-12.78371482,5.632062180223559,-0.2323864093100001,0.013273599999999998,0.0,225,mp-1002114,VH,https://materialsproject.org/materials/mp-1002114,15.316605262109057
-6.253846565714285,-43.77692596,3.251147289828621,-2.2077437038775507,1.0,0.14379999999999993,82,mp-26477,LiCuPO4,https://materialsproject.org/materials/mp-26477,84.50865036321854
-6.6206096175,-26.48243847,4.058996752670288,-2.160809082115001,3.9999997000000005,1.1504,12,mp-754656,LiMnO2,https://materialsproject.org/materials/mp-754656,38.405506609734296
-6.9365163475,-27.74606539,4.663642151975618,2.252390173437501,0.0981307,0.0,221,mp-1067129,VC3,https://materialsproject.org/materials/mp-1067129,30.967868790739722
-6.5412943075,-26.16517723,4.035566486667183,-2.0814937721150004,3.9999997000000005,0.0,166,mp-25373,LiMnO2,https://materialsproject.org/materials/mp-25373,38.62848676353006
-6.3782669525,-51.02613562,3.97057745489244,-2.7073933125,2.7000000000000004e-06,4.264899999999999,121,mp-1227338,Be3ZnO4,https://materialsproject.org/materials/mp-1227338,65.42623948900075
-2.1025557875,-8.41022315,2.156368318251824,0.6787439416250001,1.6007223,0.0,225,mp-1006112,Na3Co,https://materialsproject.org/materials/mp-1006112,98.49296035461785
-5.5617652516666665,-33.37059151,2.209665862393853,-1.9546142306770828,0.0,4.2626,216,mp-545756,ZnSO4,https://materialsproject.org/materials/mp-545756,121.34409107483067
-6.374389193333332,-19.12316758,3.694772595002275,-0.2676306241266673,0.2494051,0.0,187,mp-1245817,LiFeN,https://materialsproject.org/materials/mp-1245817,34.512888968997416
-8.97174143,-26.91522429,4.509730056332575,-0.6318320006944459,7.499999999999999e-06,0.0,166,mp-1217106,Ti2C,https://materialsproject.org/materials/mp-1217106,39.672946821252864
-6.082225603,-60.82225603,3.1849790933283724,-1.6163237939479995,2.9999993,1.4142,58,mp-32493,V(HO)2,https://materialsproject.org/materials/mp-32493,88.58648640725788
-4.0330547433333335,-12.09916423,2.028048792918807,-1.7195905641266664,2.6600000000000003e-05,0.0,139,mp-1147670,CuF2,https://materialsproject.org/materials/mp-1147670,83.14188240791125
-9.445625855,-18.89125171,6.388803148276874,-0.014537134374998928,1e-07,0.0,187,mp-1018050,CrC,https://materialsproject.org/materials/mp-1018050,16.63625999403947
-7.78903855,-23.36711565,5.593633397772578,-0.28360440111111035,1.8265986,0.0,191,mp-585,MnB2,https://materialsproject.org/materials/mp-585,22.727793293940422
-5.961711045,-11.92342209,4.417226099782188,-0.3932790376433344,0.0002638,0.0,225,mp-1060435,TiH,https://materialsproject.org/materials/mp-1060435,18.373237890552964
-9.529870335,-19.05974067,4.213514627407987,-1.6050705645233334,5.2e-06,0.0,216,mp-998908,TiN,https://materialsproject.org/materials/mp-998908,24.384321281555028
-1.5729197925,-6.29167917,0.2523008410685058,1.6521653804166667,1.9999952,0.0,71,mp-1093815,Li2ScIn,https://materialsproject.org/materials/mp-1093815,1142.9308764155369
-4.770516446,-23.85258223,2.7239772245972813,-2.709527097952,0.0,5.5005000000000015,217,mp-9816,GeF4,https://materialsproject.org/materials/mp-9816,90.60718807850269
-0.539556245,-2.15822498,0.23322212510598644,0.96828798625,0.010796600000000002,0.0,71,mp-1096545,LiMg2Cd,https://materialsproject.org/materials/mp-1096545,1195.8876462073745
-5.753584686,-28.76792343,3.80904171942171,-1.499988885042001,1.9999968000000001,0.0,221,mp-1184948,KMnO3,https://materialsproject.org/materials/mp-1184948,61.919486415324485
-5.21295605,-20.8518242,4.621645633097477,-0.21437791875000034,1.49e-05,0.0,216,mp-1227277,Be2CoSi,https://materialsproject.org/materials/mp-1227277,37.74155662246648
-6.257764616666668,-37.5465877,3.412160790786326,-1.8553067195238102,0.0,0.14970000000000006,82,mp-540284,CuPO4,https://materialsproject.org/materials/mp-540284,77.14298482931483
-9.50554404,-19.01108808,6.763025479602095,-0.7109560161899999,0.0125735,0.0,187,mp-1183691,CrN,https://materialsproject.org/materials/mp-1183691,16.205798200801745
-4.8545705825,-19.41828233,4.496472805245737,-1.9410130212350003,0.0,0.0,123,mp-1147631,LiCuOF,https://materialsproject.org/materials/mp-1147631,38.955341537030414
-1.8506210175,-7.40248407,2.153117401892118,-0.1014348237499998,0.010654,0.0,139,mp-976414,Li3Zn,https://materialsproject.org/materials/mp-976414,66.50431712244112
-3.7369485344444437,-33.63253681,3.0872329956432902,-0.5090606029888884,4.0000004,0.0,164,mp-1079657,Ge(NF3)2,https://materialsproject.org/materials/mp-1079657,115.4510987603749
-7.1237387275,-28.49495491,4.142879941580308,-2.6403576558650004,5.000000099999999,2.167,166,mp-1003402,CaMnO2,https://materialsproject.org/materials/mp-1003402,50.909780576840866
-4.8183764133333336,-86.73077544,2.5608488738296376,-1.7786425997422224,0.0,5.8536,225,mp-865095,NaGaH8(NF3)2,https://materialsproject.org/materials/mp-865095,157.42664566675032
-7.203921496666666,-21.61176449,5.018508710263967,-0.37480876666666535,0.0,0.0,139,mp-8937,CrSi2,https://materialsproject.org/materials/mp-8937,35.7906507218429
-4.8339211925,-19.33568477,4.303332042415682,-0.2592972250000001,0.0054515,0.0,139,mp-1183423,Be3Co,https://materialsproject.org/materials/mp-1183423,33.17338977845927
-6.102112418,-30.51056209,3.1959484272340903,-1.6199718551399998,4.9999998,1.7221000000000002,5,mp-626701,Mn(HO)2,https://materialsproject.org/materials/mp-626701,46.217727206792894
-8.341097391666667,-50.04658435,4.285388141569127,-2.9744318152777787,0.9999995999999999,0.9926,65,mp-690490,TiVO4,https://materialsproject.org/materials/mp-690490,63.085507326100625
-6.11467823,-30.57339115,3.1696088373934383,-1.6325376671399994,5.0000002,1.6065,164,mp-23789,Mn(HO)2,https://materialsproject.org/materials/mp-23789,46.6017985671552
-5.975819566,-29.87909783,4.001240533169718,-1.6931628148499995,0.9999998999999999,0.0,221,mp-1076732,KCrO3,https://materialsproject.org/materials/mp-1076732,57.7242709005885
-2.88311479,-14.41557395,2.9167526037786886,0.17914626725000002,6e-07,0.0,221,mp-10185,Mg3ZnC,https://materialsproject.org/materials/mp-10185,85.58718284618332
-1.52596233,-6.10384932,2.7820507038048565,-0.00450440374999994,3.4e-06,0.0,221,mp-1094791,Mg3Zn,https://materialsproject.org/materials/mp-1094791,82.56226310139581
-5.906517624,-29.53258812,2.9348061024508985,-1.4243770611399995,5.0000003,1.735,156,mp-625656,Mn(HO)2,https://materialsproject.org/materials/mp-625656,50.33023219269228
-6.8374561400000005,-41.02473684,2.8662289181169074,-2.61310217952381,0.0,4.7096,82,mp-677335,GaPO4,https://materialsproject.org/materials/mp-677335,95.41506473550197
-8.825815815,-17.65163163,6.8370560035686845,-0.031227791190000083,1.0205669,0.0,221,mp-1009485,CrN,https://materialsproject.org/materials/mp-1009485,16.030324468909544
-7.576675830000001,-37.88337915,4.253214029257974,-0.30651378333333384,2e-07,0.0,71,mp-27710,CrB4,https://materialsproject.org/materials/mp-27710,37.183622346673964
-5.873445163333333,-17.62033549,3.830954868349163,-0.2166321041266658,0.16912249999999998,0.0,187,mp-1246462,LiCoN,https://materialsproject.org/materials/mp-1246462,34.62461690518436
-7.647349445,-30.58939778,3.0447762214601988,0.13165587312500016,7.2999999999999996e-06,0.0,194,mp-999205,ScC,https://materialsproject.org/materials/mp-999205,62.13611531501445
-1.848698035,-7.39479214,2.1601089429745786,-0.0995118412499998,3e-06,0.0,225,mp-976412,Li3Zn,https://materialsproject.org/materials/mp-976412,66.28906517098991
-8.03958332,-56.27708324,4.08088871835596,-3.095599302619048,0.9970449,0.0,10,mp-675334,LiTi2O4,https://materialsproject.org/materials/mp-675334,67.82011916997406
-7.1034330575,-28.41373223,4.118384984873658,-2.6200519858650004,5.0000264,1.1431,123,mp-1227032,CaMnO2,https://materialsproject.org/materials/mp-1227032,51.212577152623595
-0.7198890675,-2.87955627,0.231412026673564,1.1048433780416669,0.0,0.007600000000000051,71,mp-1096557,NaMg2In,https://materialsproject.org/materials/mp-1096557,1337.6745715805766
-8.672045413333334,-26.01613624,4.6787931258376085,-3.2220595013888897,1.3e-06,1.0655,225,mp-1008677,TiO2,https://materialsproject.org/materials/mp-1008677,28.344976
-4.819557752,-24.09778876,4.529178101370231,-0.8112367052500005,0.8905716,0.0,221,mvc-11155,AlNiO3,https://materialsproject.org/materials/mvc-11155,49.00877383856411
-7.2147311371428575,-50.50311796,4.153977023575211,-2.2233299790885708,3.0,0.0,6,mp-626489,V2HO4,https://materialsproject.org/materials/mp-626489,66.71316052684564
-4.52644020375,-36.21152163,2.602161416950666,-2.71274719458,0.0,4.9287,225,mp-1087215,NaAsF6,https://materialsproject.org/materials/mp-1087215,135.22266148623524
-9.030192145,-18.06038429,5.825235597206073,-0.4743314211899978,1.0662715,0.0,216,mp-1009130,MnN,https://materialsproject.org/materials/mp-1009130,19.653358008430565
-8.920352181666667,-53.52211309,4.177526647092962,-3.4703662697222213,0.0,1.7809999999999997,136,mp-2657,TiO2,https://materialsproject.org/materials/mp-2657,63.49224795639265
-7.231213897999999,-36.15606949,4.107569228399257,-2.8154647562500013,0.0012312999999999998,0.0,221,mp-1016853,CaVO3,https://materialsproject.org/materials/mp-1016853,56.19973888814268
-6.448401408,-32.24200704,4.006977533364417,-2.211044360850001,4.9000000000000005e-06,0.22270000000000006,221,mp-1076633,KVO3,https://materialsproject.org/materials/mp-1076633,57.204585275290995
-5.403901050000001,-16.21170315,5.181643983086281,-0.03184198908000013,0.8808754000000001,0.0,225,mp-24208,CrH2,https://materialsproject.org/materials/mp-24208,17.308985663711848
-4.789902603333333,-14.36970781,2.9611701417989447,0.15711839320666654,0.0,0.04179999999999984,8,mp-1245814,KNiN,https://materialsproject.org/materials/mp-1245814,62.69332693485627
-6.8537901975,-27.41516079,3.878272957605125,-2.0247224715300005,2.9999999,2.8213,160,mp-23910,CrHO2,https://materialsproject.org/materials/mp-23910,36.395203708930154
-6.805207515,-13.61041503,3.5754020961556665,-0.9340418135714286,0.0,0.0,221,mp-16728,ScP,https://materialsproject.org/materials/mp-16728,35.26433799069503
-6.346088073076923,-82.49914495,3.078947462798617,0.26318697307692235,1.3948338,0.0,225,mp-1104127,NiB12,https://materialsproject.org/materials/mp-1104127,101.62165370084483
-6.43704759125,-51.49638073,3.2704112308465385,-2.5141828950000003,3.0,2.4869,121,mp-764642,Li2CoSiO4,https://materialsproject.org/materials/mp-764642,83.72649099729853
-6.63775029,-19.91325087,4.066141644040097,-0.3884963955555551,1.6e-06,0.0,71,mp-570991,TiSi2,https://materialsproject.org/materials/mp-570991,42.4872460841938
-6.07046209,-12.14092418,3.7305717893273416,-0.247846823333334,0.1007443,0.0,187,mp-1217008,TiAl,https://materialsproject.org/materials/mp-1217008,33.316319173329035
-4.839244873999999,-24.19622437,3.4912021790228382,-2.6194817553139997,3.9999989,0.0,221,mp-556891,KFeF3,https://materialsproject.org/materials/mp-556891,72.26732051961298
-5.37903583375,-43.03228667,3.31816294190059,-1.8344846356250004,3.0673133999999997,0.0,139,mp-754360,Li3FeO4,https://materialsproject.org/materials/mp-754360,70.39459016175762
-3.1427097025,-25.14167762,2.0833504440571557,0.4032275025000001,2.37998995,0.0,194,mp-1185215,Li3Fe,https://materialsproject.org/materials/mp-1185215,122.21679504941447
-5.609519662,-28.04759831,3.235297523595108,-3.0394428955059998,5.0000013,2.6874,221,mp-555123,KMnF3,https://materialsproject.org/materials/mp-555123,77.51799976853628
-6.85350797,-20.56052391,2.8195899491501137,0.2389047096233329,0.0,2.546,160,mp-35308,CuCN,https://materialsproject.org/materials/mp-35308,52.7465074487035