energy_per_atom,energy,density,formation_energy_per_atom,total_magnetization,band_gap,sgr,mp_id,formula,URL,cell_volume
-2.904582118,-29.04582118,3.247915311194593,-1.596768757556,2.65e-05,0.0,225,mp-1111981,K2GaHgCl6,https://materialsproject.org/materials/mp-1111981,286.93492620124175
-9.065999094,-135.98998641,5.297838285651926,-3.9431963192499984,0.0,3.9604,12,mp-558573,Y2O3,https://materialsproject.org/materials/mp-558573,212.33159697456932
-7.317179018214285,-204.88101251,5.20276833309183,-2.429499806071429,7.00000025,1.4999999999999996,186,mp-775204,Li2V3WO8,https://materialsproject.org/materials/mp-775204,305.4670607044853
-3.1528890360000004,-31.52889036,3.3340032433125204,-1.3863652480559998,0.0,0.09579999999999987,225,mp-1112434,K2AsAuCl6,https://materialsproject.org/materials/mp-1112434,280.3104560918386
-2.959846817,-29.59846817,3.5298379570143683,-1.2490367583620692,0.0,2.9211,225,mp-1112984,Cs3AsBr6,https://materialsproject.org/materials/mp-1112984,448.34822568376563
-8.68498688375,-69.47989507,7.1572964703180375,-0.1631067112500002,5.0999999999999995e-06,0.0,223,mp-796,Nb3Al,https://materialsproject.org/materials/mp-796,141.84906646663916
-5.5232849025,-44.18627922,9.471030677992259,-0.1872431812500004,5e-08,0.0,194,mp-20112,Ni3Sn,https://materialsproject.org/materials/mp-20112,103.37008766044414
-7.1718541192857135,-200.81191534,5.2411006502063655,-2.2512078761742864,22.999999399999997,0.0,8,mp-776267,Li4Mn3Cr3(WO8)2,https://materialsproject.org/materials/mp-776267,308.03400438035294
-7.36958309409091,-162.13082807,4.374989626229228,-2.3022680105113644,2.0,0.2450000000000001,8,mp-1216895,V6PbO15,https://materialsproject.org/materials/mp-1216895,285.7424400228965
-4.530898940416667,-108.74157457,3.319458317272604,-0.3125796604166666,3.8675e-05,0.8589000000000002,62,mp-1227506,BaSrSi4,https://materialsproject.org/materials/mp-1227506,674.9071670497669
-6.105815510833334,-73.26978613,5.850819539940826,-0.8238752321875005,1.25e-07,0.9913999999999996,216,mp-1210554,MoSI,https://materialsproject.org/materials/mp-1210554,289.3865542843181
-6.67718049375,-53.41744395,5.074222898145855,-1.4857145026262506,1e-07,0.0,123,mp-1021669,Ba2CuC(NO)2,https://materialsproject.org/materials/mp-1021669,134.24541141086377
-7.494990845499999,-149.89981691,5.307854153218124,-2.9538494770000017,6.00000395,0.0,7,mvc-8988,CaLaVFeO6,https://materialsproject.org/materials/mvc-8988,238.8678902037018
-7.447068409285714,-104.25895773,6.913251499828862,-0.304663985714286,0.0,0.0,140,mp-9398,V4SiSb2,https://materialsproject.org/materials/mp-9398,228.365172096777
-2.9871796880000003,-29.87179688,4.070515295163589,-1.090722801074713,0.0,0.3335999999999999,225,mp-1112893,Cs2InAsBr6,https://materialsproject.org/materials/mp-1112893,381.4164921107691
-6.129510778125,-98.07217245,6.50552570137797,-1.1691693714062508,6.70279575,0.0,223,mp-20961,EuPd3S4,https://materialsproject.org/materials/mp-20961,306.0372463502848
-5.6606760214285705,-39.62473215,9.966709765801331,-0.6141868271428572,2.7000000000000004e-06,0.0,123,mp-1077994,SiSnPd5,https://materialsproject.org/materials/mp-1077994,113.10979333405736
-5.945825175714285,-41.62077623,6.317572082445719,-0.5171653061904757,4.0147406000000005,0.0,8,mp-1217137,Ti2CrTe4,https://materialsproject.org/materials/mp-1217137,172.98587339996425
-5.058395425,-40.4671634,7.363976013377952,0.6538651400000006,5.3072247,0.0,194,mp-1183756,Co3I,https://materialsproject.org/materials/mp-1183756,136.96743145758086
-6.03049318375,-48.24394547,4.971946703724585,0.015965292499999784,0.7405635,0.0,194,mp-1186784,PrY3,https://materialsproject.org/materials/mp-1186784,272.27868624607146
-7.173887075,-172.1732898,3.7138893454851263,-2.0068607884375,11.999995,0.8137999999999999,186,mvc-1315,BaCr4O7,https://materialsproject.org/materials/mvc-1315,408.93865607290707
-2.948346575,-82.55370409999999,4.0095967308623255,-0.32292390357142864,0.05919255,0.0,194,mp-605027,Mg5Pd2,https://materialsproject.org/materials/mp-605027,553.8972354361333
-5.9380420627272725,-130.63692538,3.766318423362135,-1.329613571083636,1.5e-07,0.0058,70,mp-1238580,BaMn2O8,https://materialsproject.org/materials/mp-1238580,330.8437249604992
-4.443964071538462,-57.77153293,4.431290242266637,-0.7630232763461541,4.6e-06,0.0,216,mp-1184041,Cu(SnS2)4,https://materialsproject.org/materials/mp-1184041,297.8754209191823
-9.141452475,-73.1316198,11.354906332393293,-0.07805934249999957,5.5e-07,0.0,194,mp-861610,Tc3Pd,https://materialsproject.org/materials/mp-861610,117.11466795634148
-7.886295929000001,-157.72591858,5.642372707842603,-3.1653705155833354,0.99985505,0.0,31,mvc-9314,PrTi2ZnO6,https://materialsproject.org/materials/mvc-9314,234.28890663784557
-6.005822937916666,-144.13975051,4.262656575410738,-2.6002212187725,10.0,2.438,199,mp-560330,Ba3Fe2Cl2O5,https://materialsproject.org/materials/mp-560330,525.5673041223239
-7.301958520499999,-146.03917041,5.969915231966432,-1.953757470835999,27.9999959,0.0,204,mp-1186044,Mn7BiO12,https://materialsproject.org/materials/mp-1186044,218.49875273530517
-6.9646181264285705,-195.00930754,5.185133869679637,-2.2559076075,16.999999600000002,1.0810000000000004,8,mp-770521,Li4V3Fe3(WO8)2,https://materialsproject.org/materials/mp-770521,311.216981150683
-2.9065872839999995,-29.06587284,3.091622550658237,-1.4370566140560002,1.1400000000000001e-05,0.0,225,mp-1112212,K2HgAsCl6,https://materialsproject.org/materials/mp-1112212,304.23274606358103
-6.354292901111112,-114.37727222,5.758939094791598,-1.7041327891666669,1.9999997999999999,1.4142,102,mp-1226257,CrFeTeO6,https://materialsproject.org/materials/mp-1226257,191.13413044001504
-7.6683621085,-153.36724217,5.395753997150631,-2.9148835889999996,5.00013555,0.6396999999999995,31,mvc-9971,CaLaCr2O6,https://materialsproject.org/materials/mvc-9971,233.25671171700193
-5.846299476666666,-70.15559372,7.932919054444867,-0.3791665962500008,0.4983794,0.0,65,mp-568040,La2AlNi9,https://materialsproject.org/materials/mp-568040,174.37262867968192
-7.995002108666668,-119.92503163,3.0888854931580085,-1.9763222427697156,0.0,0.3299,2,mp-1216960,UP2C2(NO4)2,https://materialsproject.org/materials/mp-1216960,258.0443415185576
-2.9526374630000003,-29.52637463,4.691244689887929,-1.111035523574713,2.02e-05,0.0,225,mp-1113481,Cs2InCuBr6,https://materialsproject.org/materials/mp-1113481,326.92220049126075
-3.499498449,-34.99498449,2.79007073157777,-1.9136157635560005,0.0,3.6783,225,mp-1111590,K2AlTlCl6,https://materialsproject.org/materials/mp-1111590,310.8399323963192
-9.521302058461538,-123.77692676,8.477955180186187,0.016728685384616318,7.2032449000000005,0.0,139,mp-639892,GdMn12,https://materialsproject.org/materials/mp-639892,159.92547227119755
-8.233975932,-82.33975932,4.885395768562229,-1.93846400744,0.0,2.681,63,mp-556405,LaCN2F,https://materialsproject.org/materials/mp-556405,134.55087046239464
-2.9943041889999997,-29.94304189,3.268535571492708,-1.3276891538559998,0.0,0.0,225,mp-1110992,Na2TlCuCl6,https://materialsproject.org/materials/mp-1110992,267.5462468781666
-6.170913402941176,-104.90552785,6.313628815349651,-0.4132781117647055,27.778089299999998,0.0,229,mp-1189271,Gd4Ga12Pd,https://materialsproject.org/materials/mp-1189271,413.4748587501921
-3.224514952,-32.24514952,3.150548175558359,-1.4047703403560001,0.0,0.9423000000000004,225,mp-1111510,Na2CuBiCl6,https://materialsproject.org/materials/mp-1111510,279.98876379825776
-7.304168849,-146.08337698,5.9505273052791825,-1.9559677993360003,28.0000006,0.0,8,mp-1188529,Mn7BiO12,https://materialsproject.org/materials/mp-1188529,219.21066238330047
-6.237007435,-49.89605948,9.463631799685876,0.0978376812500006,3.0136962000000005,0.0,194,mp-1183774,Co3Sn,https://materialsproject.org/materials/mp-1183774,103.70335891617974
-6.1701545683333325,-37.02092741,4.95134874579682,-2.218345033541667,4.25e-06,0.0,129,mp-1018751,LaS2,https://materialsproject.org/materials/mp-1018751,136.1844385233226
-6.7280550745,-134.56110149,6.337565009931597,-1.8577233839419995,13.537492199999999,0.0,204,mp-557341,TmMn4(CuO4)3,https://materialsproject.org/materials/mp-557341,202.09691012414896
-6.9894456604999995,-139.78891321,5.6570599892603965,-1.9724990149419999,15.0000116,1.2928999999999995,14,mp-1189105,Mn2FeSbO6,https://materialsproject.org/materials/mp-1189105,225.12730793560553
-7.273374779230768,-94.55387213,8.909818616446413,-0.1467439638461529,0.0569851,0.0,191,mp-22018,Hf(MnGe)6,https://materialsproject.org/materials/mp-22018,175.92721321761687
-7.132193741666668,-128.37948735,5.301051868380903,-2.342216453796297,3.00000005,0.9293,102,mp-1216868,TiFeSbO6,https://materialsproject.org/materials/mp-1216868,201.3980778080473
-4.99227372375,-119.81456937,5.0744046093032775,-1.6877120542238888,0.0,3.0723,14,mp-557992,InTeClO3,https://materialsproject.org/materials/mp-557992,426.5474042345741
-3.129828257,-31.29828257,3.002476188653875,-1.750271443556,1.18e-05,0.0,225,mp-1112210,K2AlHgCl6,https://materialsproject.org/materials/mp-1112210,286.7521408155297
-7.496310488571429,-104.94834684,7.789583480684513,-0.4541102442857152,3.90904935,0.0,136,mp-1104283,Dy(Fe2Si)2,https://materialsproject.org/materials/mp-1104283,188.46782886176487
-6.835625781428571,-191.39752188,5.373151677613604,-2.102647563928572,17.9999997,1.3455000000000004,1,mp-761030,Li4Cr3Fe3(WO8)2,https://materialsproject.org/materials/mp-761030,301.3046011605687
-7.102533236666668,-85.23039884,7.727679818012293,-0.7863583550000008,2.5e-07,0.014599999999999724,62,mp-1102687,ZrNiGe,https://materialsproject.org/materials/mp-1102687,191.29428757101644
-3.786414754,-37.86414754,3.6994673387513153,-1.8493493076913796,0.0,4.2174999999999985,225,mp-571467,Cs2NaYBr6,https://materialsproject.org/materials/mp-571467,384.7307100244243
-6.36919737,-178.33752636,5.577722460676272,-1.8394555442857143,1.9999993000000003,1.2132999999999998,9,mp-1177969,Li2Fe3WO8,https://materialsproject.org/materials/mp-1177969,293.69139122299765
-8.44508227125,-67.56065817,7.38142367685088,-2.235944298973213,0.6206444000000001,0.0,129,mp-21372,CePRuO,https://materialsproject.org/materials/mp-21372,129.64966087377485
-3.14261986125,-25.14095889,4.822570187139816,-1.43971036125,0.9999991,0.0,194,mp-1183339,BaBr3,https://materialsproject.org/materials/mp-1183339,259.64908951335843
-5.681392408461537,-73.85810131,5.433305160696783,-0.4236987361538459,4.968882700000001,0.0,139,mp-11037,Lu(Al2Fe)4,https://materialsproject.org/materials/mp-11037,187.71298508707733
-5.59578206,-33.57469236,8.054635638328453,-0.02427429000000103,0.8525176,0.0,58,mp-20714,FeSb2,https://materialsproject.org/materials/mp-20714,123.43383165442917
-4.850657545,-58.20789054,4.213509409181045,-1.3828574946991743,0.0,1.3735,63,mp-9856,Cs2ZrSe3,https://materialsproject.org/materials/mp-9856,468.12231250691804
-2.684101348,-26.84101348,4.827491190896742,-0.7709239442413793,0.0,0.034900000000000375,225,mp-1113353,Cs2CuSbI6,https://materialsproject.org/materials/mp-1113353,417.08542003633545
-3.450798941428572,-48.31118518,5.6332341604769365,-0.5398777022916671,9.699999999999999e-06,0.4579000000000004,227,mp-22587,Cd(InSe2)2,https://materialsproject.org/materials/mp-22587,387.85785084992386
-5.9639926958333325,-71.56791235,5.680235950773888,-0.8867749086979165,0.499999925,0.0,216,mp-1209865,NbSeBr,https://materialsproject.org/materials/mp-1209865,294.40646390660993
-3.36527763,-33.6527763,3.2516101967615043,-1.688727698556,0.0,0.5753999999999999,225,mp-1112440,K2AlAuCl6,https://materialsproject.org/materials/mp-1112440,262.93115548149217
-5.2813669885714285,-73.93913784,4.0398835326144376,-2.890750800574286,5e-08,2.439,14,mp-1178551,Ba3(ClO)2,https://materialsproject.org/materials/mp-1178551,423.2735746658126
-7.735057058,-116.02585587,6.067394886386802,-1.2379358685,2.0600000000000003e-05,0.0,148,mp-1104330,Er(Mo3S4)2,https://materialsproject.org/materials/mp-1104330,273.52336511692806
-5.379925303333334,-64.55910364,7.417769045573686,-0.2843168475000013,1.5530648,0.006199999999999761,166,mp-13505,CeMg2Ni9,https://materialsproject.org/materials/mp-13505,160.4998783814234
-5.499902546785713,-153.99727131,5.144466708779025,-1.6616565434821429,0.99999995,0.0,2,mp-1193812,Cd2(GeO3)3,https://materialsproject.org/materials/mp-1193812,378.7755216042992
-3.224183354285714,-22.56928348,5.356208730727416,-0.3807798335714284,2e-07,1.007,82,mp-15777,Zn(GaTe2)2,https://materialsproject.org/materials/mp-15777,221.74431781225584
-5.210891705625,-83.37426729,4.625578562027008,-2.224152670646552,0.0634637,0.10939999999999994,123,mp-1033608,RbMg6BiO8,https://materialsproject.org/materials/mp-1033608,204.00478630721094
-2.5180249591666666,-30.21629951,5.272502361864212,-0.04746185138888906,0.00012415,0.0,227,mp-1210993,LiIn2,https://materialsproject.org/materials/mp-1210993,298.03331890945276
-6.52287111625,-208.73187572,4.719005229972691,-4.1484440633925015,0.0,6.327999999999999,14,mp-556738,BaZrF6,https://materialsproject.org/materials/mp-556738,482.13839288488964
-5.838959468333332,-70.06751362,3.8273613482035023,-0.5366149163690478,8.2e-06,0.005199999999999427,11,mp-7332,NdP5,https://materialsproject.org/materials/mp-7332,259.54443915997524
-5.452552881111112,-98.14595186,5.956227798511528,-0.4026953243911109,7.5e-07,0.9672999999999998,2,mp-1246648,Zr(ZnN)4,https://materialsproject.org/materials/mp-1246648,227.98741663653234
-7.372714596666667,-88.47257516,8.64206116749728,-0.5263021316666668,0.0,0.0141,62,mp-1103243,NbNiAs,https://materialsproject.org/materials/mp-1103243,174.1008713520164
-6.78481077607143,-189.97470173,5.313933799608574,-2.0674009247457144,23.0000003,0.0,1,mp-764443,Li4Mn3Fe3(WO8)2,https://materialsproject.org/materials/mp-764443,307.4202706283317
-6.899498859285713,-193.18596806,5.36167684482407,-2.3635725235714284,2.0000003,1.0857000000000006,1,mp-769613,Li4Ti3Ni3(WO8)2,https://materialsproject.org/materials/mp-769613,300.759522221063
-3.081167797,-30.81167797,3.5841014652882186,-1.2701868296000005,0.0,2.6754,225,mp-1111591,K2AlTlBr6,https://materialsproject.org/materials/mp-1111591,365.5424198995065
-6.961884715,-41.77130829,7.2216522296718875,-0.5807122988888894,0.0,0.9449000000000004,160,mp-1217120,Ti2FeNiSb2,https://materialsproject.org/materials/mp-1217120,104.34454225851479
-6.26216799125,-150.29203179,6.093357534351168,-1.418173768750001,5.0005937000000005,0.0,186,mp-753391,Co3WO8,https://materialsproject.org/materials/mp-753391,266.32185366451023
-6.666342304137932,-193.32392682,3.245672778398037,-2.6115382502881777,0.0,4.9515,1,mp-1221184,Na4P6PbO18,https://materialsproject.org/materials/mp-1221184,395.4747043723998
-6.765312190666666,-101.47968286,5.61217662932054,-0.4071173699166659,25.3290782,0.0,12,mp-696673,Cr7Se8,https://materialsproject.org/materials/mp-696673,294.59517898879335
-8.045807098000001,-160.91614196,5.2105565999372265,-3.2795167042626674,4.0000006,0.19930000000000006,7,mp-40866,CaLaTiMnO6,https://materialsproject.org/materials/mp-40866,240.79062881233807
-6.79358863875,-54.34870911,5.792261090302197,-4.496528155267501,0.0,5.7609,194,mp-8354,LaF3,https://materialsproject.org/materials/mp-8354,112.32253566158212
-7.019809023125,-112.31694437,4.187344175574497,-3.3460465960416066,0.0,6.0429,9,mp-754604,BaBePO4F,https://materialsproject.org/materials/mp-754604,206.45695751894783
-5.062662341875,-162.00519494,4.321653643649505,-0.4620322340624998,0.923921875,0.0,34,mp-1181801,CuSnO6,https://materialsproject.org/materials/mp-1181801,427.6594204652732
-5.21734805,-31.304088300000004,8.087025901993153,-0.13830582500000035,0.11223980000000001,0.0,6,mp-1224691,Fe2SbTe3,https://materialsproject.org/materials/mp-1224691,126.53689944875687
-3.247904777,-32.47904777,2.956760168968825,-1.7337655445560003,0.0,2.3222,225,mp-1111581,K2TlGaCl6,https://materialsproject.org/materials/mp-1111581,317.32004263069746
-5.4458918533333325,-32.67535112,8.218973037839355,-0.09935683833333424,0.303323,0.0,10,mp-1224950,FeCoSb4,https://materialsproject.org/materials/mp-1224950,121.589717252868
-5.568167696875,-89.09068315,4.663737884921959,-2.536325224375,3e-07,0.0,123,mp-1033410,SrMg6BiO8,https://materialsproject.org/materials/mp-1033410,203.1018898548742
-3.998336763,-39.98336763,2.6435214572436356,-2.154010690056,2.1000000000000002e-06,3.3234,225,mp-1111134,K2ScTlCl6,https://materialsproject.org/materials/mp-1111134,339.3626875532258
-7.107980303333334,-42.64788182,6.310596624317133,-0.4674466611111126,1.435e-05,0.0,139,mp-1206780,Ti2Sb,https://materialsproject.org/materials/mp-1206780,114.46058097710865
-4.07269473125,-32.58155785,8.896313305104718,0.004123832500000368,0.0,0.0,59,mp-581786,Cu3Sn,https://materialsproject.org/materials/mp-581786,115.4825405375881
-6.64877076,-186.16558128,4.456014267054481,-3.0406877253553835,0.0,4.995900000000002,62,mp-17832,RbBaPO4,https://materialsproject.org/materials/mp-17832,473.66375955592315
-2.97196296375,-23.77570371,8.76189492615739,0.02191706910156288,7.140000000000001e-05,0.0,194,mp-1183249,Ag3Se,https://materialsproject.org/materials/mp-1183249,152.58668131852374
-7.8600139095,-157.20027819,5.244719249453467,-3.2688803396666684,5.0000003,1.9830000000000003,7,mvc-8937,CaLaTiFeO6,https://materialsproject.org/materials/mvc-8937,239.79649028158488
-5.5729909425,-44.58392754,6.0990192647020605,-0.5415838587499993,3.3e-06,0.0,139,mp-1025457,HfAl5Ni2,https://materialsproject.org/materials/mp-1025457,117.28680258366931
-3.0309454839999996,-30.30945484,4.546462122167767,-1.0517947562413794,0.0,0.34939999999999993,225,mp-1113354,Cs2CuSbBr6,https://materialsproject.org/materials/mp-1113354,339.8685521963677
-6.551084377692307,-85.16409691,5.790044547109043,-0.23788596769230816,7.005482499999999,0.0,71,mp-1217834,Tb(MnAl)6,https://materialsproject.org/materials/mp-1217834,186.54187192912198
-3.614514507,-36.14514507,2.8372321732507606,-1.976514306056,0.1539563,0.0,225,mp-1111990,K2ScHgCl6,https://materialsproject.org/materials/mp-1111990,313.97276260748805
-5.558620453333332,-66.70344544,7.259879564622588,-0.4055846916666663,4.7e-06,0.0,160,mp-1226870,CeY(MgNi4)2,https://materialsproject.org/materials/mp-1226870,170.90090425757796
-4.26167742125,-102.28025811,4.776501870345839,-0.4360420231944448,5.44e-05,0.04669999999999952,70,mp-9867,Ba2Si3Ag,https://materialsproject.org/materials/mp-9867,649.0978338792754
-2.4813343425,-19.85067474,6.55471346625303,-0.29506634062500003,0.0001536,0.0,194,mp-1185121,LaZn3,https://materialsproject.org/materials/mp-1185121,169.80164056652487
-2.639874646,-26.39874646,3.690167538790383,-1.034973222275862,0.0,2.3768,225,mp-1112512,Cs2RbSbI6,https://materialsproject.org/materials/mp-1112512,555.4973247843072
-5.8877802105,-117.75560421,4.372936799484903,-1.5387494960312509,13.6577826,0.0,166,mp-1189324,Fe3Pb(SO7)2,https://materialsproject.org/materials/mp-1189324,251.70710501723175
-6.293241093928572,-176.21075063,4.235911640831868,-2.2543184940561223,0.8520085999999999,0.0,6,mp-765628,Li4Cu3Bi(PO4)4,https://materialsproject.org/materials/mp-765628,316.46075060185444
-6.317127040769232,-82.12265153,3.5381992462108047,-2.2903342753846156,1.0,0.0,216,mp-1223103,La5S8,https://materialsproject.org/materials/mp-1223103,446.34322254599584
-2.056918730625,-32.91069969,2.9124645915951595,0.02585077999999985,0.0012781,0.0,187,mp-1026440,HfMg14Cd,https://materialsproject.org/materials/mp-1026440,359.86157203092495
-7.751230641999999,-116.26845963,5.975973081813147,-1.250105886166667,0.00010109999999999999,0.0,148,mp-1103853,Tb(Mo3S4)2,https://materialsproject.org/materials/mp-1103853,275.3921232770576
-5.979968178125,-95.67949085,4.770335813189099,-2.4941599440625,2.4e-06,0.0,123,mp-1033338,BaHfMg6O8,https://materialsproject.org/materials/mp-1033338,205.2526134584468
-3.24859703,-32.4859703,2.8401643132129952,-1.5727404880559999,0.0,1.4877999999999998,225,mp-1111588,K2TlAsCl6,https://materialsproject.org/materials/mp-1111588,333.3862539974356