energy_per_atom,energy,density,formation_energy_per_atom,total_magnetization,band_gap,sgr,mp_id,formula,URL,cell_volume
-6.60479116,-52.83832928,4.44468937054671,-1.6937585367968753,0.0,1.0684999999999998,6,mp-1224121,HfZrS6,https://materialsproject.org/materials/mp-1224121,172.64237578109413
-7.470117349000001,-149.40234698,5.546983981575061,-2.759990787442,6.99999835,0.0,31,mp-40630,CaPrMn2O6,https://materialsproject.org/materials/mp-40630,231.61885685827363
-4.930925278,-49.30925278,6.020223051035898,0.31801875399999985,0.5338489000000001,0.0,227,mp-1212172,Pr4Co,https://materialsproject.org/materials/mp-1212172,343.4395960827971
-3.3003324039999997,-33.00332404,3.4966284770869485,-1.4735414288620692,0.0,3.3564,225,mp-1112962,Cs3YI6,https://materialsproject.org/materials/mp-1112962,593.1698731049481
-3.11676089125,-24.93408713,6.34810648668975,0.30346215249999986,0.0039881,0.0,194,mp-1184934,In3Si,https://materialsproject.org/materials/mp-1184934,194.89792270786572
-6.4585100775,-51.66808062,5.8371788828824736,-0.7367050268749997,0.00038235,0.0,63,mp-1206651,LaCoSi2,https://materialsproject.org/materials/mp-1206651,144.51945836600254
-7.105106191428571,-149.20723002,3.9279357584998382,-2.5381018486224485,3.9999998999999997,1.3439,2,mp-505236,V2Hg(P2O7)2,https://materialsproject.org/materials/mp-505236,274.94023628255894
-5.578082075789473,-211.96711888,6.215463311523063,-0.5506035413789468,5e-07,0.0,190,mp-1207411,Zr6Ga2NiH10,https://materialsproject.org/materials/mp-1207411,403.7161716474742
-6.8777708005,-137.55541601,5.556503735724284,-2.4767334400000003,3.96842385,0.0,7,mvc-10031,CaLaCrCuO6,https://materialsproject.org/materials/mvc-10031,233.41187480662438
-6.4187191713461536,-333.77339691,4.332443790018806,-2.5647358781612346,0.0,3.0948,15,mp-1232408,Cs3In3(PO4)4,https://materialsproject.org/materials/mp-1232408,860.8896486730094
-7.508691782083332,-180.20860277,4.639000951373847,-2.435024393036666,8.9999999,1.2101000000000002,8,mp-776644,Ti3Mn3(SnO8)2,https://materialsproject.org/materials/mp-776644,287.01494526360716
-7.1544513415,-143.08902683,5.976204239503568,-2.4739196189999992,4.99999865,0.5261999999999993,31,mvc-9878,LaZnCr2O6,https://materialsproject.org/materials/mvc-9878,224.67807485194695
-5.890631811568627,-300.42222239,3.4386093954059715,-1.7899142314645105,29.9998831,1.2239,166,mp-743742,Fe6H12Pb(SO7)4,https://materialsproject.org/materials/mp-743742,545.9821992295247
-3.74654668375,-29.97237347,8.862670153065032,0.01588710291666695,5.15e-06,0.0,194,mp-1184858,InCu3,https://materialsproject.org/materials/mp-1184858,114.46248235399449
-6.891334166153847,-89.58734416,8.421775714250744,-0.17445435999999967,0.0111245,0.0,191,mp-22012,Tb(MnGe)6,https://materialsproject.org/materials/mp-22012,182.26461335695728
-6.857896028499999,-137.15792057,5.519728556734946,-2.5053622469999994,3.00000015,0.6574999999999998,7,mvc-9984,CaLaCrNiO6,https://materialsproject.org/materials/mvc-9984,232.04729683157763
-6.5523055038461555,-85.17997155,5.822837580759919,-0.24290731730769285,7.002246799999999,0.0,71,mp-1224066,Ho(MnAl)6,https://materialsproject.org/materials/mp-1224066,187.20378515993147
-7.2823406365,-145.64681273,5.90559897591271,-2.624458765999999,3.99999935,1.5168,7,mvc-9860,LaVZnCrO6,https://materialsproject.org/materials/mvc-9860,226.77118103901742
-6.286204771,-125.72409542,6.1570960604457365,-1.75982344675,19.827609,0.0,204,mp-1189224,DyFe4(CuO4)3,https://materialsproject.org/materials/mp-1189224,207.26364726706032
-3.129384646,-31.29384646,3.4600345142115434,-1.524578167556,4.8599999999999995e-05,0.0,225,mp-1112427,K2GaAuCl6,https://materialsproject.org/materials/mp-1112427,267.60527610004283
-4.395497933703704,-118.67844421,4.925268969198096,-2.975909878015555,2e-07,4.0533,2,mp-541827,Ba2Zn7F18,https://materialsproject.org/materials/mp-541827,362.2603579468828
-3.7550690277777785,-33.79562125,5.61366579500708,-0.8445560644444446,0.0,0.05679999999999996,12,mp-1080464,Ba3(CdAs2)2,https://materialsproject.org/materials/mp-1080464,277.0163501057181
-4.242700012142857,-59.39780017,5.072415651264438,-1.1623828025558036,1.39e-05,0.7288000000000001,1,mp-1228102,Ba4Ge2Te5Se3,https://materialsproject.org/materials/mp-1228102,513.7912713010933
-6.656387444583332,-159.75329867,4.198043623474445,-2.780571519501667,0.0,2.3886000000000003,62,mp-559481,BaVClO3,https://materialsproject.org/materials/mp-559481,429.9156562014555
-7.275032211,-145.50064422,5.807875822531949,-2.654091200250001,2.9999995999999998,1.0827,7,mvc-9662,PrV2ZnO6,https://materialsproject.org/materials/mvc-9662,231.12867469889835
-5.070502953,-50.70502953,8.826699448530466,-0.27757039542857104,1.525e-05,0.0,37,mp-1001022,Cu2PPd2,https://materialsproject.org/materials/mp-1001022,139.55465495417738
-7.312112795500001,-146.24225591,5.493939858664128,-2.7628520500960008,7.99071895,1.5305,7,mp-41963,CaLaMnFeO6,https://materialsproject.org/materials/mp-41963,233.19308074750555
-5.253235223333333,-47.27911701,5.272203952160346,-3.47693026746,1.9999983000000001,4.5238,139,mp-556041,Ba2NiF6,https://materialsproject.org/materials/mp-556041,140.8940017477286
-4.251671034999998,-85.03342070000001,4.315093406373001,-1.0238798987327584,1.000000225,0.0,220,mp-1213719,Cs2O3,https://materialsproject.org/materials/mp-1213719,483.04147224039815
-7.317827584500001,-146.35655169,5.496079289912047,-2.7685668390960005,7.999998599999999,1.3689,7,mp-40066,CaLaMnFeO6,https://materialsproject.org/materials/mp-40066,233.1023068453412
-6.0430008766666665,-90.64501315,6.101416344437956,-0.4692970545333338,0.2553333,0.0,12,mp-1223567,KBa2(FeAs)6,https://materialsproject.org/materials/mp-1223567,298.9234149331248
-7.0323683035,-140.64736607,5.390602456058691,-2.658264382,9.000000300000002,0.0,31,mvc-8960,CaLa(FeO3)2,https://materialsproject.org/materials/mvc-8960,238.2221356372024
-5.304735227777779,-47.74261705,7.07117784520645,-0.6651339183333328,0.0,0.027699999999999392,189,mp-1205828,YAgGe,https://materialsproject.org/materials/mp-1205828,189.8011439152753
-7.655138341500001,-153.10276683,5.755666343766578,-2.947264269666668,2.9999998,2.3732999999999995,7,mvc-9863,LaTiZnCrO6,https://materialsproject.org/materials/mvc-9863,230.90445494515197
-3.07805258875,-24.62442071,6.786615808694527,0.14152771500000005,0.00023325,0.0,194,mp-1184915,In3Ge,https://materialsproject.org/materials/mp-1184915,204.10787640651446
-2.4694265525,-19.75541242,5.7089553950653205,-0.070932418625,0.00031235,0.0,194,mp-864754,NaIn3,https://materialsproject.org/materials/mp-864754,213.75354392209655
-5.88565073125,-94.1704117,7.978019424999671,-1.4591495652812505,1.8000000000000001e-06,0.0,200,mp-1210069,NaDy(Pd3O4)2,https://materialsproject.org/materials/mp-1210069,198.1496075090724
-7.381394458333332,-44.28836675,7.673904723519874,0.10055378833333367,5.6237363,0.0,129,mp-20664,Mn2Sb,https://materialsproject.org/materials/mp-20664,100.2464284809432
-7.39057606,-88.68691272,4.1889420505464825,-0.5351793451190474,6.9957061000000005,0.19890000000000008,11,mp-680742,GdP5,https://materialsproject.org/materials/mp-680742,247.454112694506
-5.28300518,-126.79212432,5.406635613746362,-1.0972457725000002,7.0000005000000005,0.16710000000000005,8,mp-850530,Co3Ni3(TeO8)2,https://materialsproject.org/materials/mp-850530,265.381723126391
-6.020087722307693,-78.26114039,5.533994414938736,-0.3921383915384612,8.3790591,0.0,44,mp-1217593,TbAl7Fe5,https://materialsproject.org/materials/mp-1217593,188.14494033206557
-4.4516733770000005,-44.51673377,4.979098177180012,-0.1203635645848216,1.26e-05,0.0,12,mp-1079754,NiPSe3,https://materialsproject.org/materials/mp-1079754,217.80824221839816
-3.637689960833333,-174.60911812,3.607701959164616,-2.1103194688091667,3.24e-05,2.8884000000000003,12,mp-1208723,SrAs2(XeF6)3,https://materialsproject.org/materials/mp-1208723,895.9858728886965
-7.2805348317857135,-203.85497529,5.390809136134541,-2.3443202225,10.000000300000002,2.1844999999999994,186,mp-775271,Li2Cr3WO8,https://materialsproject.org/materials/mp-775271,296.7609382313537
-5.34356774375,-128.24562585,5.430247711344304,-1.0971788625000003,2.4693182,0.0,1,mp-757881,Co3Cu3(TeO8)2,https://materialsproject.org/materials/mp-757881,268.67946883547364
-2.7348654135,-54.69730827,4.477475984589098,-0.9378629318040002,0.0,1.0213,14,mp-27776,Cd2AsCl2,https://materialsproject.org/materials/mp-27776,549.843825475586
-2.945677693,-29.45677693,3.5636687678188457,-1.1883954118560005,0.0,0.0,225,mp-1111511,Na2CuAuCl6,https://materialsproject.org/materials/mp-1111511,241.9328814595954
-3.681442174,-36.81442174,3.4543029319571037,-1.7900483427758622,0.0,3.2725,225,mp-1112119,Cs2RbScBr6,https://materialsproject.org/materials/mp-1112119,420.9431963236736
-6.4056125925,-51.24490074,10.355929477220645,-0.2522047949999999,1.10099065,0.0,194,mp-979980,VPd3,https://materialsproject.org/materials/mp-979980,118.72117220743071
-7.3597986535,-147.19597307,5.624357505706849,-2.841611880666668,5.0000004,2.2913,7,mvc-8970,LaTiZnFeO6,https://materialsproject.org/materials/mvc-8970,238.56796016508872
-1.987192380625,-31.79507809,2.8540092426838464,0.031136219687500025,0.27222179999999996,0.0,187,mp-1099098,CeMg14Bi,https://materialsproject.org/materials/mp-1099098,401.0918405393064
-7.51348053,-75.1348053,7.2028404773464745,-0.15879427599999899,7.758992500000001,0.0,12,mp-28916,Mn3As2,https://materialsproject.org/materials/mp-28916,145.08187169580285
-4.670279635333333,-140.10838906,3.655646931009404,-2.7023876268709204,0.0,3.9319,11,mp-557115,Cs2As2OF10,https://materialsproject.org/materials/mp-557115,564.7445808669875
-5.336169433999999,-53.36169434,5.8344993609413525,-0.521942070875,2.6e-06,0.0,124,mp-1078815,NbSe4,https://materialsproject.org/materials/mp-1078815,232.6641171622875
-2.8763819922222225,-25.88743793,4.266311242065152,-1.0160474658237548,0.0,0.8915,225,mp-1205847,Cs2PdBr6,https://materialsproject.org/materials/mp-1205847,331.48219530340293
-7.611547445,-213.12332846,5.196530730762423,-2.6460374614285715,13.906474,0.0,8,mp-754340,Li4Ti3Cr3(WO8)2,https://materialsproject.org/materials/mp-754340,303.89736222796273
-4.89030249,-48.9030249,3.5991719017457346,-1.297390447902,0.99999995,0.12019999999999985,1,mp-1182337,BaClO3,https://materialsproject.org/materials/mp-1182337,203.71953898790318
-4.654969826538461,-121.02921549,6.785720023995777,-0.3091213217569229,0.36920125,0.0,186,mp-23671,LaNi5H7,https://materialsproject.org/materials/mp-23671,215.06558765045972
-5.106151043076922,-66.37996356,7.832845276613108,-0.2715534851923073,6.2265258,0.0,139,mp-1209923,Nd(Ga2Fe)4,https://materialsproject.org/materials/mp-1209923,196.18321779422288
-7.0815614920000005,-141.63122984,5.4667822281019385,-2.5668539245000006,7.81686445,0.0,7,mvc-9966,CaLaCrCoO6,https://materialsproject.org/materials/mvc-9966,234.44037374753543
-2.6607706375,-21.2861651,5.466173948159361,-0.2841370208333336,5.2300000000000004e-05,0.0,62,mp-11840,BaAg,https://materialsproject.org/materials/mp-11840,297.9460265129036
-4.12451002125,-32.99608017,4.3384465224716235,-0.4569307987499998,1.3637225,0.0,193,mp-570722,NbI3,https://materialsproject.org/materials/mp-570722,362.5556508939291
-4.188296332,-41.88296332,4.511140931029627,0.13845217599999984,7.21274075,0.0,194,mp-1206044,CrCoBr3,https://materialsproject.org/materials/mp-1206044,258.14026574902977
-5.6899712292307685,-73.96962598,5.2607798101739975,-0.4261563969230775,5.1631928,0.0,139,mp-5091,Dy(Al2Fe)4,https://materialsproject.org/materials/mp-5091,189.93381712333775
-5.172187969166667,-62.06625563,7.375735151720652,-0.16427167249999994,2.5e-08,0.018199999999999328,64,mp-29900,NiGe2,https://materialsproject.org/materials/mp-29900,183.6865271619851
-3.13211102,-31.3211102,3.3949897389106383,-1.5111094255559998,2.34e-05,0.0,225,mp-1111969,K2TlCuCl6,https://materialsproject.org/materials/mp-1111969,273.33870926915404
-4.187357914375,-66.99772663,5.45573962717496,-0.2992849206249999,3.8e-06,0.0,139,mp-1105296,SrGe3,https://materialsproject.org/materials/mp-1105296,371.98336647477936
-5.3567326416666665,-96.42118755,5.760968533401615,-0.5214369932799998,8.36e-05,0.7712999999999997,2,mp-1246104,Ba4SnN4,https://materialsproject.org/materials/mp-1246104,417.39671034067607
-4.7654763440000005,-47.65476344,4.644036232518363,-0.216218214584822,2.9999998,0.6429,5,mp-1226296,CrCu(PSe3)2,https://materialsproject.org/materials/mp-1226296,232.86326188951523
-6.412773106,-64.12773106,7.2767400331395296,-0.4723482440000005,4e-07,0.0,70,mp-30050,Ba(GeRu)2,https://materialsproject.org/materials/mp-30050,221.23679404707002
-6.7423631330000005,-134.84726266,6.205728420676692,-1.864567121442,14.192509699999999,0.0,204,mp-1208349,TbMn4(CuO4)3,https://materialsproject.org/materials/mp-1208349,203.71213784188652
-7.2967020089285715,-204.30765625,5.288288322106106,-2.3847550982142858,17.0000003,1.5724999999999998,8,mp-756412,Li4V3Cr3(WO8)2,https://materialsproject.org/materials/mp-756412,301.52061811479547
-6.020015001538463,-78.26019502,5.582958494181608,-0.3937595776923075,8.3460458,0.0,44,mp-1225357,DyAl7Fe5,https://materialsproject.org/materials/mp-1225357,187.55806548933776
-7.3093350357142866,-204.661381,5.147693081255201,-2.5470614439285715,9.9999996,0.9946000000000002,1,mp-775133,Li4Ti3Fe3(WO8)2,https://materialsproject.org/materials/mp-775133,310.5052501612371
-7.490921034999999,-74.90921035,8.695349540737391,0.000941168524001057,3.33722475,0.0,74,mp-1246554,Fe3SbN,https://materialsproject.org/materials/mp-1246554,115.84222379763185
-7.3666262725,-147.33252545,5.3889521202336566,-2.802835052,7.00000065,0.0,7,mvc-8975,CaLaCrFeO6,https://materialsproject.org/materials/mvc-8975,235.92310780749935
-2.84232284,-22.73858272,3.9990431712109418,0.2179684424999997,0.77030595,0.0,194,mp-1183355,Ba3Y,https://materialsproject.org/materials/mp-1183355,415.970587682236
-5.833086446923077,-75.83012381,8.147564687267352,-0.28169558307692344,1.1784639,0.0,139,mp-1212901,Gd(Ga2Fe)4,https://materialsproject.org/materials/mp-1212901,191.2563008082352
-6.9518056135714295,-194.65055718,5.224227700149462,-2.243095094642857,19.0,1.1571000000000002,1,mp-1177221,Li4V3Fe3(WO8)2,https://materialsproject.org/materials/mp-1177221,308.8880888054877
-7.6191517907142865,-213.33625014,5.10192670618343,-2.6779095057142865,10.9601879,0.13400000000000034,8,mp-768668,Li4Ti3V3(WO8)2,https://materialsproject.org/materials/mp-768668,308.5027400516928
-7.992926909999999,-167.85146511,4.739398476753945,-3.1436528166865068,10.000000300000002,1.8806000000000005,12,mp-1214656,Ba2Ti4Fe2O13,https://materialsproject.org/materials/mp-1214656,275.3215536309318
-5.0181687082,-250.90843541,3.2812263961326953,-1.4380108367424516,0.99999995,0.8605999999999999,14,mp-1198901,Cs2CuH8(SeO6)2,https://materialsproject.org/materials/mp-1198901,695.6811349281857
-7.219304121666667,-86.63164946,8.030642827343375,-0.8947640600000012,7e-07,0.0,62,mp-1207428,ZrNiAs,https://materialsproject.org/materials/mp-1207428,185.96465824296635
-4.0895661683333335,-24.53739701,8.363480557691814,0.01907741833333354,0.0,0.0,129,mp-1825,Cu2Sb,https://materialsproject.org/materials/mp-1825,98.8173424524883
-3.036602105333333,-45.54903158,1.975858195407044,-0.8238194574829999,1.9999999,0.0,166,mp-28865,Os(SCl6)2,https://materialsproject.org/materials/mp-28865,571.3101273461032
-6.2697764992857135,-175.55374198,7.4619363777551735,-0.5812121985714295,2.27e-05,0.0,140,mp-31051,CeSi4Ni9,https://materialsproject.org/materials/mp-31051,347.4649040530531
-7.1646242475,-85.97549097,7.950961978162093,-0.20062764583333248,3.71931835,0.005700000000000038,62,mp-21286,MnCoGe,https://materialsproject.org/materials/mp-21286,155.80967247457542
-4.428866341428573,-31.00206439,4.634546783163826,-1.683534759821429,0.0,0.9888,139,mp-755293,Sr4Sb2O,https://materialsproject.org/materials/mp-755293,218.56027470826166
-3.3726092789999997,-33.72609279,3.2642894164240417,-1.5984781080560004,0.0,0.9383,225,mp-1112238,K2CuBiCl6,https://materialsproject.org/materials/mp-1112238,286.62157605546713
-3.748248022857143,-52.47547232,5.125111602628529,-0.3872311553124997,0.0,1.1846,161,mp-4431,Ag3AsS3,https://materialsproject.org/materials/mp-4431,320.5798937507317
-6.496650635,-51.97320508,9.75553217613544,-0.5118085724999997,0.0,0.18489999999999984,198,mp-20866,GeRh,https://materialsproject.org/materials/mp-20866,119.52199051094512
-6.387150214999999,-38.32290129,6.938027081753254,-0.6445890708333325,9.699999999999999e-06,0.0,160,mp-1215239,ZrSc(NiSn)2,https://materialsproject.org/materials/mp-1215239,117.51216791030566
-3.069008673,-30.69008673,3.687269169697752,-1.3573398325560002,0.0,0.0,225,mp-1111972,K2CuAuCl6,https://materialsproject.org/materials/mp-1111972,248.3318411810537
-8.267842602142858,-115.74979643,7.855283045745763,-0.11164319249142908,28.4412373,0.0,139,mp-1208661,SmFe12N,https://materialsproject.org/materials/mp-1208661,176.40751407959095
-6.601885492142857,-184.85279378,5.3058866124557005,-2.072143666428571,13.9999999,1.2746,36,mp-775194,Li2Fe3WO8,https://materialsproject.org/materials/mp-775194,308.7380468112959
-4.238467747,-42.38467747,4.39006643617095,-0.2780696855848213,0.0,0.8438000000000003,146,mp-1228984,AlCu(PSe3)2,https://materialsproject.org/materials/mp-1228984,236.87290039536214
-2.03486703625,-32.55787258,2.463797121050745,0.1891584610156252,2e-06,0.0,38,mp-1098186,Mg14BiC,https://materialsproject.org/materials/mp-1098186,378.27626317944237
-2.68770552875,-21.50164423,7.982944217783407,-0.16511660874999956,4.65e-06,0.0,194,mp-864934,MgAg3,https://materialsproject.org/materials/mp-864934,144.7379456576477
-6.515078558499999,-130.30157117,6.426414518684959,-1.7922138884419987,14.475578200000001,0.0,204,mp-559944,YbMn4(CuO4)3,https://materialsproject.org/materials/mp-559944,200.36369067998208
-7.203113871052632,-136.85916355,7.8539704142200435,-0.3442884409210538,6.5690883,0.0,166,mp-1106274,La(Co2B)6,https://materialsproject.org/materials/mp-1106274,192.6033399651664
-4.9762759421875,-159.24083015,5.299347012952076,-1.8758357729612496,0.0,1.7061,15,mp-541677,Cd2AsO4F,https://materialsproject.org/materials/mp-541677,479.72254069368023
-4.78464501,-153.10864032,3.7051161352847366,-1.4916800842343751,0.0,2.9741,176,mp-672223,Na2Zn2(TeO3)3,https://materialsproject.org/materials/mp-672223,630.6642877882059
-5.6467895725,-45.17431658,10.106546887215206,0.2249349369049991,4.7e-06,0.0,182,mp-1079760,Pd3N,https://materialsproject.org/materials/mp-1079760,109.51363947700526
-9.282822217272725,-204.22208878,8.750717870484928,0.006248957102272357,12.8331712,0.0,12,mp-571055,Fe11Mo6C5,https://materialsproject.org/materials/mp-571055,237.19822013711155
-5.082424315,-40.65939452,9.242090840423504,-0.060767370833333174,0.6222161,0.0,194,mp-22469,InNi3,https://materialsproject.org/materials/mp-22469,104.53215102646469
-4.220824986666667,-37.98742488,5.411308347142253,-0.7449134751987548,0.0,1.0576,69,mp-11694,Cs2Pd3Se4,https://materialsproject.org/materials/mp-11694,276.4576755474727
-7.600539976,-152.01079952,5.471371867245887,-2.861591931596001,5.9999996,1.0155000000000003,7,mvc-9910,CaLaMnCrO6,https://materialsproject.org/materials/mvc-9910,231.81869089438177
-6.552400754615384,-85.18120981,5.837772139926872,-0.240896251538462,7.1024148,0.0,71,mp-1225398,Dy(MnAl)6,https://materialsproject.org/materials/mp-1225398,186.0335703790704
-6.662466191538463,-86.61206049,8.579620241018858,-0.27620994,11.280712199999998,0.0,191,mp-18450,Lu(FeGe)6,https://materialsproject.org/materials/mp-18450,183.06937153567515
-8.005706191,-160.11412382,5.3528743287958465,-3.2555653932626667,3.9999998999999997,0.24049999999999996,7,mp-41742,CaNdTiMnO6,https://materialsproject.org/materials/mp-41742,237.6996273054018
-6.21037469875,-49.68299759,5.841799565569088,-0.821504113125,1.075e-05,0.0,63,mp-1079037,LaSi2Ni,https://materialsproject.org/materials/mp-1079037,144.2688238721432
-6.43795875875,-51.50367007,6.2672414848088485,-2.2945068957031243,0.0,1.6415999999999995,129,mp-6166,PrCuSO,https://materialsproject.org/materials/mp-6166,133.8120068760877