energy_per_atom,energy,density,formation_energy_per_atom,total_magnetization,band_gap,sgr,mp_id,formula,URL,cell_volume
-7.0109453114285705,-49.07661718,3.939886897677896,-1.9548302905171429,5.0,0.0,10,mp-33500,Cr2HO4,https://materialsproject.org/materials/mp-33500,71.22725911425698
-4.944562316,-24.72281158,4.825264383024108,-0.8429546452499999,0.009325700000000001,0.0,221,mp-1183426,BeCuO3,https://materialsproject.org/materials/mp-1183426,41.4875876100058
-4.068005348571428,-28.47603744,3.3803228743521383,-2.28824879768,0.0477274,0.0,139,mp-1147641,Na2CuF4,https://materialsproject.org/materials/mp-1147641,91.13383690011894
-5.74817674,-45.98541392,4.339505559628546,-2.520932000625,2.5e-06,0.0,221,mp-1099249,Mg3CuO4,https://materialsproject.org/materials/mp-1099249,76.70674150080751
-6.428728455,-12.85745691,5.777065960159442,-0.3247614300000006,0.7643982,0.0,221,mp-2658,AlFe,https://materialsproject.org/materials/mp-2658,23.807362048809114
-7.530497385,-30.12198954,4.090367140977148,-2.966014788541667,4.6e-06,0.0,123,mp-1222301,LiTiO2,https://materialsproject.org/materials/mp-1222301,35.24037705403552
-8.278663946666667,-49.67198368,3.8761993790936216,-2.9119983702777774,0.9999998999999999,0.0,119,mp-755748,TiVO4,https://materialsproject.org/materials/mp-755748,69.74509269524711
-7.7314795775,-61.85183662,4.525717952958212,-0.8719624299400001,0.0,3.710900000000001,215,mp-1019740,GaB3N4,https://materialsproject.org/materials/mp-1019740,58.03912607607815
-3.429293405,-41.15152086,2.0605350948081647,-0.602037365746666,0.0,0.7404000000000002,62,mp-1181926,CaH2,https://materialsproject.org/materials/mp-1181926,135.69005693947227
-4.30325518625,-34.42604149,2.8750526132149363,-2.5357736765175005,0.0,2.0974000000000004,148,mvc-15834,CaNiF6,https://materialsproject.org/materials/mvc-15834,122.88446666301377
-3.713602445,-14.85440978,4.157359946605517,-0.24808625431,2.7000000000000004e-06,0.0,123,mp-1017509,MgNiH2,https://materialsproject.org/materials/mp-1017509,33.95653316301275
-3.3512917125,-13.40516685,2.511305580834712,0.26113547250000035,4.2315237,0.0,139,mp-978277,Mg3Cr,https://materialsproject.org/materials/mp-978277,82.5943922007299
-5.677148765,-22.70859506,4.899987698447331,-2.329280844375,0.0,3.739,166,mp-8002,LiGaO2,https://materialsproject.org/materials/mp-8002,36.82434175352888
-4.304171779,-43.04171779,2.439840983617406,-2.608343786914,0.0,3.0424,225,mp-1113961,KNa2AsF6,https://materialsproject.org/materials/mp-1113961,186.47561805440648
-2.13112737,-12.78676422,2.497609209242015,-0.023723869166666727,6e-06,0.0,38,mp-1185804,Mg5Ge,https://materialsproject.org/materials/mp-1185804,129.09087679070856
-7.37127401,-36.85637005,3.46569420414253,-0.014736598951999726,5.9839500999999995,0.0,115,mvc-13436,Mg(CrN)2,https://materialsproject.org/materials/mvc-13436,74.89404384136752
-6.5005756375,-52.004605100000006,4.0336999064418855,-2.2698703531249995,7.0000003,1.0846000000000005,10,mp-1177788,Li2VFeO4,https://materialsproject.org/materials/mp-1177788,76.02084327711795
-8.958494645,-53.75096787,3.799345603847244,-3.5085087330555558,0.0,1.9982,15,mp-34688,TiO2,https://materialsproject.org/materials/mp-34688,69.81216908856081
-5.322324848,-26.61162424,4.535349777715229,-1.31400380125,2.999011,0.0,221,mp-1183176,AlNiO3,https://materialsproject.org/materials/mp-1183176,48.94208299772027
-2.842200465,-22.73760372,2.46376401584673,0.36627760750000027,0.0078334,0.0,194,mp-977165,Li3Co,https://materialsproject.org/materials/mp-977165,107.50889665367343
-6.892969555,-55.14375644,3.060728952371821,-2.689804262619999,4.999999900000001,2.7388,121,mp-752844,Li2MnSiO4,https://materialsproject.org/materials/mp-752844,87.29487585767204
-4.896128458,-48.96128458,2.9403102379045345,-1.938483946202,0.0,2.7645,12,mp-1183269,AsN(OF3)2,https://materialsproject.org/materials/mp-1183269,132.66957574162447
-8.087310888000001,-80.87310888,3.876235971371599,-2.736315386583334,2.0000001,1.7983000000000002,167,mp-18946,VBO3,https://materialsproject.org/materials/mp-18946,94.03210917153777
-4.8706233800000005,-14.61187014,2.1616820025872165,-0.8849361207933331,8e-07,0.017100000000000115,166,mp-2686,Ca2N,https://materialsproject.org/materials/mp-2686,72.3329515047389
-4.445761723,-44.45761723,2.668416645445004,-2.911651040414,0.0,4.9444,225,mp-1113960,KNa2GaF6,https://materialsproject.org/materials/mp-1113960,167.26712370164682
-5.193363556666666,-46.74027201,2.9632595383422067,-2.8201008292788887,5.0000002,2.388,8,mp-754295,Li3FeOF4,https://materialsproject.org/materials/mp-754295,94.51355598673736
-4.921098338181818,-54.13208172,2.9413998913737376,-2.721366447245454,3.3406677000000005,0.0,12,mp-754887,Li4CoOF5,https://materialsproject.org/materials/mp-754887,111.60320543003755
-3.85501584,-15.42006336,0.4246885361922697,2.7236126825,5.896691099999999,0.0,71,mp-1097081,Al2FeTc,https://materialsproject.org/materials/mp-1097081,812.5329402856977
-7.8977584575,-31.59103383,5.218738588900622,-2.0859481918750005,0.0,0.8052999999999999,166,mp-714885,VO,https://materialsproject.org/materials/mp-714885,42.59955770122316
-7.963149395,-31.85259758,5.224838959044218,-1.2198248802825011,4.9779312000000004,0.0,123,mp-1216644,V2NO,https://materialsproject.org/materials/mp-1216644,41.91650713393987
-3.866165175,-15.4646607,3.970559730921158,-0.03026472250000012,1e-07,0.0,221,mp-1183161,Al3Cu,https://materialsproject.org/materials/mp-1183161,60.42783000619341
-8.021334937999999,-80.21334938,4.046621922018153,-2.625039732583333,3.0000001,2.3089,167,mp-19299,CrBO3,https://materialsproject.org/materials/mp-19299,90.93833327386719
-7.108506954285715,-49.75954868,2.8978475303862994,-2.579674544014693,5.0000003,3.3455000000000004,82,mp-753382,LiMnPO4,https://materialsproject.org/materials/mp-753382,89.87920224659611
-8.967305203333334,-53.80383122,3.7656580102460415,-3.517319291388889,0.0,2.0622,141,mp-390,TiO2,https://materialsproject.org/materials/mp-390,70.43670906916306
-4.5411900125,-18.16476005,4.570999118562017,-1.1898179155000008,1.0000001,0.0,166,mp-578611,NaNiO2,https://materialsproject.org/materials/mp-578611,41.29804955921904
-2.5654581000000003,-10.261832400000001,2.7695271257673215,-0.13061090624999985,1e-07,0.0,225,mp-30079,LiMg2Ge,https://materialsproject.org/materials/mp-30079,76.86011019576618
-6.635844061999999,-33.17922031,3.3708738745676574,-1.8006954252500005,0.0,0.8522,1,mp-562987,VCuO3,https://materialsproject.org/materials/mp-562987,80.0427005968397
-7.19871160875,-57.58969287,3.822297766441123,-2.686570042828333,4.937077400000001,0.0,119,mp-754547,Li2TiMnO4,https://materialsproject.org/materials/mp-754547,78.49569167145167
-4.859605544,-48.59605544,2.615429752034096,-1.9019610322020004,0.0,2.6589,12,mp-611316,AsN(OF3)2,https://materialsproject.org/materials/mp-611316,149.14937459442962
-6.8878899229999995,-68.87889923,3.1720875811343086,-1.7925493930000005,1.9999996,0.0,148,mp-753103,LiCo(CO3)2,https://materialsproject.org/materials/mp-753103,97.31159907337846
-7.10515551,-42.63093306,2.455727563065284,-2.43144117952381,5.000000099999999,2.7868000000000004,82,mp-760343,FePO4,https://materialsproject.org/materials/mp-760343,101.98055384416222
-6.47584365375,-51.80674923,4.207001767631105,-2.446719916458334,2.0000001,1.6488999999999998,10,mp-755096,Li2TiNiO4,https://materialsproject.org/materials/mp-755096,72.80002183361466
-3.311518094444444,-29.80366285,3.0967343849996545,2.7242404999111116,8.861743800000001,0.0,139,mp-1079782,Cu(N3Cl)2,https://materialsproject.org/materials/mp-1079782,117.1604609658921
-5.0762750671428565,-35.53392547,2.4256800850006752,-2.9012783949657135,4.0,3.3952,82,mp-755718,Li2FeF4,https://materialsproject.org/materials/mp-755718,99.75543270664083
-7.8536663975,-31.41466559,4.174752293390556,-1.502064725356666,0.0,0.3858000000000006,166,mp-1245745,MgTiN2,https://materialsproject.org/materials/mp-1245745,39.84949435237127
-4.111992751666667,-24.67195651,2.716434784838073,-0.36859125852444413,0.0705398,0.0,123,mp-1077185,MgTiH4,https://materialsproject.org/materials/mp-1077185,46.582866329453736
-4.081754815,-16.32701926,3.1457495401455926,-0.8477293170312503,7e-07,0.0,12,mp-753722,LiCuS2,https://materialsproject.org/materials/mp-753722,71.05994329648193
-3.35561259,-16.77806295,3.5495786119075268,-0.6582227071899996,2.1519308999999995,0.0,221,mp-1207389,ZnNF3,https://materialsproject.org/materials/mp-1207389,63.814797653117004
-6.76621839125,-54.12974713,4.0545146617651735,-2.316567076995,1.9999999,0.0,10,mp-754402,Li2MnVO4,https://materialsproject.org/materials/mp-754402,75.25912709282825
-5.3551738725,-21.42069549,4.890085123236965,-1.5983673104999996,0.0,0.8321999999999998,166,mp-18921,NaCoO2,https://materialsproject.org/materials/mp-18921,38.68471249993219
-6.74149951,-53.93199608,4.077499949889649,-2.263535880745,6.9999997,0.5782999999999996,10,mp-1101152,Li2MnCrO4,https://materialsproject.org/materials/mp-1101152,75.26436357391256
-1.0743098775,-4.29723951,0.1834458785166243,1.84527733875,1.7092686000000001,0.0,71,mp-1096179,CaYMg2,https://materialsproject.org/materials/mp-1096179,1607.5668942443933
-1.7266269225,-6.90650769,2.7220392189215206,-0.06696384624999974,0.004483600000000001,0.0,166,mp-1222495,Li3Cd,https://materialsproject.org/materials/mp-1222495,81.27739560747987
-9.639836525,-38.5593461,5.52257425249487,-1.1012669094491656,0.0013439,0.0,160,mp-1216717,TiVCN,https://materialsproject.org/materials/mp-1216717,37.53290959546559
-6.798618824999998,-40.79171295,2.72143856194739,0.019128494166667547,2.3899999999999998e-05,0.0,63,mp-1077545,CaC2,https://materialsproject.org/materials/mp-1077545,78.22300869023523
-6.055383274,-30.27691637,3.000757722194753,-2.0768873654999997,4.0000001,1.031,71,mp-1178001,Li2CrO2,https://materialsproject.org/materials/mp-1178001,54.16245782258715
-6.91068736875,-55.28549895,3.9987342448341416,-2.4428729606249995,5.000000599999999,0.9309999999999996,10,mp-754054,Li2VCrO4,https://materialsproject.org/materials/mp-754054,75.08726544940518
-7.0603703085714296,-49.42259216,4.110627808754998,-2.2793997452742865,1.9999999,0.5313999999999997,10,mp-1002568,MgMn2O4,https://materialsproject.org/materials/mp-1002568,80.0567375475252
-6.385056314,-31.92528157,2.9372835509676274,-2.3606329238499995,1.9999997999999999,0.0,221,mp-973960,KScO3,https://materialsproject.org/materials/mp-973960,74.65339373855406
-4.535274525,-9.07054905,3.1411637816522986,0.21545663166666615,2.2e-06,0.0,187,mp-1094894,MgTi,https://materialsproject.org/materials/mp-1094894,38.15287324236243
-0.6533106425,-2.61324257,0.1650010819911162,1.2823977962500002,0.0,0.07939999999999969,71,mp-1097520,BaLi2Ca,https://materialsproject.org/materials/mp-1097520,1925.0754450300026
-7.550619438333332,-45.30371663,3.977253659768955,-2.4623496069444437,4.0083462,0.0,119,mp-754900,TiFeO4,https://materialsproject.org/materials/mp-754900,70.02026071401284
-6.23590909,-12.47181818,5.931767838509155,-1.2592860593750004,4.0051953000000005,0.0,225,mp-18905,FeO,https://materialsproject.org/materials/mp-18905,20.112120746006813
-8.72833366,-34.91333464,5.631693778332154,-0.8494676933333345,0.0,0.0,63,mp-9973,VB,https://materialsproject.org/materials/mp-9973,36.41619772088116
-6.9112885275,-55.29030822,4.00068435971959,-2.443474119375,4.999999900000001,0.9770000000000004,12,mp-755540,Li2VCrO4,https://materialsproject.org/materials/mp-755540,75.05066451294171
-4.76070676,-38.08565408,2.7578880607438934,-2.7905080177675003,5.0,1.3477,148,mvc-15833,CaCoF6,https://materialsproject.org/materials/mvc-15833,128.24940250356443
-6.801468063333334,-40.80880838,2.1690187353805768,0.016279255833333412,0.0,2.0461,15,mp-1575,CaC2,https://materialsproject.org/materials/mp-1575,98.14535430640258
-5.154470951111112,-46.39023856,2.6501199857755458,-2.415287382208889,4.0000002,2.9127,12,mp-752518,Li4Fe(OF)2,https://materialsproject.org/materials/mp-752518,96.2471310808932
-4.942697205714286,-34.59888044,3.117488442363487,-2.7677005335371425,4.0000005,3.5037,65,mp-755356,Li2FeF4,https://materialsproject.org/materials/mp-755356,77.61849673568425
-1.509669625,-6.0386785000000005,1.5286015687457457,0.3479041840000001,6.8e-06,0.0,221,mp-1184878,K3Cu,https://materialsproject.org/materials/mp-1184878,196.44973590151022
-0.9780580775,-3.91223231,1.5163893730560878,0.17289937025000002,0.4073887,0.0,221,mp-1185031,K3Zn,https://materialsproject.org/materials/mp-1185031,200.07193673404515
-7.88930554,-78.8930554,1.8549396844399924,0.05965465388133424,0.0,3.2193,215,mp-13589,CuB(CN)4,https://materialsproject.org/materials/mp-13589,159.7272070676047
-8.943029205,-17.88605841,3.3399922943509828,-1.8005245836899997,0.0,2.4464,216,mp-1009750,ScN,https://materialsproject.org/materials/mp-1009750,29.314354794162178
-7.10420727,-56.83365816,3.9432803434689885,-1.34359890244,0.0,3.3491,215,mp-1019378,Al3GaN4,https://materialsproject.org/materials/mp-1019378,87.04026011093877
-9.4809106225,-37.92364249,5.337146513647033,-0.6240906585416663,2e-07,0.0,166,mp-1216691,TiVC2,https://materialsproject.org/materials/mp-1216691,38.21589752272349
-2.3192356,-4.6384712,4.157251835502812,0.3996112977500004,2e-07,0.0,187,mp-976292,NaCu,https://materialsproject.org/materials/mp-976292,34.56514758589141
-6.28884003,-25.15536012,3.9420988867265154,-1.971432275740001,4.0000005,1.2993,12,mp-755520,NaMnO2,https://materialsproject.org/materials/mp-755520,46.30463105874521
-4.04146503,-12.12439509,4.06511153564969,-0.17629881999999952,8e-07,0.0,225,mp-985806,Al2Cu,https://materialsproject.org/materials/mp-985806,48.000751894200675
-6.09095694,-24.36382776,4.013224223258117,-0.05932934077381001,1.3e-06,0.0,139,mp-980204,TiP3,https://materialsproject.org/materials/mp-980204,58.2535219245459
-4.7309278353333335,-70.96391753,2.297174188317283,-0.6303737806666665,0.0,4.51,12,mp-632706,ZnH8(N2Cl)2,https://materialsproject.org/materials/mp-632706,144.86531294671218
-6.4552294125,-51.6418353,4.249144566645096,-2.3654762014583333,1.0,0.0,10,mp-1177887,Li2TiCuO4,https://materialsproject.org/materials/mp-1177887,73.97436056906878
-6.497864735,-51.98291788,4.130484322565301,-2.238847135625001,7.999999799999999,1.7079999999999995,10,mp-755048,Li2CrFeO4,https://materialsproject.org/materials/mp-755048,74.66351371952274
-4.764279865,-9.52855973,5.077899276183961,0.0925610583699994,3.0118674,0.0,221,mp-985588,FeCl,https://materialsproject.org/materials/mp-985588,29.855632226689266
-2.1229326925,-16.98346154,2.2045009965864706,0.04109716874999991,1.1e-06,0.0,38,mp-1099290,LiMg6Ni,https://materialsproject.org/materials/mp-1099290,159.28543117644375
-7.928973995,-47.57384397,3.2966113473164285,-3.0005181825,0.99999985,0.0,63,mp-1179108,ScO2,https://materialsproject.org/materials/mp-1179108,77.52585314127464
-6.906359325,-55.2508746,4.007270937546426,-2.6131637889583343,4.0000005,0.25459999999999994,119,mp-1177839,Li2TiFeO4,https://materialsproject.org/materials/mp-1177839,75.24820403600931
-6.979977239,-69.79977239,3.3543115927139615,-2.2715212460000003,0.0,3.9729,148,mp-1078391,CaZn(CO3)2,https://materialsproject.org/materials/mp-1078391,111.63528305503011
-3.7407417066666655,-33.66667536,2.9830321888333,2.4815684665777784,8.0000005,0.0,225,mp-1084748,Ni(N3Cl)2,https://materialsproject.org/materials/mp-1084748,118.92493068562352
-4.651273901666666,-27.90764341,2.424831830289556,-2.430413371603333,0.0,4.6907000000000005,216,mp-1227052,CaHF,https://materialsproject.org/materials/mp-1227052,82.29222029343322
-7.773226058,-77.73226058,3.9791874734937362,-2.405991802775333,4.00000025,0.0,167,mp-761288,MnBO3,https://materialsproject.org/materials/mp-761288,94.93482891827972
-4.8932852392857145,-68.50599335,2.6052025642805035,-2.3552353203442853,3.0,2.408,1,mp-759770,Li7Co(OF)3,https://materialsproject.org/materials/mp-759770,135.45477875993217
-5.772886644,-57.72886644,3.4649368183954317,-3.043282211906,4.9999977,3.6582,182,mp-754676,LiMnF3,https://materialsproject.org/materials/mp-754676,113.93878212510137
-4.951738039333334,-74.27607059,2.6430935982827317,-2.081577930662668,2.0,0.9286,1,mp-850211,Li8CoO5F,https://materialsproject.org/materials/mp-850211,134.10535854159252
-6.88293879125,-55.06351033,4.154568771842844,-2.589743255208334,4.0000008000000005,0.8112999999999997,139,mp-1177837,Li2TiFeO4,https://materialsproject.org/materials/mp-1177837,72.58032245842682
-3.838681247272728,-84.45098744,1.051060340885807,-0.15252003793575722,0.0,4.5022,98,mp-1191586,Zn(BH4)2,https://materialsproject.org/materials/mp-1191586,300.4740200110296
-4.7872230675,-19.14889227,2.827086683237117,-0.28284500499999954,6.39e-05,0.0,225,mp-977580,MgSc2Al,https://materialsproject.org/materials/mp-977580,82.93533936246497
-8.51856318,-17.03712636,6.106357637086463,-0.3124116511899988,1e-07,0.0,216,mp-6988,FeN,https://materialsproject.org/materials/mp-6988,18.995198406969035
-1.8800671125,-7.52026845,1.6395898993469709,0.02273772375000016,1.28e-05,0.0,25,mp-1038985,Ca3Mg,https://materialsproject.org/materials/mp-1038985,146.3857836634357
-6.498285325,-51.9862826,4.130704125540421,-2.239267725625001,7.9999994999999995,1.6652999999999998,12,mp-768945,Li2CrFeO4,https://materialsproject.org/materials/mp-768945,74.6595407255852
-7.180393874000001,-71.80393874,3.3724351923347418,-2.0663334600000014,4.0000001,0.0,148,mp-1222048,MgFe(CO3)2,https://materialsproject.org/materials/mp-1222048,98.5597728331142
-7.068140831428572,-49.47698582,3.969450666525748,-2.202277812142858,4.999999900000001,0.4636,10,mp-1176774,LiCr2O4,https://materialsproject.org/materials/mp-1176774,73.17874615448324
-2.83778399,-11.35113596,2.7445263118081384,-0.32702737375,0.0,0.008300000000000196,216,mp-1222651,Li2MgGe,https://materialsproject.org/materials/mp-1222651,67.05439820135531
-7.909841203000001,-79.09841203,3.547319351538416,-2.0332175501920005,4.99999995,3.4730000000000003,167,mp-18814,MnCO3,https://materialsproject.org/materials/mp-18814,107.61584779134915
-0.9855903225,-3.94236129,1.4354385288910465,0.16536712524999994,0.0032643,0.0,139,mp-1185097,K3Zn,https://materialsproject.org/materials/mp-1185097,211.35489441309528
-6.5845716475,-52.67657318,4.061345482436072,-2.124771112115,3.9999992999999994,0.8595000000000002,58,mp-1002572,LiMnO2,https://materialsproject.org/materials/mp-1002572,76.76659239541686
-6.928146315,-27.71258526,3.925587089062309,-2.488644221875001,1.9999997999999999,1.7866999999999995,166,mp-19340,LiVO2,https://materialsproject.org/materials/mp-19340,38.02014940180658
-1.7164137475,-13.73130998,1.8848140205302517,0.4487198553735634,7.6e-05,0.0,38,mp-1100164,RbMg6B,https://materialsproject.org/materials/mp-1100164,213.3001505445345
-6.9025782225,-55.22062578,3.947542383138522,-2.4630761293750005,2.0,1.0526,74,mp-775331,LiVO2,https://materialsproject.org/materials/mp-775331,75.61738070423885
-6.11523279,-42.80662953,3.2953382635092363,-3.4967680817014286,5.000000099999999,4.634,71,mp-1251981,MnAlF5,https://materialsproject.org/materials/mp-1251981,89.14672615484743
-4.292079966666667,-12.8762399,3.1917265230760483,0.7012398799523805,3.827433,0.0,216,mp-631274,KFeP,https://materialsproject.org/materials/mp-631274,65.51006038311462
-6.203163076666668,-37.21897846,3.425295347109148,-2.183347287708333,2.0000002,0.0,65,mp-755602,Li2CrO3,https://materialsproject.org/materials/mp-755602,55.205762633094885
-7.19700615375,-57.57604923,3.9682803632951926,-2.6667014939583344,3.6286784,0.0,119,mp-1177868,Li2TiCrO4,https://materialsproject.org/materials/mp-1177868,74.37697576889992
-6.879373605,-55.03498884,4.0654732502612365,-2.4115591968749994,5.000000099999999,0.7605,119,mp-755278,Li2VCrO4,https://materialsproject.org/materials/mp-755278,73.85462926959227
-3.150471348,-15.75235674,1.1850205939184228,0.11688291656800018,3.9999997000000005,0.504,160,mp-1224374,GeNCl3,https://materialsproject.org/materials/mp-1224374,270.45394943962526
-4.904276415,-19.61710566,3.1590604225523253,-0.504686283571429,0.0,1.6652000000000005,115,mp-1228888,AlGaP2,https://materialsproject.org/materials/mp-1228888,83.39439848731169