energy_per_atom,energy,density,formation_energy_per_atom,total_magnetization,band_gap,sgr,mp_id,formula,URL,cell_volume
-6.372441816,-31.86220908,3.8641626734257897,-1.5622312932499995,2.7262562000000004,0.0,123,mvc-15604,AlCrO3,https://materialsproject.org/materials/mvc-15604,54.56507785815094
-2.1492735125,-8.59709405,2.2969879792198644,0.010214182874999532,0.0005931,0.0,225,mp-1185667,Na3Ge,https://materialsproject.org/materials/mp-1185667,102.372231036038
-4.739196573636363,-52.13116231,2.9173973109535414,-2.1324269762390915,1.0000001,0.0,12,mp-759151,Li5NiO3F2,https://materialsproject.org/materials/mp-759151,102.10805149073833
-6.48329863,-32.41649315,4.446282844216099,-1.722108345250001,0.9999528,0.0,221,mp-1183449,BeVO3,https://materialsproject.org/materials/mp-1183449,40.316444271119536
-6.24367289,-62.4367289,3.181329684571562,-1.677786678281333,1.9933506,0.0,58,mp-1094046,Ti(HO)2,https://materialsproject.org/materials/mp-1094046,85.47855128639287
-7.740437353999998,-38.70218677,4.401661713541372,-2.45863976025,0.0402486,0.0,221,mp-972978,ScVO3,https://materialsproject.org/materials/mp-972978,54.285017105153464
-2.349745365,-9.39898146,2.574123946714725,-0.2370081374999997,1.95e-05,0.0,216,mp-1222647,Li2MgGa,https://materialsproject.org/materials/mp-1222647,69.61155387839544
-7.767252366666668,-46.603514200000006,4.437932229868286,-2.4839071258333334,0.0,0.8715000000000002,58,mp-547074,VO2,https://materialsproject.org/materials/mp-547074,62.06746701195099
-0.585495995,-2.34198398,0.1668200319564882,0.532955136125,1.0000018,0.4192,71,mp-1095721,K2NaCd,https://materialsproject.org/materials/mp-1095721,2126.164144503041
-8.028474383999999,-40.14237192,3.8364966972212495,-3.5127408395833344,0.0,1.8283,221,mp-5827,CaTiO3,https://materialsproject.org/materials/mp-5827,58.839876230319526
-5.3762989633333325,-16.12889689,3.8327317282697946,-0.5840987379688892,5.2900000000000005e-05,0.0,139,mp-24726,TiH2,https://materialsproject.org/materials/mp-24726,21.61186212347509
-5.375379850000002,-16.12613955,3.8257363819360797,-0.5831796246355564,5.88e-05,0.0,225,mp-24161,TiH2,https://materialsproject.org/materials/mp-24161,21.65137934195988
-7.769065335,-46.61439201,4.4537080350738165,-2.485720094166666,0.0,0.8854000000000002,136,mp-19094,VO2,https://materialsproject.org/materials/mp-19094,61.84761329422408
-3.9052789575,-31.24223166,3.0310914831250395,-1.2648271155650002,1.9999996,0.0,148,mp-1078960,AsNF6,https://materialsproject.org/materials/mp-1078960,111.16604597859225
-9.832654375,-39.330617499999995,5.340303737559274,-1.907854604523334,1.2e-05,0.0,225,mp-492,TiN,https://materialsproject.org/materials/mp-492,38.47859576848932
-7.458899951666666,-44.75339971,4.248046682582305,-2.6431988870733334,3.0000001,0.0,38,mp-755095,V2O3F,https://materialsproject.org/materials/mp-755095,66.01414605991104
-8.535895135,-17.07179027,4.503339989046767,-3.2564190118750016,2.02e-05,0.0,225,mp-644481,ScO,https://materialsproject.org/materials/mp-644481,22.47635655259635
-1.5434117766666666,-9.26047066,2.4411290133250367,0.005671827499999911,3.6000000000000003e-06,0.0,189,mp-1094473,Mg5Zn,https://materialsproject.org/materials/mp-1094473,127.15886919903183
-7.142356013333334,-42.85413608,4.0794084951379235,-2.7942991249800007,2.0000002,0.5863999999999998,65,mp-754001,VOF,https://materialsproject.org/materials/mp-754001,69.96385294783876
-4.5543091525,-18.21723661,4.590915388276522,-1.645901688125,1.0,0.0,166,mp-754344,LiZnO2,https://materialsproject.org/materials/mp-754344,37.7430733355775
-6.059179666,-30.29589833,3.878598864394043,-1.7309094741499995,1.0000016,0.0,221,mp-1076642,NaCrO3,https://materialsproject.org/materials/mp-1076642,52.65299544437681
-1.8664119733333333,-11.19847184,2.4504372050284857,-0.02435473166666687,0.0001579,0.0,189,mp-1094606,Mg5Ga,https://materialsproject.org/materials/mp-1094606,129.5992281174282
-6.609144652857142,-46.26401257,3.487458628851518,-2.307015193809524,0.0,2.8406,42,mp-549308,LiGeBO4,https://materialsproject.org/materials/mp-549308,73.51197116692711
-6.634212932857142,-46.43949053,3.086518154295172,-2.4257240610204085,2.9999998,3.1592,82,mp-762018,LiCoPO4,https://materialsproject.org/materials/mp-762018,86.5345069937025
-6.5676288299999985,-45.97340181,3.05609646868262,-2.3569224128571427,3.9999998999999997,1.5568999999999995,82,mp-758521,LiCoSiO4,https://materialsproject.org/materials/mp-758521,85.82656263902656
-4.1965738475,-16.78629539,0.4301969551479349,2.6762729225,8.573227099999999,0.0,71,mp-1097254,Al2CrTc,https://materialsproject.org/materials/mp-1097254,787.2723696763794
-5.233248833999999,-26.16624417,2.769912403636685,-0.8508830819519992,0.0,1.4818999999999996,164,mp-13146,Ca3N2,https://materialsproject.org/materials/mp-13146,88.87306145685062
-4.854784965,-48.54784965,2.888270862493564,-2.8361208097140005,0.0,0.07939999999999969,225,mp-1111683,Li2AlCuF6,https://materialsproject.org/materials/mp-1111683,125.56358926397628
-4.648089598,-46.48089598,3.2933426908044523,-3.034215082614,0.0,5.7453,225,mp-1114336,Na2LiGaF6,https://materialsproject.org/materials/mp-1114336,119.31340341451346
-2.6311141366666666,-7.89334241,4.335455483797337,0.279495145,2e-07,0.0,69,mp-1009830,Be2Zn,https://materialsproject.org/materials/mp-1009830,31.95612518184188
-5.07983001,-35.55881007,3.7128730835765302,-2.944094850135714,1.0000001,0.0,71,mp-1251392,AlCuF5,https://materialsproject.org/materials/mp-1251392,82.97144991553591
-4.262422775,-17.0496911,3.917292598050021,-0.4668139025000002,6e-07,0.0,225,mp-862318,LiAl2Ni,https://materialsproject.org/materials/mp-862318,50.69733112991574
-3.92143948,-19.6071974,3.7972458134510663,-0.8633446951500006,0.011344400000000001,0.0,221,mp-1186198,NaZnO3,https://materialsproject.org/materials/mp-1186198,59.646518438393265
-4.832464378,-24.16232189,4.34277492793186,-1.1558898172500007,0.0034531999999999996,0.0,221,mp-1076317,MgCuO3,https://materialsproject.org/materials/mp-1076317,51.94441431948588
-5.588925816000001,-27.94462908,4.117062013812949,-0.22274901295199925,0.7892544,0.0,164,mp-1247124,Li2CoN2,https://materialsproject.org/materials/mp-1247124,40.6673054192804
-9.6353241225,-38.54129649,5.1038742582901815,-1.3922740036158334,4.7e-06,0.0,166,mp-1217142,Ti2CN,https://materialsproject.org/materials/mp-1217142,39.6116641287289
-0.6246638475,-2.49865539,0.1549523127195924,1.0262590289999998,0.0022072,0.5851999999999999,71,mp-1096333,BaNa2Ca,https://materialsproject.org/materials/mp-1096333,2393.8897116206986
-4.522276675,-45.22276675,3.0501544617135643,-2.9653592720639996,0.0,5.3519000000000005,225,mp-1114330,Na3GaF6,https://materialsproject.org/materials/mp-1114330,137.56337203587384
-5.372437523333333,-16.11731257,3.9343195043190664,-0.4304493815972232,4.57e-05,0.0,191,mp-1008676,TiS2,https://materialsproject.org/materials/mp-1008676,47.270027423730475
-6.101625946,-30.50812973,3.0218577031580334,-1.6194853831399996,5.000000099999999,1.5237,1,mp-625671,Mn(HO)2,https://materialsproject.org/materials/mp-625671,48.88035344037483
-4.484025905,-8.96805181,3.170833314316748,0.2667052516666661,0.0,0.06370000000000076,221,mp-1094726,MgTi,https://materialsproject.org/materials/mp-1094726,37.79587626185391
-4.06412504625,-32.51300037,3.5387932821392005,-2.3463885158925004,0.0,2.0238,148,mvc-15858,MgNiF6,https://materialsproject.org/materials/mvc-15858,92.43479306238679
-6.860217926,-34.30108963,4.293647918934826,-2.428230030442,3.0392827000000002,0.0,221,mp-1017467,CaMnO3,https://materialsproject.org/materials/mp-1017467,55.30978356454045
-5.464560786,-27.32280393,3.2730198682573888,-2.8654230693139997,4.0000003,0.0,221,mp-555036,KCrF3,https://materialsproject.org/materials/mp-555036,75.13201509836378
-1.999936575,-11.99961945,2.575170710841317,0.020224603333333015,0.0010673,0.0,189,mp-1185803,Mg5Cu,https://materialsproject.org/materials/mp-1185803,119.33873718664589
-5.148197358571428,-36.03738151,3.675851497062633,-3.0817530258500008,1.9999997999999999,4.7787000000000015,71,mp-1263325,AlNiF5,https://materialsproject.org/materials/mp-1263325,81.6149759017579
-7.101873765,-14.20374753,3.5932586031277363,-2.203395969531249,5.5e-06,0.0,225,mp-1476,ScS,https://materialsproject.org/materials/mp-1476,35.59338344339529
-5.012356143333333,-45.11120529,2.8083102622297282,-2.3277099666533334,3.0000001,1.8528,12,mp-850355,Li4Co(OF)2,https://materialsproject.org/materials/mp-850355,92.6516266778439
-4.102641946666666,-12.30792584,4.855755563002824,-1.0155680116466663,0.9999995,0.0,123,mp-1147690,NiOF,https://materialsproject.org/materials/mp-1147690,32.03989546005127
-5.5927193425,-44.74175474,4.290882977114888,-2.71878278375,0.0,3.1534000000000004,65,mp-753315,Mg3ZnO4,https://materialsproject.org/materials/mp-753315,78.2969186591892
-4.52827149375,-36.22617195,2.93724906076664,-2.71457848458,0.0,5.114,148,mp-1079088,NaAsF6,https://materialsproject.org/materials/mp-1079088,119.79617156640494
-5.5183328760000006,-27.59166438,3.1896479459309632,-2.9191951593140004,3.9999998999999997,0.7059000000000002,123,mp-566131,KCrF3,https://materialsproject.org/materials/mp-566131,77.09583701012039
-6.6014623825,-26.40584953,3.719463595681772,-2.1416618471150004,4.0000002,1.1382000000000003,8,mp-25542,LiMnO2,https://materialsproject.org/materials/mp-25542,41.911373133091466
-4.3724056430000005,-43.72405643,2.785548731324755,-2.653770930564,0.0,3.8108,225,mp-1113885,Na3AsF6,https://materialsproject.org/materials/mp-1113885,153.72985811426574
-8.142470253333334,-24.42741076,4.487425375859519,-1.0577434066666669,0.0,0.0,191,mp-1145,TiB2,https://materialsproject.org/materials/mp-1145,25.7138977667029
-4.822469038333334,-28.93481423,3.2508643485833337,-0.10533419166666687,3.0,0.0,216,mp-1227276,Be4AlCr,https://materialsproject.org/materials/mp-1227276,58.75538068879706
-4.991893621851851,-134.78112779,1.5593701167019418,-1.4443383679785182,0.0,3.1453,1,mp-1179374,Sr(H8O5)2,https://materialsproject.org/materials/mp-1179374,280.8520496060729
-6.2161547666666666,-18.6484643,3.916223105559408,-1.2741666249305572,0.0,0.0,139,mp-1008682,TiS2,https://materialsproject.org/materials/mp-1008682,47.48845656900197
-4.622251512,-23.11125756,3.7236915743257146,-2.500655699314,3.0000009999999997,0.0,221,mp-559946,KCoF3,https://materialsproject.org/materials/mp-559946,69.13244292458957
-3.31332656,-13.25330624,2.6958351922953985,0.17973697499999994,3.6589356,0.0,225,mp-978285,Mg3Mn,https://materialsproject.org/materials/mp-978285,78.75294944295439
-8.210941375,-16.42188275,4.505733660608466,-1.0684367536900004,0.0,0.0,221,mp-12981,ScN,https://materialsproject.org/materials/mp-12981,21.730028115587835
-4.87124392,-14.61373176,4.6637292547429965,-0.014912133333333818,0.7501744,0.0,69,mp-1227342,Be2Co,https://materialsproject.org/materials/mp-1227342,27.40103984652204
-2.837613954285714,-19.86329768,2.4374653776962174,-0.08348430292571406,2.71e-05,0.0,139,mp-1147780,K2CuH4,https://materialsproject.org/materials/mp-1147780,99.30972477639963
-5.110393894285714,-35.77275726,3.1567920817093107,-2.9353972221085707,4.0,0.0,139,mp-755154,Li2FeF4,https://materialsproject.org/materials/mp-755154,76.65210765357133
-4.995632622962963,-134.88208082,1.5919768960652527,-1.4480773690896294,0.0,3.1874,5,mp-1179371,Sr(H8O5)2,https://materialsproject.org/materials/mp-1179371,275.09965405443324
-3.311696855,-13.24678742,2.674797094020105,0.18136668,3.4152924,0.0,221,mp-978286,Mg3Mn,https://materialsproject.org/materials/mp-978286,79.37236550765483
-2.208995535,-8.83598214,2.7926124225966102,-0.1721677300000004,1e-07,0.0,225,mp-30648,LiMg2Ga,https://materialsproject.org/materials/mp-30648,74.49023932348544
-4.60487465,-18.4194986,4.186874411882949,-1.1322436055000002,0.5829488,0.0,123,mp-1120791,NaCuO2,https://materialsproject.org/materials/mp-1120791,47.011507992785575
-5.3581657875,-21.43266315,3.815304477036928,-0.13791243749999982,1.1973709,0.0,139,mp-867780,Al3Cr,https://materialsproject.org/materials/mp-867780,57.859929638666216
-3.891490503333333,-11.67447151,4.004613436433024,-0.026324293333332825,0.0,0.0,123,mp-12794,Al2Cu,https://materialsproject.org/materials/mp-12794,48.7259040959464
-6.469225955,-25.87690382,4.093475633048206,-2.4237369431249998,4.0000021,0.04570000000000008,123,mp-19842,CaFeO2,https://materialsproject.org/materials/mp-19842,51.892123468900216
-4.520615603,-45.20615603,3.005692245536912,-2.745023778114001,0.0,4.3114,225,mp-1111055,Na2LiAsF6,https://materialsproject.org/materials/mp-1111055,133.60396557559116
-3.4287121116666666,-20.57227267,2.078585338477956,-0.6014560724133329,1e-07,0.706,63,mp-1205322,CaH2,https://materialsproject.org/materials/mp-1205322,67.255868490113
-5.4012257099999985,-16.20367713,3.3991336582167637,-0.1883252707933328,0.0,0.0,187,mp-29719,LiNiN,https://materialsproject.org/materials/mp-29719,38.906135808711575
-3.42908332,-20.57449992,2.0772395182328283,-0.6018272807466664,5.3200000000000006e-05,0.6833999999999998,194,mp-24809,CaH2,https://materialsproject.org/materials/mp-24809,67.29944281489507
-9.247076865,-18.49415373,4.245782773004701,-2.1045722436900003,0.0,0.0,225,mp-2857,ScN,https://materialsproject.org/materials/mp-2857,23.060463608476756
-8.925995632000001,-44.62997816,4.061806112102183,-3.85713169525,0.0,3.4107000000000003,164,mp-13060,Sc2O3,https://materialsproject.org/materials/mp-13060,56.38008623233264
-1.88473310875,-15.07786487,2.177444362695565,-0.06415172625000021,1.11e-05,0.0,38,mp-1099313,LiMg6Ga,https://materialsproject.org/materials/mp-1099313,169.6759648583568
-1.9562137416666667,-11.73728245,2.344593407593625,0.15118975916666658,0.015592600000000002,0.0,216,mp-1232373,Mg5Ge,https://materialsproject.org/materials/mp-1232373,137.51576783307365
-6.0797438375,-48.637950700000005,3.9196958792807233,-2.3665308893750003,4.0000005,0.8483999999999998,12,mp-1222767,Li2AlCoO4,https://materialsproject.org/materials/mp-1222767,69.38979294574614
-4.698723566,-23.49361783,3.9226293520416,-1.4576974599480004,0.0,2.4946,5,mp-625488,Zn(HO)2,https://materialsproject.org/materials/mp-625488,42.08832579467129
-4.304158006000001,-21.52079003,3.5071249038792716,-0.6638630652500013,1.0000018,0.0,221,mp-1185261,LiNiO3,https://materialsproject.org/materials/mp-1185261,53.80229495333635
-7.983581835,-47.90149101,3.535753544830764,-3.0551260225,1.0,0.4565000000000001,58,mp-1206234,ScO2,https://materialsproject.org/materials/mp-1206234,72.2823590319403
-5.956973315,-11.91394663,3.752192815873379,-0.1436593833333335,1.3e-06,0.0,221,mp-11279,TiBe,https://materialsproject.org/materials/mp-11279,25.171974605009893
-3.485007694166667,-41.82009233,1.9590763162035103,-0.657751654913333,0.0,3.0081,62,mp-23713,CaH2,https://materialsproject.org/materials/mp-23713,142.71732143754645
-8.719118,-26.157354,5.012926764627712,-2.045561367361112,0.0,0.0,164,mp-1215,Ti2O,https://materialsproject.org/materials/mp-1215,37.01184587038647
-6.8993078175,-27.59723127,4.068720515683002,-2.4031810943750003,2.9999999,2.9998,166,mp-18793,LiCrO2,https://materialsproject.org/materials/mp-18793,37.11304610515567
-0.80797114,-3.23188456,0.2401474447595309,1.1591540866666663,0.1535716,0.0,71,mp-1093660,LiMg2In,https://materialsproject.org/materials/mp-1093660,1178.0444967425874
-6.3239452016666675,-37.94367121,3.5924517176543778,-2.8356771591266665,3.99999975,2.5732,14,mp-554340,CrF2,https://materialsproject.org/materials/mp-554340,83.19484638632119
-5.499484837142856,-38.49639386,3.5507465193604517,-3.2013636672785712,2.9999999,3.0083,71,mp-1251112,AlCoF5,https://materialsproject.org/materials/mp-1251112,84.60269373562939
-4.60098831625,-36.80790653,3.19579933114015,-2.7160989165175002,0.0,5.0458,148,mp-9144,LiAsF6,https://materialsproject.org/materials/mp-9144,101.76533342205869
-4.728504082857143,-66.19905716,2.664883176340267,-2.1058736498128567,1.0,1.5503,1,mp-761279,Li7Ni(O2F)2,https://materialsproject.org/materials/mp-761279,130.40308453328984
-7.628351425,-30.513405699999996,3.536500352236313,0.15065389312499988,0.0060767,0.0,194,mp-999203,ScC,https://materialsproject.org/materials/mp-999203,53.49654957207339
-6.941738463999998,-34.70869232,3.6448220429986105,-3.1655700256713337,1e-07,0.8782999999999999,123,mp-1223210,KTiO2F,https://materialsproject.org/materials/mp-1223210,62.85413112549382
-6.771059725714286,-47.39741808,2.9659704370047075,-2.4924513495918377,4.0000005,3.5687,82,mp-754357,LiFePO4,https://materialsproject.org/materials/mp-754357,88.32261278806423
-5.937744434,-29.68872217,2.9954608731382724,-1.9883094756919997,4.999510900000001,0.0,71,mp-755372,Li2MnO2,https://materialsproject.org/materials/mp-755372,55.889105276415634
-2.11885383375,-16.95083067,2.430906833248246,0.29804679166666714,1.2e-06,0.0,38,mp-1098205,Mg6GaB,https://materialsproject.org/materials/mp-1098205,154.6279989465043
-5.9886524020000005,-29.94326201,3.4823216379957747,-2.0392174436920003,5.0000002,2.4357,164,mp-19279,Li2MnO2,https://materialsproject.org/materials/mp-19279,48.07529157087353
-8.056710076666667,-48.34026046,3.9014229196029855,-4.063542616646668,0.0,4.3364,129,mp-989178,ScOF,https://materialsproject.org/materials/mp-989178,68.06043242097519
-2.042158295,-8.16863318,2.8764154368347863,-0.08123991250000008,6.87e-05,0.0,221,mp-978281,Mg3Ga,https://materialsproject.org/materials/mp-978281,82.34414422700941
-6.5990427825,-52.79234226,3.1050207327289288,-2.6148235200000007,4.0000002,3.0795,121,mp-752853,Li2FeSiO4,https://materialsproject.org/materials/mp-752853,86.53468406317434
-6.6010041866666676,-19.80301256,4.072180197633719,-3.0215949796822223,2.0000001,0.4554999999999998,225,mp-282,TiF2,https://materialsproject.org/materials/mp-282,35.01323510512944
-3.44476879,-27.55815032,1.6569299126717465,0.3953866625000004,4.6454744,0.0,194,mp-977229,Li3Cr,https://materialsproject.org/materials/mp-977229,145.95542935510895
-7.453745847,-74.53745847,4.480413486194198,-0.2790747203333339,0.62478235,0.0,58,mp-1078253,MnB4,https://materialsproject.org/materials/mp-1078253,72.77681814498057
-2.1254432616666667,-12.75265957,2.500520043549374,-0.01803976083333344,9.000000000000001e-07,0.0,155,mp-1185811,Mg5Ge,https://materialsproject.org/materials/mp-1185811,128.9406031890636
-4.9872073237037045,-134.65459774,1.6292771780533486,-1.4396520698303703,4.5e-06,3.3048,5,mp-1179340,Sr(H8O5)2,https://materialsproject.org/materials/mp-1179340,268.8015883788813
-5.424940641666668,-32.54964385,4.230709742258127,-0.4357274185244447,9.58e-05,0.0,166,mp-1216687,TiVH4,https://materialsproject.org/materials/mp-1216687,40.36444876093114
-4.749423869333333,-71.24135804,2.7531659776710593,-1.987379617996,0.9999998,1.1085000000000005,1,mp-760066,Li8NiO5F,https://materialsproject.org/materials/mp-760066,128.59915768576244
-2.9485235983333333,-17.69114159,2.514171123719019,-0.20428973000000047,0.0,0.16700000000000026,123,mp-1222108,Mg4SiGe,https://materialsproject.org/materials/mp-1222108,130.73741379071484
-6.603495746666668,-39.62097448,3.309265640342823,0.21425157250000024,6.135e-05,0.0,71,mp-1072492,CaC2,https://materialsproject.org/materials/mp-1072492,64.32820311732327
-4.1358319675,-16.54332787,0.4424652353439812,2.617651152500001,7.621548599999999,0.0,71,mp-1096042,MnAl2Tc,https://materialsproject.org/materials/mp-1096042,776.4844859863726
-7.1161992283333335,-42.69719537,4.099565546906832,-2.4032879275000005,1.0000001,0.0,65,mp-753658,AlCrO4,https://materialsproject.org/materials/mp-753658,57.91246968297603
-6.086949657999999,-30.43474829,3.5660575255525315,-1.6447652412500005,0.0024851999999999995,0.0,221,mp-1185311,LiCrO3,https://materialsproject.org/materials/mp-1185311,49.79455298512014
-1.06754808,-4.27019232,0.2282785546321551,1.1177608733333333,0.0,0.6468,71,mp-1097380,LiCa2Ag,https://materialsproject.org/materials/mp-1097380,1418.211739438643
-2.3896407825,-9.55856313,2.3245102150554566,-0.2009941325,5.7999999999999995e-06,0.0,139,mp-976025,Li3Ga,https://materialsproject.org/materials/mp-976025,64.68251545724135