energy_per_atom,energy,density,formation_energy_per_atom,total_magnetization,band_gap,sgr,mp_id,formula,URL,cell_volume
-2.689453548,-26.89453548,3.7662068691908313,-1.1345906698620687,0.0,2.107,225,mp-1112654,Cs3AlI6,https://materialsproject.org/materials/mp-1112654,523.4090961836949
-4.597327375,-45.97327375,4.981197833806816,-0.5712760804374994,1.05e-06,1.0678,12,mp-1205627,Nb(SeI)2,https://materialsproject.org/materials/mp-1205627,336.45186470439285
-7.534411368666666,-113.01617053,5.985291974257232,-1.2398617348333336,2e-07,0.0,148,mp-2945,Yb(Mo3S4)2,https://materialsproject.org/materials/mp-2945,278.8792677428476
-2.8861212166666665,-34.6334546,4.6026556829639915,-0.5907387617241376,0.0,2.0173,63,mp-1103650,RbCu2I3,https://materialsproject.org/materials/mp-1103650,428.0803929077333
-2.645138133,-26.45138133,3.6165299634554122,-0.0698348150000001,0.0104645,0.0,227,mp-1214438,Ba4Pd,https://materialsproject.org/materials/mp-1214438,602.158397482634
-3.889272507,-38.89272507,4.415155392353547,-0.7133178529202585,3.0000001,0.04620000000000024,72,mp-8770,Cs2CoSe2,https://materialsproject.org/materials/mp-8770,363.0597376716916
-7.724998678666665,-115.87498018,6.094297054570613,-1.2338263508333331,3.3e-06,0.0,148,mp-1103493,Tm(Mo3S4)2,https://materialsproject.org/materials/mp-1103493,272.772397462349
-7.745645501333332,-116.18468252,6.005494135016747,-1.2459887981666669,3.11e-05,0.0,148,mp-1103518,Dy(Mo3S4)2,https://materialsproject.org/materials/mp-1103518,275.02678787010313
-2.884721657,-57.69443314,4.293996309207459,-0.9353286547325717,2e-07,1.4004,14,mp-31276,Cd2PCl2,https://materialsproject.org/materials/mp-31276,505.35770519832386
-2.14937492,-21.4937492,4.7424274776504065,-0.14010389648275884,4.5e-07,0.07189999999999985,119,mp-567752,Cs2In3,https://materialsproject.org/materials/mp-567752,427.3628652319672
-5.8494194440000005,-58.49419444,7.092542774717673,-0.6120094700000003,1.2e-06,0.0,43,mp-30686,Zr2Ga3,https://materialsproject.org/materials/mp-30686,183.37438007303822
-6.36215858,-69.98374438,4.833394542410892,-2.366040772585228,7.140000000000001e-05,0.0,121,mp-1223154,La4S7,https://materialsproject.org/materials/mp-1223154,267.99966401982925
-2.8693231775,-22.95458542,3.2068380753689016,-0.3736994562499998,0.00919455,2.9445,148,mp-1078195,SiI3,https://materialsproject.org/materials/mp-1078195,423.3619120206791
-2.6419347866666665,-31.70321744,3.723767528393594,-0.9167747635632184,0.0,1.3732,194,mp-383,Rb2Te,https://materialsproject.org/materials/mp-383,532.5037235540622
-7.40054748625,-118.40875978,6.7462340104042555,-0.5146390954166664,5e-08,0.0,140,mp-16687,Ti5Sb2Rh,https://materialsproject.org/materials/mp-16687,288.36182582454893
-3.913955380833333,-46.96746457,5.5993627259569525,-0.07209753166666626,0.0,0.16829999999999945,9,mp-675120,Cu2SiTe3,https://materialsproject.org/materials/mp-675120,319.0836833093094
-5.28120700625,-84.4993121,6.076725854741238,-1.431022527142857,0.0,0.1745000000000001,218,mp-4198,Ag3PO4,https://materialsproject.org/materials/mp-4198,228.76191644033074
-2.55016442,-20.40131536,3.359716944233712,-0.058421403035714636,0.0,2.2779,173,mp-27529,PI3,https://materialsproject.org/materials/mp-27529,406.9525098216965
-2.6423013550000003,-31.70761626,3.714595443380275,-0.917141331896552,0.0,1.3739,62,mp-568745,Rb2Te,https://materialsproject.org/materials/mp-568745,533.8185826004358
-4.574262256666667,-54.89114708,7.50287713372152,-0.3588455316666668,5e-08,0.0,140,mp-16648,LiSn4Rh,https://materialsproject.org/materials/mp-16648,258.8059865854112
-2.22850665,-26.742079800000003,3.3194156909798145,-0.9179950692816092,1.000002,0.0,11,mp-38177,Rb2ZnI3,https://materialsproject.org/materials/mp-38177,617.3670374181172
-5.768910445833334,-69.22692535,6.045157580240357,-0.7283445053645833,0.5,0.0,216,mp-23051,NbSeI,https://materialsproject.org/materials/mp-23051,328.27641222166994
-2.50319064,-20.02552512,4.243515946054946,-0.20193577375000027,0.0,2.2308000000000003,148,mp-23218,AsI3,https://materialsproject.org/materials/mp-23218,356.5909645275049
-5.13194022125,-41.05552177,9.035558375549844,-0.38222912476562604,0.0,0.0,63,mp-558378,Pd3S,https://materialsproject.org/materials/mp-558378,129.1317822275701
-3.8005216475,-45.60625977,5.930406784713166,-0.09242562500000004,1.8000000000000001e-06,0.0,9,mp-674953,Cu2GeTe3,https://materialsproject.org/materials/mp-674953,326.22285895892907
-3.7158008625,-44.58961035,3.9259399806284456,-0.902130104699174,0.0,1.6710000000000005,12,mp-1102254,Cs2GeSe3,https://materialsproject.org/materials/mp-1102254,486.690795780049
-5.3936409849999984,-53.93640985,5.1636275475604645,-1.1246103468749993,0.051307900000000004,0.0,12,mp-23382,Y4CI5,https://materialsproject.org/materials/mp-23382,322.27729325656236
-3.272895109,-32.72895109,4.092482945935116,-0.821039440639009,0.0,0.7469999999999999,36,mp-7449,Cs2Se3,https://materialsproject.org/materials/mp-7449,407.9371285551196
-5.24867333375,-83.97877334,4.884066469727962,-1.5075179145312507,0.8821097,0.0,38,mp-1228155,Ba4CoNi3S8,https://materialsproject.org/materials/mp-1228155,353.87679130866303
-5.886224575,-117.7244915,6.241248005591276,-0.8687982854375008,0.0,0.19489999999999966,60,mp-17173,Rh2S3,https://materialsproject.org/materials/mp-17173,321.4054322885252
-7.718614146666668,-115.7792122,6.1573027194493255,-1.2242624488333338,0.0026395,0.0,148,mp-1104347,Lu(Mo3S4)2,https://materialsproject.org/materials/mp-1104347,271.6081664225285
-6.516935816428571,-182.47420286,4.414061816227172,-4.303403176564285,0.0,6.6724000000000006,4,mp-777233,BaYF5,https://materialsproject.org/materials/mp-777233,483.37015005166967
-2.6520956957142863,-74.25867948,2.793648727158395,-0.44247436939285706,5.5e-07,0.7282999999999997,194,mp-541707,K6Na3AlSb4,https://materialsproject.org/materials/mp-541707,971.936499076594
-7.5055260957500005,-300.22104383,4.428582146873193,-2.5158063047083337,30.0000022,2.2202,3,mp-1216150,YFe6Bi(BO3)8,https://materialsproject.org/materials/mp-1216150,413.7415278883408
-2.730178321111111,-24.57160489,7.818797320464352,0.1691335814004632,0.0,0.0,216,mp-28963,Ag8S,https://materialsproject.org/materials/mp-28963,190.0803898093063
-7.7652198786666675,-116.47829818,5.902098777681299,-1.2581694950000004,0.0,0.0,148,mp-978640,Sm(Mo3S4)2,https://materialsproject.org/materials/mp-978640,276.4292633919211
-3.1065986075,-86.98476101,4.103144730014208,-0.4811759360714285,0.0,0.0,194,mp-2406,Mg5Pd2,https://materialsproject.org/materials/mp-2406,541.268878037044
-3.5791121850000005,-35.79112185,5.034676158394488,0.5686999709999995,0.01637865,0.0,227,mp-1209749,Pr4Mg,https://materialsproject.org/materials/mp-1209749,387.8263411949633
-2.872835395,-22.98268316,3.1014613936521105,-0.06390931666666687,0.0036006999999999996,2.6818,176,mp-23189,BI3,https://materialsproject.org/materials/mp-23189,419.2485318364033
-3.757666303,-37.57666303,5.307226473967897,-0.9457452699999996,0.0,0.3878999999999997,36,mp-1079666,Ba2CdAs2,https://materialsproject.org/materials/mp-1079666,335.9785120794228
-6.187190367272727,-68.05909404,5.2348792312958405,-2.2497983634943197,0.06264249999999999,0.0,111,mp-1209822,Nd4S7,https://materialsproject.org/materials/mp-1209822,254.21678710331875
-3.694517174285714,-51.72324044,4.007957816752348,-0.7842994659698276,0.0,1.6991999999999998,12,mp-1104024,Cs2GeSe4,https://materialsproject.org/materials/mp-1104024,542.1591937597569
-5.294187573333333,-63.53025088,8.190607273720966,-0.17262531333333322,0.000592,0.0,14,mp-755,CoSb2,https://materialsproject.org/materials/mp-755,245.2737977959814
-7.307638565,-116.92221704,6.710582227016716,-2.1299473212500004,3.0000001,0.0,141,mp-1211406,LaMoO2,https://materialsproject.org/materials/mp-1211406,264.1233281674812
-6.066191530769231,-78.8604899,6.78842449212372,-0.4502146803365391,1.0,0.0,216,mp-14432,GaTe4(MoSe)4,https://materialsproject.org/materials/mp-14432,313.0372893373844
-4.057530541428571,-56.80542758,4.689856093792542,-0.8930081454166671,4e-06,0.0,216,mp-36751,In5AgS8,https://materialsproject.org/materials/mp-36751,332.28731503117695
-5.521014642142856,-154.58840998,5.22941129970438,-0.7446729649999995,0.0,0.0,194,mp-1791,Al5Rh2,https://materialsproject.org/materials/mp-1791,432.76511175646715
-3.8402216833333336,-34.56199515,5.359610154707192,-0.8501326155555557,1.3e-06,0.0134000000000003,12,mp-1079622,Ba3(ZnAs2)2,https://materialsproject.org/materials/mp-1079622,261.02269697756503
-4.021458954285714,-56.30042536,4.536401429500047,-0.8624233608928569,0.00103195,0.0,227,mp-556597,In3S4,https://materialsproject.org/materials/mp-556597,346.07168873988724
-9.533169140625,-152.53070625,8.59770121353495,-0.3964084341666663,0.0,0.0,140,mp-4984,SiB2Mo5,https://materialsproject.org/materials/mp-4984,204.4969463313919
-3.3322735775,-26.65818862,5.3989138000438235,-0.5024464572135416,3.4e-06,0.055099999999999934,8,mp-1227031,Cd2InCuSe4,https://materialsproject.org/materials/mp-1227031,221.1501772384934
-5.2846225125,-84.5539602,5.822347739213675,-0.7335124677083336,1.0785368,0.0,2,mp-1222772,Li(TiTe2)5,https://materialsproject.org/materials/mp-1222772,434.15454398751285
-7.00043456875,-56.00347655,6.869710690722441,0.011714352500000302,5.26626455,0.0,26,mp-1226361,Cr2SbAs,https://materialsproject.org/materials/mp-1226361,145.35709163980704
-5.7575861025,-92.12137764,7.5245009264726175,-1.4920686056250003,0.0,0.0,223,mp-7561,SrPd3O4,https://materialsproject.org/materials/mp-7561,207.83056457886647
-5.880463492857142,-82.32648890000002,7.135586861319924,-1.2355676414285708,0.0,0.8489000000000004,227,mp-14100,Cd(RhO2)2,https://materialsproject.org/materials/mp-14100,177.89442690233903
-8.961379010833333,-107.53654813,7.810328371300415,-0.35202395666666675,0.0,0.0,124,mp-22396,Nb4SiNi,https://materialsproject.org/materials/mp-22396,194.92098138040706
-6.2624249121428575,-87.67394877,7.164963867651283,0.00015810006857159517,0.0,0.234,227,mp-16031,Sn3N4,https://materialsproject.org/materials/mp-16031,191.04142592859247
-6.6077630506666685,-198.23289152,3.8368468944691743,-2.20449897066092,1.95e-06,3.4191000000000003,15,mp-1193056,Cs2Mo3O10,https://materialsproject.org/materials/mp-1193056,617.6957513651785
-4.11063798,-65.77020768,3.8648807228214457,-1.5162913678286638,0.0,1.477,9,mp-756570,Rb4SnO3,https://materialsproject.org/materials/mp-756570,437.02044601431373
-4.890074721428571,-68.46104609999999,6.661911654267724,-1.6408565900000005,0.0,0.11099999999999977,227,mp-1104726,Cd2SnO4,https://materialsproject.org/materials/mp-1104726,203.16054786528642
-6.38190500625,-51.05524005,6.619719215611651,-0.05202733625000011,14.9860595,0.0,12,mp-1221834,MnCr3Te4,https://materialsproject.org/materials/mp-1221834,180.94280398301376
-9.174497691666668,-110.0939723,7.830811766465719,-0.3431863275000009,0.0,0.0,124,mp-10003,Nb4CoSi,https://materialsproject.org/materials/mp-10003,194.5128160886403
-4.4153291185,-88.30658237,4.575314866422391,-0.6542251873571431,1.25e-07,1.3799,14,mp-1105728,Ba(GaP)2,https://materialsproject.org/materials/mp-1105728,491.7332862741874
-6.972900597333332,-104.59350896,6.276143992955816,-2.5196669547499986,2.999998,0.0,121,mp-1226848,Ce4Cu3(SO)4,https://materialsproject.org/materials/mp-1226848,249.59361135069042
-4.741760015625,-75.86816025,6.301187011483577,-0.986819611875,0.0,0.0,218,mp-5408,Ag3AsO4,https://materialsproject.org/materials/mp-5408,243.7759188639988
-8.7619225775,-70.09538062,8.014439793361358,0.5807550812500004,0.00053855,0.0,194,mp-978086,PrMo3,https://materialsproject.org/materials/mp-978086,177.65908003755004
-7.111784930800001,-177.79462327,5.094998507513092,-1.8657326163072003,26.000000699999998,0.02700000000000013,1,mp-863405,Mn8PbO16,https://materialsproject.org/materials/mp-863405,294.2022236067511
-3.904095962142857,-54.65734347,3.782283776306396,-0.8792252595412562,5.7000000000000005e-06,1.9853,12,mp-637251,Cs2SiSe4,https://materialsproject.org/materials/mp-637251,535.3861119367709
-7.332374191666666,-87.9884903,8.594349463402155,-0.4943269066666669,1.395e-05,0.0,62,mp-1101995,NbNiGe,https://materialsproject.org/materials/mp-1101995,173.30405778664223
-5.542812344615385,-144.11312096,6.185087461847776,-0.16558907444923185,12.2356491,0.0,186,mp-570943,LaFe5H7,https://materialsproject.org/materials/mp-570943,228.30333108255363
-3.216258768888889,-57.89265784,3.2567674614243267,-2.0797863388800764,0.0,4.2793,140,mp-570262,Cs3ZnCl5,https://materialsproject.org/materials/mp-570262,654.0557397079506
-3.804503216428572,-53.26304503,4.6184613237598535,-0.9502893833972628,0.00268855,0.7221000000000002,166,mp-1224076,In2AgS3Cl,https://materialsproject.org/materials/mp-1224076,337.3615103342137
-7.38974956625,-59.11799653,7.144632096960343,-0.8046154837500001,8.25e-07,0.0,62,mp-1025513,ZrGe,https://materialsproject.org/materials/mp-1025513,152.3395833727114
-3.811130321875,-60.97808515,3.822779659407989,-0.9855710662913078,0.0,1.4927,2,mp-510710,Cs2AgSbS4,https://materialsproject.org/materials/mp-510710,541.8448371849406
-7.019069934615384,-91.24790915,6.314219591099881,-1.4889214361803706,1.7e-06,0.0,87,mp-1209548,Rb(RuO2)4,https://materialsproject.org/materials/mp-1209548,162.45655593489377
-4.399446633,-87.98893266,3.3322879001339336,-1.9071685558312248,2e-07,1.785,71,mp-621112,Cs5Nb2S4Cl9,https://materialsproject.org/materials/mp-621112,646.655816294859
-1.6644097176923078,-21.63732633,7.669535503631259,-0.1450173969230768,7.2e-05,0.0,139,mp-1103916,TmZn12,https://materialsproject.org/materials/mp-1103916,206.5173604001129
-3.731988565,-104.49567982,4.825197810613158,-1.839485660441905,0.9999998999999999,0.0,14,mp-752565,LiAg2F4,https://materialsproject.org/materials/mp-752565,411.1374466595943
-3.3679366525,-26.94349322,5.391019018502886,-0.3005020784635417,1e-05,0.00029999999999996696,6,mp-1226777,CdAg2SnSe4,https://materialsproject.org/materials/mp-1226777,234.92567992427635
-1.6564714515384615,-21.53412887,7.775031299993193,-0.13341062692307687,2.11e-05,0.0,139,mp-1104393,LuZn12,https://materialsproject.org/materials/mp-1104393,205.00366487545782
-5.954767834285714,-41.68337484,6.466625893764223,-0.4368823266666664,4.0060887,0.0,12,mp-1025282,Ti(VTe2)2,https://materialsproject.org/materials/mp-1025282,169.5172823145795
-6.003250244166666,-72.03900293,6.754468135040338,-0.467234530833333,0.19583265,0.0,62,mp-1102926,YGaCo,https://materialsproject.org/materials/mp-1102926,213.94446586878703
-6.421852394615384,-83.48408113,9.411463833259766,-0.4614163998717953,4e-07,0.0,189,mp-30060,Sn5(BRh3)2,https://materialsproject.org/materials/mp-30060,217.47825414426217
-2.5330140322727277,-55.72630871,2.9902620859944125,-0.3262928168181816,0.02047285,0.0,2,mp-1191538,Ca8In3,https://materialsproject.org/materials/mp-1191538,738.656312981914
-4.147223801428572,-58.06113322,4.910196934510524,-0.8919429270833332,5.7999999999999995e-06,0.16420000000000012,216,mp-674514,In5CuS8,https://materialsproject.org/materials/mp-674514,302.38724956522566
-6.100230925416668,-146.40554221,5.679743224454817,-0.8472679879166668,0.018232725,0.0,187,mp-568985,La2B3Br,https://materialsproject.org/materials/mp-568985,456.2571652578632
-7.1369402000000015,-85.6432824,7.683270484751552,-0.9912507749999998,3.575e-06,0.0,62,mp-1095465,YGeRh,https://materialsproject.org/materials/mp-1095465,228.6171190912609
-3.707647710714286,-51.90706795,5.390486629880384,-0.4209873467410716,0.0,0.9985,161,mp-4515,Ag3SbS3,https://materialsproject.org/materials/mp-4515,333.65479595178545
-3.871756742142857,-54.20459439,4.657290300101622,-0.975167431845238,0.0,1.0566,227,mp-559200,Cd(InS2)2,https://materialsproject.org/materials/mp-559200,335.3723233736318
-3.627671326071429,-101.57479713,4.186207672901946,-0.3825926632142855,5e-08,0.0,194,mp-30778,Mg5Rh2,https://materialsproject.org/materials/mp-30778,519.3762466357905
-7.184347589999999,-136.50260421,8.291131823313071,-0.3438658307894729,6.6169497999999995,0.0,166,mp-1105128,Ho(Co2B)6,https://materialsproject.org/materials/mp-1105128,187.6602913038469
-3.78109461,-37.8109461,4.740431943764723,-0.40815059448275903,0.0,0.5461999999999998,63,mp-1206689,Cs2NiAs2,https://materialsproject.org/materials/mp-1206689,332.32100278224857
-9.7640190625,-78.11215250000001,11.421571439594866,-0.1584269374999998,6.8e-06,0.0,194,mp-861626,Tc3Rh,https://materialsproject.org/materials/mp-861626,115.4091766490055
-4.1905482030000005,-41.90548203,7.157045712559508,0.1830188045,8e-08,0.0,12,mp-1246684,CuAs,https://materialsproject.org/materials/mp-1246684,160.63251850663107
-6.038312455714285,-42.26818719,6.394114352949837,-0.2719160185714285,8.001479400000001,0.0,8,mp-1216577,V2CrTe4,https://materialsproject.org/materials/mp-1216577,172.51198807496795
-2.8866437716666664,-34.63972526,5.741505572266291,-0.4794657983333329,0.0,0.04969999999999963,62,mp-1101809,SrCdGe,https://materialsproject.org/materials/mp-1101809,315.4439788496925
-3.860461674375,-61.76738679,3.7269889736274098,-0.969840478166308,0.0,1.5519999999999998,2,mp-561622,Cs2AgAsS4,https://materialsproject.org/materials/mp-561622,514.0341042487549
-4.129316691428572,-57.81043368,4.694778284220135,-0.7777905361309527,3.45e-06,0.0,227,mp-1212041,In2CuS4,https://materialsproject.org/materials/mp-1212041,298.12734562902983
-5.525869776153847,-71.83630709,7.807261526147291,-0.27364435519230856,9.892111199999999,0.0,44,mp-1220507,NdGa7Fe5,https://materialsproject.org/materials/mp-1220507,193.874359784648
-8.89911653625,-71.19293229,7.9064792335621155,-0.2572639318750003,0.012169,0.0,200,mp-1220366,Nb6GaSi,https://materialsproject.org/materials/mp-1220366,137.6166087182758
-8.60199357875,-68.81594863,7.724211539292964,-0.16979272250000044,0.48730569999999995,0.0,200,mp-1220348,Nb6AlGa,https://materialsproject.org/materials/mp-1220348,140.6266105602237
-5.793760605,-69.52512726,7.317472913289449,-0.9016956883333336,1.625e-06,0.0,62,mp-1101849,YGaPd,https://materialsproject.org/materials/mp-1101849,240.5879560594115
-3.3178785339285715,-92.90059895,3.3588686238715963,-1.9268395606876685,0.0,3.4584,167,mp-27172,Cs3In2Cl9,https://materialsproject.org/materials/mp-27172,936.7698525633309
-5.795514878333332,-69.54617854,7.3583157248420035,-0.326955601666666,0.0,0.12380000000000012,14,mp-2715,CoAs2,https://materialsproject.org/materials/mp-2715,188.45690643990656
-6.404616548461537,-83.26001513,8.457400107770399,-0.017969958461538208,6.9036799,0.0,69,mp-1225497,Gd(GaFe)6,https://materialsproject.org/materials/mp-1225497,178.80000257986754
-2.679412418333333,-32.15294902,3.443577253845602,-0.9542523952298853,0.0,1.7021,62,mp-1397,Rb2Te,https://materialsproject.org/materials/mp-1397,575.8314474591435
-8.398789730833334,-100.78547677,6.7122532898592935,-0.6138103095238101,2.09e-05,0.0,124,mp-1102006,Zr4CoP,https://materialsproject.org/materials/mp-1102006,225.02668865220153
-5.242663682,-78.63995523,6.476455322254047,-0.1770627959999994,11.3378203,0.0,44,mp-675546,Cr4Cu3Te8,https://materialsproject.org/materials/mp-675546,363.93462043217943
-4.559036537857144,-63.82651153,4.8368483144402985,-1.354760656339286,0.0,1.4002,11,mp-11902,Ba2GeSe4,https://materialsproject.org/materials/mp-11902,455.3212439860363
-10.387845877777778,-93.4906129,8.021596946003056,-0.9949290352377776,1.8000000000000001e-06,0.0,162,mp-1079585,Nb2N,https://materialsproject.org/materials/mp-1079585,124.09300162371629
-5.2433477225,-41.94678178,11.285987135816445,0.08482285999999918,0.00499445,0.0,194,mp-973983,NiPd3,https://materialsproject.org/materials/mp-973983,111.21869419982002
-6.056244576999999,-60.56244577,6.508003460808734,-0.7178530768333331,3e-07,0.0,194,mp-20085,LaTiGe3,https://materialsproject.org/materials/mp-20085,206.51729817781012
-6.144201744,-61.44201744,7.0528716314223825,-0.4578949425000005,1.2579870000000002,0.0,194,mp-13005,LaCrGe3,https://materialsproject.org/materials/mp-13005,192.50716952073137
-6.315132526,-63.15132526,7.410274427465434,-0.4272793849999992,0.2834632,0.0,194,mp-20650,CeCrGe3,https://materialsproject.org/materials/mp-20650,183.76493782189547