energy_per_atom,energy,density,formation_energy_per_atom,total_magnetization,band_gap,sgr,mp_id,formula,URL,cell_volume
-7.801375807499999,-156.02751615,5.307814324440177,-3.0705471399999995,3.99999985,1.2527999999999997,7,mvc-9975,CaLaVCrO6,https://materialsproject.org/materials/mvc-9975,236.4614413670986
-4.394083634444445,-39.54675271,3.0303428685236176,-1.9941690072844445,1.0,0.0,225,mp-31363,K2TaCl6,https://materialsproject.org/materials/mp-31363,258.56680367425304
-5.51524427875,-44.12195423,9.511887984738737,-0.17920255750000005,3e-07,0.0,59,mp-1080147,Ni3Sn,https://materialsproject.org/materials/mp-1080147,102.92607240430058
-3.8769698569999997,-38.76969857,3.1047066046091527,-1.941976538056,0.0,1.9206,225,mp-1112065,K2ScAuCl6,https://materialsproject.org/materials/mp-1112065,284.9856323449693
-7.53080350125,-120.49285602,7.056366543447008,-2.1011793331250006,2.000000025,0.0,141,mp-1213789,CeMoO2,https://materialsproject.org/materials/mp-1213789,252.31991990141418
-5.172230677894738,-98.27238288,5.261352023168018,-1.9493914005073685,5.999999400000001,3.393,217,mp-1105117,Ni3Sb4(OF)6,https://materialsproject.org/materials/mp-1105117,275.56192497582475
-5.798255290714287,-81.17557407,5.603245289065255,-0.5895539503869044,8.0231112,0.0,166,mp-1216982,TiCr3(CuSe4)2,https://materialsproject.org/materials/mp-1216982,285.2775722203754
-5.756276667058822,-97.85670334,4.99707665316558,-1.9472047037158824,8.999998699999999,0.0,21,mp-1218477,Sr4Mn2Cu3(SO)4,https://materialsproject.org/materials/mp-1218477,280.21430307736756
-8.125124835,-65.00099868,6.220478195260463,-0.3581540737499997,8.7e-06,0.0,194,mp-1188035,Zr3Si,https://materialsproject.org/materials/mp-1188035,161.1066203060033
-4.04071386875,-32.32571095,6.837627342646205,-0.5717920175,1.75e-06,0.0,194,mp-862756,PrGa3,https://materialsproject.org/materials/mp-862756,170.0344038031306
-5.48869461875,-87.8191139,4.676862149824202,-2.4186779075,1.4300000000000002e-05,0.0,123,mp-1033482,SrMg6BiO8,https://materialsproject.org/materials/mp-1033482,202.53194297185527
-6.700938334375,-107.21501335,4.951593827274858,-0.7748113587500011,0.0008234,0.0,189,mp-1216166,Y10(SiGe)3,https://materialsproject.org/materials/mp-1216166,399.4859619580419
-3.4817956260000003,-34.81795626,5.64240764457083,0.6121506519999997,0.03892725,0.0,227,mp-1209093,Sm4Mg,https://materialsproject.org/materials/mp-1209093,368.3087316757786
-7.480408491333335,-112.20612737,5.631230821069895,-1.320169774500001,2.8499999999999998e-05,0.0,147,mp-1220453,Nb6SnS8,https://materialsproject.org/materials/mp-1220453,275.02550321945466
-5.359744995,-53.59744995,4.549600112074332,-0.256745706584821,2.9059180000000002,0.0,12,mp-1101069,CrPSe3,https://materialsproject.org/materials/mp-1101069,233.4812597617304
-6.234283322727273,-342.88558275,3.06168522597058,-0.9638255717954548,5.884968499999999,0.0,2,mp-1179557,Sm2Mo8O45,https://materialsproject.org/materials/mp-1179557,969.8572123442887
-6.485538185,-129.7107637,4.874957686644465,-1.9489704704419992,8.999998,0.9725,1,mp-1210977,LiMn2TeO6,https://materialsproject.org/materials/mp-1210977,231.9076087311587
-4.5772937408,-114.43234352,3.7267692118115536,-0.3252490932000001,0.004677199999999999,0.0,6,mp-1192107,Ba8CuSi16,https://materialsproject.org/materials/mp-1192107,718.0504954934981
-6.00956729125,-144.22961499,5.07060471443685,-1.477658494166666,17.0,0.0,8,mp-757039,Fe3Co3(SbO8)2,https://materialsproject.org/materials/mp-757039,276.3452527291586
-6.99871418875,-55.98971351,6.195414962239415,-0.6875170812500002,1.5e-07,0.0,63,mp-1025450,CeFeSi2,https://materialsproject.org/materials/mp-1025450,135.15641221292603
-8.169300519,-163.38601038,5.259595259032299,-3.3884796501666656,3.0000004000000002,2.3315,7,mp-39159,CaLaTiCrO6,https://materialsproject.org/materials/mp-39159,236.68794076336215
-5.746133911666666,-103.43041041,2.742926900467842,-1.128319720406746,0.0,2.3195,43,mp-14444,Hf(PS3)2,https://materialsproject.org/materials/mp-14444,524.0584436033994
-3.076433549,-30.76433549,4.0673845231591255,-1.3164147832413793,0.0,2.3396,225,mp-1113007,Cs2LiSbBr6,https://materialsproject.org/materials/mp-1113007,356.7906300608229
-6.514978470625,-104.23965553,4.978544638937741,-2.6629773278124995,3.5782074999999995,0.0,123,mp-1031458,HfMg6VO8,https://materialsproject.org/materials/mp-1031458,167.85576068870483
-6.771362163928572,-189.59814059,5.520314651648994,-2.0909735746428573,14.9999999,0.0,8,mp-849422,Li4Cr3Co3(WO8)2,https://materialsproject.org/materials/mp-849422,296.0591255051568
-5.413241601666668,-32.47944961,6.447201599519419,-0.6892136208333337,2e-07,0.010899999999999466,141,mp-19761,LaGe2,https://materialsproject.org/materials/mp-19761,146.3894250091155
-3.91333946375,-31.30671571,3.036565693030396,-1.1909107699999997,6.73e-05,1.6826,194,mp-1186991,ScI3,https://materialsproject.org/materials/mp-1186991,465.5526003825239
-8.833524907142857,-61.83467435,5.264093852514826,-2.3403970787157147,2.0000003,0.0,164,mp-1025352,Ce2C(NO)2,https://materialsproject.org/materials/mp-1025352,111.11751231446125
-7.335753058333334,-44.01451835,8.228015796630084,-1.0327464545833347,2e-07,0.0,191,mp-29726,LaSi2Rh3,https://materialsproject.org/materials/mp-29726,101.67310265801609
-3.6619963311111112,-65.91593396,3.2443411895868057,-1.876949732768966,3.00000015,0.8848,140,mp-1105622,Cs3CoCl5,https://materialsproject.org/materials/mp-1105622,649.9318887207935
-6.136666845,-49.09333476,4.578316132760455,-1.7635308607662503,0.0,2.2944,44,mp-1227260,CaBiNO5,https://materialsproject.org/materials/mp-1227260,124.42740817264354
-5.066190456363636,-55.72809502,3.127457775277043,-1.0870991225202922,1.25e-05,1.9444,5,mp-1095287,ScTlP2S7,https://materialsproject.org/materials/mp-1095287,284.45470152081174
-5.0618192531818185,-111.36002357,3.8130145934110224,-1.7298312918299374,9.99999965,1.8442,15,mp-559809,Rb4Fe2O5,https://materialsproject.org/materials/mp-559809,464.7211278672504
-7.756911374166666,-93.08293649,3.6300952448052914,-2.957186233523809,0.0,3.3596000000000004,12,mp-1211285,KTa(PO4)2,https://materialsproject.org/materials/mp-1211285,187.5439995777104
-3.442705872,-34.42705872,2.867107988960904,-1.887706663056,0.0,3.6182,225,mp-1111261,K2LiBiCl6,https://materialsproject.org/materials/mp-1111261,293.5435177600199
-3.7015842539999997,-37.01584254,3.768297025787184,-1.7780035171913795,0.0,3.1082,225,mp-1112534,Cs2NaScBr6,https://materialsproject.org/materials/mp-1112534,358.3364312459696