energy_per_atom,energy,density,formation_energy_per_atom,total_magnetization,band_gap,sgr,mp_id,formula,URL,cell_volume
-3.661288124,-36.61288124,4.582182640748258,-0.8128350712413791,0.0,0.5072999999999999,194,mp-1079847,CsFeBr3,https://materialsproject.org/materials/mp-1079847,310.54136612847424
-5.900108741875,-94.40173987,4.838916101184209,-2.4634043289583336,2.7110093999999996,0.0,123,mp-1031351,Mg6TiBiO8,https://materialsproject.org/materials/mp-1031351,182.1074288811601
-7.406604022000001,-74.06604022,6.499465253715641,-2.7042475739420007,7.0000000999999985,0.0,123,mp-19274,BaPrMn2O6,https://materialsproject.org/materials/mp-19274,123.68383769005929
-7.7573998975,-93.08879877,3.824444499460681,-2.965491577885878,0.0,3.354,12,mp-554412,RbTa(PO4)2,https://materialsproject.org/materials/mp-554412,198.14667102136178
-4.69034913,-56.28418956,7.475068966844878,-0.2056918200000002,0.0,0.0,140,mp-20202,MgSn4Ru,https://materialsproject.org/materials/mp-20202,266.6678914440263
-8.18966819375,-131.03469109999997,5.7610474449831335,-0.8129730318750008,0.00282355,0.0,193,mp-568115,Zr5Si3,https://materialsproject.org/materials/mp-568115,311.51150311388795
-2.9602777039999997,-29.60277704,3.713575275866632,-1.3896905280413792,0.0,2.0101,225,mp-1112623,Cs2KGaBr6,https://materialsproject.org/materials/mp-1112623,381.89441802364826
-2.938578675,-29.38578675,3.725061475482905,-1.3773716842758623,0.0,2.1401000000000003,225,mp-1112518,Cs2RbGaBr6,https://materialsproject.org/materials/mp-1112518,401.3872102837026
-5.4643269325,-87.42923092,4.53232594755177,-2.4740145348750002,0.0,1.1415999999999995,123,mp-1030940,KMg6BiO8,https://materialsproject.org/materials/mp-1030940,191.21347650346956
-3.659020584,-36.59020584,3.4149597837150867,-1.7797409943620692,0.0,3.3137,225,mp-1112649,Cs3ScBr6,https://materialsproject.org/materials/mp-1112649,448.8595729600625
-1.6856339653846153,-21.91324155,7.713752990636287,-0.1593775734615381,1.3e-06,0.0,139,mp-30614,ErZn12,https://materialsproject.org/materials/mp-30614,204.97292018800545
-5.560853266666666,-66.7302392,4.131685876638936,-1.808327208205819,0.0,1.7035,2,mp-555741,RbAu(SO4)2,https://materialsproject.org/materials/mp-555741,190.7271546430146
-5.2447451166666665,-62.9369414,7.2953169479496465,-0.2450234754166676,1.686416,0.0,166,mp-568529,PrMg2Ni9,https://materialsproject.org/materials/mp-568529,163.37406639228396
-8.553919563,-85.53919563,7.727863722525946,-0.15101089897599707,11.101479699999999,0.0,123,mp-1221763,Mn7SnN2,https://materialsproject.org/materials/mp-1221763,114.16186218920626
-4.947830750769231,-64.32179976,4.261653524801186,-0.37039287411538496,19.0029729,0.0,12,mp-29770,Na3(Mn2Te3)2,https://materialsproject.org/materials/mp-29770,410.81284085638566
-7.21800215875,-173.23205181,4.684124965450403,-2.1788328629166682,11.0000001,1.1316000000000002,1,mp-776536,V3Cr3(SbO8)2,https://materialsproject.org/materials/mp-776536,286.5534631202273
-5.6440494191666675,-67.72859303,4.17988182765728,-1.9670793990391529,0.0,1.9874,155,mp-556120,RbTl(SO4)2,https://materialsproject.org/materials/mp-556120,191.47442332199202
-6.012732190769231,-78.16551848,5.670071476120893,-0.3962664307692307,8.255362,0.0,44,mp-1216685,TmAl7Fe5,https://materialsproject.org/materials/mp-1216685,186.5608143085026
-5.971703716,-119.43407432,6.42702471925485,-1.0169160625833336,0.0805395,0.0,227,mp-776168,AgRuO3,https://materialsproject.org/materials/mp-776168,265.536817817948
-3.2419178575,-25.93534286,4.881189693139159,-0.5784427486250001,0.0,0.2145999999999999,140,mp-10164,NaGaTe2,https://materialsproject.org/materials/mp-10164,236.7139046925305
-7.0872264845,-141.74452969,6.065992759265278,-2.421225237096001,6.00000055,0.9009,7,mvc-9877,LaMnZnCrO6,https://materialsproject.org/materials/mvc-9877,222.96309049165217
-7.54955195375,-60.39641563,7.067679344032875,-0.2665356308984377,5.400000000000001e-06,0.0,194,mp-1188055,Zr3Se,https://materialsproject.org/materials/mp-1188055,165.70055721264657
-7.919618266666666,-142.55312880000002,6.966167074166663,-0.27546403661333346,0.0453363,0.0,2,mp-1246090,Zr(CoN)4,https://materialsproject.org/materials/mp-1246090,182.5851087113183
-7.34436014,-176.26464336,4.5151147838737415,-2.342941277203334,12.9999996,0.2422,8,mp-756447,Ti3Mn3(TeO8)2,https://materialsproject.org/materials/mp-756447,301.42910056871864
-2.719465552142857,-38.07251773,6.463066906225944,-0.3335193003571431,9.2e-06,0.0,71,mp-1103536,Y3Zn11,https://materialsproject.org/materials/mp-1103536,253.38606375736956
-7.985010476842105,-151.71519906,7.365984773061394,-0.28215649934210474,19.019788300000002,0.0,166,mp-641957,Nd(Fe2B)6,https://materialsproject.org/materials/mp-641957,198.21187184386682
-4.100099915833334,-98.40239798,3.725179790862512,-0.4279146716666665,0.0,0.09229999999999984,70,mp-15521,Ba2LiSi3,https://materialsproject.org/materials/mp-15521,652.3289963966001
-6.6545223375,-53.2361787,7.424777545908277,-0.3760626350000011,3.1825e-05,0.0,57,mp-1094528,ZrSn,https://materialsproject.org/materials/mp-1094528,187.80554739473482
-5.948717084,-118.97434168,5.104441324930903,-1.7619294812500002,0.0,3.3462,227,mp-1999,Sb2O3,https://materialsproject.org/materials/mp-1999,379.33816545698505
-3.610920577,-36.10920577,4.811474708051511,-0.9582701652413796,2.9999999,0.3459000000000001,225,mp-1112914,Cs2CuMoBr6,https://materialsproject.org/materials/mp-1112914,312.23782150408016
-6.645062683076923,-86.38581488,5.526553066435409,-0.1229841823076918,0.14776989999999998,0.0,71,mp-1216674,Tm(AlCr)6,https://materialsproject.org/materials/mp-1216674,193.13929517352602
-3.190201816666667,-38.2824218,5.3745746271791175,-0.2898670291666671,0.0,0.7904999999999998,15,mp-28900,Cd2As3Br,https://materialsproject.org/materials/mp-28900,327.18501675445424
-6.3170797950000015,-113.70743631,4.8342524352568095,-2.1437797644791683,4.00000015,0.0,140,mp-16531,BaLa2FeS5,https://materialsproject.org/materials/mp-16531,433.70158868267197
-7.2312755225,-173.55061254,4.589511267213447,-2.3667250987500004,14.002360500000002,0.0,8,mp-753029,Ti3Fe3(SbO8)2,https://materialsproject.org/materials/mp-753029,293.30138144594986
-5.687971320769232,-73.94362717,5.332373582204249,-0.42708208115384577,5.067031,0.0,139,mp-3633,Er(Al2Fe)4,https://materialsproject.org/materials/mp-3633,188.86570495437573
-8.203769602307691,-106.64900483,8.09568198722721,-0.08582124012820512,21.4076512,0.0,44,mp-1224104,HoTiFe11,https://materialsproject.org/materials/mp-1224104,169.64834947951948
-4.383299036666667,-39.44969133,7.266985741399855,-0.3907407575000003,3.3333333333333334e-08,0.0,189,mp-13534,LaZnNi,https://materialsproject.org/materials/mp-13534,180.29545598562666
-3.4227679522222223,-30.80491157,4.20877601708658,-1.2613615624904218,0.0,1.8404,225,mp-1206511,Cs2ZrI6,https://materialsproject.org/materials/mp-1206511,441.2801606870093
-5.2382609205,-104.76521841,5.384916250442262,-1.2540703257500003,0.0,0.0,14,mp-558696,CuTeO3,https://materialsproject.org/materials/mp-558696,294.9782405674024
-4.747613317777779,-85.45703972,4.377800076494493,-2.1212617136492598,4.35e-06,2.8227,140,mp-1205371,Ba3InS4Cl,https://materialsproject.org/materials/mp-1205371,523.8348547458717
-3.4858463527777777,-62.74523435,3.692975417132935,-0.6770238004022219,0.00036510000000000004,0.0,140,mp-1106280,Ca5Sn3H,https://materialsproject.org/materials/mp-1106280,501.3826552788297
-6.718460417999999,-67.18460418,6.755661201219812,-2.4173598590000003,5.9999995,0.0,99,mp-1227838,BaNdFeCoO6,https://materialsproject.org/materials/mp-1227838,121.01787467432933
-3.351973093333333,-30.16775784,3.2365723994820126,-1.59635049284,0.0,1.8478,225,mp-23513,K2PtCl6,https://materialsproject.org/materials/mp-23513,249.34391976354397
-8.181287362105264,-155.44445988,5.51664009053463,-3.3899636032894738,0.0,3.0929,146,mp-1218518,Sr3LaNb3O12,https://materialsproject.org/materials/mp-1218518,262.62050397467226
-6.533729284642857,-182.94441997,4.575687872939199,-2.0190950498485725,12.99999995,0.14029999999999987,186,mp-753235,Li2Mn3TeO8,https://materialsproject.org/materials/mp-753235,315.2128101945826
-6.43559442625,-51.48475541,6.395943564936394,-1.4157470470982132,0.13478605,0.3746999999999998,129,mp-505259,SmFePO,https://materialsproject.org/materials/mp-505259,131.4621424683022
-7.524946759583332,-180.59872223,4.610776785486885,-2.441450305953333,10.999999699999998,0.6118999999999999,1,mp-763292,Ti3Mn3(SbO8)2,https://materialsproject.org/materials/mp-763292,290.96873578943337
-6.5533221315384615,-85.19318771,5.909175782632543,-0.2447432211538464,6.913986200000001,0.0,71,mp-1225086,Er(MnAl)6,https://materialsproject.org/materials/mp-1225086,185.1229578846744
-5.615531291875,-89.84850067,4.509259104685824,-2.5202442925,1.1e-06,0.0,123,mp-1031781,CaMg6BiO8,https://materialsproject.org/materials/mp-1031781,192.55239298036287
-4.610212726666666,-69.15319090000001,3.3380824530969506,-1.8469742778640457,4.999999966666667,1.4850000000000003,166,mp-23336,CsMnCl3,https://materialsproject.org/materials/mp-23336,439.0557201317939
-2.6865412777777777,-24.1788715,3.247667462384656,0.5895564039644449,3.9999967000000005,0.0,225,mp-1080472,Pt(NCl3)2,https://materialsproject.org/materials/mp-1080472,222.83330861769798
-6.12531878,-61.2531878,7.653034850264626,0.3141059779999999,2.55091685,0.0,227,mp-1213958,Ce4Fe,https://materialsproject.org/materials/mp-1213958,267.45080225734836
-3.00182649,-30.0182649,3.576464585276801,-1.2695220045413793,0.0,2.8918,225,mp-1112792,Cs2KAsBr6,https://materialsproject.org/materials/mp-1112792,398.9487699364457
-2.699152883,-26.99152883,4.325621350336422,-1.0051074412413794,0.0,1.7376,225,mp-1112673,Cs2LiSbI6,https://materialsproject.org/materials/mp-1112673,443.74697257502453
-6.3366586648,-158.41646662,4.39076900094064,-1.3158919234999995,0.1312926,0.0,12,mp-694897,Cr6PbO18,https://materialsproject.org/materials/mp-694897,305.2609514109467
-7.7602867125,-93.12344055,3.971387116891008,-2.9784735942077165,0.0,3.3884,12,mp-559118,CsTa(PO4)2,https://materialsproject.org/materials/mp-559118,210.6500812932287
-3.4610678761538463,-44.99388239,7.932218860583829,-0.21711740384615405,4e-07,0.0,139,mp-1103929,Yb(Ga2Cu)4,https://materialsproject.org/materials/mp-1103929,206.20261082810472
-0.88162047125,-7.05296377,1.8445116692178751,0.044055186508620725,0.0164541,0.0,194,mp-862689,Cs3Rb,https://materialsproject.org/materials/mp-862689,871.7827124728464
-4.3233815415384615,-56.20396004,6.070653718304106,-0.31102668906461545,0.2829152,0.0,216,mp-1104718,NdMgNi4H7,https://materialsproject.org/materials/mp-1104718,112.25243599735998
-5.601655399655173,-162.44800659,6.73963044109393,-0.4756976406896554,0.00014140000000000002,0.0,225,mp-1207398,Zr6Be15Pd8,https://materialsproject.org/materials/mp-1207398,377.9255881112548
-1.999611604375,-31.99378567,2.866454792413451,0.007534150000000128,3.3e-06,0.0,187,mp-1028325,Mg14NiBi,https://materialsproject.org/materials/mp-1028325,352.18222059451267
-6.79623927,-108.73982832,4.4362411965404425,-0.7196302393750003,5e-08,0.0,193,mp-2538,Y5Si3,https://materialsproject.org/materials/mp-2538,395.8618762007049
-8.289961452857144,-174.08919051,4.704977757065985,-3.2600327890674596,6.0,2.0451,12,mp-1228511,Ba2Ti4Cr2O13,https://materialsproject.org/materials/mp-1228511,274.61895064932077
-6.878133741000002,-137.56267482,5.556866199975729,-2.485740102442,6.00000055,0.7562000000000002,194,mp-1227420,BaSrMn2O6,https://materialsproject.org/materials/mp-1227420,257.48058585287305
-3.6073825475,-28.85906038,5.556792052021918,-0.17408391624999986,0.0067927,0.16460000000000008,121,mp-1078498,ZnCu2SiTe4,https://materialsproject.org/materials/mp-1078498,218.4410734825482
-6.221477656315789,-236.41615094,4.932448441368661,-1.9533405094736842,0.0,3.3567,220,mp-1201722,Ge3(SbO3)4,https://materialsproject.org/materials/mp-1201722,603.9293300850094
-7.480894015833332,-179.54145638,5.530569797843361,-2.058135507203333,18.9999995,0.4959000000000002,1,mp-755961,Mn3Cr3(WO8)2,https://materialsproject.org/materials/mp-755961,283.57548535931113
-4.461674363055555,-160.62027707,4.284000887237801,-2.4645415519459513,5.000000325,0.23649999999999996,62,mp-1196464,CsFeAgF6,https://materialsproject.org/materials/mp-1196464,636.6314206618301
-6.019450251538463,-78.25285327,5.6283937810078974,-0.3961204203846161,8.345048799999999,0.0,44,mp-1225641,ErAl7Fe5,https://materialsproject.org/materials/mp-1225641,187.44804312153155
-4.577671773571429,-64.08740483,4.775890331432273,-1.513693301607143,0.0,2.5686,66,mp-1104569,Yb(GaS2)2,https://materialsproject.org/materials/mp-1104569,306.4877494807769
-7.3725295425,-58.98023634,8.416042390926117,0.5920896450000006,4.6e-06,0.0,194,mp-1186215,Nb3I,https://materialsproject.org/materials/mp-1186215,160.0642697990534
-7.045453751875,-112.72726003,4.265669431386368,-3.561507592537083,0.0,6.0443,176,mp-10510,BaAlBO3F2,https://materialsproject.org/materials/mp-10510,203.29324757048377
-7.64519259,-183.48462216,4.603021896049702,-2.5435330425000005,8.0000001,0.7114999999999996,1,mp-770891,Ti3Cr3(SbO8)2,https://materialsproject.org/materials/mp-770891,288.2750242489744
-4.04232319,-56.59252466,4.7916111220865645,-0.7340644668452383,1.1e-06,0.27380000000000004,166,mp-1226771,CdAg2Sn3S8,https://materialsproject.org/materials/mp-1226771,326.0345574016874
-8.89074518,-168.92415842,4.864146122028912,-3.5667419259210527,1.0,0.08889999999999976,148,mp-13191,Sc6ReO12,https://materialsproject.org/materials/mp-13191,221.19438593268137
-2.9207264160000004,-29.20726416,3.6922532092336913,-1.3716336668620692,0.0,2.3433,225,mp-1113533,Cs3GaBr6,https://materialsproject.org/materials/mp-1113533,426.2882358092458
-7.4104132274999985,-148.20826455,5.307753022953841,-2.1656424158951424,25.9999979,0.0,216,mp-1221358,Mn6BiPO12,https://materialsproject.org/materials/mp-1221358,238.26003191257658
-5.897429903750001,-141.53831769,4.700217650303932,-2.429300884062501,10.00000005,2.3999,199,mp-556428,Ba3Fe2Br2O5,https://materialsproject.org/materials/mp-556428,539.4565947477181
-8.812427980833332,-105.74913577,7.824745727857053,-0.07485438166666587,9.245188699999998,0.0,156,mp-1226679,CeZr3Mn8,https://materialsproject.org/materials/mp-1226679,181.0825968784272
-5.725554786153847,-74.43221222,6.255852728030747,-0.6205906082051277,3.9998388999999994,0.0,12,mp-1217179,Ti4CrTe8,https://materialsproject.org/materials/mp-1217179,335.583330712664
-2.855219558,-28.55219558,4.620755721091191,-1.1127984569080458,1e-07,0.0644,225,mp-1113553,Cs2GaAgBr6,https://materialsproject.org/materials/mp-1113553,331.6316345173769
-7.581854319444443,-136.47337775,5.702166450306987,-0.6841402649466661,2.45e-06,0.0,15,mp-1246796,Y2Ni3N4,https://materialsproject.org/materials/mp-1246796,238.74645207503602
-6.3847665175,-51.07813214,10.156264613613192,-0.2113477399999999,4.5791442,0.0,194,mp-1186013,MnPd3,https://materialsproject.org/materials/mp-1186013,122.36200730361199
-6.32904285,-88.6065999,3.4002369127856378,-1.8083983123214296,7.00000005,1.0648999999999995,66,mp-1103889,Eu(AlS2)2,https://materialsproject.org/materials/mp-1103889,326.4070725586399
-6.985157771,-139.70315542,5.478495044022962,-2.62534485725,8.99999915,0.0,31,mvc-9650,CaPr(FeO3)2,https://materialsproject.org/materials/mvc-9650,235.61401720568094
-7.222908822857143,-101.12072352,3.9235089476750473,-3.461985853571428,0.0,3.9435,5,mp-1228007,BaAl2O4,https://materialsproject.org/materials/mp-1228007,216.0898114799596
-7.223515407857143,-101.12921571,3.9276902144706898,-3.462592438571428,0.0,3.9423,182,mp-3828,BaAl2O4,https://materialsproject.org/materials/mp-3828,215.85977064061612
-5.705377704285715,-39.93764393,7.0428634382218265,-0.14065447857142846,7.1470401,0.0,12,mp-1025239,Cr2CoTe4,https://materialsproject.org/materials/mp-1025239,158.75405150596146
-6.60931717375,-52.87453739,6.568134535501616,0.20857799124999946,0.0001365,0.0,194,mp-1188037,Zr3Br,https://materialsproject.org/materials/mp-1188037,178.78036706877543
-5.03707019125,-80.59312306,3.1691859098699866,-1.5783744323329745,0.0,2.4625,2,mp-573030,Cs2LiNbS4,https://materialsproject.org/materials/mp-573030,517.5907101349862
-4.880893049473684,-185.47393588,6.600842925028678,-0.3475204101994731,5.5e-06,0.0,225,mp-505576,Zr6Al7Cu16H9,https://materialsproject.org/materials/mp-505576,443.26258567685204
-2.978680515,-29.78680515,3.5728615216338997,-1.255756214775862,0.0,2.8942,225,mp-1112134,Cs2RbAsBr6,https://materialsproject.org/materials/mp-1112134,420.90198652451784
-6.209325831111111,-55.88393248,7.919410996386817,-0.3447998372222219,7.371341999999999,0.0,189,mp-21038,Dy3Mn3Ga2Si,https://materialsproject.org/materials/mp-21038,171.90491620048692
-3.6872566019999997,-36.87256602,4.309633098265839,-1.2537381522413795,3.0000001,1.2684000000000002,225,mp-1113013,Cs2LiMoBr6,https://materialsproject.org/materials/mp-1113013,326.7864193059693
-2.653138429,-26.53138429,4.0787923789271385,-1.016050099691379,0.0,1.8895,225,mp-1112140,Cs2NaSbI6,https://materialsproject.org/materials/mp-1112140,477.1341136915061
-6.93129266875,-55.45034135,9.849669739236932,-0.4840634337500002,1.595e-05,0.0,194,mp-1183306,AlRh3,https://materialsproject.org/materials/mp-1183306,113.18952076659424
-7.92879549375,-63.43036395,6.977543355691518,-0.36246747250000055,3.535e-05,0.0,194,mp-1188039,Zr3Ge,https://materialsproject.org/materials/mp-1188039,164.83296963003608
-6.82137622,-136.42752439999998,5.558807794857047,-2.496355951500001,7.9999991999999995,0.0,7,mvc-8963,CaLaFeCoO6,https://materialsproject.org/materials/mvc-8963,232.85873769053438
-10.13730213125,-81.09841705,11.386761195708075,-0.051939706249999766,1.25e-06,0.0,194,mp-861630,Tc3Ru,https://materialsproject.org/materials/mp-861630,115.22664737714388
-6.375475111875,-204.01520358,4.206580796181477,-1.996922255214844,0.0,2.5836,36,mp-554548,BaMo2Se2O11,https://materialsproject.org/materials/mp-554548,523.5308036493549
-5.691547571,-56.91547571,8.370351630412602,-0.17859289900000022,0.5221587000000001,0.0,51,mp-19955,Co2CuGe2,https://materialsproject.org/materials/mp-19955,129.6207116783132
-7.1114542385,-142.22908477,6.066285719916607,-2.4452135237499992,5.0000591,0.524,31,mvc-9657,PrZnCr2O6,https://materialsproject.org/materials/mvc-9657,222.43783459353276
-3.085180124166667,-37.02216149,4.2121741727851045,-0.6260120691666667,0.0,0.15579999999999972,62,mp-978,Sr2Sn,https://materialsproject.org/materials/mp-978,463.52826904615506
-7.631850209166667,-91.58220251,6.851238142812597,-0.6042390541666668,1.7575e-05,0.0,38,mp-1215304,ZrCoSi,https://materialsproject.org/materials/mp-1215304,172.80319117373804
-6.398988965,-127.9797793,6.4857278342835984,-1.5576539411920012,14.633103,0.0,204,mp-1210616,Mn4Cu3BiO12,https://materialsproject.org/materials/mp-1210616,207.73313381954074
-8.293391639166666,-199.04139934,6.31588263274295,-0.4498753972916667,6.7925e-05,0.034399999999999764,213,mp-1190604,Nb3Al2C,https://materialsproject.org/materials/mp-1190604,362.4994820864858
-4.992422996666667,-59.90907596,6.718860556282504,-0.5357492513541674,0.0,0.0,198,mp-3679,NiSbS,https://materialsproject.org/materials/mp-3679,210.0922303490044
-1.09588231125,-8.76705849,6.254347987376393,-0.07523116362500004,1.4499999999999998e-05,0.0,194,mp-973166,NaCd3,https://materialsproject.org/materials/mp-973166,191.279402007586
-5.546197327777778,-49.91577595,8.924079440806162,-0.057449646157406976,0.0344617,0.0,123,mp-1224072,In2Ni6C,https://materialsproject.org/materials/mp-1224072,110.49205448244072
-3.320247571363636,-73.04544657,4.010372215267717,-0.7195731907727272,0.0,0.3064999999999998,186,mp-1210275,Na3Sr3GaSb4,https://materialsproject.org/materials/mp-1210275,735.8629766057845
-0.90510110125,-7.24080881,1.7350332153983803,0.04402501959482763,0.09014205,0.0,194,mp-1183940,Cs3K,https://materialsproject.org/materials/mp-1183940,838.0339023159049
-6.0390112546666685,-90.58516882,6.084135710873053,-0.4501029523,0.2018956,0.0,12,mp-1228583,Ba2Na(FeAs)6,https://materialsproject.org/materials/mp-1228583,295.375949990553