energy_per_atom,energy,density,formation_energy_per_atom,total_magnetization,band_gap,sgr,mp_id,formula,URL,cell_volume
-4.972745358666667,-74.59118038,2.5280411907175915,-2.256920485158666,3.9999998,3.2065,2,mp-1176841,Li8Fe(O2F)2,https://materialsproject.org/materials/mp-1176841,140.14997441168092
-1.156387095,-4.62554838,0.5425223548851509,0.9818425475,0.0,1.1324999999999998,71,mp-1096468,LiZn2Cu,https://materialsproject.org/materials/mp-1096468,616.1493778776437
-3.58853111,-10.76559333,1.9492252224237163,-0.4452288583333329,0.0005127999999999999,0.5848,225,mp-1009733,Ca2Si,https://materialsproject.org/materials/mp-1009733,92.21060472153526
-5.55825448,-44.46603584,3.811751508290639,-1.3800466334225012,5.00000035,0.6419999999999999,15,mp-758879,FeO2F,https://materialsproject.org/materials/mp-758879,93.08878039259913
-5.533314125714287,-77.46639776,2.349037114710024,-0.2720684621242861,2.5e-07,1.3156,127,mp-1104693,LiCa2HC3,https://materialsproject.org/materials/mp-1104693,175.50544428540266
-4.544676597142859,-31.81273618,3.146640525158242,-2.6676960943942865,3.0000002,0.0,139,mp-556447,K2CoF4,https://materialsproject.org/materials/mp-556447,112.46907174817598
-3.83614302,-7.67228604,4.8952431518727835,-0.14484730000000035,1.4400000000000001e-05,0.0,123,mp-1018140,MgNi,https://materialsproject.org/materials/mp-1018140,28.154287577075536
-2.3905572875,-19.1244583,1.7817204899190238,-0.14172182604060346,1e-07,2.5509,221,mp-1078643,RbNa3H4,https://materialsproject.org/materials/mp-1078643,147.69080962013288
-5.83503543875,-46.68028351,4.340459045550301,-1.874481529375,9.0000001,0.7736000000000001,10,mp-753409,Li2FeCoO4,https://materialsproject.org/materials/mp-753409,73.70551976196711
-5.593810903333334,-33.56286542,4.0505069509405764,-2.7378338574600005,4.00000085,3.2415,136,mp-556911,FeF2,https://materialsproject.org/materials/mp-556911,76.94245930136556
-8.7091634875,-34.83665395,5.926949536662841,-0.6909228908333329,3.64e-05,0.0,38,mp-1216398,VCrB2,https://materialsproject.org/materials/mp-1216398,34.89756025883809
-5.413852218181819,-59.5523744,2.7186642640248464,-2.455796927235454,3.9999995999999998,1.2774,12,mp-753558,Li5MnO3F2,https://materialsproject.org/materials/mp-753558,107.27835912605394
-0.8260744575,-3.30429783,0.356016641682584,1.0014681220833337,5.2e-06,0.0,71,mp-1095790,Mg2ZnAg,https://materialsproject.org/materials/mp-1095790,1034.9301547672912
-6.56919399,-26.27677596,3.8933761733920544,-2.2720846780000006,1.9999999,1.3495,164,mp-753393,NaVO2,https://materialsproject.org/materials/mp-753393,45.17955823315504
-4.971169806000001,-24.85584903,2.5998303984410205,-1.0973396219045717,0.0,0.8045999999999998,221,mp-11824,Ca3PN,https://materialsproject.org/materials/mp-11824,105.52421584427452
-2.5489151475,-10.19566059,0.4761408080624674,2.164832925,3.7501171,0.0,71,mp-1093640,MgGaCo2,https://materialsproject.org/materials/mp-1093640,738.9807825625886
-3.207449793333333,-9.62234938,1.8688953983582155,-1.05842184825,3e-07,0.0,123,mp-1223784,K2O,https://materialsproject.org/materials/mp-1223784,83.69443016941891
-7.216882364,-36.08441182,4.041136729109213,-0.05132679295199978,4.6513273,0.0,115,mvc-13445,Mg(MnN)2,https://materialsproject.org/materials/mvc-13445,66.64715914654488
-6.42705916,-25.70823664,3.126750475279645,-2.8108789602825004,0.9999998,2.1604,44,mp-752974,VOF2,https://materialsproject.org/materials/mp-752974,55.72979347821904
-2.8430425775,-11.37217031,1.6925546286023865,0.5699345316250004,5.0087362,0.0,139,mp-982378,Na3Cr,https://materialsproject.org/materials/mp-982378,118.67728155616874
-5.466926060909091,-60.13618667,2.7574972999728478,-1.9987134867918184,2.0,0.0,12,mp-770101,Li5MnO5,https://materialsproject.org/materials/mp-770101,102.15564579977304
-6.171542845833333,-74.05851415,3.5024214135633014,-2.6571209864483323,1.9999997999999999,0.0,12,mp-759482,Li2VO2F,https://materialsproject.org/materials/mp-759482,109.8239055751918
-4.175343964444443,-37.57809568,2.7449927033716657,-0.6305839168577774,0.0,1.5204999999999995,225,mp-1205964,Ca2FeH6,https://materialsproject.org/materials/mp-1205964,85.93003253129899
-8.01674248125,-64.13393985,4.038490487120117,-0.8136682774399997,3.9271867,0.0,122,mp-1245566,MnAlN2,https://materialsproject.org/materials/mp-1245566,90.40408124455249
-6.7748361075,-54.19868886,3.679881223152806,-2.9759680751199986,4.9999995,2.9201999999999995,12,mp-1227657,Ca3MnO4,https://materialsproject.org/materials/mp-1227657,107.9248238249317
-5.9954025275,-47.96322022,3.6976017614532166,-1.6405530490300002,5.00000045,1.9159,11,mp-626495,FeHO2,https://materialsproject.org/materials/mp-626495,79.80404194958155
-3.7319312233333335,-11.19579367,3.633592483947457,-0.9699450788400004,1.9438466,0.7411999999999999,166,mp-27396,NiCl2,https://materialsproject.org/materials/mp-27396,59.226471931376864
-2.06032644625,-16.48261157,1.9051632075970169,0.4231755301131468,2e-06,0.0,38,mp-1100162,RbMg6C,https://materialsproject.org/materials/mp-1100162,212.06753384841744
-2.6564990025,-10.62599601,0.6032160044367756,2.0472253100000004,6.6457505999999995,0.0,71,mp-1096030,MnZn2Co,https://materialsproject.org/materials/mp-1096030,673.5829830432101
-4.7555991975,-19.02239679,2.9166295733379233,-0.3613875487499998,0.0016555999999999997,0.0,139,mp-999204,ScAl3,https://materialsproject.org/materials/mp-999204,71.6795658521848
-3.3483726775,-26.78698142,2.5117079340728643,0.2640545075000005,3.92341385,0.0,194,mp-1185788,Mg3Cr,https://materialsproject.org/materials/mp-1185788,165.16232262960776
-1.449505875,-5.7980235,0.3503065993484724,0.9693160058333332,5e-07,0.6448999999999998,71,mp-1093860,Li2GaAg,https://materialsproject.org/materials/mp-1093860,907.6298428435944
-2.671961025,-10.6878441,0.6319354620827149,2.1790160775,2.0005037,0.0017000000000000348,71,mp-1096066,AlCuNi2,https://materialsproject.org/materials/mp-1096066,546.3372400137416
-2.34979396875,-18.79835175,2.1706294230704413,0.14943269124999992,2.7254102000000002,0.0,38,mp-1099277,LiMg6Fe,https://materialsproject.org/materials/mp-1099277,159.59196382707378
-2.00579839,-8.02319356,0.4172235991604053,1.26754649,1.0,0.4517000000000002,71,mp-1097385,Li2CuPd,https://materialsproject.org/materials/mp-1097385,731.7102437164629
-2.16378016,-8.65512064,0.29312597418785685,1.8700839787500003,0.9999804,0.07909999999999995,71,mp-1097652,MgScCu2,https://materialsproject.org/materials/mp-1097652,1112.3261147261087
-3.29395911,-13.17583644,2.1531025323376385,0.4775633212500003,4.0642481,0.0,139,mp-1183502,Ca3V,https://materialsproject.org/materials/mp-1183502,132.01582189999783
-7.0905854449999985,-42.54351267,4.955172302675862,-1.7801756144866658,0.0,0.0,136,mp-510408,MnO2,https://materialsproject.org/materials/mp-510408,58.267206998622946
-2.950792413333333,-17.70475448,2.5174398065094916,-0.20655854500000004,0.0,0.1774,166,mp-1222125,Mg4SiGe,https://materialsproject.org/materials/mp-1222125,130.56766231009408
-3.6365084633333336,-87.27620312,1.459395364701063,-0.17854053652444435,0.0,1.4055000000000002,62,mp-24814,KBH4,https://materialsproject.org/materials/mp-24814,245.5023173444979
-7.53878282,-30.15513128,3.9045927575999793,-2.9743002235416665,0.033494699999999995,0.0,166,mp-25417,LiTiO2,https://materialsproject.org/materials/mp-25417,36.91705877825622
-5.571841915,-44.57473532,2.7687038318973314,-3.3031794827675003,2.0,1.6868999999999998,148,mp-557519,CaCrF6,https://materialsproject.org/materials/mp-557519,123.5878590365306
-7.159931173333334,-64.43938056,2.743733279702416,-1.655901264444446,4.0008230000000005,0.0,148,mp-752929,Fe(CO3)2,https://materialsproject.org/materials/mp-752929,106.43419578866101
-4.209977714285714,-29.469844000000002,3.359860497026732,-2.4953832215371428,0.9999996999999999,0.0,65,mp-1078081,K2CuF4,https://materialsproject.org/materials/mp-1078081,107.61145651615755
-5.64662752,-22.58651008,0.5260948637083028,4.157111510000001,19.025962600000003,0.0,71,mp-1096295,VCr2Mo,https://materialsproject.org/materials/mp-1096295,791.8449726401944
-6.246194325,-49.9695546,4.161768441880313,-1.9287865707400007,4.00000025,0.0,141,mp-755160,NaMnO2,https://materialsproject.org/materials/mp-755160,87.72109121212421
-2.78174211375,-22.25393691,2.481356037768232,0.15715261062499986,2.4138724999999996,0.0,38,mp-1099275,Mg6FeSi,https://materialsproject.org/materials/mp-1099275,153.7571691820051
-4.79771723625,-38.38173789,2.811122743472452,-2.6405498631424997,0.999985,1.4007,148,mp-20076,KCrF6,https://materialsproject.org/materials/mp-20076,121.14424728828237
-4.982164205999999,-74.73246309,2.3707441288986515,-2.266339332492,3.9999998,2.9018,2,mp-752873,Li8Fe(O2F)2,https://materialsproject.org/materials/mp-752873,149.4488181461156
-2.22062752,-8.88251008,1.4267503063764362,0.8819245565,4.871414,0.0,225,mp-973444,K3V,https://materialsproject.org/materials/mp-973444,195.80378493736825
-8.98587144,-53.91522864,5.061385392444238,-2.9241001677083336,1e-07,0.0,189,mp-1071163,TiO,https://materialsproject.org/materials/mp-1071163,62.859854953492004
-2.223755375,-8.8950215,1.4326434244779351,0.8787967014999998,4.8205160000000005,0.0,139,mp-1185139,K3V,https://materialsproject.org/materials/mp-1185139,194.99835435384608
-1.2035616075,-4.81424643,0.3400869372152378,1.5266910050000002,1.9999997999999999,0.2568999999999999,71,mp-1096269,LiYZn2,https://materialsproject.org/materials/mp-1096269,1106.7341648071972
-4.61863907625,-36.94911261,2.9098552593665183,-2.3799300060125,2.0100467,0.0,148,mp-752752,LiMnF6,https://materialsproject.org/materials/mp-752752,100.36173115756954
-6.082222715,-48.65778172,4.170844032240007,-2.0603142393750007,5.0000002,1.6147,59,mp-757614,LiFeO2,https://materialsproject.org/materials/mp-757614,75.47338600147152
-4.653699688000001,-23.26849844,2.2145170991501923,-1.4953247498499995,3.0000007,0.0,221,mp-982885,KCaO3,https://materialsproject.org/materials/mp-982885,95.36084513572659
-6.831591335,-13.66318267,2.413084065063316,-0.960425633571428,0.0,1.6302,216,mp-1009746,ScP,https://materialsproject.org/materials/mp-1009746,52.25022608906279
-9.582198526666668,-28.74659558,5.761461249600719,-0.4542371062500005,7e-07,0.0,164,mp-1008632,V2C,https://materialsproject.org/materials/mp-1008632,32.82586258358584
-5.9569216675000005,-71.48306001,3.3129682299262795,-2.428967513275,3.99999995,0.8574999999999999,63,mp-756688,Li2MnO2F,https://materialsproject.org/materials/mp-756688,120.11055011287989
-1.35967703375,-10.87741627,1.8445005226323063,0.22092759433189668,9.699999999999999e-06,0.0,38,mp-1099112,RbCaMg6,https://materialsproject.org/materials/mp-1099112,244.31010177656808
-2.04833245,-8.193329799999999,0.5297346892067949,1.9228709675,0.9795212999999999,0.0,71,mp-1093585,LiCu2Ni,https://materialsproject.org/materials/mp-1093585,604.132064143008
-5.108610929545455,-112.38944045,2.5440453640149445,-2.010399335454545,4.0000007,2.2934,137,mp-756155,Li6FeO4,https://materialsproject.org/materials/mp-756155,210.812376703648
-5.093714661666667,-30.56228797,3.0097503612040857,-0.4841335233333328,1.45e-06,0.0,227,mp-813,ScAl2,https://materialsproject.org/materials/mp-813,109.1511412250315
-5.2987164700000005,-58.28588117,2.881705157376609,-2.8951296000600006,3.9999998999999997,0.5706,12,mp-759491,Li4MnOF5,https://materialsproject.org/materials/mp-759491,111.61292922695178
-6.791973333333334,-81.50368,2.1460466310967528,0.02577398583333353,0.0,2.4765,2,mp-642822,CaC2,https://materialsproject.org/materials/mp-642822,198.39187946476127
-4.47347379,-26.84084274,2.16481311436196,-1.614645065123333,0.0,3.6782,36,mp-626785,KHO,https://materialsproject.org/materials/mp-626785,86.07265446250264
-4.2181742130769235,-54.83626477,2.581069986708413,-0.07100072230769207,1.1976322,0.0,139,mp-1104792,MnBe12,https://materialsproject.org/materials/mp-1104792,104.92072297820786
-5.89069304875,-47.12554439,3.328500708478761,-2.109032726875,1.0,0.9149999999999998,65,mp-754470,Li3CrO4,https://materialsproject.org/materials/mp-754470,68.25579790181308
-5.452969405,-10.90593881,2.8468666391901727,-0.4755859136899998,0.9999998999999999,0.0,225,mp-1058549,CaN,https://materialsproject.org/materials/mp-1058549,31.54687844536178
-0.96821262,-3.87285048,0.3390010319368575,0.97212445625,1.0,0.034499999999999975,71,mp-1096001,Li2CdGa,https://materialsproject.org/materials/mp-1096001,960.1511199094708
-3.660615875,-58.56985400000001,2.882253845581852,-0.3459474291375,0.0,0.2015999999999996,129,mp-642660,Mg2CoH5,https://materialsproject.org/materials/mp-642660,129.72368320041622
-9.10056016,-54.60336096,4.639384725343193,-1.4073610711899995,1.0707166000000001,0.0,71,mp-1246161,Sc2CrN3,https://materialsproject.org/materials/mp-1246161,65.8319330004398
-2.32041899,-9.28167596,0.6162847019677147,1.82394175125,0.9999998,0.011800000000000031,71,mp-1093891,AlZnNi2,https://materialsproject.org/materials/mp-1093891,565.2313927968434
-6.513502634,-65.13502634,2.816004090274422,-2.2949681576785714,0.0,1.6145999999999998,21,mp-752930,LiCu(PO3)2,https://materialsproject.org/materials/mp-752930,134.70096458855213
-5.22545650875,-83.60730414,2.577892611653941,-1.9707106282812497,3.99999975,2.4969,9,mp-752680,Li4FeO3,https://materialsproject.org/materials/mp-752680,169.54848511309885
-6.3474911775,-76.16989413,3.193381487032609,-1.9215038047483344,1.00000005,1.8136,15,mp-27545,VH2O3,https://materialsproject.org/materials/mp-27545,104.99258079661519
-5.882686508333332,-35.29611905,4.236154943166294,-1.2379388458333338,2.9999999,0.0,10,mp-755732,FeCoO4,https://materialsproject.org/materials/mp-755732,70.07868951616935
-3.2922593630000003,-32.92259363,1.7059664029592565,-0.5663638771719999,0.0,2.5179,167,mp-1079935,LiCaH3,https://materialsproject.org/materials/mp-1079935,97.42050738812519
-2.9648819866666667,-8.89464596,3.7963973529320394,-0.1013507123809525,5.400000000000001e-06,0.0,216,mp-569685,LiZnP,https://materialsproject.org/materials/mp-569685,45.19367300373837
-5.321825865,-117.08016903,2.502453371197234,-2.0643807946327257,5.00000095,2.6041,137,mp-770533,Li6MnO4,https://materialsproject.org/materials/mp-770533,213.11253484203627