energy_per_atom,energy,density,formation_energy_per_atom,total_magnetization,band_gap,sgr,mp_id,formula,URL,cell_volume
-4.702655116590909,-206.91682513,2.802308090014225,-1.6529170146751726,5.0002842,3.9398,54,mp-1202031,CsMnH4Cl3O2,https://materialsproject.org/materials/mp-1202031,782.7331837424166
-3.977856245,-15.91142498,5.930470491903133,-0.002950825624999709,0.00010170000000000002,0.0,139,mp-976421,Nd3Mg,https://materialsproject.org/materials/mp-976421,127.96924274834348
-4.7424836075,-18.96993443,6.615548387306695,0.10934255500000044,3.525818,0.0,221,mp-1094904,Ce3Mg,https://materialsproject.org/materials/mp-1094904,111.61034921456009
-7.271227729166666,-523.5283965,3.3912783313557213,-2.81771064345508,0.0,5.5550000000000015,14,mp-707317,ErP4HO12,https://materialsproject.org/materials/mp-707317,948.2653422381023
-6.32237741,-25.28950964,1.1319169519498034,3.866678375000001,1e-07,0.12729999999999994,71,mp-1096446,YTaOs2,https://materialsproject.org/materials/mp-1096446,954.0199349898132
-6.5741008262500005,-262.96403305,3.6878887641129268,-2.316143118758929,0.0,2.2505,11,mvc-10249,MgSb3P3O13,https://materialsproject.org/materials/mvc-10249,621.8190224290523
-6.3871707933333335,-38.32302476,6.751094885195885,-0.6417632380555555,1.7260324,0.0,139,mp-10454,SmTiGe,https://materialsproject.org/materials/mp-10454,133.24808369498405
-6.902298965,-138.0459793,5.972461324643559,-2.65995763225,12.0,0.8366999999999996,2,mp-1218626,Sr4Fe2MoWO12,https://materialsproject.org/materials/mp-1218626,259.6665589323791
-4.0391747875,-16.15669915,6.217601997591512,-0.3289938486250001,0.0007842000000000001,0.0,225,mp-1186174,NaPm2Sn,https://materialsproject.org/materials/mp-1186174,115.2943402820119
-5.921090344,-29.60545172,7.412748550639378,-0.7482979620000002,0.0,0.0,139,mp-10698,Ba(GeRh)2,https://materialsproject.org/materials/mp-10698,109.41112480724372
-5.6844539825,-22.73781593,0.8808739665996695,3.460998093749999,2.9999601,0.2549000000000001,71,mp-1096143,TaTc2Sn,https://materialsproject.org/materials/mp-1096143,934.3666533826517
-9.55637214,-57.33823284,7.12640221210133,-0.6886114372222233,6.86430735,0.05289999999999928,129,mp-20869,GdTiGe,https://materialsproject.org/materials/mp-20869,129.44156908518926
-4.982525146666666,-29.89515088,5.202286284176499,0.20724745967541655,1e-07,0.0,129,mp-1246092,SbSeN,https://materialsproject.org/materials/mp-1246092,137.07898750782041
-7.257767902857143,-101.60875064,5.380668014203416,-3.513754943571428,0.0,2.2283000000000004,55,mp-15743,Sr2CeO4,https://materialsproject.org/materials/mp-15743,234.14619192327277
-2.79185048,-11.16740192,1.095816534300303,1.5622008762500004,1e-07,0.3414999999999999,71,mp-1097087,HfCdAu2,https://materialsproject.org/materials/mp-1097087,1037.7593205416126
-6.1980802595,-123.96160519,5.974240129470964,-2.1662600277500004,0.0,0.8284000000000002,14,mvc-4986,Mg2TeWO6,https://materialsproject.org/materials/mvc-4986,253.51604048045365
-5.898599741923077,-153.36359329,4.706496097655441,-1.8039702634615389,2.00000015,0.0,14,mp-17262,BaCu2(AsO4)2,https://materialsproject.org/materials/mp-17262,382.63691873767976
-8.1484508524,-407.42254262,4.7028529081271,-3.094265581983334,0.0,5.2623000000000015,13,mp-1194942,Nd2B8O15,https://materialsproject.org/materials/mp-1194942,434.2768483746596
-3.97405878,-23.84435268,6.582844591074902,-0.567666678333333,1.55e-06,0.0,139,mp-867348,DyMgSn,https://materialsproject.org/materials/mp-867348,154.13384830425125
-4.68599651,-18.74398604,6.225347786353782,-0.1612096237499996,1.4e-06,0.0,221,mp-2093,Pr3Al,https://materialsproject.org/materials/mp-2093,119.9534364040585
-5.526213855499999,-110.52427711,7.186505279280728,-1.5920694064166667,0.85677025,0.0,14,mvc-4999,Zn2AgWO6,https://materialsproject.org/materials/mvc-4999,239.62329030905022
-6.2128011560714285,-347.91686474,3.1021315158962763,-2.5903889040442176,0.0,3.3715,1,mp-1224542,K3In(PO4)2,https://materialsproject.org/materials/mp-1224542,903.688108788737
-4.21401409,-16.85605636,6.394564933623661,-0.4373497925000001,2.17e-05,0.0,225,mp-863703,Pm2MgSn,https://materialsproject.org/materials/mp-863703,112.44522807560833
-6.222536875,-174.2310325,5.058856199117384,-2.0640130237500003,9.999953300000001,1.1051000000000002,8,mp-774846,Li4Cr3Sn3(TeO8)2,https://materialsproject.org/materials/mp-774846,345.0082752960476
-5.9540944510714295,-166.71464463,5.38799589714634,-1.9810443991071442,8.9992628,0.375,8,mp-776240,Li4Co3Sn3(SbO8)2,https://materialsproject.org/materials/mp-776240,326.7467423998035
-5.5417234725,-22.16689389,7.189111761178517,-0.15395525499999962,2.6307536,0.0,221,mp-2413,Ce3Al,https://materialsproject.org/materials/mp-2413,103.32405271561916
-1.39193616,-5.56774464,0.9992213598094296,0.685866445,0.0016727,0.0,71,mp-1096194,Tl2HgAu,https://materialsproject.org/materials/mp-1096194,1339.9744589490933
-2.6694234875,-10.67769395,5.409812514466139,-0.4618025100000001,0.0,1.1007000000000002,186,mp-8884,ZnTe,https://materialsproject.org/materials/mp-8884,118.48801736264534
-6.4434632225,-25.77385289,1.0746593757837009,4.974495960833334,3.1908802000000005,0.0,71,mp-1097266,TaTiW2,https://materialsproject.org/materials/mp-1097266,921.6902189847692
-3.959317935,-15.83727174,6.075259879538626,0.0016125993749995793,9.070000000000001e-05,0.0,139,mp-1186517,Pm3Mg,https://materialsproject.org/materials/mp-1186517,125.54094785902741
-5.6118632625,-22.44745305,1.323105917808533,3.6483110691666663,1.5792328000000002,0.0,71,mp-1093892,TaInOs2,https://materialsproject.org/materials/mp-1093892,848.6844919099289
-6.3792047257142865,-178.61773232,5.110729859604543,-2.1503286537499995,8.129579099999999,0.0,8,mp-755860,Li4Cr3Sn3(SbO8)2,https://materialsproject.org/materials/mp-755860,337.7114822450345
-6.285942414642856,-176.00638761,4.6566357561458,-2.1808174663095232,0.0,2.2230000000000003,62,mp-1192534,MgVAgO4,https://materialsproject.org/materials/mp-1192534,352.47731873606665
-6.0520429875,-24.20817195,1.31851032786029,4.12442243375,1.8488651999999999,0.0,71,mp-1096428,Ta2NiOs,https://materialsproject.org/materials/mp-1096428,769.268954613362
-4.1664646375,-16.66585855,6.354576075619852,-0.1102546983333328,1.4095188,0.0,225,mp-1184007,Ce2MgIn,https://materialsproject.org/materials/mp-1184007,109.58328940161041
-6.067647821666667,-36.40588693,7.356346264806134,-0.09254362499999996,8.9803955,0.0,160,mp-1221880,Mn2CuSb2Pd,https://materialsproject.org/materials/mp-1221880,118.13788410949637
-3.8027786175,-15.21111447,5.868538015083828,-0.3218895658333336,0.2650946,0.0,225,mp-1186729,Pr2MgIn,https://materialsproject.org/materials/mp-1186729,119.10708915655671
-5.7562761025,-23.02510441,0.9191107917005013,2.881358645,0.0008416000000000001,0.0,71,mp-1095774,Hf2NiIr,https://materialsproject.org/materials/mp-1095774,1098.2633980106116
-4.6791634375,-18.71665375,6.471670055114044,-0.16831596312499994,0.005056499999999999,0.0,221,mp-976358,Nd3Al,https://materialsproject.org/materials/mp-976358,117.95445508294765
-6.602904173863636,-290.52778365,3.8963228700933024,-2.325176481639612,1.04e-05,2.1780000000000004,14,mvc-618,ZnSn3(P2O7)2,https://materialsproject.org/materials/mvc-618,655.8292880131376
-5.9587572325,-23.83502893,1.2246100430541829,3.5041147299999995,1.9998552,0.0,71,mp-1093828,Hf2VIr,https://materialsproject.org/materials/mp-1093828,813.772036502029
-6.201457133333334,-37.208742799999996,6.154332638489891,-0.7367216316666673,0.56623085,0.0,139,mp-1077197,CeScSb,https://materialsproject.org/materials/mp-1077197,165.57648035055303
-6.62816960625,-159.07607055,5.448430534350811,-2.0075617650000006,8.997279800000001,0.3979999999999997,8,mp-772926,Cr3Sn2Sb3O16,https://materialsproject.org/materials/mp-772926,309.24751334967834
-4.1164331225,-16.46573249,5.4669305340953755,-0.020405733125000047,0.0712743,0.0,221,mp-1094855,La3Mg,https://materialsproject.org/materials/mp-1094855,133.95693693445241
-6.391710588333333,-38.35026353,6.484672243637467,-0.6300542113888893,0.07342445,0.0,129,mp-22331,NdTiGe,https://materialsproject.org/materials/mp-22331,135.5892892604728
-7.800902470833332,-374.4433186,3.0390578756983135,-1.0232094837500003,1.0375e-05,2.3922,62,mp-620054,ReC5BrO5,https://materialsproject.org/materials/mp-620054,887.7054072423489
-5.9402269116666675,-35.64136147,6.269191231988691,-0.8652339624999996,0.61322585,0.0,139,mp-1077443,NdScSb,https://materialsproject.org/materials/mp-1077443,164.72866548978666
-5.8631534285714295,-164.168296,5.143486425046751,-1.8774660078571432,8.6913338,0.0,8,mp-770677,Li4Co3Sb5O16,https://materialsproject.org/materials/mp-770677,345.23354256853787
-4.7436663507857135,-664.11328911,1.54464294159233,-0.5517223484777137,0.0,3.1588,205,mp-570177,TeH20C6(NCl3)2,https://materialsproject.org/materials/mp-570177,1980.4410214192205
-5.63351119,-33.80106714,9.476440954481212,0.038354489999999686,0.81634685,0.0,194,mp-1025009,CoNiSb,https://materialsproject.org/materials/mp-1025009,83.89453140890285
-8.184333636666667,-171.87100637,7.515646634469224,-0.7122205916666671,16.2026938,0.0,174,mp-1191019,Er2Mn12P7,https://materialsproject.org/materials/mp-1191019,267.4731138269767
-4.735603130789474,-179.95291897,3.2829673181119485,-2.7651613493605267,3.5799999999999996e-05,0.0,11,mp-1252295,AlSb3F15,https://materialsproject.org/materials/mp-1252295,685.099389019463
-4.561644798333334,-27.36986879,6.604147481925324,-0.3599643311111116,0.0763937,0.0,194,mp-20760,La2In,https://materialsproject.org/materials/mp-20760,197.44431355846868
-2.922315725,-11.6892629,0.6792511921482677,1.2229973362500006,2.501346,0.0,71,mp-1093595,ScPbAu2,https://materialsproject.org/materials/mp-1093595,1579.4688375126586
-4.465557446,-22.32778723,7.1016042125795975,-0.6393718569999998,1e-07,0.0,107,mp-11269,BaSn3Pd,https://materialsproject.org/materials/mp-11269,140.26678309297782
-3.5921007675,-14.36840307,6.0611601169953095,0.0048281762500002046,1.8850421999999998,0.0,225,mp-1183801,Ce2MgCd,https://materialsproject.org/materials/mp-1183801,114.22869851409595
-3.8064948025,-15.22597921,1.10858110442432,2.4557534549999995,3.6298684999999997,0.0,71,mp-1096305,HfZrAu2,https://materialsproject.org/materials/mp-1096305,994.0742964453972
-7.9226187561111105,-285.21427522,4.9849957845220185,-3.04602000297611,0.99999995,0.17120000000000068,190,mp-20288,CeCO3F,https://materialsproject.org/materials/mp-20288,437.9495774104197
-6.2303154475,-24.92126179,1.3523457818911002,4.18317118,0.1573765,0.0,71,mp-1096618,Ta2VIr,https://materialsproject.org/materials/mp-1096618,742.9432867704368
-6.869046615,-27.47618646,1.2207362369491668,4.586547606249999,3.96e-05,0.2107000000000001,71,mp-1097613,TaVRe2,https://materialsproject.org/materials/mp-1097613,822.0197976606318
-6.0140001925,-192.44800616,4.3490092569822165,-2.7465906335937498,1.3019009,0.0,123,mp-1034209,HfMg14SnO16,https://materialsproject.org/materials/mp-1034209,341.1411167985203
-3.727225425,-14.9089017,5.3015018371593605,-0.14821799000000002,0.00103545,0.058700000000000425,186,mp-1018059,GaSb,https://materialsproject.org/materials/mp-1018059,119.95280083376949
-5.380031972916666,-129.12076735,5.053082831492498,-1.762670318125,0.0,0.032700000000000166,15,mp-767480,Li3Cu2SbO6,https://materialsproject.org/materials/mp-767480,240.3331414743928
-3.8002972725,-15.20118909,5.027760338080498,0.2292467582499995,0.35855290000000006,0.0,221,mp-975994,NaLa3,https://materialsproject.org/materials/mp-975994,145.22356431620128
-6.436624803928572,-180.22549451,5.231579589591057,-2.2161736444642863,9.4044144,0.0,8,mp-773182,Li4Cr3Sn5O16,https://materialsproject.org/materials/mp-773182,327.9741498171742
-6.2095233810714285,-347.73330934,3.857538854651277,-2.3666016161314163,1.000000325,0.2174,14,mp-761809,RbHoHS2O9,https://materialsproject.org/materials/mp-761809,791.2491666409389
-3.58549345,-14.341973800000002,5.679553213864488,-0.231795655,0.0,0.0,160,mp-1224825,GaCuTe2,https://materialsproject.org/materials/mp-1224825,113.5772332857221
-8.6204801365625,-275.85536437,2.4548406631910877,0.053304133192499485,0.47145395,0.0,63,mp-1246886,Ta(C2N3)3,https://materialsproject.org/materials/mp-1246886,512.8353097731922
-4.7426593475,-37.94127478,3.010346803264308,-2.657755668695,0.0,3.701,194,mp-864662,HoCl3,https://materialsproject.org/materials/mp-864662,299.2920991737974
-6.026301043999999,-30.13150522,5.827050007272232,-0.7445301260985218,1.6e-06,0.0,139,mp-1206405,Cs(PRh)2,https://materialsproject.org/materials/mp-1206405,114.1775294657234
-6.618534957916666,-158.84483899,5.431624366157769,-2.0028416489583343,8.0000001,0.6739000000000002,1,mp-771431,Cr3Sn3(SbO8)2,https://materialsproject.org/materials/mp-771431,309.27192992227145
-6.44700172,-25.78800688,1.1581185211700742,4.237765672083333,2.8897702,0.0,71,mp-1097439,HfTiRe2,https://materialsproject.org/materials/mp-1097439,858.5327005350824
-7.042538607142857,-197.191081,4.894159525843347,-2.410373594464286,8.974629199999999,0.0,8,mp-774909,Li4Nb2V3Sn3O16,https://materialsproject.org/materials/mp-774909,332.00254493862514
-4.4802961475,-89.60592295,2.896407979759913,-1.1077473497280004,4.00000015,0.0018999999999999853,13,mp-1181490,Dy(ClO2)3,https://materialsproject.org/materials/mp-1181490,418.35034283052636
-6.6252105375,-26.50084215,1.327660319803247,5.0882681425,2.0000001,0.0,71,mp-1097616,TaVW2,https://materialsproject.org/materials/mp-1097616,749.8969034686068
-6.1183983,-24.4735932,7.2403241941765275,-1.7258884571484376,3.9e-06,0.0,123,mp-1219176,Sm2AsSe,https://materialsproject.org/materials/mp-1219176,104.2610364123785
-8.217415924400001,-410.87079622,4.580969110432748,-3.0696924413833324,2.00000025,0.15829999999999966,13,mp-1019592,Ce2B8O15,https://materialsproject.org/materials/mp-1019592,439.84898269801613
-3.4270921225,-95.95857943,2.6324985141928465,-0.9797166930803572,0.0003443,0.5941000000000001,51,mp-1177070,Li5SbS,https://materialsproject.org/materials/mp-1177070,475.6871443966426
-4.637096657,-92.74193314,3.5625819724024366,-1.3561070874375,3.5e-07,0.8417999999999997,26,mp-1238933,CaSnS3,https://materialsproject.org/materials/mp-1238933,475.39591152289216
-7.7657571475,-31.06302859,4.0327153497519905,0.22979987800000054,21.9728987,0.0,221,mp-1185081,KEu3,https://materialsproject.org/materials/mp-1185081,203.82066332102053
-3.9531476383333337,-23.71888583,6.687650035541072,-0.5558829083333338,1e-07,0.0,139,mp-977388,HoMgSn,https://materialsproject.org/materials/mp-977388,152.92523482171742
-7.76236052,-31.04944208,3.987905567584848,0.2331965055000005,21.9954087,0.0,139,mp-1185221,KEu3,https://materialsproject.org/materials/mp-1185221,206.1108779135663
-4.2125613225,-168.5024529,3.063278197699995,-1.6460288106333336,0.0,1.908,14,mp-553975,K3Na2InO4,https://materialsproject.org/materials/mp-553975,741.7594192398168
-4.6120896975,-18.44835879,0.8594716808025441,1.6559645075000002,0.48485730000000005,0.0,71,mp-1093612,Y2IrAu,https://materialsproject.org/materials/mp-1093612,1095.461084640562
-4.73487565875,-37.87900527,3.1150228949625456,-2.652634627445,0.0,3.7739,194,mp-867891,ErCl3,https://materialsproject.org/materials/mp-867891,291.71751628630193
-5.091346529166667,-366.57695010000003,3.723392403452487,-3.4574783454858333,2.203333333333333e-05,6.1098,229,mp-1211978,K2Na2NdF7,https://materialsproject.org/materials/mp-1211978,1074.1042426532006
-1.9296688425,-7.71867537,0.5348958611479757,1.687678495,1.0507171999999998,0.0,71,mp-1096266,La2CdPb,https://materialsproject.org/materials/mp-1096266,1854.645972757106
-4.70187664,-18.80750656,7.492499602760443,-1.1054430947135416,3.82e-05,0.0,123,mp-1223795,HoAgSe2,https://materialsproject.org/materials/mp-1223795,95.4587862036739
-6.639744033333333,-39.838464200000004,7.248008276207442,-0.4573803541666652,1.9939566000000002,0.0,129,mp-20842,NdMnGe,https://materialsproject.org/materials/mp-20842,124.54947052384912
-6.0027805375000005,-72.03336645,6.73255073402892,-0.6293835441666668,0.0,0.0,62,mp-5186,ScNiSn,https://materialsproject.org/materials/mp-5186,219.3738053051881
-5.451320003571429,-152.6369601,4.936966033411539,-1.5787015178571433,7.000992699999999,0.0,1,mp-765617,Li4Fe2Cu3Te3O16,https://materialsproject.org/materials/mp-765617,325.88173373701284
-4.6675615175,-18.67024607,6.631549537487023,-0.17068892812500014,0.3044779,0.0,221,mp-1186489,Pm3Al,https://materialsproject.org/materials/mp-1186489,115.68011009614932
-6.382111205,-38.29266723,6.290561190614617,-0.6142595338888887,0.08788969999999999,0.0,129,mp-21463,PrTiGe,https://materialsproject.org/materials/mp-21463,138.01287955058373
-3.9282008225,-15.71280329,6.391072961826429,0.01014474812499966,4.7e-05,0.0,139,mp-978849,Sm3Mg,https://materialsproject.org/materials/mp-978849,123.51530897009319
-4.7126508000000005,-94.253016,3.244563598221027,-0.750161319866072,0.0,2.1442,7,mp-13923,SnPS3,https://materialsproject.org/materials/mp-13923,503.3543292314961
-6.998114666666668,-41.988688,7.470398518470353,-0.426008435,0.90526935,0.0,129,mp-21399,CeMnGe,https://materialsproject.org/materials/mp-21399,119.00741611012108
-5.728194775357142,-160.38945371,4.2111039168093845,-0.4705610035285709,0.0,2.1603000000000003,36,mp-562667,Ag3N5O6,https://materialsproject.org/materials/mp-562667,386.14919918523714
-6.731609885,-188.48507678,4.725119334604624,-2.481863351250001,0.0013702999999999999,0.5841999999999992,8,mp-754822,Li4Ti3Sn5O16,https://materialsproject.org/materials/mp-754822,358.77470023488127
-3.363150525,-13.4526021,5.167616760049526,0.4742798498749998,0.0027627,0.0,221,mp-1184963,KPm3,https://materialsproject.org/materials/mp-1184963,152.3446440598832
-4.90252172875,-78.44034766,6.300922950005938,0.2274936256549997,1e-07,0.0,123,mp-1105864,Cu11PdN4,https://materialsproject.org/materials/mp-1105864,227.0264240441099
-3.40351644,-13.61406576,5.001340543885793,0.4478888198749997,1.3500000000000001e-05,0.0,139,mp-982195,KNd3,https://materialsproject.org/materials/mp-982195,156.65453357870024
-6.81097217,-27.24388868,1.571087588905963,4.572619652500001,1.0000001,0.0,71,mp-1095856,Ta2IrW,https://materialsproject.org/materials/mp-1095856,779.968842163068
-6.2838945475,-175.94904733,5.024983895391537,-2.0663743854600005,14.9108345,0.0,8,mp-774787,Li4Mn3Sn2Sb3O16,https://materialsproject.org/materials/mp-774787,347.39861464871154
-3.667312486,-18.33656243,3.6665429200212563,-0.5010290714285717,2e-07,0.0,221,mp-1013711,Ba3AsP,https://materialsproject.org/materials/mp-1013711,234.54080199044472
-4.20570492,-16.82281968,0.919287355373177,1.87427236875,1.9996587,0.0,71,mp-1096723,HfSnPd2,https://materialsproject.org/materials/mp-1096723,921.3020575245387
-3.878047988,-38.78047988,6.5773130021359965,-0.21072944391666726,0.3477366,0.0,224,mp-11872,Ag2O3,https://materialsproject.org/materials/mp-11872,133.16732816472665
-4.188547008333334,-75.39384615,3.148605314387253,-1.1261518734791671,0.0,1.4047,15,mp-8965,K2Sn2S5,https://materialsproject.org/materials/mp-8965,502.01249673865016
-3.366240445,-13.46496178,5.164905005924861,0.471189929875,0.45759570000000005,0.0,139,mp-1185063,KPm3,https://materialsproject.org/materials/mp-1185063,152.42463027771802
-5.31115825,-169.957064,3.792696953280916,-3.3967614513627677,0.0,6.0124,2,mp-1203328,Ba4P3HF24,https://materialsproject.org/materials/mp-1203328,481.25719331348114
-6.82328486,-27.29313944,1.2300142680348929,4.5052203256249985,0.7510026,0.0,71,mp-1096347,Ta2MnRe,https://materialsproject.org/materials/mp-1096347,814.1147834125127
-6.393745607857142,-179.02487702,4.695735855170844,-2.0334402507142864,7.9999999000000015,2.1225,1,mp-753159,Li4Nb2Fe3Te3O16,https://materialsproject.org/materials/mp-753159,360.66495345886716
-6.651496219736843,-505.51371270000004,3.0891458436346144,-2.594294149135337,0.0,4.5943,62,mp-559715,Li2Cd(PO3)4,https://materialsproject.org/materials/mp-559715,950.759333499638
-6.370087005,-25.48034802,0.9072290822292524,4.0132941425,0.1072498,0.0,71,mp-1097488,HfTc2Mo,https://materialsproject.org/materials/mp-1097488,861.0475522540654