energy_per_atom,energy,density,formation_energy_per_atom,total_magnetization,band_gap,sgr,mp_id,formula,URL,cell_volume
-4.46808939875,-107.23414557,3.4937186130765565,-2.596406583908333,2.5e-08,3.7362,14,mvc-3453,SbF5,https://materialsproject.org/materials/mvc-3453,412.082625337426
-5.5352134971875,-177.12683191,4.245845234639835,-3.7988596836812496,0.0,6.7982999999999985,62,mp-17371,K2ErF5,https://materialsproject.org/materials/mp-17371,532.5927123586114
-4.60843964875,-73.73503438,3.4836831842703493,-1.528977331796876,0.0,1.0495,18,mp-556296,BaS3,https://materialsproject.org/materials/mp-556296,445.24415934234634
-5.165507008392857,-289.26839247,2.834073530280655,-1.6673239435864278,0.0,4.8099,62,mp-28587,BaH8O5,https://materialsproject.org/materials/mp-28587,528.2358020565792
-4.8508566771428585,-339.55996739999995,2.7114080697409886,-1.305117160512,0.0,2.2105,14,mp-1202346,MgH16(IO8)2,https://materialsproject.org/materials/mp-1202346,673.9529159919892
-6.973513297692307,-362.62269148,3.619552390543805,-2.858938167741759,0.0,3.9908,73,mp-1199136,K2SmMoPO8,https://materialsproject.org/materials/mp-1199136,887.1963752135935
-2.926517875,-17.55910725,5.4719946189656365,-0.5242452316666665,1e-07,0.04300000000000015,194,mp-31148,BaZnSn,https://materialsproject.org/materials/mp-31148,195.0928936961339
-5.533547545,-121.73804599,5.4140976600108255,-1.579284744318182,0.4232396,0.0,12,mp-1192299,Sb4BrO6,https://materialsproject.org/materials/mp-1192299,406.6562831048063
-6.9674190259375,-222.95740883,3.7542377020461033,-1.5036228585937508,0.000250775,0.0,62,mp-1209156,SbC2O5,https://materialsproject.org/materials/mp-1209156,399.456696505289
-4.052123032,-20.26061516,5.1174939677776035,1.4246606377500002,0.006056000000000001,0.0,221,mp-10718,Sm3SnC,https://materialsproject.org/materials/mp-10718,188.78435068656884
-4.848859685,-96.9771937,3.951103417666781,-2.3257773224640004,0.0,1.9248,113,mp-758096,SbOF3,https://materialsproject.org/materials/mp-758096,327.3998154689989
-3.743346743,-74.86693486,3.267288770721552,-1.1663215438039998,3.99997305,0.5998,14,mp-1182380,Ba(ClO)2,https://materialsproject.org/materials/mp-1182380,488.3734625775061
-4.632179258518518,-250.13767996,2.4974708505348957,-0.6605773376666672,3.0508722,0.0013000000000000234,14,mp-1181849,K4Cu(IO10)2,https://materialsproject.org/materials/mp-1181849,1055.4916768270723
-4.882912341071429,-136.72154555,3.7076676645393714,-3.0662719019214286,0.008119325,0.0,14,mvc-3429,MgSnF5,https://materialsproject.org/materials/mvc-3429,426.3811944547682
-4.996590840714285,-139.90454354,3.979434048102764,-3.1631005765642857,0.0,4.4268,14,mvc-14364,MgSbF5,https://materialsproject.org/materials/mvc-14364,402.35328048695203
-6.845748410416666,-492.89388555,3.0529649253688618,-2.4972189781150793,0.988668525,0.0,4,mp-1101525,LiSn(PO3)4,https://materialsproject.org/materials/mp-1101525,960.6300926526901
-5.48668133,-329.2008798,2.4931161499998784,-1.3312908721579997,0.0,4.5824,19,mp-722866,SbH6CN3F4,https://materialsproject.org/materials/mp-722866,686.9157531032192
-4.1758231312500005,-167.03292525,5.032306603934348,-2.578828631749667,1.999984225,0.3356999999999999,14,mvc-10389,BaZnAgF7,https://materialsproject.org/materials/mvc-10389,585.4997237178708
-5.227183621428573,-146.3611414,3.9932779613807794,-1.476611086034286,0.0,2.9371,14,mp-625873,Ba(HO2)2,https://materialsproject.org/materials/mp-625873,338.2231927933073
-6.389586786086958,-587.84198432,2.7336634484002382,-1.5313420174195655,0.0,3.6771,58,mp-1211215,Li2Nd(NO3)5,https://materialsproject.org/materials/mp-1211215,1137.4902221008488
-5.7653896512500005,-138.36935163,4.22691799002585,-0.5664842007733336,0.0,1.3582999999999998,36,mp-1029378,Mg2SbN3,https://materialsproject.org/materials/mp-1029378,333.74865903877844
-6.721102682291666,-322.61292875,3.6240256994086586,-2.9600650657702183,0.0,4.8878,14,mp-1019708,CsBaLiP2O7,https://materialsproject.org/materials/mp-1019708,826.8120373463278
-3.9798271198529416,-270.62824415,2.51753214170733,-0.2867648112058828,9.999994775,0.3925000000000001,61,mp-1180587,Na4XeO12,https://materialsproject.org/materials/mp-1180587,1095.5654836647125
-5.436342023846153,-70.67244631,5.224346003369353,-1.4676086980769232,0.1066945,0.0,8,mvc-10695,Zn(SbO2)4,https://materialsproject.org/materials/mvc-10695,216.276670402928
-4.9210573095,-393.68458476,2.201419782621762,-0.7103398134021248,4.00000015,0.03269999999999995,14,mp-1208940,TeH6S(NO5)2,https://materialsproject.org/materials/mp-1208940,1067.2493093540625
-4.730386666666667,-56.76464,4.5374460802960055,-1.4091403563990663,4.0007553,0.0,63,mp-561685,CsYbCoS3,https://materialsproject.org/materials/mp-561685,337.4721274672108
-9.296859412,-46.48429706,5.48062322515257,1.548652101583332,21.3876307,0.0009000000000001228,221,mp-20501,Gd3InC,https://materialsproject.org/materials/mp-20501,181.3595386927511
-6.101068552857143,-85.41495974,7.205525019550242,-0.4990953747619053,4.5e-07,0.0,55,mp-605839,Li2B2Rh3,https://materialsproject.org/materials/mp-605839,158.65369339984548
-6.892052051029411,-468.65953947,2.7367734098730803,-2.393022291827732,0.01281155,0.0,60,mp-672963,Sb(PO3)4,https://materialsproject.org/materials/mp-672963,1062.172461562594
-4.056889493333333,-24.34133696,5.757157000655832,0.3692086150000004,0.00017785,0.0,227,mp-568171,Nd2Al,https://materialsproject.org/materials/mp-568171,181.97969677055977
-6.275244022905405,-928.73611539,2.5456848768246,-1.341245423511891,0.0061213000000000005,1.9706,14,mp-738654,UH16C4(NO3)4,https://materialsproject.org/materials/mp-738654,1435.6200313984675
-3.97740177,-19.88700885,5.650649403205629,1.4460512492500002,0.0053994,0.0,221,mp-20750,Tb3SnC,https://materialsproject.org/materials/mp-20750,178.52321000057808
-4.665475872916667,-111.97142095,3.190445555620085,-2.142445185001667,0.0,5.05,62,mp-642661,BaH2Cl2O,https://materialsproject.org/materials/mp-642661,471.02399351219447
-4.756849431136363,-209.30137497,3.2893043788365217,-2.000274049807273,0.0,4.6875,15,mp-1195631,SbH3NF6,https://materialsproject.org/materials/mp-1195631,510.44545565337984
-6.7273176225,-161.45562294,4.149974298240879,-2.3201840670238103,0.0,3.3307,62,mp-770401,SbPO4,https://materialsproject.org/materials/mp-770401,346.88493174131276
-5.602717832000001,-28.01358916,6.555276108249031,-0.6257279552413785,3e-07,0.0,139,mp-569012,Cs(AsRh)2,https://materialsproject.org/materials/mp-569012,123.75868871913279
-6.086952412083334,-146.08685789,5.076287253092566,-2.552226903020834,6.15e-06,2.8685,36,mvc-15995,Mg3Sn2O7,https://materialsproject.org/materials/mvc-15995,276.30303260210064
-5.660879263305085,-667.98375307,2.2836745595443646,-1.8684361526787647,5.86509355,0.4565,167,mp-740739,K6Te2P6(H4O11)3,https://materialsproject.org/materials/mp-740739,1767.9667543201213
-4.750504876818182,-209.02221458,3.4728218076928883,-3.207155123696667,0.0,4.9741,62,mp-10837,Na2MgInF7,https://materialsproject.org/materials/mp-10837,608.3849415950482
-4.930509973,-394.44079784,2.175541511833784,-0.7197924769021249,4.015472375,0.05059999999999998,14,mp-1208457,TeH6S(NO5)2,https://materialsproject.org/materials/mp-1208457,1079.9443402121344
-5.381644260833332,-64.57973113,5.3788100651297786,-2.1235404124800006,0.0,2.9655,62,mp-753656,SbOF,https://materialsproject.org/materials/mp-753656,193.57623629489984
-5.362501740625,-85.80002785,3.742416074507752,-1.48603044559402,1.99977475,0.4236,166,mp-1219664,Rb2WSO4,https://materialsproject.org/materials/mp-1219664,400.0808124584583
-7.831472080508474,-462.05685275,5.457754996200447,-2.672296350423729,15.2559405,0.0,147,mp-1226871,Eu2Ti12(CuO4)9,https://materialsproject.org/materials/mp-1226871,616.4851156460749
-4.184134006527779,-301.25764847,2.7452733024873104,-0.9703661989027776,2.875e-06,2.8622,55,mp-780171,HgH10N2Cl4O,https://materialsproject.org/materials/mp-780171,959.3130092177571
-5.5382124996875,-177.22279999,4.420188891279839,-3.80705148305625,5e-08,6.7859,62,mp-1211957,K2LuF5,https://materialsproject.org/materials/mp-1211957,523.1685854003
-4.5799284084375,-146.55770907,3.1155298543824674,-2.8985827168062497,2.5e-08,4.3424000000000005,14,mp-613518,K2SbF5,https://materialsproject.org/materials/mp-613518,628.815918387721
-6.663292045227273,-293.18484999,3.527428300242212,-2.441490781185065,0.0,4.0245,14,mp-759493,LiSbP2O7,https://materialsproject.org/materials/mp-759493,569.8800060110658
-6.886311215869565,-316.77031593,2.7508414045014584,-2.4112543793788808,0.93564675,0.0757000000000001,7,mp-25946,Sb2P5O16,https://materialsproject.org/materials/mp-25946,790.0289877789513
-8.0941729640625,-259.01353485,4.42555843880456,-3.101727677235,6.999999975,2.7183,70,mp-554005,KGdCO3F2,https://materialsproject.org/materials/mp-554005,441.7849868814673
-7.165011658947368,-272.27044304,8.692793128559837,-0.10311282421052606,19.0244008,0.0,164,mp-1227870,Ce2ZrCo16,https://materialsproject.org/materials/mp-1227870,502.1610647243737
-7.806980765666666,-234.20942297,4.700458411057129,-2.06213461975,1.999973,1.2197,1,mp-704848,V2Re2O11,https://materialsproject.org/materials/mp-704848,459.4584196286347
-4.586801838166666,-275.20811029,2.84443657095645,-2.4049741915826663,0.0,7.5679,190,mp-557810,BaH6F8,https://materialsproject.org/materials/mp-557810,689.7111558245988
-3.757519783333333,-45.0902374,4.186729143981078,-2.2718652577533334,3.5e-07,3.7685,62,mp-1208666,SrICl,https://materialsproject.org/materials/mp-1208666,396.583904790861
-5.48970974275,-219.58838971,2.764563873393981,-1.93736370815919,0.100165575,5.4829,14,mp-541750,CsS2N(O2F)2,https://materialsproject.org/materials/mp-541750,752.103333197695
-6.754572083499999,-405.27432501,3.038899762495804,-2.378669376095237,8.75e-06,2.8456,20,mp-762248,LiSb3(P3O10)2,https://materialsproject.org/materials/mp-762248,959.5834205744943
-6.700451290833333,-160.81083098,4.183086451866791,-2.298232267648809,1.0,0.0,6,mp-772045,SnSb3(PO4)4,https://materialsproject.org/materials/mp-772045,342.92834336744687
-6.391956550108695,-588.06000261,2.645323777103245,-1.5329036995934775,0.0,3.6557,58,mp-555979,Li2Pr(NO3)5,https://materialsproject.org/materials/mp-555979,1167.1040786767046
-3.98461495137931,-115.55383359,3.6362749914591963,-1.9873020268551729,2e-07,2.4762,2,mp-1208322,Te4Xe(OF5)4,https://materialsproject.org/materials/mp-1208322,495.77619952302007
-6.801421223552631,-516.90801299,3.0269056471212012,-2.581342148214285,1.075e-06,4.0623000000000005,14,mp-26271,Li2Sn(PO3)4,https://materialsproject.org/materials/mp-26271,984.1314967521965
-7.3277310646666685,-219.83193194,5.130950425273365,-2.9472303012239998,1.0,2.2501,11,mp-1194534,La3VH3O8,https://materialsproject.org/materials/mp-1194534,387.501859193809
-5.886361702232143,-659.27251065,2.64984607158368,-1.197907858504553,1e-07,2.0125,14,mp-1203496,UH12C4S3O8,https://materialsproject.org/materials/mp-1203496,1309.350782479677
-7.613877023103448,-441.60486734,3.0908142095279683,-3.2098524211100004,21.0000003,3.7526,2,mp-1211874,K9Gd3Si12(O16F)2,https://materialsproject.org/materials/mp-1211874,919.0399352831038
-7.270573446,-218.11720338,4.5508945963754766,-1.9191311924760008,0.34578440000000005,0.0,193,mp-18559,LaSiNO2,https://materialsproject.org/materials/mp-18559,466.31133241215673
-4.867124132,-146.01372396,2.5323853330635098,-0.9002188942742497,0.00015745,2.2653,36,mp-1192701,TaH6C2SeCl5,https://materialsproject.org/materials/mp-1192701,612.7609721589699
-7.7509092513636375,-170.52000353,6.678133842076338,-0.6058459962878789,2.5e-07,0.0,63,mp-7625,Y3ReB7,https://materialsproject.org/materials/mp-7625,262.87688481146137
-6.127411104,-30.63705552,9.260487773437983,-0.19011291125000085,8.41e-05,0.0,221,mp-1017581,LaPd3C,https://materialsproject.org/materials/mp-1017581,84.30936955633196
-5.9911968700000005,-29.95598435,9.03431617524585,-0.5632880748333335,2e-07,0.0,221,mp-3846,LaBPd3,https://materialsproject.org/materials/mp-3846,86.19952215201239
-7.622342666000001,-38.11171333,9.824466384755777,-0.3837668912500007,1.9e-06,0.0,221,mp-1206401,LaRh3C,https://materialsproject.org/materials/mp-1206401,77.68747560465184
-4.74513528125,-75.92216450000001,4.010662687595017,-2.6773733196425,0.0,1.9534,2,mvc-14464,SnF3,https://materialsproject.org/materials/mvc-14464,290.9896770671971
-5.2716677800000005,-63.26001336,5.188292801863336,-1.9530647110590282,0.0,1.7466999999999997,63,mp-1095616,BaNdAgS3,https://materialsproject.org/materials/mp-1095616,310.8580251644515
-2.86794899,-14.33974495,5.859374641936044,-0.514306088,0.0,0.0,164,mp-7432,Sr(CdSb)2,https://materialsproject.org/materials/mp-7432,157.55889701079755
-6.6448432963888875,-239.21435867,3.741435351513639,-2.2573678700793645,0.33058940000000003,0.0,9,mp-673078,SnPO4,https://materialsproject.org/materials/mp-673078,569.0215819089167
-5.990035314166667,-143.76084754,5.85942915765499,-1.9815909108333332,0.0,0.9743999999999992,14,mp-29892,LiSb3O8,https://materialsproject.org/materials/mp-29892,283.5185838727249
-5.669923889615385,-147.41802113,4.005212403416178,-0.5216621964146154,2e-06,2.5441000000000003,7,mp-1229212,Ag3C(NO2)3,https://materialsproject.org/materials/mp-1229212,392.73028007935534
-6.833825415,-492.03542988,3.373111640840944,-2.485295982698412,0.99979465,0.0,134,mp-26856,LiSn(PO3)4,https://materialsproject.org/materials/mp-26856,869.4553549942214
-5.540208941875,-88.64334307,5.05330084537642,-1.7225151416574995,0.0,2.6809000000000003,13,mp-29591,Sb3ClO4,https://materialsproject.org/materials/mp-29591,305.42543497631
-7.772611536818181,-170.99745381,6.613723347812388,-0.5806601983333337,2.425e-05,0.0,63,mp-14373,Y3B7W,https://materialsproject.org/materials/mp-14373,264.2484326958939
-5.931183537857143,-83.03656953,5.356065235551196,-1.7330737669642855,8.5e-07,0.37780000000000014,63,mvc-8472,Sb2O5,https://materialsproject.org/materials/mvc-8472,200.5997257232417
-6.415259596739131,-590.2038828999999,2.653632937991772,-1.5499932645934789,0.0,3.708,58,mp-1211252,Li2La(NO3)5,https://materialsproject.org/materials/mp-1211252,1158.4380542787662
-2.8355794469999998,-170.13476682,2.84361609919401,-0.1883028376666668,0.9662995000000001,0.0,198,mp-11224,Sr8Al7,https://materialsproject.org/materials/mp-11224,2078.4785025365086
-6.14626289,-30.73131445,6.427418334902509,-0.4016405332413797,1e-07,0.0,139,mp-570837,Cs(AsRu)2,https://materialsproject.org/materials/mp-570837,125.2721535426763
-6.5584085328125,-209.86907305,3.5985688230639163,-1.914985028426724,0.0,4.1445,14,mp-555131,CsCO2,https://materialsproject.org/materials/mp-555131,653.091156699446
-6.3786204062500005,-306.17377949999997,3.150027905586229,-2.3950116038779776,0.0,1.2752,62,mp-1224154,K2P2PdO7,https://materialsproject.org/materials/mp-1224154,756.0602887683012
-6.648177359500001,-132.96354719,8.733214831083048,0.033782926023999946,2.97315935,0.0,62,mp-1245899,Co3SbN,https://materialsproject.org/materials/mp-1245899,237.72621142122944
-5.150028616785714,-144.20080127,3.447519633846255,-3.276536772635714,7.25e-07,0.12259999999999982,14,mvc-3405,CaSnF5,https://materialsproject.org/materials/mvc-3405,488.9447126015907
-5.3820940075,-21.52837603,5.407296999084402,-1.2791697480468749,0.3082756,0.0,186,mp-10643,SmSe,https://materialsproject.org/materials/mp-10643,140.8447927743856
-5.594628867045453,-246.16367015,2.7044932602791603,-0.5872215706600001,2.00000005,1.8441,14,mp-1182373,Cd(NO4)2,https://materialsproject.org/materials/mp-1182373,659.2306683806286
-4.162577891764705,-283.05529664,2.2928496662514486,-0.3664708772352943,5.6646602999999995,0.0,61,mp-1203745,Na4XeO12,https://materialsproject.org/materials/mp-1203745,1202.9228776172965
-6.3799243245,-127.59848649,4.220670431030706,-2.2068500789375007,6.25e-07,0.9971,62,mp-540771,BaZrS3,https://materialsproject.org/materials/mp-540771,511.0594820379298
-3.9494014221428566,-110.58323982,3.8342154799103687,-2.301435821802381,1.00001015,0.010400000000000187,14,mvc-3410,MgAgF5,https://materialsproject.org/materials/mvc-3410,393.526875758011
-6.877315299444443,-495.16670156,2.6462410019976232,-2.5222331574206347,1.55e-06,4.0476,60,mp-672958,LiSb(PO3)4,https://materialsproject.org/materials/mp-672958,1115.9333383396634
-6.814583440833334,-327.10000516,2.846740774278669,-2.4563175100297623,0.0,2.2785,7,mp-757964,LiSn2P5O16,https://materialsproject.org/materials/mp-757964,764.3960759143511
-5.41210644,-21.64842576,5.222889088436986,-1.2941255380468748,4.915e-05,0.0,186,mp-1232236,PmSe,https://materialsproject.org/materials/mp-1232236,142.40942784779443
-6.618398836999999,-132.36797674,4.83090464779177,-2.45980250325,2.00000005,3.1346,58,mp-556384,Ca2NiWO6,https://materialsproject.org/materials/mp-556384,287.8318522438365
-5.940521050735294,-403.95543145,2.179955179692221,-0.2409621113902945,0.000184325,2.3681,60,mp-1199936,CdH2C4(S3N2)2,https://materialsproject.org/materials/mp-1199936,1251.9395763806651
-8.415870990909092,-185.1491618,6.421768604492892,-0.5201846068181818,8.905e-05,0.0,72,mp-3276,Nb4Cr2Si5,https://materialsproject.org/materials/mp-3276,318.59358417233705
-6.1580212048684215,-468.00961157,2.5362623865189247,-1.5314719538185968,4.75e-06,3.7013,14,mp-600220,InH6(CO3)3,https://materialsproject.org/materials/mp-600220,787.9996644869619
-6.309823575555557,-113.57682436,4.511230967605131,-2.150203098055556,0.0,3.1466,18,mp-1210722,MgTeMoO6,https://materialsproject.org/materials/mp-1210722,253.12916690291357
-6.864514491,-274.58057964,3.2709890896737885,-2.234123423125,2.0002466,0.8484999999999999,19,mp-1201280,BaV2O7,https://materialsproject.org/materials/mp-1201280,713.1677006389436
-5.8767427875,-141.04182690000002,5.763388041130017,-1.9157626445416664,0.0,0.7238999999999995,14,mp-753000,NaSb3O8,https://materialsproject.org/materials/mp-753000,297.49103491069314
-3.4712079041666666,-83.3089897,4.921348837109909,-1.65800836746,0.0,0.0,15,mp-867824,LiAg3F8,https://materialsproject.org/materials/mp-867824,325.6280428439854
-7.864688552916667,-377.50505054,4.422366684993434,-3.0127213552430567,0.0,6.466,62,mp-556974,BaB4O7,https://materialsproject.org/materials/mp-556974,439.4195486832121
-6.820161425499999,-409.20968553,3.1124638058470486,-2.4560535955952383,1.00000515,0.21089999999999964,20,mp-765222,LiSn3(P3O10)2,https://materialsproject.org/materials/mp-765222,927.1400872279087
-4.932380316851852,-266.34853711,2.9802083124569143,-1.4274086314237036,0.0,4.2441,43,mp-758253,CaH12(IO6)2,https://materialsproject.org/materials/mp-758253,554.9323234878638
-7.554254957666668,-226.62764873,3.9993516102860673,-3.2441222720775866,0.0,4.7937,176,mp-6694,Cs2Zr(SiO3)3,https://materialsproject.org/materials/mp-6694,486.0239126641683
-4.724009925882354,-240.92450622,4.938376773675591,-2.666392641969804,7.0000005000000005,0.2531,2,mp-15387,Ba6Cu11F34,https://materialsproject.org/materials/mp-15387,729.3015605961908
-7.2422621271052625,-275.20596083,4.407642298542262,-2.6311897708771927,0.0,3.1817,15,mp-1195214,BaB4(SbO6)2,https://materialsproject.org/materials/mp-1195214,464.20790641286766
-5.3158260055,-212.63304022,4.48482862700004,-3.5278123218329998,0.9436968000000001,0.0,14,mvc-10422,BaCaSnF7,https://materialsproject.org/materials/mvc-10422,635.5147173461173
-7.0643211215909085,-310.83012935,3.820333164429654,-2.6433003808402376,2.999999975,3.789,14,mp-18496,CsMoP2O7,https://materialsproject.org/materials/mp-18496,700.3017364906859
-6.025976101896553,-349.50661391,2.7518963471934104,-1.1817887577124142,0.9999998999999999,0.3796,12,mp-695895,K4Ba2N7O16,https://materialsproject.org/materials/mp-695895,947.4655273832923
-4.7614136627777786,-171.41089186,2.9965398171033404,-1.8898500359444443,1.7125e-05,5.2435,14,mp-690703,BaH4(ClO)2,https://materialsproject.org/materials/mp-690703,541.4367266061852
-6.0130682275,-24.05227291,1.220663927422289,3.193838667500001,2.6050691,0.0,71,mp-1096581,Hf2MoPt,https://materialsproject.org/materials/mp-1096581,881.5169481975729
-3.0788249625,-24.6305997,4.136978558761252,0.6905041325000001,0.008483375,0.0,225,mp-1039270,CeMg,https://materialsproject.org/materials/mp-1039270,263.98733821583403