energy_per_atom,energy,density,formation_energy_per_atom,total_magnetization,band_gap,sgr,mp_id,formula,URL,cell_volume
-4.988119309166667,-59.85743171,6.8358114197866175,-0.4636802199999999,0.0,0.34670000000000023,36,mp-567817,HfGeTe4,https://materialsproject.org/materials/mp-567817,369.97811012483226
-10.9548901175,-43.81956047,12.423884865140927,0.30283147812500033,0.0003701,0.0,166,mp-1219517,ReMo3,https://materialsproject.org/materials/mp-1219517,63.357021419495496
-7.002954931538462,-91.03841411,5.895296914519106,-2.61566615471154,6.2330987,0.0,123,mvc-2488,Sr2YTlCr2O7,https://materialsproject.org/materials/mvc-2488,192.80919478798748
-6.7193299578125,-215.01855865,5.63736297451708,-2.537801931555,0.0,2.2217,54,mp-556666,CaBiCO4F,https://materialsproject.org/materials/mp-556666,405.3906329947979
-5.5220229725,-44.17618378,7.848329054008503,-0.7240215900000004,1e-07,0.0,123,mp-1228186,Al4Ni3Pt,https://materialsproject.org/materials/mp-1228186,101.36530103338525
-7.213395665769231,-187.54828731,6.0708771214506605,-2.6384388281730784,1.25e-06,0.0,8,mvc-16147,Sr2YTaCu2O7,https://materialsproject.org/materials/mvc-16147,374.282041386617
-4.486161578,-89.72323156,2.780630868222899,-1.484924933464,0.0,3.697200000000001,64,mp-556845,CIF3,https://materialsproject.org/materials/mp-556845,467.97557688759963
-5.5106127125,-110.21225425,5.687938699646648,-2.069558555125,0.0002785,0.0,123,mp-1228579,Ba2Ca3Cu4HgO10,https://materialsproject.org/materials/mp-1228579,294.7593660027302
-8.827657225,-35.3106289,13.835648076342174,-0.07754725499999893,4.5e-06,0.0,187,mp-1219506,Rh3W,https://materialsproject.org/materials/mp-1219506,59.11608138214485
-9.8915892225,-39.56635689,13.319128434599184,0.02178940249999961,3.35e-05,0.0,187,mp-1217912,TaRu3,https://materialsproject.org/materials/mp-1217912,60.361536808607916
-4.0345242064999995,-80.69048413,4.99619229164321,-0.186173839251488,0.0,1.2829000000000002,148,mp-569126,AgBi(PSe3)2,https://materialsproject.org/materials/mp-569126,566.7126663883735
-8.183466035,-196.40318484,8.421823109381737,-0.5792414140277771,4.5e-06,0.0,55,mp-865727,YReB4,https://materialsproject.org/materials/mp-865727,251.08291694586904
-1.7692091,-10.6152546,0.3665506722193633,2.0490900441666664,2.9732677000000005,0.15450000000000008,123,mp-1206277,Tb2ZnSb3,https://materialsproject.org/materials/mp-1206277,3391.0165470819907
-1.5037479275,-6.01499171,10.261360995816887,0.0007082462499998776,0.0,0.0,65,mp-1226953,Cd3Au,https://materialsproject.org/materials/mp-1226953,86.44654835136286
-3.715631110833333,-44.58757333,5.6309478683218535,-1.079725846867816,0.0,1.5502000000000002,63,mp-12490,CsHoCdTe3,https://materialsproject.org/materials/mp-12490,467.73124386192734
-3.706832290833333,-44.48198749,5.671680883894492,-1.0727021252011495,0.0,1.5531999999999997,63,mp-12488,CsErCdTe3,https://materialsproject.org/materials/mp-12488,465.7356492280961
-5.656839856666667,-67.88207828,8.182960768050297,-0.2669518041666675,2.0269318,0.0,123,mp-1228554,Al2Ni9Pd,https://materialsproject.org/materials/mp-1228554,139.7399464902248
-9.35730829,-37.42923316,13.723127864717032,-0.07424342000000017,0.0006089,0.0,187,mp-1217428,Tc3Pt,https://materialsproject.org/materials/mp-1217428,59.18060983221088
-7.300914464285714,-204.42560500000002,6.2222458169532775,-2.602215662857143,6.04247485,0.0,140,mp-16786,Sr2EuNb(CuO4)2,https://materialsproject.org/materials/mp-16786,360.3817574190647
-5.182077061818182,-114.00569536,4.5580441812017485,-1.26080121102841,1.00505745,0.0,63,mp-557249,K2UCu3S5,https://materialsproject.org/materials/mp-557249,486.1262962143247
-7.195372307857142,-201.47042462,6.504562252215633,-2.2862694178571425,4.34458015,0.0,127,mp-1194240,Sr2GdCu2RuO8,https://materialsproject.org/materials/mp-1194240,351.60723075474345
-3.8055995016666655,-45.66719402,5.426850055346375,-1.1017783418678158,0.0016717,1.3716999999999997,63,mp-638078,CsTbZnTe3,https://materialsproject.org/materials/mp-638078,452.8833373600118
-2.529437382,-12.64718691,0.4089938508009036,2.773471127,4.9856107000000005,0.206,123,mp-1207320,Th2Bi3,https://materialsproject.org/materials/mp-1207320,4429.594356072822
-5.891885901923077,-153.18903345,6.4776754424774685,-2.3756471243269237,3.53e-05,0.0,46,mp-1208528,Sr2YbGaCu2O7,https://materialsproject.org/materials/mp-1208528,336.8878036308401
-6.3412928215,-126.82585643,5.1481540285144405,-2.3633371533750007,20.000707300000002,0.013299999999999644,10,mp-1227721,BaSr4(FeO2)5,https://materialsproject.org/materials/mp-1227721,299.01258889475
-5.88186202,-23.52744808,8.471049239445927,0.052461210000000584,0.00098445,0.0,194,mp-20372,Ce,https://materialsproject.org/materials/mp-20372,109.8650623090267
-2.343683252,-11.71841626,0.33768241256117393,1.392751702,3.5777058,0.1791999999999998,123,mp-1206225,Tb2Te3,https://materialsproject.org/materials/mp-1206225,3445.4203046258967
-6.36417415,-31.82087075,9.712343253598096,0.11163485799999863,0.027306200000000003,0.0,166,mp-1220081,Ni4Ru,https://materialsproject.org/materials/mp-1220081,57.4198619810458
-2.831026446875,-45.29642315,2.8308789287231577,-0.37541620491071415,0.0,0.4877,194,mp-14624,K5P2Au,https://materialsproject.org/materials/mp-14624,533.0911325912389
-1.7593118966666663,-10.55587138,0.33080807927337713,2.4803026816666667,3.9813273999999996,0.1285999999999996,123,mp-1207358,Tm2CuSb3,https://materialsproject.org/materials/mp-1207358,3848.5336239567937
-3.648592935,-43.78311522,4.930054515679127,-0.5361035299999996,0.045657425,0.0,194,mp-1102705,SrGaGe,https://materialsproject.org/materials/mp-1102705,309.8511376065081
-2.5185459333333333,-30.222551199999998,3.888059192988568,-0.07320722000000017,8.0975e-05,0.0,63,mp-1094554,Mg2Sb,https://materialsproject.org/materials/mp-1094554,291.05116172610883
-10.612624495,-42.45049798,13.856888140984989,-0.039594118750001066,2.7300000000000003e-05,0.0,187,mp-1217407,Tc3Os,https://materialsproject.org/materials/mp-1217407,58.02766185006119
-7.36046210875,-117.76739374,7.38708863580111,-2.412454441796875,17.0008782,0.0,42,mp-1218819,Sr2Gd2TlNi2O9,https://materialsproject.org/materials/mp-1218819,214.78730464446625
-1.3687061883333334,-8.21223713,0.253559832626009,2.390618568333333,7.9998716,0.5025,123,mp-1208704,Tb2ZnSn3,https://materialsproject.org/materials/mp-1208704,4842.192274337174
-7.023003966428571,-196.64411106,6.203764353671898,-2.7224681758928577,0.0,0.0,140,mp-18490,Sr2SmNb(CuO4)2,https://materialsproject.org/materials/mp-18490,360.59668708123195
-3.833239210833333,-45.99887053,5.017132608429651,-1.1033819235344826,6e-07,1.3641,63,mp-12341,CsPrZnTe3,https://materialsproject.org/materials/mp-12341,477.9406810708458
-5.42086275625,-43.36690205,9.453124273595025,-0.7949556687500001,0.02662085,0.0,129,mp-1226657,CeAs2Au,https://materialsproject.org/materials/mp-1226657,171.06709392682643
-8.0490584548,-201.22646137,4.998984727887019,-3.5709574131166675,0.0,1.9236,65,mp-1218504,Sr5ZrTi4O15,https://materialsproject.org/materials/mp-1218504,319.14834057568197
-2.740987285,-10.96394914,9.163097804351645,0.06848247916666672,2e-07,0.0,65,mp-1223839,InAg3,https://materialsproject.org/materials/mp-1223839,79.45106107811718
-1.764197308333333,-10.58518385,0.3063059605367522,2.49131412,3.9343718,0.13949999999999996,123,mp-1207339,Lu2CuSb3,https://materialsproject.org/materials/mp-1207339,4221.7963389427405
-3.831805014166666,-45.98166017,5.09674233574763,-1.1050453739511497,6.1e-06,1.3651,63,mp-12342,CsNdZnTe3,https://materialsproject.org/materials/mp-12342,472.6480669222016
-4.4694049335,-89.38809867,4.6112997010517365,-0.5541379402514884,0.0,1.7593,163,mp-13384,ErAg(PSe3)2,https://materialsproject.org/materials/mp-13384,583.9666911619453
-5.756699469375,-276.32157453,6.209424752448554,-2.1765782387500003,0.0007088999999999999,0.0,12,mp-1218674,Sr8Pr4Cu9(HgO8)3,https://materialsproject.org/materials/mp-1218674,754.7354916073659
-5.881961625714285,-82.34746276,5.433192068509932,-1.6838518548214287,0.0,0.05379999999999985,59,mvc-4486,Sb2O5,https://materialsproject.org/materials/mvc-4486,197.75211398002796
-4.9266584475,-39.41326758,1.7616941579427785,1.088764036071428,2.0019153999999997,0.0,123,mp-1206159,La2(PRh)3,https://materialsproject.org/materials/mp-1206159,640.4353049105755
-4.208769416875,-67.34031067,4.690051479933384,-1.81048349875,0.0,2.0416,51,mp-29015,CaThBr6,https://materialsproject.org/materials/mp-29015,532.1739495156534
-7.11068215,-71.1068215,7.270638124667092,-0.4795106382499995,7.7525133,0.0,123,mp-1219106,SmY(MnGe)4,https://materialsproject.org/materials/mp-1219106,171.19591994523643
-6.6633911375,-106.6142582,7.181904144902477,-2.189480631796875,14.998996900000002,0.0,42,mp-1218836,Sr2Eu2TlNi2O9,https://materialsproject.org/materials/mp-1218836,218.47933456983145
-9.0121783,-36.0487132,11.252317583017108,0.051214832499999474,1.6e-06,0.0,166,mp-1217424,Tc3Pd,https://materialsproject.org/materials/mp-1217424,59.09120832141633
-10.252574385,-41.01029754,5.781435787285447,0.03805687499999877,7.469302675,0.0,194,mp-1184367,Eu,https://materialsproject.org/materials/mp-1184367,174.5878802144697
-2.0820603033333334,-12.49236182,4.8541888779863935,-0.7277908449999998,0.0001808,2.4508,160,mp-1025115,CdIBr,https://materialsproject.org/materials/mp-1025115,218.3995743004521
-4.393483478,-21.96741739,3.8433932978586,-1.1302292157500005,0.0014315,0.0,123,mp-1210842,Lu2I2O,https://materialsproject.org/materials/mp-1210842,267.7598337084926
-9.817859811,-98.17859811,7.97792824879148,-0.2774782723749993,0.0023271999999999998,0.0,166,mp-1216466,V4WC5,https://materialsproject.org/materials/mp-1216466,93.17658083594392
-6.9488154770833335,-166.77157145,7.086536995415228,-2.0282014220833333,0.0,0.9213000000000005,52,mp-17700,SnWO4,https://materialsproject.org/materials/mp-17700,343.56222240120525
-6.29935611,-62.9935611,4.5735174927357285,-0.8119737025312496,19.0594527,0.0,166,mp-1221706,Mn4CdS5,https://materialsproject.org/materials/mp-1221706,178.8111340838817
-6.265141334615384,-162.8936747,6.336018291552942,-2.522030217788462,7.2999999999999996e-06,0.0,46,mp-1208765,Sr2TmGaCu2O7,https://materialsproject.org/materials/mp-1208765,342.26766771976264
-4.364334916000001,-21.82167458,3.7641527737189353,-1.1201568737500005,0.0051361,0.0,123,mp-1207943,Tm2I2O,https://materialsproject.org/materials/mp-1207943,268.0738653133255
-1.8113022166666664,-10.8678133,0.2939403010520378,2.4616068666666666,3.9382938999999997,0.1383000000000001,123,mp-1206948,Ho2CuSb3,https://materialsproject.org/materials/mp-1206948,4286.0022267698205
-4.7823946575,-19.12957863,6.6453263165095136,-0.008006143750000305,0.00031985,0.0,194,mp-1219716,PrNd,https://materialsproject.org/materials/mp-1219716,142.50680960270583
-4.7464623925,-18.98584957,6.962275078022263,0.0,5.005e-05,0.0,194,mp-867200,Pm,https://materialsproject.org/materials/mp-867200,138.3330351655089
-1.1364640783333333,-6.81878447,0.2829005178415401,2.1200370299999998,6.0397590999999995,0.6052999999999997,123,mp-1206807,Yb2CuSb3,https://materialsproject.org/materials/mp-1206807,4548.4599149832175
-6.4970349925,-25.98813997,9.131469269058297,0.6597294751562508,0.2900199,0.0,187,mp-1220730,Nd3Pu,https://materialsproject.org/materials/mp-1220730,123.06124121676284
-4.7163491075,-18.86539643,7.3684855235888325,0.0,5e-08,0.0,194,mp-69,Sm,https://materialsproject.org/materials/mp-69,135.53865268791006
-4.7650955725,-19.06038229,6.758695862009324,0.0,5e-08,0.0,194,mp-123,Nd,https://materialsproject.org/materials/mp-123,141.75484566720664
-11.193303005,-44.77321202,12.534411091879607,0.06441859062499944,3.4e-06,0.0,65,mp-1219493,ReMo3,https://materialsproject.org/materials/mp-1219493,62.798350376750214
-5.997451255714287,-41.98215879,5.2443533280100905,-0.9227830398392862,0.0014724,0.0,156,mp-1221396,Na(NbSe2)2,https://materialsproject.org/materials/mp-1221396,166.11950938941513
-2.5910076975,-41.45612316,6.108008123456945,-0.6049015757935416,7.82e-05,1.0404,1,mp-1229155,Ag4Hg4S4BrCl3,https://materialsproject.org/materials/mp-1229155,420.940051444343
-6.267480171153847,-162.95448445,6.283137463500749,-2.517504983173078,4e-07,0.0,46,mp-541324,Sr2ErGaCu2O7,https://materialsproject.org/materials/mp-541324,344.2628324836945
-4.7769666925,-19.10786677,6.4161109376099255,0.0067147624999996935,0.0,0.0,194,mp-38,Pr,https://materialsproject.org/materials/mp-38,145.87195024206807
-3.915842448333333,-70.48516407,5.034243546662211,-1.004165230962644,0.0,2.1388,70,mp-561641,Cs2Sn(AuS2)2,https://materialsproject.org/materials/mp-561641,598.1570222296268
-9.765985617142857,-136.72379864,7.371030848687061,-3.359844154821429,1.8e-05,2.7274000000000003,59,mvc-4415,Ta2O5,https://materialsproject.org/materials/mvc-4415,199.09838787448632
-9.0485845725,-36.19433829,11.30898672934515,0.014808560000000526,0.0015653,0.0,187,mp-1217414,Tc3Pd,https://materialsproject.org/materials/mp-1217414,58.79510324929896
-1.885238765,-11.31143259,0.1945149093051952,1.3103013804687498,1.98910605,0.07620000000000005,47,mp-1206872,HoSeI,https://materialsproject.org/materials/mp-1206872,6330.817795128844
-4.4084291166666665,-52.901149399999994,6.401997512620205,0.08256468999999989,0.57345685,0.0,12,mp-1094837,Ce2Mg,https://materialsproject.org/materials/mp-1094837,315.96112096426555
-6.208738390833332,-74.50486069,8.027747186772094,-0.4076005700000008,1.7e-05,0.0,123,mp-1220476,NbAl2Ni9,https://materialsproject.org/materials/mp-1220476,139.64647617758357
-6.266289992692308,-162.92353981,6.242197985985876,-2.515495528557693,5.15e-06,0.0,46,mp-541325,Sr2HoGaCu2O7,https://materialsproject.org/materials/mp-541325,345.2817383884123
-6.59285830125,-158.22859923,4.140925116042709,-2.2053828749404762,0.0001361,0.0,14,mp-1179348,SnPO4,https://materialsproject.org/materials/mp-1179348,342.750698240555
-7.3144471065625,-468.12461482,4.149079916344207,-2.6990175117187505,4.000124125,2.0197,130,mp-1157220,ZnSi4WO10,https://materialsproject.org/materials/mp-1157220,834.9921164608845
-5.257690911363637,-115.66920005,7.606665427203138,-1.7994300861363646,0.0,0.0,64,mp-6027,Ba2Tl2CuO6,https://materialsproject.org/materials/mp-6027,368.0385273078051
-14.0504116925,-56.20164677,7.935665287822943,0.03299685749999881,7.42449205,0.0,194,mp-19981,Gd,https://materialsproject.org/materials/mp-19981,131.61833548634215
-5.834392,-70.012704,7.8394966984202785,-0.3611894183333331,0.0,0.0,11,mp-9391,TaNi2Te3,https://materialsproject.org/materials/mp-9391,288.55187294506356
-4.22424557,-21.12122785,0.4671429102177621,3.081817967,8.871645800000001,0.0,123,mp-1207355,U2As3,https://materialsproject.org/materials/mp-1207355,2491.193369674811
-6.266609196923077,-162.93183912,6.232953007420952,-2.5137084162500014,0.0011934,0.0,46,mp-653925,Sr2DyGaCu2O7,https://materialsproject.org/materials/mp-653925,344.498937651215
-7.776210416785713,-217.73389167,5.415305995949051,-3.416415225309524,0.00011059999999999999,2.2649000000000004,57,mp-1211619,KDyTiO4,https://materialsproject.org/materials/mp-1211619,384.4786488010034
-4.21113239625,-67.37811834,4.90170383869641,-1.8526266575,0.0,2.0637,51,mp-29016,SrThBr6,https://materialsproject.org/materials/mp-29016,541.4064172210407
-7.159810397307693,-186.15507033,6.764324517007676,-2.5147525027884616,2.0000096000000003,0.8197000000000001,46,mp-1249696,Sr2YAlW2O7,https://materialsproject.org/materials/mp-1249696,378.4409762153137
-7.24017848625,-57.92142789,5.683965359311256,-0.907329667619048,0.0,0.0,194,mp-5244,Ti2SbP,https://materialsproject.org/materials/mp-5244,145.1769646366822
-4.977108506666666,-44.79397656,6.391584836130836,-1.1121493019999995,0.00011240000000000001,0.0,38,mp-1223885,K(ThTe3)2,https://materialsproject.org/materials/mp-1223885,329.62864631845264
-7.0085011975,-28.03400479,8.801010593075342,0.11170342140624978,6.030618799999999,0.0,187,mp-1219402,Sm3Pu,https://materialsproject.org/materials/mp-1219402,131.14487975180182
-8.5706466225,-34.28258649,11.335204737497694,0.07248419000000084,0.0046611000000000005,0.0,187,mp-1221430,MoPdRu2,https://materialsproject.org/materials/mp-1221430,59.25680719802141
-1.9955238983333332,-11.97314339,0.4709147304619186,2.345925075,3.7354141000000003,0.08000000000000007,123,mp-1209898,Pr2CuSb3,https://materialsproject.org/materials/mp-1209898,2505.862623853043
-6.266707687692307,-162.93439988,6.139126482110453,-2.5121130000961545,0.00010590000000000001,0.0,46,mp-541327,Sr2TbGaCu2O7,https://materialsproject.org/materials/mp-541327,347.83026607292055
-4.848360807857143,-67.87705131,5.709791996522039,-0.7166995107142858,6.99973495,0.0,66,mp-1103807,Eu(GaTe2)2,https://materialsproject.org/materials/mp-1103807,466.3696360474803
-7.230837845750001,-289.23351383,7.5088773574582435,-0.06889672400000109,25.6539194,0.0,140,mp-1196549,La6Fe13Pb,https://materialsproject.org/materials/mp-1196549,781.3519169962035
-9.514344545,-57.08606727,12.220233701268844,-0.4475399811979166,0.0,0.0,129,mp-8732,Ta2Se,https://materialsproject.org/materials/mp-8732,119.81083478180281
-4.9265915325,-19.70636613,6.2089172896093805,0.0,5e-08,0.0,194,mp-26,La,https://materialsproject.org/materials/mp-26,148.5978601715663
-5.6127511688571445,-196.44629091,5.7328773306987415,-1.568363115714286,2.9998191000000003,0.0,1,mp-752438,Tl3(SbO3)8,https://materialsproject.org/materials/mp-752438,570.9663935202608
-2.831585318333333,-33.97902382,4.76146624761034,-0.0247191158333333,0.00017104999999999998,0.0,38,mp-1094210,MgSn,https://materialsproject.org/materials/mp-1094210,299.2548661977216
-3.1763465639999997,-15.88173282,0.4487341056803726,2.5763200309999994,4.9280922,0.13929999999999998,123,mp-1208450,Th2As3,https://materialsproject.org/materials/mp-1208450,2549.0534941069623
-3.882265290833333,-46.58718349,5.0485625485568395,-0.06309261583333381,0.157032275,0.0,12,mp-1094177,La2Mg,https://materialsproject.org/materials/mp-1094177,397.4797246948673
-3.05332056,-12.21328224,9.056868186779695,0.0705339812500001,1.56e-05,0.0,187,mp-1229107,Ag3Sn,https://materialsproject.org/materials/mp-1229107,81.0965386836594
-3.1518598425,-37.82231811,5.6291113774495445,-0.5193723494980244,7.37e-05,1.129,36,mp-1225936,CsHgSbSe3,https://materialsproject.org/materials/mp-1225936,408.34791205311996
-1.8809585383333332,-11.28575123,0.17636258223060533,1.3237089788020835,1.7475602,0.0658000000000003,47,mp-1206751,DySeI,https://materialsproject.org/materials/mp-1206751,6936.659416611323
-3.10739774875,-24.85918199,2.4955135946548457,1.1326812612500006,1.0001603000000001,0.0,123,mp-1206150,Sr2(SbPt)3,https://materialsproject.org/materials/mp-1206150,749.0996483220657
-2.1426050450000003,-12.85563027,0.3792538397034957,2.378652208333333,3.0294061,0.13430000000000009,123,mp-1209782,Pr2Sb3Pd,https://materialsproject.org/materials/mp-1209782,3299.219261341017
-6.173248401923076,-160.50445845,5.9025329515438285,-1.983025516634616,0.0020006,0.0,46,mp-662575,Sr2EuGaCu2O7,https://materialsproject.org/materials/mp-662575,357.8556575924097
-3.4224589864285715,-95.82885162,2.517963890756932,-0.9750835570089283,0.000172125,0.5486999999999997,19,mp-754496,Li5SbS,https://materialsproject.org/materials/mp-754496,497.3247255219212
-8.199283225,-32.797132899999994,8.193687162263481,0.06383421249999978,0.0035478000000000003,0.0,187,mp-1217289,ThZr3,https://materialsproject.org/materials/mp-1217289,102.4875957454499
-1.8307061683333328,-10.98423701,0.2212531164237153,2.451330286666667,3.9592338,0.1391,123,mp-1207340,Dy2CuSb3,https://materialsproject.org/materials/mp-1207340,5657.581337610792
-2.601138925,-10.404555699999998,7.915953976474182,0.05449211999999992,4.03e-05,0.0,123,mp-1216611,TlIn3,https://materialsproject.org/materials/mp-1216611,115.1302503737042
-9.719840217,-97.19840217,7.056659174863674,-0.6522898730416656,0.006844499999999999,0.0,166,mp-1217128,Ti4WC5,https://materialsproject.org/materials/mp-1217128,102.447170728906
-7.091559395999999,-283.66237584,7.798192147524817,-0.04479320024999965,26.39041105,0.0,140,mp-1196608,Nd6TlFe13,https://materialsproject.org/materials/mp-1196608,764.8002666671972