energy_per_atom,energy,density,formation_energy_per_atom,total_magnetization,band_gap,sgr,num_sites,cell_volume,weight,mp_id,formula,URL,tsne_cry_0,tsne_cry_1,tsne_xrd_0,tsne_xrd_1
-4.9709763680000005,-24.85488184,3.961884616450587,-1.71672205125,3.0000002,0.0,221,5,59.75063385951093,142.5592,mp-1187183,SrLiO3,https://materialsproject.org/materials/mp-1187183,38.77334980170043,41.145068317086924,54.50435867977949,-22.231561804186455
-6.1987060450000016,-595.07578032,3.7136763840412033,-2.198566941067501,45.0069741,1.2541000000000002,1,96,831.8022734035259,1860.2660850000002,mp-777838,Li32Mn13Cr3O48,https://materialsproject.org/materials/mp-777838,-11.281560552618794,100.689124026028,-12.140453719703794,98.88162682573008
-4.8905909225,-156.49890952,6.221123225002911,0.2057103794049997,4e-07,0.0,139,32,448.4331782758342,1680.0316,mp-1225855,Cu23PdN8,https://materialsproject.org/materials/mp-1225855,31.108598298760892,50.79815883857871,87.00324848370104,6.775129770419773
-10.935262045,-87.48209636,12.676170602279893,0.015667981250000906,0.0,0.0,223,8,125.24613512683806,956.1,mp-801,Mo3Os,https://materialsproject.org/materials/mp-801,50.94600963471057,40.35434672266514,70.42209209905374,19.707677235842056
-6.563541405454545,-216.59686638,4.250266788446249,-2.049192450227272,5.000000033333333,0.0,2,33,319.7455885045219,818.4113849999999,mp-759210,Li2Cr2CoO6,https://materialsproject.org/materials/mp-759210,10.626573849710336,76.48006790784326,21.1824874431567,82.95000064390389
-5.8039727325,-185.72712744,4.257465218454282,-1.8686237691224996,19.9999995,0.7174,1,32,281.99224115930036,723.001465,mp-1175794,Li9Mn2Co5O16,https://materialsproject.org/materials/mp-1175794,9.953074722358396,86.9997375069151,8.896630346720595,96.20724870312424
-6.8276862877777775,-61.44917659,18.862695840281344,-0.4941137144444446,7.74e-05,0.0,139,9,145.421302514038,1651.896,mp-1205768,ZrPt8,https://materialsproject.org/materials/mp-1205768,63.57494463370666,58.33314984626847,82.69717942820047,16.813750516352663
-9.8713017425,-39.48520697,11.15140865794563,-0.34344123666666704,1.23e-05,0.0,225,4,70.71705437738967,474.90288,mp-862831,PaTiTc2,https://materialsproject.org/materials/mp-862831,88.06162212367474,0.8843601812656986,65.72109128129762,48.05631542976053
-8.6957433375,-34.78297335,14.396480479335205,-0.6107593025,6.4e-06,0.0,51,4,66.43558053246056,575.9807599999999,mp-999376,NbPt,https://materialsproject.org/materials/mp-999376,63.58904641127122,55.12314939671898,79.87811048096994,15.733002043270895
-6.519069097142856,-182.53393472,4.529437346074051,-1.9194110086399996,12.9999996,0.0,8,28,266.3125635475208,726.418375,mp-758129,Li4Mn2Cr3Co3O16,https://materialsproject.org/materials/mp-758129,-2.2937391574702275,72.23817764544876,2.699144151788249,60.355525347737284
-5.798018805833332,-139.15245134,4.927936838393405,-1.1941741874999998,1.0000001,0.0,186,24,243.04550241148957,721.2795699999998,mp-761579,FeCo3O8,https://materialsproject.org/materials/mp-761579,0.7621752510083755,72.2964638958881,2.5667924619640403,57.811048738428156
-4.2186779475,-16.87471179,9.530384288584637,-0.3360404199999998,2.4e-05,0.0,123,4,66.04096475145515,379.031,mp-1224173,HfZn2Ga,https://materialsproject.org/materials/mp-1224173,48.9763286169135,36.793804825450536,79.29189089043011,15.848356215364866
-9.36139904,-37.44559616,8.361830984802694,0.3384130550000002,0.001482,0.0,221,4,66.4396131497669,334.56413999999995,mp-999440,Nb3Fe,https://materialsproject.org/materials/mp-999440,61.378318274853584,53.85892989209915,57.79248606507929,38.62716750293894
-7.54918344875,-60.39346759,10.458317796124033,-0.7153980075000002,0.00013000000000000002,0.0,47,8,128.67667128275892,810.4245,mp-1215586,Zr2(PdRh)3,https://materialsproject.org/materials/mp-1215586,67.5898083746803,60.04191592302127,87.90447106794483,18.787831752085587
-6.20574426,-18.61723278,7.567240900523889,-0.59785491,1.06e-05,0.0,139,3,66.2144592288974,301.74585,mp-1062893,YPd2,https://materialsproject.org/materials/mp-1062893,24.714910097509676,7.11818434465163,57.331571750815094,32.744306739511075
-6.384556976400001,-159.61392441,2.557095615463292,-2.34946658965,0.9971735,0.0,8,25,331.06052103606294,509.80638600000003,mp-1247845,Al2O3,https://materialsproject.org/materials/mp-1247845,8.788806112083712,65.28727012656222,13.873233432651606,93.36161003448395
-9.193063205,-128.70288487,5.056034863230007,-0.5187774435028558,1.2362834999999999,0.0,176,14,139.2630233544686,424.0302,mp-1014345,Cr3N4,https://materialsproject.org/materials/mp-1014345,27.841047667313326,55.29596060934929,17.363311210808508,89.73983839425274
-5.2171873125,-20.86874925,17.847899934629602,0.0326027558333335,7e-07,0.0,221,4,64.48675506519717,693.1202,mp-30353,AgPt3,https://materialsproject.org/materials/mp-30353,62.02236320232397,56.2613650069686,81.45196532379701,16.290784388574668
-4.601493294,-23.00746647,2.9692117614524456,-2.1542595394640003,0.004757899999999999,0.0,123,5,55.911908780031474,99.97614820000001,mp-1228805,AlOF3,https://materialsproject.org/materials/mp-1228805,7.530479846244114,62.39153171337535,-41.8349845106856,65.46074655934311
-4.37963926875,-35.03711415,5.974349648640762,1.3937887803125006,4.2000000000000004e-06,0.0,194,8,127.81605573801468,459.8614,mp-973155,Ge3C,https://materialsproject.org/materials/mp-973155,50.609274572043674,38.64660440212507,76.32656651141355,14.939832035372419
-4.6517647475,-18.60705899,7.069123043459423,0.25985902625,1.57e-05,0.0,139,4,64.97656737098673,276.6134,mp-976774,NiGe3,https://materialsproject.org/materials/mp-976774,67.87336580846065,59.417657955149146,87.73421778336619,18.87358786493769
-8.437544596666667,-50.62526758,14.606652249040435,0.19188344104166669,0.0039889,0.0,227,6,82.1676150988115,722.7736,mp-30803,PuNi2,https://materialsproject.org/materials/mp-30803,71.57480822271266,50.14919547067454,71.77363494801462,22.348560752260145
-3.922614935,-15.69045974,4.093891969636662,0.4645796450000002,2.9199999999999998e-05,0.0,221,4,60.70639077297806,149.6655,mp-971761,ZnSi3,https://materialsproject.org/materials/mp-971761,57.431227499071724,55.54014400825181,80.08658053722874,13.978911258674787
-5.9235825225,-47.38866018,18.866555144477477,-0.10793895750000004,4e-07,0.0,225,8,130.90887028143382,1487.348,mp-1030,SbPt7,https://materialsproject.org/materials/mp-1030,63.733208970927436,58.3015393062466,58.12650450266144,39.68661823896548
-7.372971398125,-117.96754237,17.003891719099027,-0.8560678847916671,5.6e-06,0.0,194,16,247.3125173538721,2532.476,mp-1189793,TiPt3,https://materialsproject.org/materials/mp-1189793,57.46407279213433,58.12216196523364,81.06405969140914,12.804684456567767
-2.751822773333333,-41.2773416,1.9130304366514577,-0.06783168733333297,0.0275003,0.0,221,15,284.3660413220668,327.605,mp-1103513,Li3(Mg2Si)4,https://materialsproject.org/materials/mp-1103513,89.07185586752745,-0.5534283239851451,66.83802842462704,48.53326450971241
-1.3929535825,-11.14362866,5.555201461135863,-0.0372497237499998,3.745e-05,0.0,139,8,131.84112156191838,441.06400000000014,mp-1094476,MgZn3,https://materialsproject.org/materials/mp-1094476,59.62182517364625,53.266211841329905,80.31890973163848,18.327203389279724
-1.4257133725,-11.40570698,5.612939492372479,-0.07000951374999986,3.3e-06,0.0,194,8,130.48492543592116,441.06400000000014,mp-1094478,MgZn3,https://materialsproject.org/materials/mp-1094478,59.48822769474848,53.34351796949061,80.84184108493875,19.194291935862868
-8.05911743125,-64.47293945,7.5874131621018215,-0.21787687125000052,0.0,0.0,223,8,120.18807261118566,549.169,mp-1555,V3Sb,https://materialsproject.org/materials/mp-1555,49.915661129420464,40.79266561794612,70.26303360032038,19.236071275424965
-8.008266715,-32.03306686,8.504161808479289,-0.14654827187499994,7.609999999999999e-05,0.0,225,4,73.33959951772933,375.596,mp-865872,LiZr2Re,https://materialsproject.org/materials/mp-865872,87.13409072224539,-1.3645448469295391,67.09068856647973,45.91172871754591
-5.792671468125,-185.36548698,4.2580845955258635,-1.8573225047474988,20.000000699999998,0.0,5,32,281.9512228270857,723.001465,mp-1175658,Li9Mn2Co5O16,https://materialsproject.org/materials/mp-1175658,11.52733156726127,86.08589452241303,8.268911692408063,95.46429012322538
-9.8214317575,-117.85718109,15.72483930450597,-0.4370580841666663,0.2323915,0.0,25,12,191.14091569608985,1810.0509,mp-1220502,Nb5Ir7,https://materialsproject.org/materials/mp-1220502,62.27439246992177,56.40620093133403,81.72595765531301,14.771417713091793
-6.999851936428572,-97.99792711,3.837852049700225,-3.2846802100000003,0.0,4.8621,63,14,123.10933719349104,284.5313544,mp-556870,MgAl2O4,https://materialsproject.org/materials/mp-556870,7.553105525420394,61.277013895870105,8.050788051534209,49.13540735768012
-5.88058617875,-141.13406829,4.124956898969259,-1.933187341954999,14.000000199999997,0.7626,5,24,212.25150267873585,527.2554749999998,mp-1174906,Li7Mn2(CoO4)3,https://materialsproject.org/materials/mp-1174906,11.832428719613151,86.16481343194059,8.18503043917895,94.39927789232956
-5.5180804228125,-176.57857353,4.326531783018868,-1.7228817574999995,20.0000005,0.0,10,32,280.557366633752,730.991765,mp-1175394,Li9Co7O16,https://materialsproject.org/materials/mp-1175394,9.458977998408628,86.41177423600917,9.802467216206532,95.5074845893158
-5.68190735875,-45.45525887,14.278044693739428,-0.4664439287500004,1e-07,0.0,47,8,132.80688691615637,1141.9319999999998,mp-1218977,Sn2(PdPt)3,https://materialsproject.org/materials/mp-1218977,63.096335662437184,54.91459794347906,57.40265065978465,37.80120954068791
-5.601714079333333,-84.02571119,4.598094056419258,-1.5697662900000002,8.9484895,0.0,1,15,138.87534863902627,384.55098,mp-759246,Li3(CoO2)4,https://materialsproject.org/materials/mp-759246,4.268599176970303,81.07703773260349,14.075175849776961,91.83517279986755
-5.5091741771428575,-154.25687696,4.2737015551830915,-1.728832751517857,7.9999999000000015,0.4104000000000001,1,28,245.9971574914385,633.11877,mp-1174212,Li4Co3O7,https://materialsproject.org/materials/mp-1174212,10.235590179415324,85.7452302733603,9.357724182944104,95.60747821548372
-5.5051282940625,-176.16410541,4.326279424704904,-1.7099296287499994,17.1910855,0.0,12,32,280.5737319622627,730.991765,mp-1175471,Li9Co7O16,https://materialsproject.org/materials/mp-1175471,7.299182572157218,84.27157310097525,3.1771944588720613,90.36273083326216
-4.9476100275,-19.79044011,17.454564041149414,-0.17630476374999926,3.02e-05,0.0,221,4,66.37213312989917,697.663,mp-866022,CdPt3,https://materialsproject.org/materials/mp-866022,62.86825777013444,54.98625684419181,57.65581138937961,38.31233837128797
-10.1010255975,-40.40410239,14.031029518994028,-0.3281622012500005,1e-07,0.0,221,4,64.05434033228967,541.2389099999999,mp-1263,URu3,https://materialsproject.org/materials/mp-1263,63.24607582500563,56.002739861144505,80.34920617355976,15.290038560769615
-6.613459623333332,-39.68075774,12.277201218914154,-0.6393033633333332,1e-07,0.0,65,6,96.11005109338434,710.59,mp-865166,HfPd5,https://materialsproject.org/materials/mp-865166,61.853883758531246,55.98088560999209,82.33039072776913,17.109656717710465
-5.80765663125,-185.84501219999999,4.247596020261342,-1.8723076678725,19.9999992,0.6534,1,32,282.64744407963406,723.001465,mp-1175764,Li9Mn2Co5O16,https://materialsproject.org/materials/mp-1175764,11.43450169352406,86.30148459923967,8.585715198586547,95.61859469732808
-1.3707071375,-5.48282855,5.52841002307871,-0.015003278749999847,3e-07,0.0,25,4,66.24002091750536,220.53200000000004,mp-1094741,MgZn3,https://materialsproject.org/materials/mp-1094741,59.86174243633353,53.031271248414704,80.83860643248705,19.248034026436557
-6.5286715775,-365.60560834,4.900693809242124,-1.9966437903571423,0.0,0.7397,212,56,557.8393103444712,1646.33266,mp-758062,Li2NbCo3O8,https://materialsproject.org/materials/mp-758062,1.668962151778529,68.36890497461799,17.89845652412848,83.05760690854666
-5.786158737999999,-57.86158738,4.569556695292602,-1.882243763250001,1.0,0.0,148,10,95.38043705239838,262.47279,mp-761524,MgCoO3,https://materialsproject.org/materials/mp-761524,0.5423230457101513,72.64442415388011,2.73083369970482,57.97356237495677
-6.326272935,-25.30509174,4.681768230540951,-0.3665064650000005,0.0001742,0.0,225,4,70.19966815424233,197.922824,mp-865795,LiSc2Ru,https://materialsproject.org/materials/mp-865795,85.95418361070831,0.2300190731590197,64.97500749325289,45.98759926222881
-9.219350995,-36.87740398,10.422778576374494,-0.13295616499999952,0.029892900000000003,0.0,221,4,62.84054207848178,394.434,mp-1017544,ZrRu3,https://materialsproject.org/materials/mp-1017544,67.28517027113425,60.732671196525295,88.17486080598465,18.389473210220718
-10.049815955,-20.09963191,15.855708742298019,-0.1867309800000001,5.0900000000000004e-05,0.0,187,2,30.178149455584034,288.1570000000001,mp-1221414,MoIr,https://materialsproject.org/materials/mp-1221414,62.04336401824556,60.892985492541726,84.44222509048217,13.786272755200924
-7.58625412263158,-144.13882833,7.451215472870126,0.09159981584000017,1.6639588,0.0,12,19,167.37601514481713,751.0541599999998,mp-1246348,Fe3(CoN)8,https://materialsproject.org/materials/mp-1246348,30.23560746935229,56.83450166375815,76.2975762954194,9.07305948863606
-5.637496696111112,-304.42482159,1.5179329319000348,-1.7299561790277775,2.013888888888889e-05,0.0,1,54,1377.6350727467407,1259.3245896,mp-1245215,Al2O,https://materialsproject.org/materials/mp-1245215,8.868279990139293,65.21566197678186,21.89088343821357,56.807911895213095
-1.36919887875,-10.95359103,5.506519745202246,-0.013495019999999913,9.3e-06,0.0,44,8,133.00669479605398,441.06400000000014,mp-1094430,MgZn3,https://materialsproject.org/materials/mp-1094430,59.87806384828507,53.004959863787825,80.75359744296523,19.312783739492804
-4.537227113999999,-22.68613557,2.4399967060854446,-1.4128307021500006,2.9999993,0.0,221,5,64.85160218958896,95.29296928,mp-976775,NaMgO3,https://materialsproject.org/materials/mp-976775,-12.686217722715487,52.01872741274157,-2.393613345925479,57.80496155686664
-5.7936092759375,-185.39549683,4.251990417442574,-1.85826031256,20.000000399999998,0.5705,10,32,282.3553302671356,723.001465,mp-1100734,Li9Mn2Co5O16,https://materialsproject.org/materials/mp-1100734,5.712261100345897,95.54349052099815,3.0399311809005063,90.22618249729042
-5.654952265,-22.61980906,8.206782211678073,0.40172660374999936,5.7000000000000005e-06,0.0,139,4,63.92243390720288,315.92,mp-972077,TcGe3,https://materialsproject.org/materials/mp-972077,67.0022614884233,59.97638476947144,83.38363425085977,17.390759428606483
-5.652753235,-11.30550647,16.184388744727496,-0.035267809999999684,0.0290019,0.0,166,2,30.93469704744105,301.504,mp-1219908,PdPt,https://materialsproject.org/materials/mp-1219908,62.51316658980104,60.082056423303136,83.71170767562418,14.565770898536568
-9.828891448333334,-58.97334869,14.457559242398435,0.12461436208333272,0.012321299999999999,0.0,227,6,80.09835521331671,697.38,mp-11383,NpFe2,https://materialsproject.org/materials/mp-11383,71.37709616825114,50.32134882300538,71.78896038783833,21.95636453030284
-9.7469883,-38.9879532,13.994227986081649,-0.4538952037499993,2.37e-05,0.0,123,4,64.44058652802232,543.07441,mp-1216633,URu2Rh,https://materialsproject.org/materials/mp-1216633,63.255494466502206,55.972777251665725,80.38579428286027,15.473764054393005
-9.2768772625,-37.10750905,10.392061463056883,-0.42144496625000016,1.0465568,0.0,225,4,68.96680143265137,431.611195,mp-972327,Zr2CoOs,https://materialsproject.org/materials/mp-972327,93.88997353581398,8.385670337945749,58.656521626138755,67.06914633900098
-4.935056614,-49.35056614,2.90572123201251,-3.516985956964,0.014768100000000001,6.371,123,10,128.4032352619103,224.68848848,mp-1223318,KNaMg2F6,https://materialsproject.org/materials/mp-1223318,-12.667944290097484,52.00247136568561,-2.355644763780957,57.763453275180034
-7.033448971666666,-42.20069383,9.02670044065143,-0.4810321555555544,6.59e-05,0.0,191,6,65.73703650555831,357.3469350000001,mp-3040,TbCo3B2,https://materialsproject.org/materials/mp-3040,55.274260723654024,26.25635869869063,68.25974568237527,19.314613538107288
-5.649436230357144,-158.18421445,4.685488520594036,-1.4657759310714285,3.999999975,0.0,36,28,267.65026140929365,755.21996,mp-1178123,Li(CoO2)2,https://materialsproject.org/materials/mp-1178123,-2.1268540577736443,72.17657509889098,2.7956956456974846,60.32944369645009
-5.01233847375,-40.09870779,3.2832979723081834,-0.22697925041666697,0.2919162,0.0,25,8,130.29381959567309,257.6232316,mp-1217027,TiAl3,https://materialsproject.org/materials/mp-1217027,60.550063270293634,53.58288741495871,80.99870625239839,18.892860384580477
-7.376715871071428,-206.54804439,17.027462417973528,-0.8598123577380952,3.857142857142857e-07,0.0,164,28,432.19779522121866,4431.833000000001,mp-569708,TiPt3,https://materialsproject.org/materials/mp-569708,57.45567941960553,58.1325180392562,81.06946523903083,12.70444846211491
-8.9135777225,-35.65431089,8.487638429090714,0.11584077500000055,0.028468200000000003,0.0,221,4,66.01208332994287,337.41254,mp-999437,Nb3Ni,https://materialsproject.org/materials/mp-999437,61.399165560759094,53.91691450214263,57.87492621819767,38.772802391364884
-6.9716865525,-27.88674621,9.419602499768075,0.4894876850000003,10.0837791,0.0,221,4,65.08414280756081,369.197435,mp-972987,Mn3Tl,https://materialsproject.org/materials/mp-972987,48.89757238584985,37.32123037858293,58.68312360081891,33.570385174660665
-7.3736259,-29.4945036,17.033077061441052,-0.8567223866666671,2e-07,0.0,221,4,61.722189870537406,633.1189999999998,mp-12107,TiPt3,https://materialsproject.org/materials/mp-12107,57.46285990050313,58.13733696388561,81.17210328794278,12.666039211073274
-5.711991201071428,-159.93575363,4.714421750985215,-1.489948640068572,8.7443874,0.0,8,28,268.06749955517745,761.068075,mp-758211,Li4Mn2Co3Cu3O16,https://materialsproject.org/materials/mp-758211,-2.459871517160498,72.19929950992821,2.7438194267465468,60.5196897046996
-9.8985602975,-39.59424119,16.4583496275324,0.09709216000000076,1.58e-05,0.0,139,4,62.11461627855078,615.6459120000001,mp-1186989,ScOs3,https://materialsproject.org/materials/mp-1186989,57.4935662513038,58.069775092159006,80.96866611644928,12.811042722618652
-5.501313098125,-176.04201914,4.310710415158522,-1.7061144328125,19.9999999,0.5400999999999998,12,32,281.5870811995539,730.991765,mp-1175492,Li9Co7O16,https://materialsproject.org/materials/mp-1175492,5.641390539050457,95.7240178823323,3.1248503572731274,90.27306023262
-9.43868129,-37.75472516,10.520025420533171,-0.7339805137499997,0.0002721,0.0,225,4,67.17683593907013,425.585912,mp-865030,HfScRu2,https://materialsproject.org/materials/mp-865030,94.41889933421714,9.636150133469425,61.0873563736051,66.19154861066843
-6.388559405,-25.55423762,13.100104931356688,0.04701201750000017,1.18e-05,0.0,139,4,65.39638377854104,515.9165,mp-974368,Rh3Pb,https://materialsproject.org/materials/mp-974368,63.14634518466946,55.77973532659747,80.49203873831195,15.693393397799294
-7.500319756000001,-375.0159878,3.932553252407769,-3.3877173556500013,3.0000082999999997,3.9237999999999986,1,50,441.09878697757784,1044.6273333999998,mp-757340,Al19CrO30,https://materialsproject.org/materials/mp-757340,6.820093696207636,61.475362621424225,7.872782826640468,50.46336643063328
-9.764284231052633,-185.52140039,12.241411607410251,-0.3597809982236832,0.0065665,0.0,123,19,266.25682033615743,1962.8321,mp-1224508,Hf4(Ru4C)3,https://materialsproject.org/materials/mp-1224508,63.33819525000521,54.483107121937984,57.23138540644136,37.77412302505545
-4.488605679583333,-107.72653631,5.208157534732975,-0.4662433920833339,8.75e-08,0.8108,62,24,231.32624191055183,725.5376,mvc-12901,NiO2,https://materialsproject.org/materials/mvc-12901,1.4653038073325002,72.1094251993547,2.4094753544063883,56.6058944545572