energy_per_atom,energy,density,formation_energy_per_atom,total_magnetization,band_gap,sgr,num_sites,cell_volume,weight,mp_id,formula,URL,tsne_cry_0,tsne_cry_1,tsne_xrd_0,tsne_xrd_1
-8.326532999,-83.26532999,11.133082067167228,-0.007192216999999345,0.27529929999999997,0.0,156,10,150.3799201233115,1008.222,mp-1221577,Mo2PdRh2,https://materialsproject.org/materials/mp-1221577,65.54870953828684,62.802473074200755,89.7507291711011,16.11341060936948
-5.8708850675000015,-140.90124162,2.3687493993123283,-2.9555099918750005,4.266666666666667e-06,3.0186,192,24,339.04994611860036,483.6528,mp-1190533,MgO,https://materialsproject.org/materials/mp-1190533,12.866485446734679,55.86246208382994,-7.979579632893671,63.659670478624705
-6.4399091183333335,-38.63945471,9.270398705899249,-0.2999613891666672,5.614016,0.0,216,6,81.8538253024225,456.970645,mp-1077334,ErMnNi4,https://materialsproject.org/materials/mp-1077334,66.36116983524849,48.85108979035664,73.74716628948168,22.07553988144652
-10.122289945,-40.48915978,13.47655891214154,-0.20891132000000034,1e-06,0.0,221,4,59.65640535577034,484.15788,mp-867816,TaRu3,https://materialsproject.org/materials/mp-867816,59.31502720941443,57.62982181083106,83.70563974810348,11.325988135771876
-5.6873805975,-45.49904478,16.972882861315494,-0.11292236749999952,4.45e-06,0.0,194,8,138.3407918785915,1414.024,mp-1186949,SbPt3,https://materialsproject.org/materials/mp-1186949,52.07458447375791,32.106261667910616,56.21601383966816,37.89890808447814
-4.798660783333333,-115.1678588,7.157378788673676,-0.4605111594444449,7.5e-08,0.0,212,24,319.1936049711061,1375.8120000000001,mp-20657,Li2BPd3,https://materialsproject.org/materials/mp-20657,39.890525871315816,40.3957238506397,57.26484758970152,-9.241183002693694
-5.998946317894737,-227.95996008,4.022753395400509,-1.9698850307894744,3.77841005,0.0,12,38,392.97222633230456,951.9983088,mvc-12893,Al4(NiO4)3,https://materialsproject.org/materials/mvc-12893,-0.5024619548807958,70.84891737345538,3.874201320871969,57.83095649438033
-5.79863957875,-185.55646652,4.245118539398187,-1.8632906153724988,16.0,0.3167,1,32,282.81239910438256,723.001465,mp-1175551,Li9Mn2Co5O16,https://materialsproject.org/materials/mp-1175551,18.902275203298405,88.92563400595154,10.531027262948664,90.3335752177725
-4.162324467,-83.24648934,10.40383633602229,-0.4189749613333326,0.0,0.0,229,20,443.38494382408715,2777.9559999999997,mp-22075,In7Pt3,https://materialsproject.org/materials/mp-22075,52.6940685305408,16.820624817595938,50.52151994164301,2.8917296473247833
-6.47136253875,-362.39630217,4.2693670946223925,-1.923025350384285,6.999997200000001,1.3219999999999998,212,56,568.4548586621057,1461.53894,mp-771112,Li2Mn3NiO8,https://materialsproject.org/materials/mp-771112,0.3375478962019807,68.15843609445068,16.661800008459654,82.91246821946879
-5.507143675625,-176.22859762,4.270170919091667,-1.7119450103124991,23.9999997,0.0,2,32,284.26036959644904,730.991765,mp-1175428,Li9Co7O16,https://materialsproject.org/materials/mp-1175428,10.817003502119162,87.13931631600231,7.96943151527913,95.55830828277472
-7.7457377775,-61.96590222,6.6502008599101705,-1.1480559250000004,4.05e-06,0.0,194,8,165.9446148686406,664.5824,mp-1682,ZrAs,https://materialsproject.org/materials/mp-1682,23.374508769429703,23.20367377863855,57.872427126153745,-26.682292508977362
-3.4967406125,-13.98696245,10.614945272060458,-0.3547538625,4.8e-06,0.0,225,4,65.76034439114386,420.371,mp-862737,LiHgPd2,https://materialsproject.org/materials/mp-862737,88.86126336052071,15.901062463184974,47.6916881526211,62.78300869486237
-6.317099890833332,-151.61039738,3.677752345047192,-2.3040545501894445,9.0000006,1.3072999999999997,3,24,207.78541012424708,460.20193499999993,mp-767679,Li8TiMn3O12,https://materialsproject.org/materials/mp-767679,-29.85289886119521,64.36131059202859,-25.72149426875205,73.24571886387182
-4.3480032425,-17.39201297,7.440586677342495,-0.5028041860416668,0.0,0.0,2,4,45.39631649908564,203.413,mp-675402,CuAgO2,https://materialsproject.org/materials/mp-675402,25.76967448548541,49.29046690260532,66.26165544745416,10.302668273100078
-9.61964639625,-76.95717117,14.084708988500486,0.5011569337500017,2.285e-05,0.0,194,8,135.7755979890925,1151.65,mp-978264,MgW3,https://materialsproject.org/materials/mp-978264,51.5934481916572,39.142711511274854,75.85420888401343,14.50822207485209
-2.280000763333333,-6.84000229,14.144082427215169,-0.058597496666666686,0.0,0.0,123,3,70.0023953651057,596.264,mp-11470,Hg2Pt,https://materialsproject.org/materials/mp-11470,61.69842333438552,17.913566866377327,53.14457412863568,15.983001138899008
-5.813244260625,-93.01190817,10.491386470034408,-0.2600061497916668,1.5e-07,0.0,62,16,208.9698184457568,1320.284,mp-20517,BPd3,https://materialsproject.org/materials/mp-20517,61.623437686993256,39.97477825669868,73.22875229336009,8.665288095880944
-7.008995743571428,-196.25188082,3.8207364651130535,-3.2938240171428568,0.0,4.9766,62,28,247.32164932045131,569.0627088,mp-5857,MgAl2O4,https://materialsproject.org/materials/mp-5857,7.634134322724756,61.19320360878429,8.121486028616456,49.0771346879838
-6.619051674285713,-92.66672344,4.2834714841284764,-1.954876067348572,10.0000004,0.0,166,14,141.73872950859155,365.62453000000005,mp-774822,Li2Mn3CoO8,https://materialsproject.org/materials/mp-774822,0.32626308199866483,68.18302892842121,16.52852748042916,82.77145757524636
-4.30637372,-34.45098976,6.1814443056454405,0.3163724850000005,9.2e-06,0.0,64,8,156.10792546387614,581.12,mp-1079020,Ge,https://materialsproject.org/materials/mp-1079020,52.31592895239365,25.107255276730662,50.093737154335926,27.030977196896643
-5.473464280000001,-32.84078568,9.849805341478033,-0.39963993972222295,7.6e-06,0.0,216,6,86.74117969599898,514.5219199999998,mp-1206024,HoInNi4,https://materialsproject.org/materials/mp-1206024,70.68584791837019,47.762261217008934,73.57535211459873,23.89125881535443
-9.999421335,-19.99884267,10.970531890366974,0.06475975500000075,4.3e-05,0.0,187,2,29.82013994760437,197.01,mp-1221386,MoRu,https://materialsproject.org/materials/mp-1221386,65.50836936200803,62.92642529708426,89.87706859762896,15.85780409690542
-7.396150228333332,-44.37690137,11.537875389108953,-0.1056883899999998,1.2903262,0.0,216,6,85.26893714491365,592.4716900000001,mp-13018,UCo4Sn,https://materialsproject.org/materials/mp-13018,72.1288215246434,49.795442728422834,71.36666324567649,22.888795773650042
-6.7982601675,-27.19304067,5.365677569855084,-0.1864927737499995,1.0000001,0.0,216,4,67.3075140235718,217.489869,mp-999249,Sc2MnGe,https://materialsproject.org/materials/mp-999249,98.13501516351631,8.885392104306176,64.67255050909095,62.285350849167024
-5.787923705,-185.21355856,4.240845925458337,-1.8525747416224991,18.000001100000002,0.2568000000000001,2,32,283.0973300403362,723.001465,mp-1175834,Li9Mn2Co5O16,https://materialsproject.org/materials/mp-1175834,18.02877171061412,88.30365681620205,7.0428325352386905,94.2029556796921
-4.705583109,-47.05583109,9.437093794579656,-0.34173188700000023,0.0,0.0,63,10,202.16250419515697,1148.92,mp-613,Te2Pd3,https://materialsproject.org/materials/mp-613,35.72474929243836,26.56854858230807,72.21272415429834,13.370058605035204
-3.425563295,-13.70225318,6.8447544151849815,-0.2856806117968751,5e-07,0.0,123,4,92.33515413846554,380.6062,mp-1223836,InAgSe2,https://materialsproject.org/materials/mp-1223836,24.92762320483316,7.620989626557976,11.613271782290587,-0.5112040906868992
-8.703531193333333,-52.22118716,7.817082800704478,-0.5562039133333343,4.3e-05,0.0,140,6,121.23208594079041,570.707,mp-571664,Zr2Rh,https://materialsproject.org/materials/mp-571664,46.38579641867446,13.297992017025821,59.479291007995634,15.452625434299472
-3.55341711,-7.10683422,5.384060410026241,-0.11381483166666673,0.0,0.0,216,2,72.96482117354348,236.578,mp-20012,InSb,https://materialsproject.org/materials/mp-20012,25.48292288940126,15.90240939873,65.19563051596518,44.55567838415836
-7.7804942258333325,-186.73186142,6.9673081287566925,-0.13186232541666598,2.7970938,0.0,47,24,341.59283326487014,1433.259,mp-1216496,V9Ga2Sn,https://materialsproject.org/materials/mp-1216496,50.163321609100386,41.11603816472008,80.32123979532551,-2.17127489164426
-7.780188766527778,-560.17359119,0.7612360859231609,-3.1541395840277784,1.6666666666666667e-08,6.180999999999999,229,72,3145.588949953473,1442.0232,mp-556068,SiO2,https://materialsproject.org/materials/mp-556068,-81.65836318134717,31.84595101474085,-81.73514634007947,42.54272740442786
-5.7879904203125,-185.21569345,4.179960580499499,-1.8526414569349996,20.0000009,0.2131000000000003,12,32,287.22092840077147,723.001465,mp-1176324,Li9Mn2Co5O16,https://materialsproject.org/materials/mp-1176324,13.517200209552081,89.24112496427679,4.969565600459863,92.74821275212926
-5.7971073371875,-185.50743479,4.209136661935136,-1.861758373809999,22.0000009,0.7643,8,32,285.2300257834192,723.001465,mp-1100680,Li9Mn2Co5O16,https://materialsproject.org/materials/mp-1100680,10.934129496640447,89.14996661410655,5.993723781328463,96.16656890469095
-5.832073819285714,-163.29806694,4.1629059599674125,-1.891560624443572,9.0000001,0.7719,1,28,249.35711722361228,625.12847,mp-1174696,Li4MnCo2O7,https://materialsproject.org/materials/mp-1174696,11.119700236012953,87.83172345768473,7.229934354027496,94.41954463284144
-6.15984491,-18.47953473,10.824534665947231,-1.2226316400000006,0.0,0.09810000000000052,216,3,72.98545425659549,475.76935,mp-16313,TbSbPt,https://materialsproject.org/materials/mp-16313,87.07406609158569,-2.060920910020851,67.38020186880684,46.86909271220225
-8.1529317875,-32.61172715,8.010537372058403,-0.26472852500000066,0.00018659999999999998,0.0,225,4,71.30800843876212,343.994,mp-1232423,Zr2CuTc,https://materialsproject.org/materials/mp-1232423,100.26565700949438,5.239269873494595,68.80464125716028,61.09496400771379
-5.51142815875,-88.18285054,4.965187667522366,-1.5391711325000008,1.9430691000000002,0.0,12,16,152.1679523264925,454.9983,mp-756800,Li3Cr(CuO2)4,https://materialsproject.org/materials/mp-756800,19.41915677927412,53.200380431631324,2.74676528095043,49.99158259788253
-6.059451665,-36.35670999,10.43693989439364,0.09004820166666623,3.49433695,0.0,227,6,90.60228106002113,569.46,mp-1665,YbFe2,https://materialsproject.org/materials/mp-1665,80.40413035139751,29.46429835700565,71.06099671190488,26.544202489370317
-8.441691887500001,-202.6006053,12.89332361792446,-0.35775836736111205,2.50097345,0.0,194,24,295.76534679221606,2296.4821899999997,mp-505344,U3Co7B2,https://materialsproject.org/materials/mp-505344,72.30703169857533,50.04224567485874,70.08035748002932,21.58131424982516
-5.135040443333334,-30.81024266,9.852507007786807,-0.36740343333333375,1.1599999999999999e-05,0.0,216,6,86.3117191344684,512.11492,mp-1077332,HoCdNi4,https://materialsproject.org/materials/mp-1077332,70.6700466749585,47.812409417482044,73.57938646021636,23.82055196502521
-3.92247731375,-31.37981851,10.23589009848884,0.5155326462500005,1.7742863999999998,0.0,194,8,137.78748028967078,849.3492,mp-1183261,Ag3Ru,https://materialsproject.org/materials/mp-1183261,52.9348758903,30.478228409982,55.92927699938843,41.99380650242675
-2.933643585,-11.73457434,7.695918157172144,-0.4732872683333333,2.3800000000000003e-05,0.0,216,4,70.26868539959413,325.666569,mp-30392,Li2InAu,https://materialsproject.org/materials/mp-30392,85.70908030514843,1.847430680051236,57.412350682438706,70.1200051985644
-4.3130797577777775,-38.81771782,6.646182441641737,-0.4267527394444449,8.0052567,0.0,87,9,89.31201165933643,357.4646,mp-1220234,Ni5O4,https://materialsproject.org/materials/mp-1220234,29.52553166239922,60.0652457656914,56.35398153776474,44.171742388292294
-5.838606201785715,-163.48097365,4.167744926794845,-1.898093006943572,8.99999985,0.9965000000000002,1,28,249.0676007489664,625.12847,mp-1174769,Li4MnCo2O7,https://materialsproject.org/materials/mp-1174769,10.624858191341698,87.92533384455571,7.4691508031845775,94.5819478395708
-5.7992340934375,-185.57549099,4.237686885884088,-1.863885130059999,18.0000001,0.3971999999999998,1,32,283.30836867840554,723.001465,mp-1175613,Li9Mn2Co5O16,https://materialsproject.org/materials/mp-1175613,18.10225703225484,88.61080286187021,9.401574168703519,90.87614442713415
-6.69156137,-26.76624548,13.568514623035268,-0.7681061174999995,1.3e-06,0.0,225,4,73.53241020734407,600.8444000000002,mp-865337,Lu2NiIr,https://materialsproject.org/materials/mp-865337,92.5998798559252,-7.122236402996794,72.72666600473488,50.26245543904868
-4.641713895,-9.28342779,9.433583113998864,-0.5373085949999998,2.3e-06,0.0,166,2,31.005432886755308,176.143,mp-1224802,GaPd,https://materialsproject.org/materials/mp-1224802,57.62339574526365,47.79491289463861,82.04763354952891,20.225785429689378
-11.9677017,-35.903105100000005,15.259857608891087,-0.07522626000000088,2e-07,0.0,42,3,50.13524052221028,460.72787999999997,mp-1217897,TaMoW,https://materialsproject.org/materials/mp-1217897,67.06485924129622,27.353274885608435,63.21271050026992,61.86743696462987
-1.399503875,-16.7940465,4.9522561632564885,-0.01617433833333326,2.55e-06,0.0,8,12,208.05692517532142,620.4920000000002,mp-1094492,MgZn2,https://materialsproject.org/materials/mp-1094492,47.39931130024059,32.765522305000445,80.43257915561598,20.34006330418199
-6.902529204285713,-193.27081772,4.366185075365143,-2.2729619554761897,6.9999997,0.0,1,28,270.8915353089451,712.2762849999998,mp-770043,Li4Ti2Cr3Co3O16,https://materialsproject.org/materials/mp-770043,-2.6753331562338256,72.34171469053466,2.6438344318165887,60.75595456872932
-5.2645194425,-21.05807777,7.428255113288287,0.09838102083333312,0.8639939,0.0,123,4,69.62722080979546,311.4704,mp-1961,TiAg,https://materialsproject.org/materials/mp-1961,48.43536491246104,35.162455604640236,56.809413515155725,34.63926649426661
-4.528655778,-22.64327889,16.068877771899807,-0.07790862200000034,4.0578379,0.0,87,5,87.09441306153698,842.8043210000001,mp-12565,MnAu4,https://materialsproject.org/materials/mp-12565,51.24984630120215,34.12316815151475,56.03626058826061,35.96187244581984
-6.11810593,-48.94484744,9.244493762248746,0.60768190875,0.00036005,0.0,194,8,146.7909957605605,817.2095999999998,mp-985288,As3W,https://materialsproject.org/materials/mp-985288,62.4233732026091,21.935129334585465,69.91803325206743,14.404841597024712
-5.35262818875,-128.46307653,16.25215767838053,-0.39745614319444417,4.125e-07,0.0,10,24,412.76929955899783,4039.888,mp-1223755,InPt2,https://materialsproject.org/materials/mp-1223755,52.10147725803621,32.15078482911425,56.59034301319141,37.98055656910137
-6.164585856666666,-18.49375757,7.610021895272287,-0.2528987383333335,0.0,0.03739999999999988,216,3,69.02978397296239,316.35400000000004,mp-22689,ZrSnPd,https://materialsproject.org/materials/mp-22689,87.68601514755974,2.6511923177745125,57.628219406378605,68.14012011149003
-7.612280715,-76.12280715,7.056887384591633,-0.1443712171129988,13.011719300000001,0.0,123,10,114.4685853058178,486.46367,mp-1221658,Mn6Zn2CN,https://materialsproject.org/materials/mp-1221658,49.17260584432025,62.76010984131687,88.42105723006468,9.804697570877568
-8.5517769825,-34.20710793,11.150898416830193,-0.5132887499999992,0.0,0.0,221,4,59.80777930777835,401.62288,mp-2449,NbRh3,https://materialsproject.org/materials/mp-2449,65.52009674420789,62.88094609270026,89.72920580066376,16.135900138426287
-5.8710577525000005,-140.90538606,4.119499264462597,-1.9236589157050008,14.0000003,1.0259,3,24,212.53269974923992,527.2554749999998,mp-1175089,Li7Mn2(CoO4)3,https://materialsproject.org/materials/mp-1175089,10.079796758697752,87.86653464663652,-1.0297266956567868,95.23081774237083
-11.09355937375,-266.24542497,13.310267494046546,0.023143487291667004,3.6200000000000006e-05,0.0,213,24,335.4669075681265,2688.9788,mp-1190846,Re2Mo3C,https://materialsproject.org/materials/mp-1190846,60.56888252691906,33.23236537941121,70.04560226056893,16.165810434316366
-3.4635616275,-13.85424651,6.81852551031659,-0.32367894429687505,1.1e-06,0.0,166,4,92.69034089698714,380.6062,mp-1007685,InAgSe2,https://materialsproject.org/materials/mp-1007685,24.87873570448073,7.635197848167536,11.61607268788701,-0.4745869995919025
-6.10403622875,-97.66457966,14.705815293446946,-0.91297947375,5e-08,0.0,55,16,238.56340502143533,2112.7292316000007,mp-1501,Al3Pt5,https://materialsproject.org/materials/mp-1501,55.30205756799647,40.94999422233832,72.36559610927206,13.578375496353473
-5.0613544375,-60.73625325,3.321704566226116,-2.8418537616266666,4.9999995,3.6028,88,12,138.75343843254748,277.5592256,mp-754662,LiFeF4,https://materialsproject.org/materials/mp-754662,-26.453576584638352,60.71700517267528,-27.724437160694514,60.16739234099142
-4.5516799775,-18.20671991,7.893549074677731,-0.5532407125000001,0.0004823,0.0,225,4,48.1304426187198,228.79318199999997,mp-862312,LiBePd2,https://materialsproject.org/materials/mp-862312,84.91845309300062,33.621762494636805,53.47065067496356,47.649737221687786
-3.541641245,-14.16656498,5.369502020543454,-0.102038966666667,0.00142685,0.2485999999999997,186,4,146.32530298046498,473.156,mp-1007661,InSb,https://materialsproject.org/materials/mp-1007661,25.480299743943828,15.902316326638347,64.37358397307348,44.24623261308099
-5.8682310850000015,-140.83754604,4.1198465872877605,-1.920832248205001,15.999999800000003,0.7964000000000002,1,24,212.5147822233921,527.2554749999998,mp-1174939,Li7Mn2(CoO4)3,https://materialsproject.org/materials/mp-1174939,9.460215977926152,88.96873543995447,6.280875798460911,97.06517924359228
-7.1102272675,-28.44090907,7.340398817605956,-0.4225639833333332,4.970000000000001e-05,0.0,25,4,59.008686305108064,260.8474,mp-1217097,Ti2NiPd,https://materialsproject.org/materials/mp-1217097,55.276541166594846,51.914621510896616,81.69826443611088,9.57485538912766
-6.18425863125,-148.42220715,3.65740024572405,-2.1644428422916664,2.000000325,0.6244999999999998,52,24,206.80924063679214,455.5052,mp-764409,Li2CrO3,https://materialsproject.org/materials/mp-764409,-29.736040103891007,64.32910794870344,-25.729045559624648,73.21601637465382
-5.126693125,-30.76015875,9.788847864975322,-0.3544924291666665,0.0004064,0.0,216,6,86.46075493879559,509.6846,mp-1071811,DyCdNi4,https://materialsproject.org/materials/mp-1071811,70.62355145093407,47.67701438589072,73.5863129846655,23.837296353075484
-6.235029036666668,-598.56278752,3.632177082088646,-2.2227812034875,19.0066746,0.7686000000000002,5,96,839.7065103908275,1836.730525,mp-778376,Li32Mn5Cr11O48,https://materialsproject.org/materials/mp-778376,-10.916577702275958,98.91023581412844,-12.497893812138756,97.6653417700592
-5.176742128333333,-31.06045277,4.808819948318902,-1.4297146160416665,0.3131989,0.0,123,6,68.85338140064012,199.3952,mp-1232321,MgCu2O3,https://materialsproject.org/materials/mp-1232321,16.835032866961715,63.318669837171825,12.243528859506743,46.03283359278368
-9.066078235,-72.52862588,8.617301675393788,0.01305418749999987,1.4e-06,0.0,223,8,114.39809005337185,593.664364,mp-11271,BeMo3,https://materialsproject.org/materials/mp-11271,55.9172193406761,39.091723308338594,70.18943419493479,19.047252798527552
-9.651349132222222,-173.72428438,5.617936004415451,-1.204256080687407,0.00416315,0.0,2,18,181.87501905933482,615.3195999999998,mp-1246009,Ti(VN)4,https://materialsproject.org/materials/mp-1246009,28.809826800674532,58.91401550483933,83.02766644148916,22.371030220833735
-7.37230783375,-58.97846267,14.148972126005615,-0.5181949662500003,0.016443,0.0,194,8,175.3156444518214,1493.81382,mp-1078970,USnPt2,https://materialsproject.org/materials/mp-1078970,48.986427898504246,20.101008900212875,72.0949074074336,13.10486975454509
-8.914973579375,-142.63957727,10.979673761687451,-0.16232596562499954,0.032953300000000005,0.0,47,16,287.04786553022905,1897.9932670000003,mp-1220758,Nb12IrAu3,https://materialsproject.org/materials/mp-1220758,64.31164397734068,22.98662018737393,69.70929255597316,25.380275922197644