energy_per_atom,energy,density,formation_energy_per_atom,total_magnetization,band_gap,sgr,num_sites,cell_volume,weight,mp_id,formula,URL,tsne_cry_0,tsne_cry_1,tsne_xrd_0,tsne_xrd_1
-6.39185741,-12.78371482,5.632062180223559,-0.2323864093100001,0.013273599999999998,0.0,225,2,15.316605262109055,51.94944,mp-1002114,VH,https://materialsproject.org/materials/mp-1002114,32.18514323862264,57.90546586431552,87.48749814088902,17.89634034642338
-9.23325056,-36.93300224,11.14949819603682,-0.32334260124999936,0.0001327,0.0,225,4,67.78303436986172,455.12138,mp-862814,PaSiTc2,https://materialsproject.org/materials/mp-862814,87.42270906485244,1.7477870751457651,58.4543012917813,68.88218563883068
-3.08354552,-9.25063656,5.950743019242752,-0.2300939355555555,2.7000000000000004e-06,0.0,216,3,70.85938525468136,253.9332,mp-1008903,MgAgSb,https://materialsproject.org/materials/mp-1008903,85.9630728431941,0.3160695954672426,64.96242895181355,45.7092451388541
-7.149467304444443,-128.69041148,3.9999210952756985,-1.822912501602222,8.0000008,0.6961999999999999,64,18,214.1046539095489,515.73718,mp-753734,Mn2CrO6,https://materialsproject.org/materials/mp-753734,6.752728107894923,70.56751757512201,14.989215883340325,84.02850486101327
-5.84814468,-87.72217020000001,4.3950398315118635,-1.7334413027946662,9.0000007,0.0,2,15,142.09139304567597,376.08109,mp-763752,Li3Mn2(NiO4)2,https://materialsproject.org/materials/mp-763752,12.875275351384596,78.67570721492915,17.40113871800402,82.50076353894663
-3.331245946875,-53.29993515,5.654694292398683,-0.17505798291666652,5e-08,0.0,224,16,266.9218697075295,908.9588,mp-29166,Li3Ag2Ge3,https://materialsproject.org/materials/mp-29166,35.700623376990436,37.79338555185822,41.1074885679739,55.463143784183714
-5.950628095,-23.80251238,12.03782644549776,-0.9355544275000004,3.6000000000000003e-06,0.0,221,4,68.17536636184197,494.227,mp-1158,LuPd3,https://materialsproject.org/materials/mp-1158,63.4090732215615,54.05029914442875,56.59172324477329,37.7428996922518
-6.216649759866668,-466.24873199,3.2184321685187,-3.4463206122053336,0.3743572,0.0,6,75,803.5915818823438,1557.5092998,mp-1247830,Al23O17F35,https://materialsproject.org/materials/mp-1247830,6.5559604579484025,64.19653099402235,-6.794427161632103,63.37821504264542
-5.5913140142857145,-78.2783962,10.621183843992874,-0.1988314009523821,2.15e-06,0.0,15,14,203.03564860937237,1298.662,mp-1214755,BPd6,https://materialsproject.org/materials/mp-1214755,68.24729479929312,58.47654703627961,56.97312881174604,41.82168402894021
-1.5044083475,-6.01763339,5.648447858133472,-0.07279506624999987,2.6899999999999997e-05,0.0,187,4,59.72762857196728,203.16800000000003,mp-1222288,LiZn3,https://materialsproject.org/materials/mp-1222288,58.16543450263578,52.247936086306346,83.94626179457944,14.187188013793914
-5.747666461428572,-80.46733046,5.0061431176283016,-1.7644840464285718,3.0000006,0.0,227,14,138.2300775354033,416.7318772,mp-768600,Al(NiO2)2,https://materialsproject.org/materials/mp-768600,2.8768595419343947,67.06292456015134,11.837638131896664,54.04496135404027
-1.8953740433333333,-5.68612213,0.5743372060911819,0.012598606666666791,1.89e-05,0.0,191,3,60.20401266574132,20.823,mp-1063005,Li,https://materialsproject.org/materials/mp-1063005,39.09802794418388,34.766929808474345,47.53801595864209,26.52199401030549
-7.586460465,-60.69168372,8.618077931381057,-0.4973086337500003,8.1e-05,0.0,200,8,130.87899852212664,679.252569,mp-1217024,Ti6PtAu,https://materialsproject.org/materials/mp-1217024,45.36264835274102,38.47977202275735,48.54196324057991,-0.3792226448635906
-7.111847235,-28.44738894,17.475345617429305,-0.2994242250000001,0.0002917,0.0,166,4,60.452260394243574,636.1935,mp-1216270,VPt3,https://materialsproject.org/materials/mp-1216270,62.43512190780854,59.90755833736904,84.87772154686849,13.335640546938476
-3.5885917766666666,-21.53155066,4.234871784754242,-0.043896771500000036,0.30995555,0.0,227,6,135.5393539524671,345.66593856,mp-1077399,NaAs2,https://materialsproject.org/materials/mp-1077399,86.44249209650174,-1.2393867619586036,66.57561285645018,46.07965257792422
-9.202389678333333,-110.42867614,10.79689325464555,-0.0277525833333326,2.1000000000000002e-06,0.0,194,12,177.87222261026488,1156.5325200000002,mp-1218034,Ta2V3Cu,https://materialsproject.org/materials/mp-1218034,80.47947664101888,30.05962065870046,69.64854401247743,23.91771799830462
-9.312111976666666,-55.87267186,10.058134323419717,-0.6591550399999994,9.85e-06,0.0,140,6,123.7099922145548,749.33,mp-1077297,Zr2Ir,https://materialsproject.org/materials/mp-1077297,52.585217675063866,17.011893194600088,49.508528511509745,5.318561302623341
-4.63353991,-18.53415964,9.120450719438981,-0.2729402849999998,5.5e-06,0.0,221,4,59.390649875728855,326.201,mp-861936,LiPd3,https://materialsproject.org/materials/mp-861936,56.070954123945896,56.69208048154005,81.27467864889712,11.215179921192348
-5.529798377826087,-254.37072538,4.8370471579452055,-1.5442521597826095,12.0000009,0.0,4,46,423.7755931029731,1234.432,mp-780469,Li4Cr2Ni5O12,https://materialsproject.org/materials/mp-780469,22.042366188264047,77.80401265632388,28.65154477022148,77.0214121116352
-3.866165175,-15.4646607,3.970559730921158,-0.03026472250000012,1e-07,0.0,221,4,60.42783000619341,144.4906158,mp-1183161,Al3Cu,https://materialsproject.org/materials/mp-1183161,57.36023998065838,55.59520785482046,79.98435471393594,14.098235664025676
-6.198575064270832,-595.06320617,3.6914185488390867,-2.1984359603383328,45.002646399999996,1.1941,1,96,836.8177214425958,1860.2660850000002,mp-1177789,Li32Mn13Cr3O48,https://materialsproject.org/materials/mp-1177789,-11.233251896450334,100.47330850143301,-12.333583661364647,98.29861246153247
-5.7964176340625,-185.48536429,4.239731681501902,-1.8610686706849997,22.0000012,0.6187,10,32,283.1717308545331,723.001465,mp-1100702,Li9Mn2Co5O16,https://materialsproject.org/materials/mp-1100702,14.221763463928303,88.82165622147673,6.753786309620797,91.9694453786753
-9.621545352,-48.10772676,14.430351001111871,0.3461749802499995,1.9e-06,0.0,166,5,67.37524477134721,585.5017,mp-1219505,Rh2W2C,https://materialsproject.org/materials/mp-1219505,64.07617193241833,58.63697418835349,57.54733831134373,38.776688477172115
-3.2247779375000003,-38.69733525,6.864883222968624,0.4694434997222222,5.21e-05,0.0,63,12,235.91124312345866,975.2876,mp-1095654,SiAg2,https://materialsproject.org/materials/mp-1095654,48.996583191332824,41.402226047146506,64.40044453894535,-12.135348214755185
-5.484066444,-109.68132888,4.178028788500328,-1.7512681853749996,5.0,0.6194999999999999,2,20,173.8318745486725,437.37278,mp-1173977,Li3Co2O5,https://materialsproject.org/materials/mp-1173977,6.950445783408716,85.97968851229004,-5.085052591232785,94.71412481429745
-5.512602995357144,-154.35288387,4.268323456883526,-1.7322615697321435,9.0,0.7163999999999997,2,28,246.30711452908267,633.11877,mp-1174276,Li4Co3O7,https://materialsproject.org/materials/mp-1174276,9.499569170096423,86.69646951358804,9.388409005404656,96.25628132955782
-7.7194776875,-30.87791075,12.097990898383033,-0.3939211837500008,0.0016123,0.0,225,4,68.43447519078325,498.58488,mp-862843,PaZnRu2,https://materialsproject.org/materials/mp-862843,93.9467607725118,8.453237140032787,58.55613731766192,67.06263745296438
-9.7433483775,-38.97339351,11.05600119451482,-0.15762662749999912,0.0117911,0.0,225,4,71.94038626669621,478.98482199999995,mp-867858,ScUTc2,https://materialsproject.org/materials/mp-867858,88.04619954488851,0.6922880129629136,66.50712448768638,47.47456884647497
-9.436066596111113,-169.84919873,5.973163050815713,-0.7411964245762969,2.13477185,0.0,2,18,173.40424911193534,623.7564,mp-1247130,Ti(CrN)4,https://materialsproject.org/materials/mp-1247130,28.962884734792077,58.59513427421238,83.03906538514764,22.42063497983638
-9.123775596666666,-54.74265358,14.184579524837591,-0.16936845166666714,0.08130760000000001,0.0,74,6,82.60378397766952,705.6142100000002,mp-1216650,UFeCo,https://materialsproject.org/materials/mp-1216650,71.88235695679765,50.16702030129871,71.61846369485094,22.472815271044272
-6.583410263636364,-72.4175129,4.180805553268896,-2.0690613084090907,5.000000099999999,0.6491000000000002,12,11,108.35264785358486,272.80379500000004,mp-758963,Li2Cr2CoO6,https://materialsproject.org/materials/mp-758963,11.282504225979949,76.55622345690931,21.044295021157094,82.76796590251398
-8.70391998375,-69.63135987,8.833384918954197,-0.5651177462499994,3.65e-06,0.0,223,8,126.25712667364212,671.6360000000001,mp-544,Ti3Ir,https://materialsproject.org/materials/mp-544,45.39690436447886,38.529494770254544,48.53962592874016,-0.2991178955770729
-4.633034599999999,-9.266069199999999,19.3937886044138,0.032190664999999896,5.400000000000001e-06,0.0,166,2,33.56823613775754,392.050569,mp-1219709,PtAu,https://materialsproject.org/materials/mp-1219709,69.02026320284008,57.030211575128895,57.386109711176395,41.414600808977255
-6.1591089666666665,-277.15990350000004,3.6797151732205697,-2.0243355908373326,21.000003399999997,0.0,10,45,412.33426376759667,913.72296,mp-758586,Li13Mn8O24,https://materialsproject.org/materials/mp-758586,-10.855055014463993,100.88356052812168,-12.040382634419597,98.90576662604285
-7.97498022,-23.92494066,9.445062418159678,0.6694207404166667,4e-07,0.0,25,3,39.17619759234917,222.8322386,mp-1228818,AlWC,https://materialsproject.org/materials/mp-1228818,51.458687680072345,18.581522159044965,48.808829306612985,6.696978503217269
-8.72928047,-52.37568282,14.304883424879508,-0.22481883499999947,0.00017905,0.0,227,6,82.6260546485355,711.7906,mp-1383,UCo2,https://materialsproject.org/materials/mp-1383,71.85980939849223,50.16897703509056,71.68960712267626,22.421636117118712
-9.55776153,-19.11552306,19.911462750454408,-0.049534020000001185,2.4e-06,0.0,166,2,31.600797142771448,378.92400000000004,mp-1219711,PtW,https://materialsproject.org/materials/mp-1219711,67.7366975576999,62.4121695032309,88.88875155303177,17.853145915476727
-6.5067708275,-104.10833324,10.05746521185459,-0.6488825266666671,1.11e-05,0.0,194,16,242.45819529935608,1468.5079999999998,mp-1105911,TiPd3,https://materialsproject.org/materials/mp-1105911,58.980362130676404,56.495302301250284,81.9620024193099,14.295991834886673
-5.056025606,-25.28012803,8.851795951036467,0.029672583524000377,2e-07,0.0,221,5,58.35370371991079,311.0647,mp-1206517,Cu3PdN,https://materialsproject.org/materials/mp-1206517,50.57090592793912,62.20103352483247,85.88110631265602,10.086399861566214
-8.613383050833333,-103.36059661,6.518132577667968,-0.4074958258333344,4.5e-06,0.0,38,12,175.20483750043698,687.73352,mp-1220478,NbVSi,https://materialsproject.org/materials/mp-1220478,77.64910035420607,29.64500171398885,75.01025234861838,25.207245206903444
-6.3638000925,-25.45520037,6.045094518180045,0.6544813483333334,0.9906043,0.0,216,4,67.15331888495004,244.4677,mp-631661,Y2FeB,https://materialsproject.org/materials/mp-631661,92.80335172908414,9.279831251765517,58.04459890052895,67.25954368323464
-7.0615523075,-28.24620923,4.909929365746113,-0.3686387700000005,8.5e-06,0.0,225,4,72.67697586927517,214.89336260000002,mp-862543,Sc2AlTc,https://materialsproject.org/materials/mp-862543,89.11206341942881,-0.9435607783151028,67.837160725158,47.749379307368066
-7.413482827999999,-444.80896968,4.02249189076343,-2.0751577812004447,11.999931825,1.4776000000000002,12,60,706.0980095835898,1710.4527200000002,mp-777945,TiMn4O10,https://materialsproject.org/materials/mp-777945,6.737134789057428,70.5706356049543,15.909251399462145,83.66309552515423
-5.71114866875,-45.68918935,3.6051364366019887,-0.4071614237499999,2.8999999999999998e-06,0.0,47,8,128.28212353088605,278.508693,mp-1217092,Ti3Al5,https://materialsproject.org/materials/mp-1217092,59.82608888162324,53.77234990292099,80.99521489686457,18.02064695810345
-7.084879405,-28.33951762,8.090859638796937,-0.5472447533333336,0.0007168,0.0,11,4,63.33062203575079,308.574,mp-979261,TiPd,https://materialsproject.org/materials/mp-979261,50.797075236043455,38.7785678226418,77.79068444580858,15.007765080299173
-5.435937735,-21.74375094,9.622825330091636,-0.6153054775000006,4.36e-05,0.0,221,4,59.74831428323264,346.2415386,mp-1183143,AlPd3,https://materialsproject.org/materials/mp-1183143,56.92075217266699,56.34005612300498,81.66771544610977,11.459284076051464
-7.116520176666668,-341.59296848,4.0525203563270304,-1.797028799218334,44.999999200000005,0.8410000000000001,12,48,566.3479900920083,1382.163685,mp-775873,Mn13Cr3O32,https://materialsproject.org/materials/mp-775873,6.783745877834545,70.51869574825271,15.899115039043396,83.75360526317495
-6.015209793125,-96.24335669,3.9540502613606168,-2.043711209495,8.0000006,0.8245999999999998,2,16,139.22039569202863,331.5094850000001,mp-1174009,Li5Mn2CoO8,https://materialsproject.org/materials/mp-1174009,5.878535705889325,86.65760765024338,-4.986831534541752,94.44965986565796
-5.411901263333332,-81.17851895,4.514072629266006,-1.4557336119999993,10.3094646,0.0,166,15,143.15712462334542,389.163785,mp-769624,Li3Co3CuO8,https://materialsproject.org/materials/mp-769624,12.828446290389788,80.79982239349465,22.5415845499407,82.9525979158059
-9.666490891666667,-57.99894535,13.524606440845686,-0.14923761395833304,3.16245685,0.0,227,6,88.85926115293186,723.7327799999999,mp-863,PuCo2,https://materialsproject.org/materials/mp-863,80.49571352585986,30.025352318048693,70.9769043999089,24.56455840939108
-7.042734946,-35.21367473,3.321187246440575,-2.659780055483334,1.0000001,0.0,221,5,59.42553127619086,118.85496928,mp-977123,NaTiO3,https://materialsproject.org/materials/mp-977123,-12.74019261479229,53.17857311114068,61.995752692871726,-41.67642667911976
-5.813849215,-23.25539686,10.79128331533103,-0.6776581024999997,7.219999999999999e-05,0.0,225,4,67.11385592476921,436.15032,mp-864624,HoZnRh2,https://materialsproject.org/materials/mp-864624,95.9390955133445,8.975096752431275,62.25620067551203,65.20991554133666
-5.609731887222222,-201.95034794,4.665408032480936,-1.0467903130555558,1.6666629000000002,0.14439999999999995,156,36,388.3805059656208,1091.1839400000001,mvc-12170,CoO2,https://materialsproject.org/materials/mvc-12170,-0.4063387877074909,70.93591996018633,3.8352047391025352,57.83240739082353
-5.7948608784375,-185.43554811,4.264978911777615,-1.85951191506,16.0000002,0.20429999999999995,2,32,281.49545014029223,723.001465,mp-1175391,Li9Mn2Co5O16,https://materialsproject.org/materials/mp-1175391,18.533846947302226,88.38229969142073,10.599867336651252,91.24440339401623
-7.83942483375,-62.71539867,7.2057191044572,-0.02767146750000027,0.0,0.0,194,8,125.14882454354161,543.069,mp-22211,V3Sn,https://materialsproject.org/materials/mp-22211,51.207242720215994,39.080691118211796,76.426811051447,14.926147968244274
-5.136775129999998,-143.82970364,4.831925584240035,-1.2427108771428568,1.0024509,0.6766000000000001,8,28,259.12677270022186,754.020985,mp-772319,Li4Co3Ni5O16,https://materialsproject.org/materials/mp-772319,-0.8661452034679606,72.00549638756392,3.0736370245256808,58.248960170840476
-5.800529114375,-185.61693166,4.247013486053711,-1.8651801509974997,18.0000001,0.5970999999999997,1,32,282.68621292400337,723.001465,mp-1176226,Li9Mn2Co5O16,https://materialsproject.org/materials/mp-1176226,11.56475672065562,88.7544647589238,8.712574812113969,96.18814865863706
-5.680533303125,-90.88853285,3.9712783905744766,-1.8491850175600009,7.714465400000001,0.0,10,16,140.28695289676202,335.504635,mp-1173999,Li5Mn(CoO4)2,https://materialsproject.org/materials/mp-1173999,6.2887105191103965,86.83843680999928,-4.248295371168022,93.97161692885271
-5.487411192083332,-131.69786861,4.251283858777756,-1.726879419375,9.999999800000001,0.0,2,24,209.06543409173457,535.245775,mp-1174374,Li7Co5O12,https://materialsproject.org/materials/mp-1174374,7.061258677149802,83.97093133547523,11.585304091410295,91.97241470282353
-6.7090591733333325,-20.12717752,4.566347980326988,-1.3986493428199995,2.9999999,0.0,123,3,31.61432850910133,86.93684499999999,mp-1221542,MnO2,https://materialsproject.org/materials/mp-1221542,-10.723844605757833,72.77307838156639,-4.476484285387406,57.324952437732975
-7.386326685,-118.18122696,5.473217188806821,0.3555260407150005,2.5e-08,0.0,204,16,122.51433245292583,403.81318,mp-22762,CoN3,https://materialsproject.org/materials/mp-22762,1.8980470449156317,71.8605601705205,44.08987146418117,31.68033180940941
-4.96289698,-19.85158792,12.004028827026644,-0.6970810525000006,0.0,0.0,221,4,68.10075027073118,492.3,mp-2391,YbPd3,https://materialsproject.org/materials/mp-2391,63.381649833989755,54.01173974865882,56.600977123386755,37.82182463505011
-5.859500323750002,-140.62800777,4.145319252036016,-1.9121014869550013,16.0000003,0.5074000000000001,1,24,211.2088953971926,527.2554749999998,mp-1174918,Li7Mn2(CoO4)3,https://materialsproject.org/materials/mp-1174918,9.605984294441663,87.20088430663564,9.341540556846514,96.39537061225245
-8.279448143333333,-49.67668886,14.050441822881837,-0.2188991283333325,1.14649055,0.0,74,6,84.06566260167374,711.31101,mp-1216321,UCoNi,https://materialsproject.org/materials/mp-1216321,72.00437722114323,50.12554452423996,71.44498552647346,22.638992391726003
-5.747416565,-91.95866504,4.0055617059457616,-1.9160682794350008,8.0000002,0.8939999999999997,1,16,139.08624692798438,335.504635,mp-1174038,Li5Mn(CoO4)2,https://materialsproject.org/materials/mp-1174038,6.670102113167974,86.13469057409577,-5.071075924662915,94.65645318491065
-9.31919608,-55.91517648,13.679127866831601,-0.13164947166666607,0.59612945,0.0,74,6,85.43584692613935,703.8003,mp-1216660,UMnCo,https://materialsproject.org/materials/mp-1216660,72.18606689007642,50.09897763352085,71.25600410463353,22.929150942509164
-6.216087951944443,-447.55833254,3.6690171921759305,-2.2103990137738885,31.001102600000003,1.1144999999999998,1,72,627.783649845816,1387.109215,mp-768925,Li24Mn7Cr5O36,https://materialsproject.org/materials/mp-768925,-11.180918055098216,100.18403009752987,-12.374552142193775,98.15524326033899
-6.40022813,-51.20182504,10.17138140255393,-0.2268093525000001,4.809292500000001,0.0,139,8,122.18015190309488,748.3960900000001,mp-31138,MnPd3,https://materialsproject.org/materials/mp-31138,59.18704526137765,56.50412863533119,82.1320274509748,14.100142314421015
-10.281733751666666,-123.38080502,12.240987217942376,-0.22374853166666495,1.29e-05,0.0,194,12,157.8057545048119,1163.29588,mp-12678,TaMn2,https://materialsproject.org/materials/mp-12678,69.86254401537569,50.21222185855635,72.11682711729974,19.418106852354835
-5.612340774,-224.49363096,4.537569460149821,-1.7008705176250003,30.9999994,0.4858000000000002,2,40,357.03943211441737,975.641755,mp-761094,Li10FeCo9O20,https://materialsproject.org/materials/mp-761094,12.667075938939474,80.83845159179087,22.699525724155237,82.45030108858789
-7.190457450714287,-503.33202155,2.426415310245269,-0.002541459797618017,0.11914372142857145,0.0,1,70,529.3966805620705,773.5658,mp-530074,B4C,https://materialsproject.org/materials/mp-530074,5.84356727247534,57.64020593867143,0.5333045518506143,54.46479848994686
-7.62544926,-15.25089852,14.21894551674007,0.11181366625000068,4.9000000000000005e-06,0.0,187,2,29.888415846791577,255.93,mp-1224777,GaRe,https://materialsproject.org/materials/mp-1224777,62.42252841496428,58.91873724347985,76.63512541224969,14.809803233511614
-6.2786388715,-125.57277743,3.61536685394388,-2.477824677375,5.0000002,2.1768,2,20,169.71191599815563,369.501,mp-752472,Li3FeSiO5,https://materialsproject.org/materials/mp-752472,4.8650392740517185,85.60591080071275,-5.589772617540013,83.28745312484568
-7.2956882675,-29.18275307,10.07192884935041,-0.30057043750000023,4.1700036,0.0,123,4,63.0635116546303,382.509045,mp-571163,MnSbRh2,https://materialsproject.org/materials/mp-571163,58.69143293599508,49.589776471422894,81.63685850159116,14.060159846029384
-4.993779838846153,-129.83827581,4.493120997386457,-1.3120290011538462,0.0,0.4770000000000003,186,26,260.6864475177381,705.3708,mvc-7958,Mg2Ni3O8,https://materialsproject.org/materials/mvc-7958,-0.6509226468582128,71.75135362539378,2.9682906724454385,58.418011017138824