energy_per_atom,energy,density,formation_energy_per_atom,total_magnetization,band_gap,sgr,num_sites,cell_volume,weight,mp_id,formula,URL,tsne_cry_0,tsne_cry_1,tsne_xrd_0,tsne_xrd_1
-8.041026400000002,-32.164105600000006,11.097049307815672,-0.1835840437499998,0.0102877,0.0,225,4,69.5028956997816,464.47391,mp-1185623,MgURu2,https://materialsproject.org/materials/mp-1185623,87.55950590582837,1.4466032292778952,58.20259417556668,69.19490702099075
-5.609207873333332,-16.82762362,9.257229125068644,-0.6146250100000005,6.4e-06,0.0,139,3,66.68635604173687,371.76535,mp-1061979,TbPd2,https://materialsproject.org/materials/mp-1061979,24.814687210595174,7.10515798967491,57.502398162112954,32.855143465969725
-8.8520649225,-35.40825969,10.892035788793466,-0.36146046000000176,6.37e-05,0.0,225,4,69.21696393992792,454.01741860000004,mp-865148,PaAlTc2,https://materialsproject.org/materials/mp-865148,87.48393881661737,1.5373641808905016,58.154347179283064,69.0118707701748
-7.718317760476191,-162.08467297,9.336985970314522,-0.6447329667460324,0.0004433,0.0,123,21,316.4175607031293,1779.17306,mp-1219416,Sc5BRh15,https://materialsproject.org/materials/mp-1219416,58.94353309323085,54.48704587472001,81.2542349437107,16.748090061126174
-8.827501395,-35.31000558,16.761647315417722,-0.596496963749999,2.4e-06,0.0,221,4,61.58121129063506,621.6069120000002,mp-12593,ScIr3,https://materialsproject.org/materials/mp-12593,57.44259349314979,58.14380293676903,81.16170034193068,12.640427577442967
-6.5187868925,-26.07514757,9.4113225614907,0.426572665000001,10.8016696,0.0,221,4,64.4721108622614,365.404135,mp-975467,Mn3Hg,https://materialsproject.org/materials/mp-975467,48.935977978801844,37.39304984988628,58.78200113947239,33.543158727758325
-3.42673052,-13.70692208,3.1966760339140183,0.08000078375000008,1.12e-05,0.0,225,4,69.37054346412958,133.5440772,mp-1207174,LiAl2Ge,https://materialsproject.org/materials/mp-1207174,86.07628884573063,0.5389213515295201,57.29445926846604,69.35022764199505
-6.3558629375,-25.42345175,4.519936018124599,-0.1229820325000004,0.0001016,0.0,225,4,71.58524368681219,194.852824,mp-865936,LiSc2Tc,https://materialsproject.org/materials/mp-865936,85.90719524238331,0.05670651857099996,65.05995638524924,45.73257632016887
-5.100343375,-20.4013735,14.743145664735582,-0.3591412733333329,4.88e-05,0.0,123,4,64.03447425385062,568.5319999999999,mp-639659,InCuPt2,https://materialsproject.org/materials/mp-639659,63.0767667882588,55.944632619052,80.42314114311785,15.524554942728924
-6.2001802762499985,-148.80432663,4.806734518654402,-1.4571377854166665,1.9999345000000002,0.0,186,24,245.78598501522026,711.4725699999998,mp-752604,VCo3O8,https://materialsproject.org/materials/mp-752604,0.6634011138056742,72.28742907493063,2.5594577125996203,57.897644525411216
-9.7032708725,-38.81308349,15.22888339146024,0.4934418800000007,0.0018030000000000001,0.0,221,4,60.893912506905096,558.461,mp-1185237,LiW3,https://materialsproject.org/materials/mp-1185237,56.56542765687886,57.885372304208296,80.9037554930636,12.226626233958509
-8.20848323,-32.83393292,18.370925115747372,-0.4092520874999997,4.2999999999999995e-06,0.0,221,4,66.81150155595239,739.1510000000002,mp-2417,DyIr3,https://materialsproject.org/materials/mp-2417,68.99619740739922,57.06675726809537,57.497201438370894,41.37655406879672
-7.124144520833332,-85.48973425,4.068003152635495,-1.8016259610733327,11.000001600000001,0.6671,166,12,140.74789633600503,344.8054350000001,mp-756043,Mn3CrO8,https://materialsproject.org/materials/mp-756043,6.544652066305043,70.76416973930867,15.99442738890385,83.90438708046958
-5.125308615,-51.25308615,2.950450450519971,-3.485304087314,0.0,7.4418,225,10,127.25641536459858,226.10955780000003,mp-9839,K2LiAlF6,https://materialsproject.org/materials/mp-9839,-12.733910563254858,51.95947448938429,-2.331918844369927,57.72719539749389
-3.998812026,-19.99406013,2.8352480681263006,0.08473395099999978,0.000272,0.0,166,5,79.65887167518449,136.0116544,mp-1228120,Al4Si,https://materialsproject.org/materials/mp-1228120,67.54221310600008,60.24328284318524,88.05917153551655,18.65872497819896
-4.094590705,-16.37836282,12.927560979483065,-0.1350616300000005,1e-07,0.0,139,4,66.77448447653876,519.85,mp-1184658,HgPd3,https://materialsproject.org/materials/mp-1184658,63.32316358997099,54.76904457090949,56.91271525731917,36.72610400083035
-7.009892905666666,-210.29678717,2.778070102377425,-2.7561346995833333,1.9999997999999999,0.0,36,30,282.38532434130445,472.42865599999993,mp-1194006,Be4Si2O9,https://materialsproject.org/materials/mp-1194006,-34.71809089737244,43.05256740013747,-0.27688371606366696,54.504662518140194
-6.184831476666666,-74.21797772,3.723256018863625,-2.1892331462016656,3.0,2.2961,12,12,104.19979470871291,233.63649,mp-18988,Li2MnO3,https://materialsproject.org/materials/mp-18988,-11.292636249518425,100.71358717026736,-12.1533462349702,98.87597566595728
-6.330901084375,-101.29441735,4.49759757319539,-0.3520976129166673,0.055605600000000005,0.0,123,16,263.25147295823024,713.0209874,mp-1208235,Ti4(NbAl3)3,https://materialsproject.org/materials/mp-1208235,48.652041836023024,36.622044000821646,57.009342100137275,32.54418937537078
-4.080507735,-16.32203094,12.904424870806404,-0.1209786600000009,1.59e-05,0.0,221,4,66.89420323542525,519.85,mp-863720,HgPd3,https://materialsproject.org/materials/mp-863720,63.33723218445921,54.7358053641871,57.19557766565968,37.14197445428565
-7.5867574100000015,-22.76027223,12.639161606775938,-0.8165868400000006,2e-07,0.0,139,3,51.413120801843995,391.33,mp-1207004,HfPd2,https://materialsproject.org/materials/mp-1207004,63.95940538391635,37.52368457604453,76.31964777016977,7.674025598823691
-6.1971847435714285,-173.52117282,5.2341599809453845,-1.753306178571428,0.0,0.0,62,28,242.22212279763488,763.504688,mp-757006,Be(CoO2)2,https://materialsproject.org/materials/mp-757006,14.491588186543398,54.76212813146208,4.23959173682248,49.659286967145704
-5.7570313475,-46.05625078,11.025838517969373,-0.4843667375000002,0.0109701,0.0,225,8,133.2932672822156,885.056,mp-1025415,CePd7,https://materialsproject.org/materials/mp-1025415,68.10284020927193,58.877883841113075,57.834614931451355,41.39815072652429
-9.896806685,-39.58722674,16.49637030386373,0.0988457725000007,0.0010052,0.0,221,4,61.97145510567031,615.6459120000001,mp-981384,ScOs3,https://materialsproject.org/materials/mp-981384,57.48465024730058,58.0847703895907,81.10166346195595,12.717985331747911
-7.625351799444445,-137.25633239,5.159117658732675,-0.4797563657933337,6.73481735,0.0,14,18,177.44689063576527,551.3085599999999,mp-1222676,Li2Mn4N3,https://materialsproject.org/materials/mp-1222676,31.120947797874173,50.88397373346651,56.61126199107173,9.263595964504235
-5.493513987499999,-131.84433570000002,4.9728467626383015,-1.6066420640383328,11.6893819,0.0,5,24,210.3840203767487,630.04089,mp-771232,Li5Mn2Ni5O12,https://materialsproject.org/materials/mp-771232,22.04192413914033,77.89462436365392,28.685882843019492,77.10121388712712
-5.79896857,-185.56699424,4.244400685119307,-1.8636196066225,20.0000009,0.3626999999999998,1,32,282.86023108488547,723.001465,mp-1175859,Li9Mn2Co5O16,https://materialsproject.org/materials/mp-1175859,11.424122416603394,85.9942282203817,8.364932982999632,95.4772337841584
-6.198268858229167,-595.03381039,3.7091998119010814,-2.198129754296667,45.0118328,1.0171,1,96,832.8061618625029,1860.2660850000002,mp-778110,Li32Mn13Cr3O48,https://materialsproject.org/materials/mp-778110,-11.278952872661385,100.67451833251984,-12.164706071567796,98.8432559830352
-5.766444785384616,-74.96378221,5.009962237086208,-1.431088335384615,4e-07,0.2708999999999997,8,13,128.61252871883704,388.03298,mvc-12565,Mg(CoO2)4,https://materialsproject.org/materials/mvc-12565,14.533505478659848,54.66710614914923,4.278934152495896,49.57651866302024
-4.8727551625,-19.49102065,6.121619239095389,0.18983208690500053,0.0,0.1899999999999995,221,4,55.51154039585518,204.6447,mp-1933,Cu3N,https://materialsproject.org/materials/mp-1933,31.11189782445395,50.800202403355144,87.0924279859033,6.840805714764508
-5.68140011,-85.22100165,4.34973460027492,-1.7963910251111117,3.0000001,0.0,12,15,142.30557869486867,372.7654,mp-758244,Li3TiNi3O8,https://materialsproject.org/materials/mp-758244,12.066238269187881,80.35835132060173,22.571562914491512,84.0695790913783
-6.7820050725,-27.12802029,8.394136204889557,0.4696413375000006,10.505479800000002,0.0,221,4,66.83474836471417,337.8541350000001,mp-1187582,YbMn3,https://materialsproject.org/materials/mp-1187582,48.82199684604725,36.74245104990508,58.157591111774686,33.926811149865195
-6.0322418575,-24.12896743,4.6707424792769725,-0.5522456875000001,3.9500000000000005e-05,0.0,225,4,71.01793709215946,199.758324,mp-865793,LiSc2Rh,https://materialsproject.org/materials/mp-865793,85.90753958434671,0.12647153808661318,65.00484306437383,45.92638588591646
-8.127713485,-32.51085394,19.299517291177782,-1.0965348574999982,2.4e-06,0.0,221,4,65.71270091130265,763.742,mp-1018054,HfPt3,https://materialsproject.org/materials/mp-1018054,68.92709878768946,57.28526093652929,57.877006717678526,41.37220131123542
-10.44055579375,-83.52444635,12.73266142786334,-0.07784177625000055,0.0,0.0,223,8,125.2087293234882,960.074,mp-1120,Mo3Ir,https://materialsproject.org/materials/mp-1120,50.94701377457508,40.34207164529285,70.41857716575049,19.703935102781813
-7.1400117908333325,-342.72056596,4.049997061550567,-1.8114388664499996,20.99999615,0.4473999999999999,1,48,563.0821653390452,1373.33785,mp-771053,Mn5Cr3O16,https://materialsproject.org/materials/mp-771053,6.549236212366668,70.7526818099315,15.962596810087547,83.92101462528944
-7.36496856625,-58.91974853,17.047469103813135,-0.8480650529166667,3.5e-07,0.0,194,8,123.34016387577476,1266.2379999999996,mp-972220,TiPt3,https://materialsproject.org/materials/mp-972220,57.45550518526096,58.13490165157457,81.38965806830616,12.993056568843253
-6.198727019375,-595.07779386,3.7096311866662393,-2.1985879154425008,45.00406029999999,1.2401000000000002,1,96,832.709318930034,1860.2660850000002,mp-777884,Li32Mn13Cr3O48,https://materialsproject.org/materials/mp-777884,-11.276370760712854,100.66908414211781,-12.150664993906464,98.86479193888512
-8.666549627142857,-121.33169478,6.118897946890378,-0.3172412438771427,2.8184787,0.0,63,14,144.24728011675518,531.5348600000002,mp-1246223,Mn3CoN3,https://materialsproject.org/materials/mp-1246223,25.591954824924603,54.584379354538925,70.5841805515038,8.199482283057742
-8.872641685,-53.23585011,4.661597247995972,-2.8108704127083337,0.3415440666666667,0.0,221,6,68.25084508738814,191.5992,mp-755300,TiO,https://materialsproject.org/materials/mp-755300,28.910837351458298,59.60471065468542,-2.663865595042876,58.57316616490697
-2.90311385125,-23.22491081,8.506404005156478,-0.4264711377974999,5e-07,0.0,194,8,133.75937980137815,685.2060064,mp-1183244,Ag3F,https://materialsproject.org/materials/mp-1183244,48.55880131649725,36.214157900154675,56.3583553045537,33.44269508734363
-7.05912189,-21.17736567,9.553601530690328,-0.7578532700000006,4.8e-06,0.0,139,3,52.850240931293676,304.064,mp-1018102,ZrPd2,https://materialsproject.org/materials/mp-1018102,64.12755577013243,37.93565944070021,78.41579540343021,22.547599881191783
-6.381788495357143,-178.69007787,4.653818273582899,-2.00804726654762,0.9999995999999999,0.0,9,28,261.57457342796874,733.0875699999998,mp-773179,Li2TiCo3O8,https://materialsproject.org/materials/mp-773179,-0.9352680669853948,72.08418522585751,2.953692357509431,58.52432411139844
-5.2369486718181815,-172.81930617,4.376428593477575,-1.4069686465909088,5.999999933333334,0.0,2,33,322.259712238545,849.3306,mp-758983,Li2Fe(NiO3)2,https://materialsproject.org/materials/mp-758983,10.580986299677043,76.46636902698096,21.466768176549355,83.55189668737677
-8.590486493333334,-51.54291896,8.978726060487238,-0.4620790338888886,6.9155117,0.028999999999999918,191,6,65.77843541861311,355.671585,mp-21252,GdCo3B2,https://materialsproject.org/materials/mp-21252,55.26411197421727,26.28254042878216,68.25255228010944,19.306244858108162
-9.78270996625,-78.26167973,17.284423064543578,0.5525322968750004,0.00218085,0.0,194,8,130.1442997897298,1354.662,mp-974426,Re3Sn,https://materialsproject.org/materials/mp-974426,62.2075805692554,56.32539329157382,82.60358332856151,16.499770619737433
-4.587857945,-18.35143178,9.075017664677523,-0.30316774250000034,0.0,0.0,166,4,62.86523248303478,343.565,mp-1221964,MgPd3,https://materialsproject.org/materials/mp-1221964,59.18996446237679,51.541226177168596,82.60210219022845,17.680484713119842
-7.35558359975,-294.22334399,3.4825525135350164,-3.320493213,8.070000000000001e-05,3.3432999999999997,1,40,388.9346809866205,815.6902176,mp-684591,Al2O3,https://materialsproject.org/materials/mp-684591,4.714314827633958,61.989752032327026,7.664063469781892,52.03323864333114
-10.555265015,-42.22106006,17.21800631555288,-0.005866331250000911,0.0005200000000000001,0.0,221,4,63.83631286798409,661.914,mp-1017542,ZrOs3,https://materialsproject.org/materials/mp-1017542,61.739780377358024,56.55252297177734,81.38251790261154,15.624046665738918
-5.4996623175,-175.98919416,4.285509908475047,-1.7044636521875,20.000000399999998,0.4506999999999999,10,32,283.24292549190204,730.991765,mp-1175459,Li9Co7O16,https://materialsproject.org/materials/mp-1175459,5.619330398970499,95.65063912779881,3.0293846108688838,90.18279407730171
-6.198334951875,-595.04015538,3.712038183025338,-2.1981958479425003,45.0055817,1.2242000000000002,1,96,832.1693653519652,1860.2660850000002,mp-777837,Li32Mn13Cr3O48,https://materialsproject.org/materials/mp-777837,-11.267357495707012,100.65095095503814,-12.171996154109301,98.80138346198468
-1.3323821175,-15.98858541,6.091203821681689,-0.004303936666666619,8.565e-05,0.0,8,12,191.56488890661475,702.7,mp-1094485,MgZn5,https://materialsproject.org/materials/mp-1094485,59.54952895399707,52.5583351638961,81.18343563696597,19.049587366011373
-4.810884551666667,-28.86530731,11.314956656572877,-0.44910094500000025,0.0,0.0,227,6,85.2438156503451,580.8535999999998,mp-1980,YbNi2,https://materialsproject.org/materials/mp-1980,71.03535704141419,49.21025385557717,72.24946544297012,22.829144833529302
-5.67222719392857,-317.64472286,4.493329789341418,-1.4885668946428559,5.000000075,0.4759,1,56,558.1928263275979,1510.43992,mp-1178332,Li(CoO2)2,https://materialsproject.org/materials/mp-1178332,1.237558867643207,68.5189517495074,17.423586828127867,83.71210970927062
-4.9836965725,-19.93478629,9.236773085003447,-0.8620746525000005,6.900000000000001e-06,0.0,225,4,74.08735264521488,412.11199999999997,mp-865253,LuMgPd2,https://materialsproject.org/materials/mp-865253,87.97713361023588,-2.21631902012506,67.89435939731561,46.008125118107564
-5.481604093333334,-65.77924912,4.791528967626383,-0.9186625191666664,2.000009725,0.0,63,12,126.05256376641287,363.72798,mvc-6396,CoO2,https://materialsproject.org/materials/mvc-6396,3.8895143140944684,80.65366772242123,2.4113552604560726,56.968901052636426
-5.473099561000001,-54.73099561,2.712880637675996,-3.529038205114,0.0,6.059800000000001,225,10,129.68252404221442,211.86686976,mp-1113900,Na2LiScF6,https://materialsproject.org/materials/mp-1113900,-12.748762262324894,52.01394403166633,-2.374477636288082,57.71745654160165
-5.624153601666666,-33.74492161,17.554208089183106,-0.3094070249999999,1e-06,0.0,38,6,94.5689138085894,999.725,mp-1185945,MgPt5,https://materialsproject.org/materials/mp-1185945,62.05598518769244,58.385699864259045,77.7625445748817,14.518735759360636
-6.1984567090625005,-595.05184407,3.707514790042668,-2.1983176051300006,45.021809499999996,1.2155,1,96,833.1846624662845,1860.2660850000002,mp-778088,Li32Mn13Cr3O48,https://materialsproject.org/materials/mp-778088,-11.277610527714431,100.65660265923556,-12.166950390554804,98.83960914998372
-6.63539762,-26.54159048,9.9836135572865,-0.6324595299999993,0.0001506,0.0,225,4,73.9803534056949,444.79006,mp-1185462,LiThRh2,https://materialsproject.org/materials/mp-1185462,87.01898910051888,-1.826249510797589,67.27224258565592,45.78701912989428
-6.302022756,-31.51011378,10.761006999887913,-0.13688136200000045,2.3e-06,0.0,166,5,80.02345223000455,518.58638,mp-1220368,NbPd4,https://materialsproject.org/materials/mp-1220368,67.52664559982803,60.24771761772185,88.05909966166193,18.662094855745448
-4.536385894074074,-122.48241914,3.9762701817935766,-0.8965323932592597,0.0,1.0099,1,27,316.8855253113962,758.80327712,mp-777331,Na4Ni7O16,https://materialsproject.org/materials/mp-777331,6.731384720164722,74.30075815445106,18.31573491217,91.61280057071971
-4.94903104,-79.18449664,5.000626557592195,-0.7861773093750006,0.0,0.15179999999999993,62,16,211.3147072770282,636.3632,mp-510752,CuO,https://materialsproject.org/materials/mp-510752,26.067390041203623,50.140123000242795,13.285618469095475,45.603131531945046
-7.88045424125,-63.04363393,7.3680968724445774,-0.06870087500000023,7.65e-06,0.0,223,8,122.39080070815709,543.069,mp-21342,V3Sn,https://materialsproject.org/materials/mp-21342,50.80020689069365,40.29907516053811,70.35693287252046,19.514872679341487
-5.80533139125,-185.77060452,4.2585373941101885,-1.8699824278724997,22.0000002,0.7475,1,32,281.921243727989,723.001465,mp-1175724,Li9Mn2Co5O16,https://materialsproject.org/materials/mp-1175724,11.056975245775464,86.28781128507437,8.79212051107054,95.7551327832848
-7.096608605416668,-170.31860653,4.4826250630074655,-1.7861987749033332,2.9999999375,0.8803000000000001,186,24,257.638366997527,695.4947599999999,mp-755489,MnO2,https://materialsproject.org/materials/mp-755489,-11.071421061532446,69.71675759586911,1.5113074920536815,58.98046845276931
-6.1745270575,-148.18864938,4.750327134360949,-1.431484566666666,3.99999995,0.2892000000000001,9,24,248.70455127782841,711.4725699999998,mp-1101465,VCo3O8,https://materialsproject.org/materials/mp-1101465,0.5799997778872329,72.2740785905965,2.500387146044044,58.11978680259092
-8.127846730625,-130.04554769,19.26316721380013,-1.0966681031249994,1e-07,0.0,194,16,263.3468096729441,3054.968,mp-11456,HfPt3,https://materialsproject.org/materials/mp-11456,68.93409113244849,57.25965612426655,57.75570439073076,41.232405730690594
-7.866798643333333,-23.60039593,13.646786656952223,-0.4628849633333338,4.8e-06,0.0,71,3,47.916052669125,393.78788,mp-30835,TaPd2,https://materialsproject.org/materials/mp-30835,61.84780255949378,56.29178432002313,81.69144301621255,15.152222670837427
-5.857905013636364,-128.87391029999998,4.3439498722526055,-1.6930486653581818,13.000001199999998,0.29000000000000004,2,22,214.31718248743007,560.6511350000002,mp-753186,Li4Mn3(NiO4)3,https://materialsproject.org/materials/mp-753186,10.719977233305698,76.40533468336858,21.513598572371112,83.65796400607013
-5.00659965,-20.0263986,10.89029592410422,-0.4350286033333344,1e-07,0.0,221,4,66.18768401047002,434.07800000000003,mp-31337,InPd3,https://materialsproject.org/materials/mp-31337,68.09001976737099,58.97393522877718,57.964684197199205,41.44153953372348
-5.6676626966666666,-85.01494045,3.7773367084175216,-1.7594157140000002,6.0,0.0,166,15,142.12199810232775,323.2942,mp-775127,Li4Fe3O8,https://materialsproject.org/materials/mp-775127,0.298154874281299,76.34298661656716,-7.1969093170813565,92.44134936761158
-8.52308542,-42.6154271,7.078351647463716,-0.1263143449520001,2.796649,0.0,164,5,45.66172102234053,194.641445,mp-1247340,Mn(FeN)2,https://materialsproject.org/materials/mp-1247340,30.44486404333384,57.15326703801475,84.96302638307546,18.642457000945086
-5.5918954825,-22.36758193,17.472311772784117,-0.3613092233333326,1e-07,0.0,221,4,66.53347197842282,700.0699999999998,mp-20516,InPt3,https://materialsproject.org/materials/mp-20516,62.951826923941404,54.922235724718504,57.64023779914356,38.33871424152439
-4.23290261175,-169.31610447,16.28094327536175,0.3649852350000004,0.2804768,0.0,83,40,673.1939133096959,6600.4060439999985,mp-30411,Mn9Au31,https://materialsproject.org/materials/mp-30411,63.84497048715618,55.145787983211015,56.72876483449648,36.44883471203478