energy_per_atom,energy,density,formation_energy_per_atom,total_magnetization,band_gap,sgr,num_sites,cell_volume,weight,mp_id,formula,URL,tsne_cry_0,tsne_cry_1,tsne_xrd_0,tsne_xrd_1
-6.322450935,-25.28980374,11.577375292379033,-0.829550185833333,0.00037719999999999995,0.0,225,4,71.08316740924538,495.596,mp-865884,LuInRh2,https://materialsproject.org/materials/mp-865884,96.79081604881887,3.491372282747853,65.94873078291683,64.4814729167181
-6.731426861,-67.31426861,9.442653319125263,0.4163944619999995,2.2100000000000002e-05,0.0,22,10,252.53702871644168,1436.05152,mp-1218088,Ta2Sn3,https://materialsproject.org/materials/mp-1218088,54.74940198548408,16.893932071553472,48.178581730943826,5.45737689431011
-4.29879582,-17.19518328,5.98691132563394,-0.4765986327974994,1.7e-06,0.0,225,4,65.71205692050289,236.91840319999997,mp-976783,Ge3F,https://materialsproject.org/materials/mp-976783,92.88145335757861,13.30993707288086,57.99796750338889,64.69479949136819
-7.27535221292683,-298.28944073,3.494735391212948,-3.4041226034146352,0.040617400000000005,4.312799999999998,8,41,396.5839193571463,834.6421404,mp-39003,Mg3Al14O24,https://materialsproject.org/materials/mp-39003,2.248495808509946,62.448077978491405,8.583955967700977,52.54211430318962
-3.45224482625,-27.61795861,6.796362962967397,-0.31236214304687504,1.95e-05,0.0,141,8,185.9851974974868,761.2123999999999,mp-35071,InAgSe2,https://materialsproject.org/materials/mp-35071,24.820946165029394,7.65821284898795,11.430816185311688,-0.4135809382289132
-6.8255115252083325,-327.62455321,4.038432140335945,-1.661065714614999,12.99999965,0.0,5,48,573.4444602400345,1394.61734,mp-771261,Mn3FeO8,https://materialsproject.org/materials/mp-771261,7.383216781220004,70.05714988572281,15.596216764407366,82.82649205882015
-4.9625752,-19.8503008,4.380980254394717,-1.3475513743749996,1.9999818999999999,0.0,156,4,38.84556927069385,102.4858,mp-754912,LiCuO2,https://materialsproject.org/materials/mp-754912,17.352132423846054,71.82013595973434,10.676077557852473,69.25512494766785
-2.429063464166666,-58.29752314,2.715277970211354,-0.07012569291666686,1.2866666666666667e-05,0.0,176,24,534.0884343013759,873.33,mp-642855,Mg3Ge,https://materialsproject.org/materials/mp-642855,37.94873504717121,36.97601113707192,11.275147398634756,13.037356076772545
-5.341906558333334,-32.05143935,9.159494996312764,-0.3482259741666673,0.0,0.0,216,6,88.34348081866602,487.3006,mp-12006,CeCdNi4,https://materialsproject.org/materials/mp-12006,70.18985140657007,46.55196042045968,73.5407515216205,25.42939112207901
-4.477178852,-22.38589426,15.866692040953277,-0.2788560773333337,1.4e-06,0.0,87,5,87.46421297162311,835.7332759999998,mp-12635,TiAu4,https://materialsproject.org/materials/mp-12635,51.167646860126936,34.19192753525753,56.01933520623808,35.915638488773155
-8.919045366666667,-107.02854440000002,7.7804227578681795,-0.19684467000000086,1.058655,0.0,38,12,172.45365452066864,808.02818,mp-1215321,ZrMnFe,https://materialsproject.org/materials/mp-1215321,68.56038204777433,45.728932237860214,77.24577604906719,24.04089960798705
-5.7714637615625,-184.68684037,4.212000969996844,-1.8361147981849992,20.0,0.0,12,32,285.0360593840493,723.001465,mp-1176312,Li9Mn2Co5O16,https://materialsproject.org/materials/mp-1176312,13.703625881133108,89.3738292712081,6.023960365888258,92.0947791398834
-4.705847325,-18.823389300000002,15.183075062037318,-0.2763492641666669,0.48005649999999994,0.0,139,4,69.86048939966271,638.766707,mp-1187512,TiAu3,https://materialsproject.org/materials/mp-1187512,50.98944776381858,34.33520124790977,55.68859935906917,35.23348131210697
-7.032694456666667,-21.09808337,8.004090162988218,1.0393818083333326,0.0001403,0.0,216,3,66.18552736449665,319.0258800000001,mp-631395,CaTaTc,https://materialsproject.org/materials/mp-631395,88.2301201674281,16.273880968535188,47.25358290032527,62.5250582898649
-8.889906224166667,-106.67887469,6.700534727817078,-0.3181607799999995,4.455e-05,0.0,194,12,181.66423506004315,733.0436,mp-1215601,Zr2Cr3Si,https://materialsproject.org/materials/mp-1215601,77.91602445558432,29.029517946373296,75.05777439254325,25.240888701959005
-5.8514057675,-70.21686921,4.446351404104991,-1.893706166875,3.0,0.5249000000000001,5,12,105.97464860587124,283.763595,mp-1222544,Li4CoRuO6,https://materialsproject.org/materials/mp-1222544,7.155604165452781,87.38779897334669,18.368006328371642,82.7281464738185
-5.716244954166666,-68.59493945,3.5556094148615407,0.0832849347222222,0.01485335,0.0,12,12,224.24222974482367,480.156,mp-1094511,MgTi2,https://materialsproject.org/materials/mp-1094511,46.437971429260394,31.02843233524057,48.28447005738499,34.38296322373809
-7.283046122499999,-203.92529143,3.905978720920261,-2.763595276785714,2.000000175,1.3800999999999997,62,28,255.01801340930308,599.8624,mp-767620,LiVSiO4,https://materialsproject.org/materials/mp-767620,-11.329432480672413,71.76722851913698,-8.570064358859316,65.28928063269048
-3.78172636,-15.12690544,7.97585246372917,0.7938499299999999,3.9e-06,0.0,225,4,66.53342550914506,319.5714,mp-631488,NiRuBr2,https://materialsproject.org/materials/mp-631488,99.78956234479809,8.308385859452926,64.72467100360376,61.14255608604235
-7.107895862857142,-99.51054208,3.4646242479834872,-3.3927241364285714,0.0,5.1111,227,14,136.37133156943938,284.5313544,mp-3536,MgAl2O4,https://materialsproject.org/materials/mp-3536,1.7545867423696941,62.67786592967576,9.722217212403486,53.853344712119075
-6.237342921979168,-598.78492051,3.6283950967996015,-2.2250950888,36.9927194,0.4708999999999999,5,96,840.5817617305217,1836.730525,mp-777689,Li32Mn5Cr11O48,https://materialsproject.org/materials/mp-777689,-10.865486324459596,98.7032054635829,-12.544917275122586,97.34149087494305
-9.220819570625,-737.66556565,5.945884569530853,-0.4136381531959984,3.34148445,0.0,14,80,789.6155891704473,2827.37294,mp-1246722,Mn3Cr8N9,https://materialsproject.org/materials/mp-1246722,25.42458269543377,54.151640385079965,60.243521545979455,7.014991780365909
-5.3792641225,-21.51705649,11.661342830596947,-0.6356211133333334,2.5e-05,0.0,225,4,70.29693400205062,493.66900000000004,mp-865774,YbInRh2,https://materialsproject.org/materials/mp-865774,96.54682558680295,4.068825423654664,65.74618206602442,64.44820590386475
-10.3593176275,-41.43727051,15.554525196561364,-0.8497422199999978,0.0013425999999999998,0.0,225,4,69.41991004408092,650.2669999999999,mp-973434,Hf2IrRu,https://materialsproject.org/materials/mp-973434,96.72269832096545,5.057117214592411,65.32888805555551,64.3378377085316
-6.71671492,-20.15014476,9.244884679018195,-0.6322445022222224,0.0001087,0.0,71,3,46.827425817847526,260.707,mp-1061861,TiPd2,https://materialsproject.org/materials/mp-1061861,56.92000827599352,40.9975901017076,76.7795024139204,7.070739343943491
-5.12934333,-20.51737332,14.130379871414625,-0.6915605899999999,7e-07,0.0,225,4,47.725544806208475,406.121182,mp-862316,LiBePt2,https://materialsproject.org/materials/mp-862316,85.26824475957427,33.34411312782176,53.51217309407754,47.796940766866214
-5.945879727857142,-332.96926476,5.963560058363957,-1.347682512321428,14.0963785,1.5497999999999998,160,56,540.2484771084723,1940.215895,mp-757299,Co21Cu3O32,https://materialsproject.org/materials/mp-757299,-6.970489402938509,57.337334463546505,13.73739749604744,53.45005997234605
-9.400410184,-47.00205092,14.395799048439017,-0.15510316774999922,1.7e-06,0.0,166,5,57.72482699365573,500.4369,mp-1226352,Cr2Ir2C,https://materialsproject.org/materials/mp-1226352,61.173646314132974,62.37233816715087,85.83707379982471,12.212102316026847
-2.986725778333333,-17.92035467,5.558793906935701,-0.3329738358333332,0.0,0.02389999999999981,8,6,214.4523339531099,717.8971999999999,mp-1226727,CdInAgTe3,https://materialsproject.org/materials/mp-1226727,25.15616383184712,15.910729347594907,64.88848750105049,45.04133713325258
-6.225233936666666,-37.35140362,11.145192957761893,-0.2786924416666672,2e-07,0.004200000000000871,216,6,80.18894132379576,538.21151,mp-21899,UZnNi4,https://materialsproject.org/materials/mp-21899,65.57029639085161,48.842388346305334,72.34426486053107,20.071485633129694
-10.87857389125,-87.02859113,13.571379673492148,0.001248054375000862,3.35e-05,0.0,194,8,117.51236646024721,960.414,mp-974492,ReTc3,https://materialsproject.org/materials/mp-974492,57.37560208426953,60.4493332613165,82.97035169715713,8.737851206066898
-7.530497385,-30.12198954,4.090367140977148,-2.966014788541667,4.6e-06,0.0,123,4,35.24037705403553,86.8068,mp-1222301,LiTiO2,https://materialsproject.org/materials/mp-1222301,-11.300971065488485,73.36306810710461,-6.974118406495077,65.01505449578998
-9.605032662000001,-192.10065324,11.874548635965171,-0.3453466156666664,4.035e-05,0.0,58,20,225.831825107612,1614.928,mp-1188450,B2Mo2Os,https://materialsproject.org/materials/mp-1188450,59.2410466591092,30.510284306371563,70.03600614880952,13.385485151434649
-5.6736065375,-22.69442615,11.525433225834007,-0.6399867837500004,7.699999999999999e-06,0.0,225,4,71.05672928310234,493.18900000000014,mp-865796,LuCdRh2,https://materialsproject.org/materials/mp-865796,96.75774609831154,3.5081331807887355,65.92178978961987,64.48927762111845
-6.5300116145,-130.60023229,5.190860145879223,-2.197342995750001,0.0,1.1284,62,20,171.3532231302782,535.6517344,mvc-15871,AlCoO3,https://materialsproject.org/materials/mvc-15871,6.332730612947637,50.645150877982985,5.951790984545883,38.65095099019295
-3.0367514733333336,-18.22050884,9.483842563565346,-0.20756951777777746,9.000000000000001e-07,0.0,160,6,149.64887193555825,854.6901379999998,mp-1226759,CdIn2SnAu2,https://materialsproject.org/materials/mp-1226759,86.89435838615273,-2.6151214469354023,67.58744964679347,45.829641811142295
-4.372270961666667,-26.23362577,9.296585276620917,-0.1931837725,1.36e-05,0.0,216,6,86.21190260411508,482.66032,mp-580364,HoCu5,https://materialsproject.org/materials/mp-580364,67.34395343757038,49.114511305049476,73.72439576809957,23.398955868853022
-8.85263480625,-70.82107845,7.256852549663742,0.1536826287499995,6.47314725,0.0,194,8,117.17512957211477,512.07627,mp-1188045,ZrMn3,https://materialsproject.org/materials/mp-1188045,54.92937389980423,52.090300527213344,80.8920312723155,5.8232085785815375
-4.38176672875,-35.05413383,16.511705249189447,0.3899542737499999,1.9815901999999999,0.0,194,8,139.1791696411571,1383.9394140000002,mp-974365,RuAu3,https://materialsproject.org/materials/mp-974365,51.92534850422668,32.10509173666359,55.910951843059436,37.91443705911846
-3.0759089016666668,-18.45545341,7.514958391566551,-0.026960048975694782,2.5e-07,0.0,64,6,130.23488664863947,589.3928,mp-32758,Ag2Se,https://materialsproject.org/materials/mp-32758,35.490373697590535,26.31497058852007,29.42134365315598,10.530759996035966
-6.877876646,-34.38938323,4.3906450231245495,0.007911569047999478,2.8846611,0.0,115,5,62.02786826390415,164.0084,mvc-13651,Mg(FeN)2,https://materialsproject.org/materials/mvc-13651,35.07872077824815,40.36105640943635,12.948928036746436,30.00099578749793
-6.502798713333332,-39.01679228,7.858600875289894,0.28751410888888884,5.86044895,0.0,194,6,95.3399590161722,451.20209000000006,mp-1206457,MnInFe,https://materialsproject.org/materials/mp-1206457,50.2597604222585,39.13286540671803,65.54104726054636,9.148847469203453
-3.8244115175,-15.29764607,10.944865950226264,-0.18290198,7.05e-06,0.0,194,4,95.7879738722459,631.353138,mp-1775,SnAu,https://materialsproject.org/materials/mp-1775,48.22476852268654,20.076102523141717,74.26697435002687,16.54334368300849
-3.1518712366666666,-9.45561371,9.450570676402704,-0.22609180222222194,0.0,0.0,225,3,74.95740147815474,426.602569,mp-22154,In2Au,https://materialsproject.org/materials/mp-22154,86.80294531081934,-2.787034396515881,67.68296238306696,45.689674764774495
-5.669605833333333,-17.0088175,15.183086965461118,-0.11614502333333357,1e-07,0.0,191,3,53.2445100059552,486.839518,mp-1606,NbAu2,https://materialsproject.org/materials/mp-1606,62.42370432136371,22.040300388152666,66.1277483849693,14.761765443290336
-3.402324026666667,-10.20697208,8.13688597045998,-0.4398726816666662,2e-06,0.0,216,3,69.3819073112855,339.981569,mp-5549,MgSnAu,https://materialsproject.org/materials/mp-5549,86.05302575228497,2.175681489334653,57.56415815910977,70.08452623201292
-7.54354345875,-120.69669534,3.543739585419668,-3.2868435235937508,0.0,5.4621,63,16,151.86387188666268,324.0911544,mp-9516,Al2SiO5,https://materialsproject.org/materials/mp-9516,5.243155657008342,62.364518561950206,7.337216444109213,50.71306851233305
-5.9335282,-23.7341128,11.506426875167625,-0.9054062912500004,1e-06,0.0,221,4,69.87546506598555,484.19032000000004,mp-1979,HoPd3,https://materialsproject.org/materials/mp-1979,51.906920160715764,31.05076589429736,55.43574966671875,38.228826520626285
-6.3682171392499995,-254.72868557,4.229511105281946,-2.3532037575,0.0795554,0.0,1,40,394.94828423536075,1005.961386,mp-1260352,Al5(NiO4)3,https://materialsproject.org/materials/mp-1260352,1.464037235611488,65.19536781585214,10.42546227403042,52.75604076906717
-5.217882283787879,-344.38023073,10.194821106702985,-0.5178630858333328,0.0049353,0.062400000000000226,152,66,1198.0767301195026,7355.549999999998,mp-1209131,Sn9Pd13,https://materialsproject.org/materials/mp-1209131,61.02671742726911,34.40599243298119,71.80980248589721,7.1106441434588685
-5.3073066695,-212.29226678,2.376946506893544,-2.273134414662,0.0,6.8114,135,40,338.16129310155975,484.0544456,mp-696815,AlH4NF4,https://materialsproject.org/materials/mp-696815,-26.731881360843914,55.49120821788089,-27.514094737352856,60.45969563636563
-5.315593236315789,-403.98508596,3.0307868184762827,-1.9074258857236843,6.017181125,0.0,2,76,682.0415990851028,1244.8503999999996,mp-772983,Li8Fe2O9,https://materialsproject.org/materials/mp-772983,-29.206864789324566,64.06651430379175,-33.50044615292449,63.265028757315505
-7.074856852857144,-396.19198376,3.4758350773706113,-3.359685126428572,1e-07,4.020999999999999,160,56,543.7259381623968,1138.1254176,mp-531793,MgAl2O4,https://materialsproject.org/materials/mp-531793,1.8484652654904143,62.63349893195777,9.667636299229004,53.80021702981552
-5.863385637142858,-82.08739892,10.303810106153831,-0.25656236047619024,0.0,0.0,15,14,178.4732033750764,1107.444,mp-2617,B2Pd5,https://materialsproject.org/materials/mp-2617,61.749788036485995,39.74821436025803,73.08941069909912,8.401283919661749
-3.595217766,-35.95217766,3.8026025831072117,-0.3325347941899999,2.40088905,0.0,221,10,117.51007461769849,269.0958192,mp-1080799,CuNF3,https://materialsproject.org/materials/mp-1080799,-25.81093231997477,62.52218750237631,-42.36864636861493,65.24385572511159
-3.6501019425,-29.20081554,14.694858107809653,0.16144357124999953,4.5e-07,0.0,194,8,139.8923479036148,1237.970414,mp-972868,SiAu3,https://materialsproject.org/materials/mp-972868,50.703853794820965,34.52661146148296,54.973891616484615,34.337574034236695
-7.089359017692307,-92.16166723,4.086508488133163,-2.0294978356061537,12.0000008,1.1336,160,13,142.93098599806194,351.746435,mp-756504,LiMn3CrO8,https://materialsproject.org/materials/mp-756504,6.634919998958536,69.58242754266311,15.720476129820721,82.78241016535894
-3.8910431825,-15.56417273,9.317310526376984,0.34541971500000024,2.9550832000000002,0.0,225,4,67.6258318029241,379.4496,mp-973533,FeAg3,https://materialsproject.org/materials/mp-973533,97.48315931153893,8.641978776904482,63.959033174081924,64.36962452114953
-7.4394654085,-297.57861634,3.5764737106939277,-3.4043750217500004,0.00022745,3.7681999999999993,12,40,378.72093028976576,815.6902176,mp-1245211,Al2O3,https://materialsproject.org/materials/mp-1245211,3.6343957510369194,62.080770006396286,8.092165128739795,52.32576297477155
-5.2990865320000005,-317.94519192,2.608288042619188,-3.499554338714,0.0,7.6904,15,60,618.0303084139348,970.7697468,mp-15254,Li3AlF6,https://materialsproject.org/materials/mp-15254,-30.393140204883252,66.19121673941984,-26.55482710508507,71.81126901596328
-6.676045893,-66.76045893,5.5078207042745815,-1.5973180884419995,4.00000015,0.0,148,10,97.60322237589581,323.73888,mp-20641,MnCoO3,https://materialsproject.org/materials/mp-20641,12.88878702880743,53.634968519747574,10.01531579571959,41.25822947425211
-5.41342153,-21.65368612,4.1274203741567845,-0.4654636549999998,1.65e-05,0.0,221,4,69.26668041586812,172.1686158,mp-569775,ZrAl3,https://materialsproject.org/materials/mp-569775,47.59782204213096,36.206197587369104,57.62322961832621,33.958769702950924
-7.100187595,-695.81838431,3.467604869296148,-3.3850158685714304,1.05e-06,4.3370000000000015,12,98,953.7787837021492,1991.7194808,mp-530722,MgAl2O4,https://materialsproject.org/materials/mp-530722,1.7830782863504755,62.66626047553122,9.68353918346069,53.81403282551157
-9.0121783,-36.0487132,11.252317583017108,0.051214832499999474,1.6e-06,0.0,166,4,59.09120832141633,400.42,mp-1217424,Tc3Pd,https://materialsproject.org/materials/mp-1217424,65.38092025513563,63.098314563012075,89.8016099213075,15.761793146904356
-7.578412147749998,-303.13648591,10.07463007584738,-0.2602651802499992,5.1286349,0.0,1,40,471.1254588461192,2858.3578,mp-1226568,Cr3B12Rh25,https://materialsproject.org/materials/mp-1226568,61.18654688341793,40.12730748425188,73.04254636329684,10.515091823833943
-5.5224048475,-176.71695512,4.273016873956708,-1.7272061821874996,22.0000003,0.5825,12,32,284.0710438330236,730.991765,mp-1175382,Li9Co7O16,https://materialsproject.org/materials/mp-1175382,10.004967978758948,87.04495641183948,7.830574338789767,96.19897028260804
-5.965027238214287,-167.02076267,4.586162778931582,-1.6223022901028574,14.000925599999999,0.0918000000000001,8,28,272.44767914543417,752.4601200000001,mp-771073,Li4Mn3Co3(CuO8)2,https://materialsproject.org/materials/mp-771073,-2.694895432568385,72.28164541493884,2.6674275742460027,61.42259504935685
-7.355397943,-147.10795886,10.178307322712142,-0.23267777899999945,3.1752669,0.0,8,20,231.2739628507206,1417.59839,mp-1226641,Co(BRh2)3,https://materialsproject.org/materials/mp-1226641,61.14665327278557,40.15617919550662,73.11829475612889,10.52626151279649
-4.5522005761538455,-59.17860749,3.95629907199518,-0.13519324057692308,4.6e-06,0.0,204,13,214.0512524623201,509.9854632,mp-1648,Al12Re,https://materialsproject.org/materials/mp-1648,38.19726618024443,39.20598289650072,13.243278855676506,-8.47343407217844
-6.623075056666668,-39.73845034,11.335544413464882,-0.22043845833333364,0.0037473,0.0,216,6,86.65041392600892,591.5125099999999,mp-22197,UNi4Sn,https://materialsproject.org/materials/mp-22197,72.27929518539409,49.73879003738625,71.34648515654852,22.991899468567983
-4.508257620833334,-54.09909145,4.386806295761686,-0.3124323549599997,5e-08,0.0,62,12,163.5776233821961,432.1388,mp-1245871,MgGaN,https://materialsproject.org/materials/mp-1245871,35.093509252815124,40.08829114503543,52.73400740075349,0.09003934245382042
-10.293161036666666,-30.87948311,10.717135133713054,0.056106180000001636,3.8900000000000004e-05,0.0,42,3,50.32464672483907,324.7957600000001,mp-1217905,TaNbV,https://materialsproject.org/materials/mp-1217905,66.87663397077144,27.459983713866325,53.94928094720722,26.89021101315629
-3.235933195,-12.94373278,12.021237327069414,-0.12342612999999993,1.0300000000000001e-05,0.0,225,4,72.47797892393464,524.694069,mp-1183541,Cd2RhAu,https://materialsproject.org/materials/mp-1183541,95.31164482496814,2.3177207345811928,72.83826026380841,55.604555853863786
-6.435332755882353,-109.40065685,16.00708576835185,-0.5642426014705886,0.0,0.0,87,17,257.41853218146304,2481.4355,mp-16317,Si5Pt12,https://materialsproject.org/materials/mp-16317,59.36148148465881,31.19509928995196,71.47264846139686,13.294583372491978
-9.21952213125,-73.75617705,9.7816227601189,-0.2997208656249999,0.08107230000000001,0.0,200,8,140.08045636987492,825.16228,mp-1220392,Nb6GePt,https://materialsproject.org/materials/mp-1220392,64.54744457360155,23.32632059260527,66.49970708832089,24.621331802063487