energy_per_atom,energy,density,formation_energy_per_atom,total_magnetization,band_gap,sgr,num_sites,cell_volume,weight,mp_id,formula,URL,tsne_cry_0,tsne_cry_1,tsne_xrd_0,tsne_xrd_1
-8.868439469473682,-168.50034992,5.888786362823554,-0.3251623936336823,18.8243462,0.0,71,19,203.131487501644,720.3672449999998,mp-1245992,Mn10CoN8,https://materialsproject.org/materials/mp-1245992,25.95263131782161,53.89941132973684,65.04770655195527,-4.483803251514046
-6.8674907979999995,-274.69963192,2.4385083861721872,-2.6702598137500004,2.0004996,0.058300000000000025,14,40,411.62553415047006,604.473784,mp-1202186,Be3SiO6,https://materialsproject.org/materials/mp-1202186,-61.533612738772774,29.146924393486618,-67.88064472131347,39.379250605624705
-7.417038388,-37.08519194,8.18944339494167,-0.44608304566666707,1.0951117,0.0,139,5,60.47334255293431,298.24232,mp-571500,Ho(FeB)2,https://materialsproject.org/materials/mp-571500,55.76859072060035,25.315461038718986,48.89853721130106,-1.8173541771786648
-5.7964632840625,-185.48682509,4.2478010360534535,-1.8611143206849992,16.0000002,0.4119999999999999,1,32,282.63380238852267,723.001465,mp-1175769,Li9Mn2Co5O16,https://materialsproject.org/materials/mp-1175769,18.32342881282784,88.40254355163755,10.259444329788971,91.08642951515071
-4.9032346975,-19.61293879,10.774060701207397,-0.2340244525000008,0.0076035,0.0,139,4,68.87175559826244,446.86,mp-979273,TePd3,https://materialsproject.org/materials/mp-979273,52.82528762940511,30.21922507334566,55.31494540046622,41.84286593483328
-5.5137427025,-22.05497081,12.27576956096518,-0.4216551425000006,0.0,0.0,194,4,85.71875335013911,633.688,mp-2845,SbPt,https://materialsproject.org/materials/mp-2845,52.976943805877895,40.53549384959189,74.48307580757569,15.958465773424326
-7.3058877607142865,-102.28242865,3.6211874393800114,-2.786436915,2.0,1.7447999999999997,74,14,137.53705800971164,299.9312,mp-753223,LiVSiO4,https://materialsproject.org/materials/mp-753223,-1.3602098643244775,73.76390561065256,3.5135570415048583,59.16234046585703
-4.37231896,-17.48927584,8.574774045678637,-0.5206510400000006,3.54e-05,0.0,225,4,67.27170992277578,347.381,mp-861733,LiTePd2,https://materialsproject.org/materials/mp-861733,92.81287558693468,9.280069893865383,57.96986748174921,67.09176953280398
-6.57851673,-407.86803726,4.317637469201275,-2.1006227899193544,4.014306700000001,0.0,6,62,625.3145699304354,1625.9067400000001,mp-769541,Li4Ti3(CoO3)6,https://materialsproject.org/materials/mp-769541,-7.490684206270612,66.3598660356043,-8.611169182676706,71.60569893378495
-4.3329048725,-34.66323898,8.272417610198673,-0.22316890499999964,2.8999999999999998e-06,0.0,194,8,125.28668523687703,624.149,mp-1184314,Ga3Rh,https://materialsproject.org/materials/mp-1184314,58.60661317764447,48.778747960415714,82.22099745011313,17.90264088586466
-6.405418655,-25.62167462,10.398707554618317,-0.2520108575000002,0.6562555,0.0,139,4,59.11638924238634,370.2015,mp-873,VPd3,https://materialsproject.org/materials/mp-873,58.779227758557965,57.01091075994706,83.65174740290784,11.325915260153124
-5.833118745357143,-163.32732487,4.1705350764466935,-1.8926055505150012,8.9999999,0.8414000000000001,1,28,248.90097084014698,625.12847,mp-1174621,Li4MnCo2O7,https://materialsproject.org/materials/mp-1174621,10.44896178430658,87.48811241248518,8.293298538386619,96.55121242438068
-5.48153357625,-87.70453722,4.6479192195517545,-1.64623402625,3.0000001,0.0,166,16,142.33199775538085,398.3933,mp-755699,Li4CrCu3O8,https://materialsproject.org/materials/mp-755699,13.968284216356153,78.35802193690544,23.458701811793837,81.42058685845723
-7.4239944218749985,-593.91955375,3.556583735546714,-3.3889040351250004,6.125e-07,3.0752,8,80,761.6778074607512,1631.3804352,mp-32591,Al2O3,https://materialsproject.org/materials/mp-32591,3.596949913553735,62.053140822912724,8.13165251638556,52.37260774137767
-4.6915572965,-93.83114593,16.27997250650208,-0.11068028850000004,0.0,0.0,194,20,405.55515462373296,3976.0744,mp-30853,Tl2Pt3,https://materialsproject.org/materials/mp-30853,58.75162584698707,42.56416017115289,76.74720240902792,13.939505247057257
-5.821770677500001,-139.72249626,4.109606986312697,-1.8743718407050012,13.6112737,0.0,12,24,213.0442894435516,527.2554749999998,mp-1174483,Li7Mn2(CoO4)3,https://materialsproject.org/materials/mp-1174483,6.240751251142823,91.79192606872878,0.5007838535383822,92.56176511206672
-4.87907954625,-117.09790911,11.498986095369913,-0.07870928291666661,5.9625e-06,0.0,194,24,360.1704781873995,2494.1270400000008,mp-862679,TaZn2,https://materialsproject.org/materials/mp-862679,79.35926435051171,29.49024230362409,68.97282675393353,24.91117011054277
-7.552127976206897,-438.02342262,3.1810279834603468,-3.2921579652811497,0.0,6.114699999999999,176,58,535.5130648618149,1025.8608823999998,mp-6738,Al6B5(O5F)3,https://materialsproject.org/materials/mp-6738,-8.079249211891398,69.27636271199424,-6.429339070172361,63.241426570269745
-9.17608984,-73.40871872,18.005066538592622,0.3809438000000007,0.00015889999999999999,0.0,194,8,135.686947599892,1471.24064,mp-1184920,HoOs3,https://materialsproject.org/materials/mp-1184920,69.08640693836752,56.692020316552295,57.45168334847929,39.891702440775965
-3.94363121,-11.83089363,3.395851329153254,-0.2877843216666663,2.6e-06,0.055400000000000116,216,3,67.96181264668935,138.98391199999998,mp-961665,MgScGa,https://materialsproject.org/materials/mp-961665,35.483481954231046,37.73928210214323,64.73670505118785,45.912955841904726
-7.336735000689655,-425.53063004,3.1860701719829576,-3.399199567818965,0.00153055,4.674899999999999,63,58,633.6438061258491,1215.7700492000001,mp-863358,KAl11O17,https://materialsproject.org/materials/mp-863358,3.0743759992588857,61.75579808723897,8.013612262803921,52.861338273578994
-5.7543757693333335,-86.31563654,4.381735157997942,-1.6897055446666676,11.9999999,0.09799999999999986,12,15,144.5623306656098,381.462785,mp-752570,Li3FeCo3O8,https://materialsproject.org/materials/mp-752570,15.277753760879062,79.54690366736412,21.80991147785836,81.78522190952275
-5.800513859375,-185.6164435,4.251111477796362,-1.8651648959974996,15.9999997,0.5021,1,32,282.41370871601583,723.001465,mp-1175790,Li9Mn2Co5O16,https://materialsproject.org/materials/mp-1175790,18.89726381634871,88.92700818056927,10.524957591950246,90.57066809806558
-4.79294052,-62.30822676,6.67820905943811,0.195547115604616,1e-06,0.0,164,13,168.45566601171322,677.4801,mp-1225831,Cu10N3,https://materialsproject.org/materials/mp-1225831,50.51089193606141,61.85381748779256,85.82698997779242,7.1487811531859675
-4.550665495,-9.10133099,6.064411010784094,0.0971762500000004,1.95e-06,0.0,221,2,41.029620689636744,149.8432,mp-10,As,https://materialsproject.org/materials/mp-10,23.631692691568972,22.914660597135267,59.26357082987987,-28.11616729871239
-6.7946869775,-81.53624373,6.8365014136422575,-0.8469518274999999,2.25e-07,0.0,62,12,234.21424067268399,964.2688,mp-27606,ZrAs2,https://materialsproject.org/materials/mp-27606,34.01998615754041,26.37721971601909,54.65814054204128,9.48907531781343
-2.8301820847368417,-107.54691922,1.4622439383881325,-0.2296586457894735,0.0,0.0,220,38,609.9339336561401,537.0980000000001,mp-8331,Li12Mg3Si4,https://materialsproject.org/materials/mp-8331,36.86913490954308,38.71530948470079,65.22168981735138,-12.72048771078291
-8.041623040000001,-40.2081152,9.84609356521358,-0.2751271353333337,0.0370998,0.0,221,5,69.55677951084138,412.43388,mp-1206988,NbBRh3,https://materialsproject.org/materials/mp-1206988,52.43221061917461,30.709541968271513,55.96369478800662,41.45479802954029
-8.3361344435,-166.72268887,6.3634905117318015,-0.1655917114519994,6.4808899,0.0,59,20,205.7641616135056,788.5260499999998,mp-1246923,Mn5CuN4,https://materialsproject.org/materials/mp-1246923,25.40790682430804,54.352615363328155,70.9829927171758,8.306936883288879
-2.9301214866666663,-8.79036446,9.67826879622238,-0.1975370099999996,5.9e-06,0.0,216,3,73.44868548605045,428.08756900000003,mp-1226720,CdSnAu,https://materialsproject.org/materials/mp-1226720,86.95624946128717,-2.3143173846693577,67.44583591336216,46.0305601439686
-4.0784358569565216,-187.60804942,2.819209846658082,-0.14638051782608655,0.00081435,0.0,227,46,778.0400399042289,1320.9313895999999,mp-1201511,Mg3(Al9V)2,https://materialsproject.org/materials/mp-1201511,55.214361508015095,48.83045809992587,78.080709868803,4.867979805530389
-5.882826410714286,-82.35956975,5.200713372342453,-1.778355262857143,0.0,0.0,166,14,140.62733778677242,440.436785,mp-761676,Li2Co3SbO8,https://materialsproject.org/materials/mp-761676,1.6522355507899331,67.79830537472546,18.22724087265113,82.70946835780663
-3.6498522018,-364.98522018,2.5329748199262547,0.09825097819999996,8.5424e-05,0.0,1,100,1768.8252505357066,2698.1538600000003,mp-1244953,Al,https://materialsproject.org/materials/mp-1244953,58.251269906443355,46.87082374770698,72.86221270737437,8.864145406382402
-12.4436155525,-99.54892442,20.001816417870806,0.12918387937500064,4.5e-06,0.0,194,8,123.27735145853129,1484.922,mp-974408,Re3W,https://materialsproject.org/materials/mp-974408,67.66049811885594,63.374737210662225,89.43849815905192,17.007543144100897
-5.491741445555554,-148.27701903,3.025284940295889,-3.737995713015555,4.933333333333332e-06,7.5838,150,27,283.5845032382331,516.6538734000001,mp-1193222,LiMgAlF6,https://materialsproject.org/materials/mp-1193222,-30.326678087425023,66.14723595082454,-26.76096953651587,71.8553614465692
-7.4460990475,-29.78439619,10.44781448461393,-0.8829893949999992,3.87e-05,0.0,225,4,64.94240646954903,408.606,mp-865050,HfMgRh2,https://materialsproject.org/materials/mp-865050,89.43348321846159,15.855903475711225,56.91089762933788,61.13330883013307
-4.371124778333333,-26.22674867,11.515628079672682,-0.3314244608333325,2.13e-05,0.0,216,6,89.1738796120673,618.4095689999998,mp-1077290,ErCu4Au,https://materialsproject.org/materials/mp-1077290,79.79575164356672,29.611378432707177,71.34076228267355,26.067301389091092
-1.416826855,-17.00192226,5.043374908374249,-0.03349731833333328,1.1e-06,0.0,15,12,204.29795696862394,620.4920000000002,mp-1094461,MgZn2,https://materialsproject.org/materials/mp-1094461,47.63093472771399,34.84184540264902,52.34834519536076,34.056618380384215
-6.17537339,-148.20896136,10.457035269251767,-0.5601688061111112,0.0002877,0.0,194,24,304.05588418829615,1914.7536,mp-865190,Lu3Ni7B2,https://materialsproject.org/materials/mp-865190,76.63211833434171,29.182702831099963,68.45417233745668,24.39580134183178
-5.49239491125,-87.87831858,8.645495706323054,-0.8505174999999996,0.0,0.0,55,16,235.49477146884186,1226.0892316,mp-16523,Al3Pd5,https://materialsproject.org/materials/mp-16523,56.449261879170535,40.634016892135726,72.48207709953992,13.453222125846267
-5.9299519575,-118.59903915,4.153715188542348,-1.5588817962499997,16.9999995,0.0,2,20,219.9583078028788,550.209385,mp-752595,Li2Fe3(CoO4)3,https://materialsproject.org/materials/mp-752595,10.92405731237163,75.68361752593124,20.85496862124038,82.81002446869368
-9.375096952105263,-178.12684209,6.218831691449617,-0.868101539949473,0.25522039999999996,0.0,12,19,183.47346223519642,687.1206,mp-1247009,V8Fe3N8,https://materialsproject.org/materials/mp-1247009,26.80469234731709,54.293460805487356,69.28471375923536,-0.08591050644950576
-5.7967670490625,-185.49654557,4.228704527049229,-1.8614180856849991,18.0000001,0.43000000000000016,1,32,283.9101552095075,723.001465,mp-1175737,Li9Mn2Co5O16,https://materialsproject.org/materials/mp-1175737,17.902733146247893,88.38575481844309,9.626883955426788,91.47264171914769
-3.6434942792,-364.34942792,2.5506396107598768,0.10460890080000013,8.631399999999999e-05,0.0,1,100,1756.5750181076785,2698.1538600000003,mp-1245152,Al,https://materialsproject.org/materials/mp-1245152,58.254356654164326,46.88660850748288,72.88336999796067,8.86508192480507
-6.788865746000002,-67.88865746,2.8155981042130485,-2.4199893592500006,0.0,0.6880999999999995,2,10,120.26622770168665,203.9225544,mp-638765,Al2O3,https://materialsproject.org/materials/mp-638765,5.4334482915138045,65.9325879104478,3.220818912220144,52.997061817731506
-2.80499171,-11.21996684,7.591069638049518,-0.2256971766666669,2.6000000000000002e-05,0.0,225,4,73.82678782333154,337.4954,mp-567787,LiInAg2,https://materialsproject.org/materials/mp-567787,89.222431054046,-1.5324186593295617,68.48721380778771,47.120052734016454
-6.554488260625,-104.87181217,3.2943169170629307,-2.6943207046549995,0.0,5.546400000000001,62,16,120.95117873056006,239.95311439999998,mp-625152,AlHO2,https://materialsproject.org/materials/mp-625152,7.078016581760527,61.398788396112174,7.548326751728541,50.493004070466576
-6.492650954090909,-142.83832099,3.636357649943236,-2.054067268172727,16.0,0.5112999999999999,2,22,228.95833409400538,501.388025,mp-771669,Li5Mn5O12,https://materialsproject.org/materials/mp-771669,0.3656727785578801,77.29829875919434,-8.90248576402659,92.49092115986757
-1.47058309,-17.64699708,4.033406817756814,-0.032002197499999774,2.9666666666666665e-06,0.0,5,12,221.60958142686727,538.2840000000001,mp-1094445,MgZn,https://materialsproject.org/materials/mp-1094445,46.3701257045786,34.09194449951642,50.336756819223226,32.783802267288806
-7.316904144137932,-424.38044036,3.1207625095596616,-3.3715043249396555,0.0,4.3719,194,58,629.7614560748585,1183.5529877600004,mp-867577,NaAl11O17,https://materialsproject.org/materials/mp-867577,3.115229712630937,61.90158426952743,8.010007690529024,52.7386092223279
-10.97341416,-21.94682832,12.407337312982069,0.010883995000000368,1.1400000000000001e-05,0.0,65,2,36.65135222240633,273.85426,mp-1217892,TaNb,https://materialsproject.org/materials/mp-1217892,66.12422284861101,23.340969858698912,74.14658041220639,55.90488495878475
-4.993552118181818,-54.9290733,10.401779255778873,-0.4100656013873105,0.0006037000000000001,0.0,123,11,185.17526428107345,1159.956,mp-1102524,In2Pd8Se,https://materialsproject.org/materials/mp-1102524,59.29258027413803,43.59738156902651,75.97270307961107,12.426434622227525
-6.7573139766666666,-20.27194193,10.036632139760467,-0.27881756333333385,4e-07,0.0,71,3,43.642077609333775,263.7815,mp-11549,VPd2,https://materialsproject.org/materials/mp-11549,57.881346845979344,60.18040094384239,82.57250061033588,9.624402635753345
-8.69875402,-26.09626206,20.44770641886727,-0.3409927133333331,3e-07,0.0,71,3,46.614650746003896,574.008,mp-1018129,Pt2W,https://materialsproject.org/materials/mp-1018129,67.6901577906411,63.25228278521408,89.00820878819874,17.533846098533598
-5.9539203941666665,-71.44704473,3.837025041708439,-2.2956574135416674,2.0000004000000002,3.0094000000000003,2,12,121.7064075335338,281.2282772,mp-754284,LiAlNiO3,https://materialsproject.org/materials/mp-754284,-27.73354736451852,60.672601075226275,-22.62975160293336,58.195785685201166
-5.82445239,-23.29780956,9.226915698175755,-0.5731349925000009,1.3e-06,0.0,225,4,67.58205487011071,375.525,mp-866168,TiInPd2,https://materialsproject.org/materials/mp-866168,96.18982974969093,8.643999977623457,62.78978189616835,65.12875504724745
-4.769248415714286,-33.38473891,5.547050138746274,-0.8051869578571436,3.9999997000000005,0.3954000000000004,65,7,71.8685697020607,240.0778,mp-656887,Ni3O4,https://materialsproject.org/materials/mp-656887,16.866571074939124,63.90297772868764,29.657226969763123,77.46738607404039
-5.977861298125,-95.64578077,3.9529501695493168,-2.0063627144950003,7.9999999000000015,0.23690000000000036,10,16,139.25914022729918,331.5094850000001,mp-1174346,Li5Mn2CoO8,https://materialsproject.org/materials/mp-1174346,2.0371244002717237,92.3913141888563,-4.989482991816901,85.03252626711611
-5.790761919642858,-162.14133375,4.561762302170992,-1.572041868214286,10.9837168,0.4363999999999999,9,28,272.66131118976256,749.0435699999998,mp-761763,Li2FeCo3O8,https://materialsproject.org/materials/mp-761763,-2.6768119173196743,72.25890023989997,2.6445989632498,60.78796712970529
-5.7930113221875,-185.37636231,4.239008041279812,-1.857662358809999,16.0000012,0.11969999999999993,3,32,283.2200710445515,723.001465,mp-1232437,Li9Mn2Co5O16,https://materialsproject.org/materials/mp-1232437,19.098788741156813,90.78925151606066,9.964338141494679,89.22663991852924
-5.14722322,-15.44166966,10.20040089132123,-0.4553486233333329,0.0,0.0,225,3,70.40799519626867,432.504,mp-19962,Sn2Pt,https://materialsproject.org/materials/mp-19962,87.69532858893459,2.416936924068022,65.59958933795414,48.08859992389093
-4.968664784444446,-44.71798306,7.551688507954403,0.10676187613777838,0.0,0.0,123,9,113.39922072963587,515.7094000000002,mp-1225725,Cu6PdN2,https://materialsproject.org/materials/mp-1225725,50.663402462112245,61.98320984854984,85.63757061805092,7.444848169486545
-1.5444817348913045,-142.09231961,4.359268344728262,-0.12031423956521728,1.1e-06,0.0,167,92,1634.6331992633027,4291.26,mp-570025,Mg21Zn25,https://materialsproject.org/materials/mp-570025,48.92118766274904,41.737218788307686,65.11752237981611,-3.0002764051897897
-4.14016962,-12.42050886,5.9062901557009235,0.30136080754000066,2e-07,0.0,38,3,40.19333250088111,142.9617,mp-1246450,ZnCuN,https://materialsproject.org/materials/mp-1246450,25.29577412427836,50.08829584424852,56.54047892120507,-25.74530224531935
-6.7857287425,-27.14291497,8.996425769182233,-0.8411609345833329,1.31e-05,0.0,225,4,67.47880040210084,365.584912,mp-867842,ScInRh2,https://materialsproject.org/materials/mp-867842,96.14259044192215,8.70396519162963,62.87835195819404,65.14951931983954
-5.339275414285715,-74.74985579999999,5.461558965551472,-1.3560929992857151,0.0517764,0.0,88,14,126.70366751834793,416.7318772,mvc-4622,Al(NiO2)2,https://materialsproject.org/materials/mvc-4622,19.733120569201468,52.61327524784785,4.34203670259679,50.05800636667686
-3.4286555525,-13.71462221,5.893016200468503,-0.4921691558333334,6e-07,0.0,216,4,66.25231049827431,235.12,mp-21029,Li2InPd,https://materialsproject.org/materials/mp-21029,35.54692649847446,37.454390041843936,46.419000260307925,62.25156684815249
-7.5213834760000005,-37.60691738,12.332304380053849,-0.14405132199999998,0.0,0.0,139,5,90.57231589016745,672.652278,mp-2123,Nb3Au2,https://materialsproject.org/materials/mp-2123,63.55312291393576,16.988945346318527,53.04210238708699,25.78734594230368
-9.40099102,-37.60396408,6.0189139194335475,-0.10927692937499957,0.4475611,0.0,166,4,35.02631517933401,126.959,mp-1216383,VCrC2,https://materialsproject.org/materials/mp-1216383,29.332550658726763,60.54514600261,56.40092667486051,44.13648928700199
-5.8247760996428575,-163.09373079,4.17647626039982,-1.8842629048007142,10.0000001,0.7056,1,28,248.54690047995015,625.12847,mp-1174602,Li4MnCo2O7,https://materialsproject.org/materials/mp-1174602,9.743346209068504,89.01028961502041,5.925095004020048,96.96376506765787
-8.836445945833333,-106.03735135,7.467548220143943,-0.19499125083333269,0.000572,0.0,38,12,156.56583931781012,704.0863999999998,mp-1226241,CrSiMo,https://materialsproject.org/materials/mp-1226241,69.72453981616782,50.184267231651106,72.58896120472481,18.627656063814992
-2.11949849625,-16.95598797,0.8333752460385736,0.2438561187500001,0.00037765,0.0,194,8,118.89598284087296,59.670364,mp-977119,Li3Be,https://materialsproject.org/materials/mp-977119,64.60792210942424,62.63539944690125,85.88912028890141,13.010569011744401
-9.26103951375,-74.08831611,10.139951226135144,-0.2718137799999987,9.03e-05,0.0,200,8,140.66213507717723,858.9422800000001,mp-1220391,Nb6PdPt,https://materialsproject.org/materials/mp-1220391,64.45827433065321,23.23273766769465,66.56469437574141,24.673344268973487
-5.7982546625,-185.5441492,4.25515840102722,-1.862905699122499,16.0000002,0.2898999999999998,1,32,282.14511551905287,723.001465,mp-1175590,Li9Mn2Co5O16,https://materialsproject.org/materials/mp-1175590,18.86699868794813,88.83654350044745,10.567021573498034,90.5647264273342
-4.88797166,-78.20754656,5.248222229779094,-1.2572493056249998,9.990000000000002e-05,0.0,12,16,141.47452997449855,447.1378,mp-756169,Li3Cu(NiO2)4,https://materialsproject.org/materials/mp-756169,22.60698130407598,78.02859040490641,29.48777891416909,77.76965752281255