energy_per_atom,energy,density,formation_energy_per_atom,total_magnetization,band_gap,sgr,num_sites,cell_volume,weight,mp_id,formula,URL,tsne_cry_0,tsne_cry_1,tsne_xrd_0,tsne_xrd_1
-6.91597877875,-165.98349069,2.7870572001681007,-2.863020460773809,0.999999925,0.0,2,24,321.851647557957,540.197448,mp-1190684,CaPO4,https://materialsproject.org/materials/mp-1190684,-53.513624934997814,18.552301466303025,-28.95636130188777,-45.86969124120311
-5.590648406666666,-134.17556176,3.0545635809795875,-0.4051770170433322,0.0,1.5969000000000002,62,24,534.6011474153795,983.39946,mp-616557,CoI(NO)2,https://materialsproject.org/materials/mp-616557,-30.39430156939137,-4.6245878214612155,-57.344814574335054,-21.919539469101018
-7.243767660705128,-2260.05551014,2.780985054320136,-3.3485526906501835,0.0021851999999999996,4.9116,14,312,4444.990960605254,7444.241376000001,mp-1197377,Ca3(PO4)2,https://materialsproject.org/materials/mp-1197377,-53.28065568458194,18.921852813747584,-29.67383624897831,13.95164987504581
-2.472596605,-14.83557963,1.4111410025029152,-1.1623785957533337,0.0001099,0.0,74,6,191.64904026648608,162.86507712000005,mp-1077288,Na2Cl,https://materialsproject.org/materials/mp-1077288,-36.82778672892349,43.12737459523344,-45.95214042444642,43.73548915719041
-6.683669679642858,-187.14275103,3.9474265689372383,-3.0621863803775513,0.0,4.9459,62,28,456.6668888769388,1085.586648,mp-6812,KBaPO4,https://materialsproject.org/materials/mp-6812,-21.014552848845632,-27.799961439288754,-19.45653716539321,-12.097083373615787
-5.838821202025317,-461.26687496,6.668785724117781,-0.4475491798101263,2.5025068999999998,0.0,8,79,2206.910390799816,8863.03312,mp-1173636,Nb24Ge7Te48,https://materialsproject.org/materials/mp-1173636,21.41388235586412,1.4617947260682018,-0.13239183799425608,-16.80383107832316
-3.5695014425,-99.94604039,4.48621322558279,-0.9563598952586204,2.0020636,0.4359000000000002,194,28,1278.2280794661233,3453.3386914,mp-1192748,Cs3Nb2I9,https://materialsproject.org/materials/mp-1192748,9.051513572183627,7.902279099283113,-19.405723364833683,-15.340113811505619
-4.94220959675,-197.68838387,2.9289562830695712,-2.681498077652689,0.001109,4.4195,62,40,1267.4215734634179,2235.5526075999996,mp-1213252,CsY2Cl7,https://materialsproject.org/materials/mp-1213252,-6.2476679059658435,6.492126926195875,-36.46122770556251,-29.606547726777986
-3.77791410875,-181.33987722,4.189967998505755,-0.4660590907432353,0.0,1.3568000000000002,14,48,1549.3123534951171,3909.3144,mp-541916,Rb2Ag(AsSe2)3,https://materialsproject.org/materials/mp-541916,-5.541593261694322,-1.2360233017679685,-30.028956751903106,-43.57616126811953
-5.441223055714286,-76.17712278,7.617711363771522,-0.13069631714285834,6.18923265,0.0,176,14,329.0329973153391,1509.4365999999998,mp-3708,Tl(FeTe)3,https://materialsproject.org/materials/mp-3708,11.865883708318874,-35.78841521342694,18.20178866223053,-41.81026498126985
-6.471038908461537,-84.12350581,5.307818662625448,-2.7109784469230767,0.0,3.9108,166,13,215.80843601819316,689.8194,mp-9783,Ba3(AsO4)2,https://materialsproject.org/materials/mp-9783,-9.799230693248514,-31.56544406801929,16.6214906815466,-72.39895072118497
-8.014628455333334,-240.43885366,4.69770295609759,-3.743840398083334,0.0,4.436300000000001,63,30,453.6234950715758,1283.3112515999999,mp-768518,LaAlO3,https://materialsproject.org/materials/mp-768518,-20.64986223913965,-30.379971757400273,-11.58098197971365,-21.060136277601746
-4.52452889875,-36.19623119,3.392134751668177,0.3176817012499997,1.7899999999999998e-05,0.0,194,8,247.553723636262,505.7006,mp-1172435,SiAs3,https://materialsproject.org/materials/mp-1172435,14.196797239177119,16.02037268500452,-13.997786548765518,-74.50493645806895
-4.22823996,-25.36943976,4.259828376900285,-0.4789775583333326,0.0,0.0,166,6,144.5101389743265,370.716,mp-1024,CaGe2,https://materialsproject.org/materials/mp-1024,33.245349967155384,-3.7426448817204396,15.597082980609539,14.794191336625298
-3.75224508,-18.761225399999997,7.473251952739908,-0.035703665999999856,2e-07,0.0,99,5,99.06415696905458,445.838,mp-1225676,Cu3Te2,https://materialsproject.org/materials/mp-1225676,51.879188523978755,41.39213910156132,62.01802524097593,-14.357053173644587
-4.798477232,-47.98477232,5.105398577710897,-2.195180769956,0.0,0.8306,12,10,275.94976465579947,848.4194,mp-1205852,Tb2Cl3,https://materialsproject.org/materials/mp-1205852,6.071181623551817,-0.6438006316335654,-3.558142861058616,-21.445184479363526
-3.605138749166666,-43.26166499,5.713347683403237,-0.3229651838333331,0.0,0.4122999999999992,12,12,281.88575339195523,969.8726,mp-541622,KCu3Te2,https://materialsproject.org/materials/mp-541622,16.460223489302404,22.407743130381277,60.522629252275074,-14.022060640867155
-9.365936020344828,-543.22428918,5.96492513701353,-2.23979678990302,42.001609,0.3422999999999998,86,58,1214.7197355265587,4363.469999999998,mp-646008,Gd10S19,https://materialsproject.org/materials/mp-646008,15.388178897753873,-6.665574053721403,4.029176757818602,-8.201058537763027
-7.419396649249999,-296.77586597,2.5937896683069277,-1.947500124125,1.00000005,0.4612000000000001,14,40,562.4741493638802,878.5939999999999,mp-1202303,Sr(CO2)3,https://materialsproject.org/materials/mp-1202303,-25.443615586500307,-3.013595869068059,-34.274623541850374,-33.62195739337063
-6.415413526,-128.30827052,5.869864046582823,-2.486834311687501,0.0,1.0276000000000003,11,20,470.4062216350952,1662.84592,mp-1189307,Nd(HoS2)3,https://materialsproject.org/materials/mp-1189307,8.591148200422111,-3.006653426380959,-5.050188745698967,-14.19513419344429
-8.306761491818182,-1096.49251692,5.110272501617524,-3.5518353892045464,1.999997975,0.0,29,132,1748.439941674672,5380.785600000001,mp-582983,Ce2Si2O7,https://materialsproject.org/materials/mp-582983,-20.277004342482176,-35.707700933910274,-17.203348915113928,-32.06899877944963
-3.81041688675,-152.41667547,5.345360081252899,-0.36361169404166704,0.0005827625,0.5152000000000001,7,40,881.7206937878453,2838.304,mp-1197575,Ag2AsS2,https://materialsproject.org/materials/mp-1197575,15.352528763732971,-14.93416048185118,-0.2649104456229889,-27.71103497871037
-5.50640866375,-88.10253862,6.257280529060059,-1.234435982656251,9.5e-07,0.051899999999999835,223,16,312.31046155037336,1176.8553,mp-1188365,PrPd3S4,https://materialsproject.org/materials/mp-1188365,1.8627932263197544,-58.17937517491579,16.858278914940676,-44.7030924328995
-6.184860533589744,-241.20956081,2.6132998672339465,-2.417847965657052,1.9999997,0.0097,5,39,549.5364654971337,864.8417999999998,mp-1198084,Ca2S2O9,https://materialsproject.org/materials/mp-1198084,-53.612244005230934,18.393653990263,-41.50340718496303,-59.49364233104247
-8.317868223000001,-166.35736446,5.91380508204828,-2.479265569937502,7.0000003,0.6794999999999995,62,20,453.5380911235286,1615.22,mp-1219055,SmGdS3,https://materialsproject.org/materials/mp-1219055,13.613723452274993,-6.566806915060847,-1.975077173185722,-12.985175239562832
-5.286449455789472,-100.44253966,5.024156690656894,-1.292087928070723,9.4e-06,0.7160000000000002,12,19,462.26722374737466,1398.644,mp-867371,K2Y4Cu4Se9,https://materialsproject.org/materials/mp-867371,32.00435522087042,-3.4888321323738776,2.4573204799058184,-20.797492576867388
-3.1711791233333333,-19.02707474,4.096619775328964,-0.5442538683333329,0.0,1.5371,136,6,188.44266733977008,464.896,mp-1184708,GeBr2,https://materialsproject.org/materials/mp-1184708,23.917835023695517,5.118447906081765,11.282996282601669,2.562277639941605
-2.8031037709090905,-61.66828296,4.027321124789415,-0.7657822430303031,0.0,2.2528,166,22,839.975265807711,2037.2,mp-568692,In4Br7,https://materialsproject.org/materials/mp-568692,-5.196819644546234,-6.791523857132557,-21.509134726166106,-30.55684697949703
-4.729094340833334,-113.49826418,2.701105870102781,0.17767484467541608,3.65e-06,0.2542,62,24,619.2096110383486,1007.2336,mp-1179042,TeS3N2,https://materialsproject.org/materials/mp-1179042,-30.33744224263496,-5.166993660770053,-62.22181531825162,-17.514710237129634
-2.5797584233333333,-23.21782581,4.625223509755768,-0.7927275902681991,7.8e-06,0.2121,225,9,407.00366250340187,1133.6577238,mp-569066,Cs2PdI6,https://materialsproject.org/materials/mp-569066,8.848130018590432,7.934017312921965,-33.1042315658746,-13.284360918966284
-4.767126519,-47.67126519,4.9144627486015375,-3.0780407526220457,0.0,3.4927,225,10,173.8945279435539,514.6510616,mp-1113614,Cs2AlAgF6,https://materialsproject.org/materials/mp-1113614,-52.13270104760829,-69.16086061134807,-56.96228301005274,-66.97266968466667
-5.060407828260869,-116.38938005,5.184024804238884,-2.8309613138151817,0.0,1.1975999999999998,12,23,581.9137190520041,1816.6722256,mp-1192196,Ba7In2(Se3F4)2,https://materialsproject.org/materials/mp-1192196,9.790603860715112,-22.257841235663342,-16.086774767440723,-32.067878519048406
-4.455663806875,-499.03434637,4.293569371738608,-0.6491303489508928,0.0,0.4354,14,112,4835.398546588455,12502.63836,mp-583476,Nb7S2I19,https://materialsproject.org/materials/mp-583476,11.206768882623056,4.121251712326799,-11.880598362357096,-7.144803954444893
-3.7986173879166665,-91.16681731,4.106630252363326,-0.7162548904076876,0.0,0.6094999999999999,154,24,668.6718167767878,1653.6726,mp-17756,RbAg2SbS4,https://materialsproject.org/materials/mp-17756,-7.638785139433511,-10.822678060287297,-33.13020745881961,-47.07694734007449
-8.327948091666666,-99.9353771,4.809418218366512,-2.9151628626041663,0.0,2.4308,198,12,192.3674053845901,557.1536,mp-3519,ZrSO,https://materialsproject.org/materials/mp-3519,7.762773083541955,-36.918443101117575,12.264163391905045,-50.06682810418725
-4.342736640740742,-117.2538893,5.862785817753365,-0.3017768702777777,0.9779834999999999,0.0,6,27,645.1918426962815,2277.948,mp-1225320,Fe2Cu3(Sn3Se8)2,https://materialsproject.org/materials/mp-1225320,29.103572641370693,26.579916177239184,-21.44240892510298,-78.56919830237244
-3.4950999003333334,-104.85299701,4.161282258033428,-0.8923856704022985,2.9997326666666666,0.0,185,30,919.6703098966292,2304.67797,mp-1209412,RbCoBr3,https://materialsproject.org/materials/mp-1209412,-2.132974014870933,14.499170421202885,8.313256961759857,-54.63632784780627
-5.662628217647059,-385.0587188,4.113897762930488,-0.7842355986620587,8.88335595,0.0,2,68,1872.878903867978,4639.95856,mp-1197072,Ta6Br12ClO15,https://materialsproject.org/materials/mp-1197072,-3.642384401066203,3.2026027597672893,-37.68046144609564,-35.18306980082467
-4.485907653181818,-98.68996837,3.4846580992060057,-0.564407374258929,5.000539099999999,0.7643,14,22,637.4447659446655,1337.684338,mp-867228,K2Mn(PSe3)2,https://materialsproject.org/materials/mp-867228,-10.299197870620604,-4.246809142100109,-28.654221548632503,-43.503223865803854
-5.9888408533333335,-359.3304512,2.1581559824842347,-1.6600467441146671,0.0,5.0085,19,60,657.6596284595378,854.74176,mp-1237207,SrH6(CO3)2,https://materialsproject.org/materials/mp-1237207,-25.601113393420487,-2.9825428599826873,-70.63243576392485,-10.917719578679518
-7.1675438557608695,-659.41403473,2.989577694631288,-3.307336567380436,0.0,5.0206,146,92,1209.2756974258714,2177.13860656,mp-1221168,NaCa10(PO4)7,https://materialsproject.org/materials/mp-1221168,-18.616062576707613,24.036067270112785,-12.819266760469825,15.382106116535542
-5.30965782,-15.92897346,9.731599525603807,-0.26010543666666663,0.0,0.0,164,3,76.34442762517837,447.417,mp-2285,Te2Ir,https://materialsproject.org/materials/mp-2285,29.07835535180088,23.59155303218985,26.34391415528483,-44.310207406368406
-5.9286190929166676,-142.28685823,4.592023149496504,-4.002347354626667,0.0001345,7.1653,62,24,375.1149091202407,1037.3356512,mp-1211343,KNdF4,https://materialsproject.org/materials/mp-1211343,-13.007400321084642,-27.44558654124003,-38.08501039103018,-49.64380030913791
-5.93898294375,-47.51186355,6.632730339625327,-0.09447440857421883,8.3260463,0.0,99,8,171.5284143347017,685.14,mp-1225000,Fe4Te3Se,https://materialsproject.org/materials/mp-1225000,8.311438036295058,25.467501710484,22.885647149664702,-46.425165393320036
-7.561259087000001,-226.83777261,4.803884652680842,-3.2279105202500005,2.65e-06,2.7391999999999994,71,30,470.3042647238121,1360.5747199999998,mp-1218647,Sr4Nb2O9,https://materialsproject.org/materials/mp-1218647,-15.461672756544829,-82.1875100177808,17.538733072846096,-69.87359097056016
-4.33002402,-95.26052844,2.884913777322911,-1.2034469195492428,2.6899999999999997e-05,2.2303000000000006,9,22,571.0940433633758,992.18207712,mp-1190138,Na2In2SiS6,https://materialsproject.org/materials/mp-1190138,-7.190576096749274,-0.2558669057764537,-37.55810064915713,-45.004725585952066
-3.179164978,-31.79164978,3.465964215136032,-0.8577750166344827,3.0000001,1.4308,225,10,489.17475675734454,1021.03122,mp-1114406,K2RbMoI6,https://materialsproject.org/materials/mp-1114406,2.749980825067782,4.056070208541781,-17.524088110218276,6.554739807789574
-5.8939690065625,-188.60700821,5.753401278062585,-2.8184645809375,5.20625e-06,2.2843,63,32,708.0457927617862,2453.2224,mp-776658,BaO,https://materialsproject.org/materials/mp-776658,24.814488278002248,10.827860273536317,-5.7517648976107845,-86.0685515406063
-4.573753700666667,-137.21261102,3.0325871947727943,-1.496681044887931,10.000000199999999,1.2593,147,30,813.3193029490219,1485.33798,mp-752494,Rb6Co2O7,https://materialsproject.org/materials/mp-752494,-3.0759709090453358,-9.631441759706153,-22.51759532804924,-11.468113880519164
-5.373131302142856,-150.44767646,3.7434113877845334,-2.2022417117549264,3.75e-07,2.2030000000000003,14,28,697.8686634111823,1573.2297999999996,mp-756474,Rb3YO3,https://materialsproject.org/materials/mp-756474,-4.396932173116712,-30.099517930831837,-4.894823227372664,-32.1360142891929
-3.0427789460000003,-30.42778946,4.105777884967203,-1.204385908735632,0.0,1.2140000000000002,225,10,317.5697268212778,785.2093385999998,mp-1113743,Rb2AlAgBr6,https://materialsproject.org/materials/mp-1113743,0.041901174718888747,15.250032794894018,-27.547919115878802,-71.99843647727688
-3.88020143,-93.12483432,4.723674579355402,-1.1523864057516675,9.000000000000001e-07,3.3887,64,24,453.8556984329225,1291.0666800000001,mp-1191962,CdIClO3,https://materialsproject.org/materials/mp-1191962,-42.8515535771485,-48.13848303646051,-23.879015197401422,-32.465552488294946
-6.120756165142857,-428.45293156,4.011583772552587,-1.946110740723215,0.0,1.7609,146,70,1508.4926916325498,3644.2653,mp-1216508,Y9Ga5S21,https://materialsproject.org/materials/mp-1216508,13.661840965331375,-15.00966682372249,3.635836169847354,-4.665524005283293
-7.1585868523076925,-93.06162908,4.619270971506603,-3.3183091134065936,0.0,5.3346,166,13,180.642577547138,502.509724,mp-1227768,BaSr2(PO4)2,https://materialsproject.org/materials/mp-1227768,-19.837111741126282,-32.17178962475564,9.201486514260884,-18.62979500805191
-2.67010528875,-64.08252693,4.236468549640686,-1.1406667219300768,2.8000000000000003e-05,2.6311,62,24,1182.775895508428,3017.5700552,mp-540881,Cs2AgI3,https://materialsproject.org/materials/mp-540881,-6.657526360299327,-24.553365822331447,-27.281949850196966,-2.9192041966840567
-4.698324773,-46.98324773,3.4438510706195284,-1.4173352034375006,5e-08,1.5779,148,10,245.89287826558137,509.966,mp-866826,CaSnS3,https://materialsproject.org/materials/mp-866826,-5.0690811612405975,2.7463373768278503,-38.01363104451719,-35.90617870594409
-3.61883677125,-86.85208251,4.736544500734532,-0.4149494924999999,1.7833333333333331e-06,0.4629000000000003,2,24,704.2056760121599,2008.6860000000001,mp-28060,LiGeTe2,https://materialsproject.org/materials/mp-28060,17.255301474714173,13.073498857351902,-17.47401184727893,-15.127145337835422
-4.959812172142857,-69.43737041,7.596935199635554,-1.4106143542857137,0.0,1.7503000000000002,15,14,245.29830947506386,1122.2352,mp-558802,Hg2MoO4,https://materialsproject.org/materials/mp-558802,-22.815301504963884,-53.69822199642057,-18.66801258472664,-49.06363230160567
-7.010947089285715,-294.45977775,2.9599517839924667,-2.9069798085799317,1.99999995,0.4696999999999996,176,42,557.9892360330061,994.629572,mp-1214051,Ca5P3CO12,https://materialsproject.org/materials/mp-1214051,-18.61879127700997,24.67552667846246,-11.524157962268033,16.557644529344188
-5.0648058375,-20.25922335,3.889864817670222,-1.3443933146875002,1.0000004999999998,0.733,71,4,96.79652594008918,226.7489,mp-27713,VBr2O,https://materialsproject.org/materials/mp-27713,0.7037832902415292,-50.46406435292325,0.03762379976135289,-47.930478904912185
-1.8199573,-7.2798292,3.875493858055824,0.2741786378515623,0.015561700000000001,0.0,139,4,136.54190055157034,318.672,mp-972874,SeBr3,https://materialsproject.org/materials/mp-972874,14.130286294540156,12.06793897896558,-26.2732173510785,3.6290362961341947
-5.5203574433333324,-66.24428932,3.762583370964245,-4.0252593007933335,2e-07,6.7312,36,12,165.86805507359423,375.8372256,mp-1095258,SrMgF4,https://materialsproject.org/materials/mp-1095258,-14.890532827968045,-26.199000361159786,21.597608728721013,-48.88926288808647
-5.511923958125,-88.19078333,6.337162335331189,-1.2422745123437506,1.5e-07,0.0,223,16,310.1211082790182,1183.524,mp-15227,NdPd3S4,https://materialsproject.org/materials/mp-15227,1.8615913784367688,-58.17427795080288,16.85077189299243,-44.7136644037837
-6.60655078,-158.55721872,3.5260331188925744,-2.929749668852116,0.0,4.7092,15,24,407.35938877712687,864.9978480000001,mp-14354,Rb2SrP2O7,https://materialsproject.org/materials/mp-14354,-9.320141386555846,-31.281222917565078,-4.694822734627251,-29.95769300653764
-5.415219662,-108.30439324,6.662092326951813,-0.2331286452499995,5e-07,0.0,186,20,572.4909362747842,2296.83698,mp-573855,La7Ni3,https://materialsproject.org/materials/mp-573855,34.13291070438327,-48.098278511157616,31.38611960367372,-28.066562226833746
-7.0015803085714285,-98.02212432,3.547014693810991,-1.5039418837500012,5.0051152000000005,0.0,141,14,298.7261778286475,638.0977,mvc-16728,Y(VS2)2,https://materialsproject.org/materials/mvc-16728,3.8086825918391667,28.34386216321239,-19.202060381096125,-77.33962334475092
-5.708436939671053,-867.68241483,3.634340176593777,-3.4504306029457896,15.001276975,3.2949,1,152,2144.4960809111267,4693.553164159999,mp-1180754,Na3Sr4Cr5F26,https://materialsproject.org/materials/mp-1180754,-15.099649256166884,-24.862320370520248,-15.635198391675267,-18.518611593895084
-4.288515475,-42.88515475,3.1115290872145063,-0.5621707691994053,0.0,1.3214,12,10,250.86575783444718,470.07392400000003,mp-5470,AgPS3,https://materialsproject.org/materials/mp-5470,-8.746236749273779,5.1858245266044465,-37.94313649201489,-44.906535660758784
-7.1178071564285705,-298.94790057,4.537097046557425,-3.404003167267552,0.0,5.0723,176,42,725.0639604628344,1981.0949784000002,mp-1214497,Ba5P3O12F,https://materialsproject.org/materials/mp-1214497,-24.928100350395088,-24.612779650844914,-20.28254200535762,-10.852783469510848
-3.6884253166666663,-110.6527595,3.908629171556068,-0.9754974376000002,2.0000175833333333,0.0,173,30,1192.1296015236962,2806.0722600000004,mp-640578,KTiI3,https://materialsproject.org/materials/mp-640578,9.620412114413213,7.582019146449907,-19.834241639264718,-14.877157932065867
-7.3277310646666685,-219.83193194,5.130950425273365,-2.9472303012239998,1.0,2.2501,11,30,387.50185919380897,1197.35386,mp-1194534,La3VH3O8,https://materialsproject.org/materials/mp-1194534,-13.156674098244164,-34.53796275380971,-31.80686630375689,-46.35562291857743
-2.4775048614285717,-34.68506806,3.742790929959407,-1.1372007579556649,0.0,3.11,11,14,660.1377236684805,1487.92496,mp-30018,Rb2ZnI4,https://materialsproject.org/materials/mp-30018,-7.9683184906210025,-8.446171744258105,-39.9149354437502,-14.699851005765426
-3.997282056,-19.98641028,2.314534098725797,-0.007046925999999587,0.0,0.0,164,5,96.45195390081885,134.4390772,mp-3833,Mg(AlSi)2,https://materialsproject.org/materials/mp-3833,32.984102008070266,-3.80306881996331,52.99605195248168,-3.5645172798155063