energy_per_atom,energy,density,formation_energy_per_atom,total_magnetization,band_gap,sgr,num_sites,cell_volume,weight,mp_id,formula,URL,tsne_cry_0,tsne_cry_1,tsne_xrd_0,tsne_xrd_1
-5.7114890125,-45.6919121,6.8677873182642815,-1.821261145937501,1.0094597,0.0,129,8,166.0031452945585,686.5688,mp-22620,CeZnSbO,https://materialsproject.org/materials/mp-22620,19.544492990613307,-38.56706850726004,20.083225936180266,-40.67631308882455
-5.22241534,-41.77932272,5.332135979282745,-2.146813991082975,0.0007294,2.3326,194,8,227.9412653397097,731.9393238,mp-1078990,CsTmS2,https://materialsproject.org/materials/mp-1078990,4.765440433572046,-3.945587389430908,-3.304670089345048,-6.25370612841252
-5.678696193333334,-68.14435432,4.6278347305323795,-3.456425349126667,4.00000045,3.3577,36,12,193.1616119871705,538.3312255999998,mp-554451,BaFeF4,https://materialsproject.org/materials/mp-554451,-13.035965758725052,-22.422112610528092,-15.897146315899615,-17.02642509209573
-6.9110698323076925,-539.06344692,5.45970479467087,-3.1301523370192315,1.7254871833333334,0.0,14,78,1718.1774607854584,5649.2148,mp-778589,Ba4Ce2O7,https://materialsproject.org/materials/mp-778589,-4.876436182376398,-62.12093053532112,-25.704624182969784,-55.067974117812575
-4.85655562,-43.70900058,3.549968798734888,-1.5551451131752871,0.0,0.7836999999999998,121,9,284.22602359456755,607.6301076000002,mp-645303,Cs4CO4,https://materialsproject.org/materials/mp-645303,-8.370589062016636,-15.031764833156712,-30.16489362029911,-17.41522522332169
-3.33674857125,-133.46994285,3.59312946231215,-0.4648651553879308,0.0,0.8526000000000002,14,40,1443.7408746703018,3124.0144,mp-15416,Rb2GaAs2,https://materialsproject.org/materials/mp-15416,-8.964327449359581,-3.7163668001903023,-29.607373162289573,-44.1045437758455
-7.425336274583334,-178.20807059,3.0242661828421262,-3.411200377187501,0.0,4.9937,113,24,282.59072325910006,514.6699639999998,mp-6208,Ca2BeSi2O7,https://materialsproject.org/materials/mp-6208,-17.791596699426,31.60016860566596,-11.518380140773587,15.314507843032223
-6.4394244085,-128.78848817,6.141797774224652,-2.5103534876875004,0.0,1.0595999999999997,11,20,462.97443081302737,1712.3929400000004,mp-1106254,La(LuS2)3,https://materialsproject.org/materials/mp-1106254,8.79389953268604,-3.089540258128128,-5.228075459523048,-14.359830689192442
-6.2818429432142855,-351.78320482,5.487109446516002,-2.1704575185714283,11.99987195,0.005399999999999849,176,56,993.2415262527562,3282.0818,mp-1197276,La7(IO6)3,https://materialsproject.org/materials/mp-1197276,-11.27851055161119,-28.03569920390944,-30.954015923819924,-45.6898714175817
-3.8672485675,-15.46899427,7.9533954890998695,-1.973498915595,3.5e-07,2.9894000000000003,129,4,93.27690028583592,446.76340639999995,mp-557835,TlF,https://materialsproject.org/materials/mp-557835,-26.879854696809502,-64.16698741635918,-20.221075725074147,-67.70435694335912
-3.8889936396428575,-217.78364382,4.181064578206292,-0.6042329246028325,0.0,1.0364999999999998,14,56,2029.4017047463653,5109.822399999999,mp-505750,Rb(SnSe2)2,https://materialsproject.org/materials/mp-505750,-4.687190624927843,1.2215320642941356,-38.158118773847896,-35.13850863832091
-3.94522261125,-31.56178089,4.419296060799363,-0.5615193067968751,3.85e-06,0.8416999999999999,9,8,180.1953808637492,479.5652,mp-1078724,LiAsSe2,https://materialsproject.org/materials/mp-1078724,-4.902938220056024,-1.0060109455040365,-28.929081102225485,-36.36328241383485
-7.409074954736843,-281.54484828,4.886576509391212,-3.017102593289473,0.0,3.2479,8,38,612.3766165894804,1802.0806,mp-1228766,Ba3NdV3O12,https://materialsproject.org/materials/mp-1228766,-10.432381472204758,-31.419545246768166,-18.042430123746687,-30.939955512141797
-5.24954457125,-83.99271314,3.013311617211738,-1.8342638738412504,1.65e-06,4.1798,1,16,153.91319582739575,279.29992000000004,mp-626755,SrH4O3,https://materialsproject.org/materials/mp-626755,-15.996673729954546,-27.16079525860514,-34.496583852146436,-35.26350665214308
-5.9430159065,-237.72063626,6.3822147997307574,-0.481093361,0.000781575,0.0,62,40,1116.082631046683,4289.61856,mp-505137,Nb3SiTe6,https://materialsproject.org/materials/mp-505137,21.270649620776595,1.5244114060614322,-0.3305234898166632,-16.94380297812583
-5.6842431641,-568.42431641,4.884183121264327,-2.608738738475,7.014799999999999e-05,1.7494999999999998,1,100,2606.418174148523,7666.3200000000015,mp-1245276,BaO,https://materialsproject.org/materials/mp-1245276,-3.730069458144185,-24.780695989836826,-21.642890267981095,-32.17451066348092
-4.4269591125,-106.2470187,4.366731998337887,-0.7298176754166666,3.75000015,0.415,1,24,471.0382243124308,1238.69276,mp-1181939,CoBrO,https://materialsproject.org/materials/mp-1181939,11.960300671092186,-17.770833051177643,0.2520399504073961,-20.5724032569025
-6.2506627925,-100.01060468,7.1820746590132405,-0.37367185,0.004687175,0.0,14,16,376.4400328332827,1628.1583,mp-571471,NbCoTe2,https://materialsproject.org/materials/mp-571471,20.541154429026452,4.204393199026853,15.302095316838482,-10.083872427305923
-6.201821684166667,-74.42186021,6.743821687497876,-3.0391179074279173,1.5e-07,2.833,62,12,258.9255815340631,1051.5548927999996,mp-1095263,HoSeF,https://materialsproject.org/materials/mp-1095263,15.754207698555513,5.119232006288723,4.936641011193447,-7.70376533435921
-7.6631558625,-705.01033935,3.396050554554832,-3.1502768348369568,0.0,4.7946,62,92,1065.4094231570523,2178.9215280000003,mp-1020637,Sr3BeB6O13,https://materialsproject.org/materials/mp-1020637,-18.8855900687128,-29.38572176970155,-7.5653719954324625,-15.486964834361348
-2.968653792,-29.68653792,3.25144043397899,-1.212120823368965,0.0,2.9048,225,10,390.3752896289046,764.3795,mp-1114654,KRb2AsBr6,https://materialsproject.org/materials/mp-1114654,2.332420178047315,7.291781889693258,-34.299380306599396,-69.72047559376742
-6.6035340929999995,-264.14136372,5.952131602253657,-2.442382671437501,0.9341395375,0.0,11,40,904.4497493613324,3241.96168,mp-541836,CeTmS3,https://materialsproject.org/materials/mp-541836,12.394042675602744,-6.407553990955,-2.9588180767896417,-12.988719421879672
-5.690254772327586,-660.06955359,3.0062861011378534,-2.168110335377241,1.875e-06,3.8859,230,116,1150.9128323811688,2083.6446288,mp-24126,Sr3Al2(HO)12,https://materialsproject.org/materials/mp-24126,-15.80504162301028,-27.14361285226917,-26.907378617627373,-42.18340456249814
-3.3540675625,-40.24881075,4.365694297085015,-0.15806019393413764,0.0,5.0054,15,12,140.67142659043418,369.8368,mp-676103,RbClO4,https://materialsproject.org/materials/mp-676103,-19.082028962997857,-24.921699819545594,3.904137472054984,-11.57272771126634
-6.3822685295,-127.64537059,6.046280194463918,-2.483654369687501,0.0,1.0168,11,20,463.2786062694643,1686.8692600000002,mp-1209868,Nd(TmS2)3,https://materialsproject.org/materials/mp-1209868,8.741245738401297,-3.0579353587007465,-5.228321054352055,-14.37376721443341
-4.170067277884615,-216.84349845,4.278936899550963,-0.7481920272162352,0.0,1.7025,15,52,1478.198262950838,3809.0746076,mp-554408,CsAgSb4S7,https://materialsproject.org/materials/mp-554408,-8.191925188312357,-8.083436925031169,-22.493659632708322,-31.666852873539987
-3.0825952555,-61.65190511,4.996869816501325,-0.3895851407413794,1.07e-05,0.6200999999999999,14,20,855.1223920200033,2573.2218076,mp-1178386,CsTe4,https://materialsproject.org/materials/mp-1178386,18.57953093422401,-8.93033990636762,-19.126188836257857,-13.651571929402595
-5.735815948775509,-281.05498149,3.767636160939392,-3.9959690059073463,0.0,6.9476,12,49,646.6301909090125,1467.15447896,mp-555865,Na2Sr7Al6F34,https://materialsproject.org/materials/mp-555865,-14.93047789764574,-25.986829697409377,-15.294583511473169,-16.708732277078443
-3.844389076666667,-46.13266892,2.423860585654129,-2.5251270903212077,0.0001475,4.8732,139,12,400.5872544079428,584.7304,mp-1209277,Rb3Ca2Cl7,https://materialsproject.org/materials/mp-1209277,-5.207403187147203,13.728929547048491,-23.03360926661671,-22.338120195683093
-5.8875010625,-23.55000425,5.9270107237457506,-2.811996636875,1.4300000000000002e-05,2.3711,194,4,85.91328240477726,306.6528,mp-1008500,BaO,https://materialsproject.org/materials/mp-1008500,3.663890413155986,-60.36782964156825,-4.1762110299571,-86.454331621274
-3.0770561959375,-393.86319308,5.340070987911754,-0.21551920046336195,0.00088585,0.11349999999999973,130,128,5105.2150157370115,16417.6872304,mp-1205022,CsTe7,https://materialsproject.org/materials/mp-1205022,18.673843559965214,-9.009527516545637,-9.396180655170118,-18.808516428923088
-5.656525011166668,-339.39150067,4.683314339720075,-3.307512926626667,11.9999996,3.4795,14,60,896.585557598009,2528.692128,mp-28359,Ba2Fe3F10,https://materialsproject.org/materials/mp-28359,-13.919751011379562,-20.951431206287296,-14.027758435267694,-19.302817056537947
-7.5240325809090915,-248.29307517,5.955521872015072,-3.205867763939393,4.9999995,0.02210000000000001,1,33,452.8665714298193,1624.2055779999998,mp-675648,Pr9Be4O20,https://materialsproject.org/materials/mp-675648,-17.142801014396614,-33.35608496390333,-4.65065551149578,-42.25404056385288
-3.6923328541666662,-44.30799425,4.492498617945194,-1.0017924427538312,0.0,1.4199,139,12,309.5022469371468,837.3416,mp-8603,RbAgO,https://materialsproject.org/materials/mp-8603,-2.8613066029839125,-35.029840574265755,7.585220053540532,-53.92474579975023
-6.33264324825,-253.30572993,6.8097453546393165,-2.4270276486875004,1.69875e-05,1.9723,122,40,840.2261339164589,3445.704,mp-684708,Er2S3,https://materialsproject.org/materials/mp-684708,15.597135181627422,-4.236904191774569,9.313459328576606,-9.857532769722958
-4.459941764,-89.19883528,4.6812839575300735,-0.5535980632514879,0.0,1.7753,163,20,576.4249629098283,1625.0198679999999,mp-13385,TmAg(PSe3)2,https://materialsproject.org/materials/mp-13385,17.682291726158848,2.016639851199821,-0.5473695212743594,-16.18770249820098
-3.1173483487878784,-205.74499102,4.850405081650226,-0.37378591191919175,0.046308499999999996,0.0,2,66,2440.354428737762,7128.232,mp-1199238,InTe14(IrBr8)2,https://materialsproject.org/materials/mp-1199238,8.003598951573395,1.2442837918386134,-1.2086648245288527,-21.77844182375081
-5.945831692857142,-83.2416437,5.977988290680982,-2.4206102794642863,9.000000000000001e-07,2.2745999999999995,122,14,305.7742244034426,1100.7959999999996,mp-38728,Sr(ErS2)2,https://materialsproject.org/materials/mp-38728,18.196195548893677,-4.245342393708911,8.978476563513153,-8.855310426891114
-7.749305340595237,-650.94164861,4.762099539008104,-3.3677129647222226,0.0,4.571199999999998,33,84,1097.1195505808253,3146.3232,mp-6249,Sr3Nd2(BO3)4,https://materialsproject.org/materials/mp-6249,-17.6591776399292,-32.74017605414158,-18.341136775618185,-34.44183353828792
-4.602502795,-18.41001118,4.305241868499195,-0.4638993344999998,4.000018799999999,0.0,119,4,134.7010464853555,349.2363450000001,mp-10286,KMnTe2,https://materialsproject.org/materials/mp-10286,-7.858150126301316,-11.822583592665307,-34.13975550411702,-13.324747965073655
-6.679823545277778,-240.47364763,3.0742026189974214,-2.900292964659962,0.0,4.0394999999999985,15,36,663.5314327991232,1228.4144,mp-28971,Rb2Si2O5,https://materialsproject.org/materials/mp-28971,-5.007339750777374,-32.94714847215565,-7.01443894738634,-29.674652849766172
-8.67068721775,-346.82748871,5.794350084157309,-2.0918276975208343,21.001727300000002,0.9611,18,40,892.9320118623352,3115.8320000000003,mp-1201973,Gd3InS6,https://materialsproject.org/materials/mp-1201973,12.764724314499936,-5.770624724292916,-3.1693396300889267,-14.449216468672265
-3.5151179528571435,-98.42330268,4.554239314565155,-0.7949472784729065,4.0,0.9283,194,28,1263.5597507531866,3465.4731714,mp-571531,Cs3Mo2I9,https://materialsproject.org/materials/mp-571531,9.054786873398653,7.899857091404227,-19.42440832276269,-15.33663054322117
-5.777143475982142,-647.04006931,4.640708465131857,-2.260267379732144,1.875e-08,1.7906,227,112,2761.945905927013,7718.810240000001,mp-1232270,Ho2MgS4,https://materialsproject.org/materials/mp-1232270,13.43807102922202,8.268353317820225,-24.872969669611198,-77.52380478723983
-6.2850419015,-251.40167606,6.92550637486989,-2.4151194719375004,2.375e-07,2.0033000000000003,122,40,832.6082925706157,3472.50736,mp-32933,Tm2S3,https://materialsproject.org/materials/mp-32933,15.361432933254829,-4.208597250135174,9.298102250043641,-9.918418068529002
-4.290147337142857,-60.06206272,4.6867494705315735,-1.6444780766071436,2.575e-05,0.0,227,14,353.34489065697187,997.29,mp-8272,Yb2MgS4,https://materialsproject.org/materials/mp-8272,13.640459842501386,8.097065905536537,-25.081249704776212,-77.24664686708985
-7.032227580909091,-618.83602712,3.9948374631320505,-2.7265217412500005,2.5e-08,3.1686,92,88,1335.1835741432926,3212.1144000000004,mp-561266,Sr3V4CdO14,https://materialsproject.org/materials/mp-561266,-25.205759034507018,-35.21863721791148,-8.212667449790745,-29.26802867490095
-5.77718282125,-647.04447598,4.705708839331369,-2.2633497507142866,0.0,1.8482,227,112,2750.0905469034315,7793.327999999998,mp-1232129,Er2MgS4,https://materialsproject.org/materials/mp-1232129,13.404200185083768,8.295903248367859,-24.854968721923537,-77.53871370589444
-6.01528984,-84.21405776,3.0505038864991763,0.045948867221785664,0.0,3.0736,82,14,325.37356879182965,597.7295999999999,mp-542942,ZnCdC4(SeN)4,https://materialsproject.org/materials/mp-542942,-27.711489758884326,-11.87025854715605,-26.30979970192419,-2.547864467124914
-5.229270574583333,-125.50249379,5.3379272827364765,-1.7701292270833342,2.0000065125,0.23150000000000004,14,24,421.3951767961735,1354.6064,mp-1182141,BaO2,https://materialsproject.org/materials/mp-1182141,14.539139111380196,-6.034808882098652,-1.3841026291221434,-13.254489734124672
-7.143280066538463,-185.72528173,2.940126405736413,-2.981447412611722,0.0,5.2819,9,26,369.90251799981115,654.9440480000002,mp-1223450,KSrB(PO4)2,https://materialsproject.org/materials/mp-1223450,-28.16813297018752,-24.178933286497355,-23.900881323701558,-3.8856649287307214
-4.800320193999999,-48.00320194,4.304682216077912,-3.0870059444496314,0.0,3.2430000000000003,225,10,161.9292665249481,419.7757578,mp-1113857,Rb2AlAgF6,https://materialsproject.org/materials/mp-1113857,-19.752267590380466,-91.16798635466131,-29.60612447865875,-89.16352267131991
-6.4795145359459445,-239.74203783,5.8198698921999625,-2.5291065071452707,0.0001607,0.0,12,37,884.7563718411449,3100.90088,mp-1199854,La4(ErS2)11,https://materialsproject.org/materials/mp-1199854,8.70408705756491,-2.9865283657966706,-5.214199645591986,-14.449690471284034
-5.729921841785715,-160.43781157,5.424360319459342,-2.198930629821429,5.25e-07,2.2250000000000005,122,28,576.0263617272285,1881.6628,mp-1232385,Tb2MgS4,https://materialsproject.org/materials/mp-1232385,19.178888095448453,-3.5124159104581896,7.507119806175183,-8.915739895627876
-3.1862213716666665,-38.23465646,7.649715236067919,-0.07422875111111082,0.0,0.0,13,12,353.9292951212445,1630.4695379999996,mp-3291,AgTe4Au,https://materialsproject.org/materials/mp-3291,30.3299458394178,-5.320126849155638,8.202064080702824,7.559113428477535
-3.5970547589999997,-35.97054759,3.863184144736802,-0.4501936904827592,0.0,0.5720000000000001,69,10,421.7350650215387,981.1514076,mp-15557,Cs2As3,https://materialsproject.org/materials/mp-15557,-7.593561306857005,-6.268082588761263,-29.887176638260602,-48.01372786933635
-4.2565202006666665,-127.69560602,3.755476800926791,-1.0213636817708334,2e-07,2.3988,169,30,744.7891907920656,1684.4160000000004,mp-504951,InGaS3,https://materialsproject.org/materials/mp-504951,-6.942634044172702,-1.0027098909133931,-36.813837074143976,-48.8147786206177
-4.753082408571428,-33.27157686,3.1753714644281774,-1.6285593830357157,2e-07,1.052,12,7,171.06833014160773,327.126,mp-866522,Ca2SnS4,https://materialsproject.org/materials/mp-866522,-4.812623918049066,2.7176872542712207,-37.934088213485076,-35.99453960829081
-3.48692718,-24.40849026,5.152669765534901,-0.5760059408630954,0.0,0.9545,82,7,212.01573109063253,657.887,mp-22304,Cd(InSe2)2,https://materialsproject.org/materials/mp-22304,15.521308580353349,14.754604218428087,5.852725832710098,-16.554654343701802
-4.5583670725,-54.70040487,4.860241976770259,-0.008946316150793741,0.0,0.6188000000000002,14,12,232.07539102425577,679.262896,mp-8200,AgP2,https://materialsproject.org/materials/mp-8200,11.759901565980073,28.567840114572235,-14.817446342740507,-32.14068006730114
-8.268487180227272,-363.81343593,4.568742598262976,-3.696785022613638,0.0,4.7843,14,44,648.3739736377618,1783.9109600000004,mp-5732,La2Si2O7,https://materialsproject.org/materials/mp-5732,-25.049970203743936,-36.87261285040545,-30.954808484780727,-45.597516567208956
-5.390334445,-237.17471558,4.315814503876648,-1.5428660928787878,0.172416775,0.0,15,44,1301.7991336284556,3383.4336,mp-29485,Y4BBr6,https://materialsproject.org/materials/mp-29485,21.223849895106355,-0.4964357811347427,13.638832086171933,2.6393983797236995
-7.157271298043479,-1316.93791884,2.9945347446415926,-3.2933333294565235,0.0,4.7063,1,184,2343.9641684180897,4226.990136,mp-686484,LiCa9Mg(PO4)7,https://materialsproject.org/materials/mp-686484,-18.6323088755147,23.885456700587753,-12.882692838278725,15.302858882075595
-7.548034499583332,-543.45848397,3.234728983985688,-2.977777373997407,0.000691725,4.7728,14,72,801.4313523898053,1561.18776,mp-1202819,Sr2B5HO10,https://materialsproject.org/materials/mp-1202819,-18.811332218106926,-29.26706274860005,-32.93562638097132,-34.96177376031747
-3.4853462614285715,-97.58969532,3.780712747582616,-0.8266249713258931,2.5e-08,2.0466,198,28,751.2466531499499,1710.43723136,mp-1193265,Na3SbSe3,https://materialsproject.org/materials/mp-1193265,-1.2946662863266625,0.4702275840290813,-10.956469463876417,-19.280461172366756
-4.3668280184375,-279.47699318,4.284751450759972,-0.8409245485625005,0.0,0.0,14,64,2245.2785344017843,5793.576799999999,mp-30280,K4(TiTe3)3,https://materialsproject.org/materials/mp-30280,13.745861423382108,0.041574298810047636,-16.49874143420385,-5.61532453339925
-5.1752614433333335,-93.15470598,4.664802749006449,-1.2400776033333338,0.3333333333333333,0.0,148,18,536.1621385316635,1506.192,mp-28495,ZrBr2,https://materialsproject.org/materials/mp-28495,18.007648839817808,2.363607301696352,-0.2775786387429406,-16.760926296512597
-5.222059075,-20.888236300000003,5.307530524198635,-2.146457726082974,0.0,2.175,166,4,114.49899501657715,365.9696619,mp-9089,CsTmS2,https://materialsproject.org/materials/mp-9089,4.764783050179839,-3.9243657001230137,-3.24934156815272,-6.101680490895451
-4.998566222222221,-179.948384,5.282799273659223,-0.6076248332638888,0.0,0.25929999999999964,15,36,1284.7539637311681,4087.2856,mp-558408,Nb4Te9I4O,https://materialsproject.org/materials/mp-558408,14.266023822490425,0.7820477869288884,-14.568659557392175,-5.681429925655947
-7.587055237272727,-584.20325327,3.303681464863621,-3.0100255777942437,0.0,4.2701,2,77,825.6620587810471,1642.67408,mp-1199637,Sr8Li2B22H2O43,https://materialsproject.org/materials/mp-1199637,-18.881742306795164,-29.32871627178545,-8.731824650334136,-16.864973913652133
-3.5551571958749997,-284.41257567,2.573012640370941,-1.1264219531130002,0.0,2.2583,73,80,1524.9505041442148,2362.9176,mp-568365,Li6Br3N,https://materialsproject.org/materials/mp-568365,-7.811635656370224,-16.334519472344947,-27.79211586828384,-64.69711045813425
-4.065927495,-32.52741996,3.6503119133324233,-0.8115337499657747,1e-07,1.2736999999999998,121,8,188.36112165441153,414.068462,mp-12532,KAg2PS4,https://materialsproject.org/materials/mp-12532,-2.036373118280705,8.84683924900674,-34.49606850835352,-51.397246666495
-3.7729341928571434,-105.6421574,4.324988916745775,-0.7317508647886909,2e-07,1.7039,2,28,726.0927319560442,1891.1588,mp-1192667,KAg2SbS3,https://materialsproject.org/materials/mp-1192667,-3.162088637217118,-3.2393737865090686,2.3710213278665786,-23.566623035911928