energy_per_atom,energy,density,formation_energy_per_atom,total_magnetization,band_gap,sgr,num_sites,cell_volume,weight,mp_id,formula,URL,tsne_cry_0,tsne_cry_1,tsne_xrd_0,tsne_xrd_1
-4.8007498478571415,-67.21049787,4.12021510108778,-0.8925671541071429,0.9999998999999999,0.28190000000000004,2,14,277.46357852217915,688.45694,mp-1182264,BaIO5,https://materialsproject.org/materials/mp-1182264,-33.28804169698765,-28.148600543640004,-38.24906048497096,-23.016731073707877
-5.793945724285713,-324.46096056,4.508748510540348,-2.2289551687500007,6.6625e-05,1.3662999999999998,29,56,1303.9475739568836,3540.52,mp-1232275,Pm2MgS4,https://materialsproject.org/materials/mp-1232275,12.458365401955845,5.0239005449248415,-10.633078018824362,-8.309450751632475
-3.2775570333928568,-183.54319387,3.5540002704662634,-1.025035542165715,0.0028506,1.2205,14,56,1905.8856406580053,4079.1079999999997,mp-1195835,Ga2SbTe4Cl7,https://materialsproject.org/materials/mp-1195835,13.676622042663324,-0.5912041593482168,-15.734627176173847,-6.182233902704978
-3.83833001,-23.02998006,4.989100527655535,-0.2397200149999996,5e-08,0.19199999999999973,166,6,179.70537910414745,539.9259999999998,mp-8211,GaGeTe,https://materialsproject.org/materials/mp-8211,15.224885758321314,15.72248958458536,5.878285863146283,-16.885834285750295
-6.90332189875,-220.90630076,6.313975408083247,-2.314694560664063,2.37e-05,1.0820000000000007,62,32,672.7760349442262,2558.140000000001,mp-1202520,Sm2HfS5,https://materialsproject.org/materials/mp-1202520,13.65053081008327,-6.32832110103751,-0.8328866417011398,-12.108588393801938
-7.588003499,-151.76006998,6.412060392633991,-0.13924676824999974,0.002834475,0.0,220,20,329.2533033960919,1271.3896,mp-683,Pr2C3,https://materialsproject.org/materials/mp-683,10.353233813594636,-58.68237665127897,21.62105602267717,-39.42900735455028
-6.8695165645000005,-137.39033129,5.73821487927429,-2.992012426750001,1.0182034,0.0,62,20,377.624327392895,1304.9314,mp-22705,BaPrO3,https://materialsproject.org/materials/mp-22705,-50.79176207891245,-71.14407588662255,-60.1820114207577,-61.55807085770326
-6.010143859285713,-84.14201403,3.838575134701997,-2.0519757451785714,1.1e-06,1.1108000000000002,227,14,362.0650040857184,836.9654,mp-35785,Y2CdS4,https://materialsproject.org/materials/mp-35785,10.829938481611958,12.535771313521009,-21.00591025142071,-74.7319754189536
-7.033729092857143,-295.41662189999994,4.624319404691646,-3.1381462878656468,1.01e-05,4.0577000000000005,11,42,617.9004094094469,1720.7477720000004,mp-1218632,Sr4BiP3O13,https://materialsproject.org/materials/mp-1218632,-28.57684296613207,-45.32905567647824,-23.43886987148249,-38.99096624807606
-5.562114200750001,-222.48456803,4.553010496980745,-3.3277179935829992,7.01029295,0.8829,15,40,534.2852059818058,1464.9496896,mvc-2271,Ba2MgCr2CuF14,https://materialsproject.org/materials/mvc-2271,-14.592093163886625,-20.912284855155576,-12.968194634026315,-18.370131694564694
-6.313921268362068,-732.41486713,4.167470250848036,-2.4872079708144823,1.145e-05,3.2627,14,116,1755.908774793434,4406.82056,mp-709350,Sr5As5HO18,https://materialsproject.org/materials/mp-709350,-29.39901965434324,-32.662854918972954,-4.677199164944356,-30.708493921777617
-6.157544453,-61.57544453,4.207113585071822,-4.270041247083,0.0,5.8457,8,10,138.95352306339865,352.0502924,mp-676459,Ca2LaF7,https://materialsproject.org/materials/mp-676459,-12.836568168657674,-27.16404296752205,-15.324097645025564,-73.83941967696394
-6.676425946071428,-186.93992649,3.5240346101951663,-2.8053896907857143,0.0,3.8592,62,28,455.4796889269738,966.6296,mp-17541,KSrVO4,https://materialsproject.org/materials/mp-17541,-22.16911080208384,-30.546798582129412,-8.166497302627011,-23.638535367829732
-2.756075025,-11.0243001,5.433842047557469,-0.714812749963333,1.45e-06,0.8739999999999999,11,4,87.59564439920571,286.6424,mp-570687,AgCl,https://materialsproject.org/materials/mp-570687,20.27362535941157,7.55162337855419,6.478288700628988,-9.984819283568305
-6.177902815357142,-172.98127883,3.9465504903779616,-1.0148753533928578,2.998075625,0.0,31,28,563.858407310699,1340.1044,mp-1239236,ZrCrCuS4,https://materialsproject.org/materials/mp-1239236,-21.465664188097094,10.172962566391892,-33.42036675522875,-37.654078662325524
-4.968781437142857,-34.78147006,3.764384793023944,-0.8545742385119048,4.6268415,0.0,160,7,162.21642428437374,367.73904500000003,mp-1221817,MnInGaS4,https://materialsproject.org/materials/mp-1221817,-2.0040682725689183,9.734348178850349,-13.836817504860608,-71.05407111531902
-4.6840636416666666,-562.087637,5.484523000553549,-1.6743706823333329,0.000855025,0.4748000000000001,88,120,3915.8056131153508,12933.346000000001,mp-1203586,Tb5RhBr9,https://materialsproject.org/materials/mp-1203586,20.20307498319804,0.480982844364585,12.88266780640949,2.7817136631370754
-4.590259272857144,-64.26362982,4.0032783258505615,-1.753660815326355,0.0,2.3729,12,14,353.53923287285306,852.3231999999998,mp-754047,Rb3SbO3,https://materialsproject.org/materials/mp-754047,-4.4954392142841275,-29.703803149976054,-5.0572226172540535,-32.2010290651225
-4.126454734545455,-45.39100208,2.7367067766277846,0.08344574477272718,0.5793191999999999,0.0,123,11,150.24361300307584,247.614,mp-1208655,SrO10,https://materialsproject.org/materials/mp-1208655,-24.080188961718417,-4.526432620645354,-11.710990956512845,-4.095278852336044
-5.781223445,-23.12489378,3.570777470792505,-2.1780350221174576,0.0,2.3166,166,4,110.9127144569995,238.50365,mp-999265,RbYS2,https://materialsproject.org/materials/mp-999265,5.168610873775121,-3.799831439480364,-3.237107812988836,-5.369521658401451
-2.4793164905,-49.58632981,4.340095795004824,-0.40081172722413816,4.26e-05,0.4411000000000001,11,20,943.0702499356227,2464.8714228,mp-9697,Cs6GaSb3,https://materialsproject.org/materials/mp-9697,-6.564643014969671,-13.347966260871393,-40.99269399849045,-13.905758322710517
-5.5532493545,-222.12997418,4.375089580666796,-3.313485630679,8.99995325,1.0988,15,40,572.4523641627799,1508.2634695999998,mvc-2247,Ba2CaMn2CuF14,https://materialsproject.org/materials/mvc-2247,-14.809748185033262,-21.26320514306697,-13.65124417527007,-18.09212886768264
-2.656417831666667,-15.93850699,7.174560315754661,-0.5771906466666664,5e-08,0.07679999999999998,194,6,211.3709905129769,913.254,mp-11819,BaSnHg,https://materialsproject.org/materials/mp-11819,9.216831712519953,-35.235046189256416,-24.197812183025626,-67.45645660919823
-5.495130866875,-87.92209387,6.461725566942422,-1.2315747292187504,1.145e-05,0.0,223,16,307.28729375765715,1195.76,mp-1106349,SmPd3S4,https://materialsproject.org/materials/mp-1106349,1.8546965789514531,-58.18696615414496,16.849461033555787,-44.65187597033802
-2.9653007282142854,-83.02842039,5.990553217728954,-0.2603452610714285,0.000331375,0.22270000000000006,1,28,942.9394098976418,3401.744,mp-675792,Ga2HgTe4,https://materialsproject.org/materials/mp-675792,19.29059338683125,13.998202835915114,-12.058647829774447,-13.067706763198114
-6.248083830714287,-174.94634726,3.8185837804809135,-2.1914013444642864,0.0,2.2591,122,28,574.6668815392878,1321.5068,mp-1232030,Y2MgS4,https://materialsproject.org/materials/mp-1232030,19.199338098069514,-3.4398958566279445,7.705173702598446,-8.959691280576964
-5.971431541666668,-35.82858925,6.178480022590171,-2.1193309543750005,1.5e-07,0.0,129,6,119.89748786161371,446.1107,mp-7135,TbS2,https://materialsproject.org/materials/mp-7135,15.099499062684965,-5.864024659173018,4.268053264955362,-9.074810599017347
-6.4195961975,-25.67838479,6.100340943693364,-0.1819929321484368,9.1590845,0.0,166,4,86.13526456306955,316.43609,mp-1221790,Mn2TeSe,https://materialsproject.org/materials/mp-1221790,22.625403223283033,8.33908871283111,57.813598490857316,-26.8711562224713
-5.1842446857499995,-207.36978743,6.4098921643681575,-1.6832718201874997,1.22653715,0.0,58,40,791.1719285237727,3054.0244,mp-1207688,Yb3CrS6,https://materialsproject.org/materials/mp-1207688,12.942800437191627,-3.649615164583344,-4.361691020553177,-17.487262785763054
-3.570262390909092,-78.54577259999999,6.872970172347664,-1.7681157364729545,4.0000001,2.0224,227,22,321.1511512950624,1329.2444384000005,mp-18626,Ni2Hg2SF6,https://materialsproject.org/materials/mp-18626,-19.86964671063064,-75.58414599058592,-3.2383938077985874,-77.76295933613301
-8.32074698125,-732.22573435,5.057449855791222,-3.565820878636365,1.0345926625,0.0,76,88,1177.8010406355895,3587.1904000000004,mp-672208,Ce2Si2O7,https://materialsproject.org/materials/mp-672208,-20.19814623007716,-35.79890170055421,-18.821562395564946,-32.2741898340206
-5.254239495,-42.03391596,5.160240119300797,-2.153667267332975,0.00509745,2.3277000000000005,194,8,232.95749092587852,723.9315437999999,mp-1078726,CsHoS2,https://materialsproject.org/materials/mp-1078726,4.770780782615505,-3.750522308526368,-3.4420902778793216,-6.297595403841346
-2.990707049814815,-161.49818069,5.509471664924047,-0.13246911740740724,3.8e-06,0.0,223,54,1290.2733489823586,4280.974,mp-1214758,Ba4Zn11Ge12,https://materialsproject.org/materials/mp-1214758,18.99086201480937,23.82735546346832,16.956546444622482,-46.225312907512865
-6.24484290875,-99.91748654,4.3801864689515515,-2.6960056206033616,0.0,3.9698,4,16,275.4735884992968,726.6469837999999,mp-995225,CsBaSiHO4,https://materialsproject.org/materials/mp-995225,-9.346004818421225,-30.76063115382863,-8.55331420522557,-22.566869342028667
-7.962086543448277,-461.80101952,5.195283204347776,-3.5510555805316097,0.0,2.6451,194,58,936.6473444033207,2930.463,mp-16663,Ba6Y2Ti4O17,https://materialsproject.org/materials/mp-16663,-12.201252157346925,-81.93502429509276,13.836746216711813,-71.67927015332991
-4.394047316,-87.88094632,4.71851071871064,-1.5214977200885422,0.0009859,1.1382000000000003,44,20,661.8780611357556,1880.762,mp-1105201,Ba5In4Te4S7,https://materialsproject.org/materials/mp-1105201,5.3852174294521085,-10.379793922396797,-9.437632364891254,-18.79259032104272
-2.407902635625,-38.52644217,6.165989529445684,-0.3789421858072921,1.3025e-05,1.3584,19,16,503.52462695862846,1869.71068,mp-23140,AgHgSI,https://materialsproject.org/materials/mp-23140,-6.512951902368671,-6.582435517920045,-16.602327178245698,-35.37537474631159
-5.1435905262500015,-123.44617263,6.015295862817576,-0.3673173579166675,6.11e-05,0.0,216,24,753.9910592095188,2731.32952,mp-1211476,La4MgRh,https://materialsproject.org/materials/mp-1211476,33.844220918510516,-49.09369806927664,32.680443533599465,-28.072161112230468
-3.3292140871428573,-46.60899722,5.764030488383485,-0.4263644127306548,0.0,0.029900000000000038,166,14,404.06351673246047,1402.5773399999996,mp-1224031,In2AgSe3I,https://materialsproject.org/materials/mp-1224031,16.402450883996096,4.448439582740899,13.699403548788164,14.35992211598371
-4.0868386375,-32.694709100000004,3.7945534662557456,-0.2633992793749993,0.0,0.4390000000000001,20,8,153.55671465007956,350.8975999999999,mp-997011,CuBrO2,https://materialsproject.org/materials/mp-997011,-8.519112202848014,4.939907124716658,-36.393375110690855,-48.76344465735132
-5.024082691818182,-110.52981922,3.3287909156531046,-3.3411220224563323,1.925e-05,5.6909,65,22,370.2483616273008,742.2164448,mp-1223349,KRb2SiF7,https://materialsproject.org/materials/mp-1223349,-29.268906776016504,-19.959995119141823,-1.9149953719012056,-7.392881644721565
-3.9040899347500004,-312.32719478,4.588283651018308,-0.9832214389290002,1.00035505,0.7856000000000001,88,80,2082.140612059472,5753.2232,mp-699570,VTe4Cl4O,https://materialsproject.org/materials/mp-699570,-1.1083916648401408,-7.941483898506003,-20.272048900514413,-27.762869163774468
-6.3024460442857135,-44.11712231,7.049356481968719,-2.38312024375,1.9e-06,0.0,139,7,153.85792202163353,653.1610000000002,mp-1222266,Lu3S4,https://materialsproject.org/materials/mp-1222266,-1.787196786074168,-57.61091779951882,-25.964886682110357,-73.04078246655284
-6.8268501383333335,-163.84440332,5.7224648596536705,-3.1587671951041667,0.7313101,0.0,6,24,341.58249368453363,1177.14415,mp-756936,Sr3Li4La5O12,https://materialsproject.org/materials/mp-756936,12.709338544711585,-61.02777654592131,7.320454766073973,-45.852396500163756
-4.160244989545455,-91.52538977,3.0879171021006604,-1.1066288854583342,0.0,2.1744000000000003,9,22,581.4683450990127,1081.29107712,mp-1190145,Na2In2GeS6,https://materialsproject.org/materials/mp-1190145,-7.2511450031805715,-0.2826855539432076,-37.54534881734972,-45.062795593586245
-6.8425267375,-54.74021389999999,7.072811268083061,-3.124719922765938,0.0,0.4757000000000002,119,8,148.6072552363733,632.9698032000001,mp-1225522,Er3S3OF,https://materialsproject.org/materials/mp-1225522,-1.8907377818093287,-57.703395763675346,3.239925517649467,-51.589721789404486
-6.02245601015625,-385.43718465,2.6475246677100337,-0.3694889470377083,1.875e-07,2.9337,61,64,1320.2968089400467,2105.0504,mp-680197,KAgC2(SN)2,https://materialsproject.org/materials/mp-680197,-29.063595333148953,-4.606057811888948,-30.46460831545783,-34.53212356773925
-2.6675552700000003,-26.6755527,3.2931034457250568,-1.0482091113999998,0.0,1.7713,225,10,456.69856545590034,905.7032586000001,mp-1111183,K3AlI6,https://materialsproject.org/materials/mp-1111183,2.696023777459392,3.5480716261641674,-17.06876418898733,6.731263095329218
-3.676499566,-36.76499566,3.984679095736861,-1.218752633068965,2.9999999,1.2695,225,10,313.8986585271616,753.2406,mp-1114422,Rb2LiMoBr6,https://materialsproject.org/materials/mp-1114422,-0.3867956320020315,15.476855464381336,-26.440246190272237,-71.84614088709598
-4.191721506555556,-377.25493559,2.746530636635363,-1.3723750886111117,2.00001625,3.7564,14,90,1261.20986127456,2086.0404,mp-745114,Cd4NiH20(ClO)10,https://materialsproject.org/materials/mp-745114,-27.37143919976936,-3.0376538512462665,-34.232973035466884,-33.81194898829052
-8.302832810416666,-398.5359749,4.762256551279983,-3.751510787135416,0.0,4.0614,15,48,807.3371715696431,2315.36064,mp-771045,La2SiO5,https://materialsproject.org/materials/mp-771045,-11.415335773355016,-58.66842993040641,-33.63647725925703,-45.88707894058757
-6.397820798,-31.98910399,5.134899260528544,-0.4745254369999991,5.226238700000001,0.0,164,5,96.94934191950618,299.79729,mp-5498,Ca(MnAs)2,https://materialsproject.org/materials/mp-5498,15.498828620958042,23.476885431074738,6.409934776391751,-59.53268328607688
-8.5622091659375,-273.99069331,5.470857784111934,-3.703877247343749,1.9e-06,2.0661000000000005,63,32,436.306024868717,1437.46588,mp-1202623,BaLa2Ti3O10,https://materialsproject.org/materials/mp-1202623,6.8742497389639174,-91.40700749253685,2.3943490718937097,-37.35449684787032
-7.9008757095238105,-331.8367798,5.158073954923274,-3.6120356650566654,3.00058985,0.2032000000000007,173,42,637.582285900541,1980.4994064,mp-42307,Ba2Ce3Si3O12F,https://materialsproject.org/materials/mp-42307,-19.138459485955032,-34.106004751357965,-10.613002553025613,-33.94673766408477
-3.633397585,-50.86756619,5.239216563157092,-0.3238128585714283,1.405e-05,0.00240000000000018,31,14,422.7341486497817,1333.7812,mp-675954,Ga3Te3As,https://materialsproject.org/materials/mp-675954,15.607330481407534,15.619242481253432,6.731924795889476,-16.40863544720866
-5.0807414925,-20.32296597,4.021699915204804,-0.5691863092968745,3.9999972,0.0,156,4,90.75388588723928,219.799045,mp-10231,LiMnSe2,https://materialsproject.org/materials/mp-10231,-0.2773023391480123,9.56411156386916,-15.256386905782799,-71.53708823458003
-6.990335712702702,-258.64242137,4.170477419898439,-2.490520597550676,5.2e-06,0.0,12,37,894.6871731102461,2247.02495,mp-1197117,Pr4(YS2)11,https://materialsproject.org/materials/mp-1197117,16.441493471147886,4.473572694882381,-3.861488929101089,-14.464513666987619
-3.944736435625,-126.23156594,3.5240098484471654,-1.2704294660757904,2.625e-07,2.0973,15,32,996.7571660137256,2115.3264,mp-601861,RbInS2,https://materialsproject.org/materials/mp-601861,-9.584365854907182,-7.963407406096952,-28.33178762453415,-34.123310107737304
-3.279990755,-45.91987057,3.7357762365314464,-0.9129717879556652,3.99999995,0.0,11,14,652.8749420435977,1468.79696,mp-581600,Rb2FeI4,https://materialsproject.org/materials/mp-581600,-8.023344768313969,-8.458541872307354,-39.891888885724654,-14.716461216567225
-3.633656480714286,-50.87119073,2.22851433681292,0.1540968821428572,1.635e-05,0.0,1,14,276.08211968986285,370.514,mp-1075013,Mg3Si4,https://materialsproject.org/materials/mp-1075013,35.515881106916716,20.925512204966644,55.32503980679223,-0.7205151534889721
-2.9341229683333334,-17.60473781,5.12313305377088,-0.42143981020833293,0.0,0.6736,82,6,143.024026438297,441.261,mp-1181848,CdHgS4,https://materialsproject.org/materials/mp-1181848,3.9369603128356094,-9.955808792436269,-27.1621792069211,-36.735021960924136
-5.954709123333332,-35.72825474,6.339343163171488,-2.109948799375,4.65e-06,0.0,129,6,118.72774606097458,453.26,mp-1018675,DyS2,https://materialsproject.org/materials/mp-1018675,14.916868207801778,-5.466069786351303,4.1386605497516475,-9.173316997171897
-5.682937034285715,-39.78055924,6.474084936124991,-0.22275760214285714,8e-07,0.0,1,7,185.77537199472567,724.2982599999999,mp-690578,Nb2SiTe4,https://materialsproject.org/materials/mp-690578,21.26955475024833,1.684132033624128,16.16508023611598,-10.638573102099912
-8.1690013575,-32.67600543,7.771514750142425,-1.9965969957812495,2.7197998,0.0,166,4,83.55878127057913,391.06476000000004,mp-1215765,YUS2,https://materialsproject.org/materials/mp-1215765,22.95374930115623,11.317769996542491,29.212891668167813,-40.7610170138193
-5.459165711,-54.59165711,3.6286569092300858,0.4643622450000002,0.68398395,0.0,227,10,350.17388159571414,765.2098772,mp-1207806,Y4Al,https://materialsproject.org/materials/mp-1207806,-5.504934531959544,-19.045683896841787,2.822958859730666,-58.220929388331605
-5.13060585875,-123.13454061,5.0012860205947485,-1.0549868604635415,0.0,0.30410000000000004,62,24,550.6787826896999,1658.55907712,mp-505172,NaZrCuSe3,https://materialsproject.org/materials/mp-505172,19.517705123808035,4.315409502709858,15.34967078776853,-10.605858688921977
-4.757058339166666,-57.08470007,5.3553599242711805,-0.8951781925000001,7.375e-06,0.29389999999999983,31,12,427.9381218501013,1380.13176,mp-570506,ZrI2,https://materialsproject.org/materials/mp-570506,21.192409777159728,-1.2197764656260826,11.973197925900688,6.946284040802633
-4.183760269444445,-75.30768485,4.89243228848466,-1.3700534960105364,0.0,0.9519000000000002,140,18,689.7180081025044,2032.1104000000007,mp-559270,RbBa4Sb3O,https://materialsproject.org/materials/mp-559270,0.5179696442864543,-29.958906773661923,-4.6901521760211855,-33.46245198901244
-2.9016024325,-11.60640973,5.176698011289388,-0.09242667749999978,0.0,0.9455999999999998,63,4,122.18230228290972,380.90094,mp-1007922,CuI,https://materialsproject.org/materials/mp-1007922,15.855199906837655,14.882642829511079,5.11257288588886,-16.94435772246537
-4.322993154090908,-285.31754817,3.2577434718383738,-1.3249713703915156,0.001648,2.8586,18,66,954.1850222011586,1871.97648,mp-761745,SrCd2H16(Br3O4)2,https://materialsproject.org/materials/mp-761745,-3.201766211858021,7.752530973944512,-12.275297607330346,-6.6770359195427575
-3.638179626818182,-80.03995179,5.501629288657695,-2.2157562851093187,0.0,1.8553,137,22,359.59607228580427,1191.3988384000002,mp-1013726,Cd4SF6,https://materialsproject.org/materials/mp-1013726,-1.4565644867209062,10.160363529520888,-14.246517835721546,-72.30407048194353
-7.1061837799999985,-85.27420536,4.806790357062597,-2.5811261900416653,0.0,3.3011,82,12,175.95278726627976,509.3335,mp-1223359,KSm(MoO4)2,https://materialsproject.org/materials/mp-1223359,-53.97848266065709,-53.24819844007824,-25.655182576159703,-64.56628506646872
-7.0189208284745765,-414.11632888,3.374573586051944,-3.4230939445550845,4.6500000000000005e-05,1.5837999999999997,82,59,963.0678942552832,1957.1617403999999,mp-1094063,Sr12Al14O33,https://materialsproject.org/materials/mp-1094063,-22.190537866295465,-34.814484487533534,2.3456850269130616,-41.62466591886151