energy_per_atom,energy,density,formation_energy_per_atom,total_magnetization,band_gap,sgr,num_sites,cell_volume,weight,mp_id,formula,URL,tsne_cry_0,tsne_cry_1,tsne_xrd_0,tsne_xrd_1
-5.787462243666668,-173.62386731,4.370671212070306,-1.1754370165000003,18.9979405,0.0,10,30,341.95596036060465,900.0553649999998,mp-775826,Fe3Co7O20,https://materialsproject.org/materials/mp-775826,4.9096537409522405,72.54542159930965,17.58794570726655,86.0556497458257
-5.620122000625,-89.92195201,4.690605245619057,-1.720922657500001,1.998464875,0.5174000000000003,74,16,138.59356790769584,391.49197999999996,mp-853240,LiCoO2,https://materialsproject.org/materials/mp-853240,10.965393103112287,80.15729334946869,23.756120232748128,84.82724660574492
-5.16848315,-31.0108989,14.478004684353044,-0.5958188966666663,5e-08,0.0,189,6,95.07506214164135,828.946,mp-1185948,MgPt2,https://materialsproject.org/materials/mp-1185948,62.18546889453657,58.2899160863414,77.38493363814409,14.78488631562906
-4.8339038525,-116.01369246,4.369918360848441,-1.411234133958334,3.0000196,0.0,5,24,202.93412539059287,534.0468,mp-756388,Li7Ni5O12,https://materialsproject.org/materials/mp-756388,8.3869384572927,80.1990930214717,13.8830769755116,91.5627543506794
-8.85841390631579,-168.30986422,6.7014842532027235,-0.3177157910021046,26.8890583,0.0,12,19,178.1817114467577,719.09296,mp-1246446,Mn8Fe3N8,https://materialsproject.org/materials/mp-1246446,30.16553756942957,58.124633474937724,84.44969839358389,19.029579111753133
-4.856122765,-19.42449106,4.661128960445373,-1.3623578868750004,1.0,0.0,166,4,34.782075667916516,97.6332,mp-25411,LiNiO2,https://materialsproject.org/materials/mp-25411,11.762042635357838,81.05392648433562,23.84963927538609,84.2679545612451
-5.433348895,-86.93358232,4.110407011613754,-1.7421509075,7.9999991999999995,0.0,12,16,137.1525120191871,339.49978500000003,mp-1174012,Li5Co3O8,https://materialsproject.org/materials/mp-1174012,7.340524553976857,85.57797898669004,-5.102512779705133,94.6269446942696
-5.532315446875,-177.03409430000002,4.396718798699944,-1.7371167815624995,18.0000005,0.6727999999999996,2,32,276.0786894217394,730.991765,mp-1175400,Li9Co7O16,https://materialsproject.org/materials/mp-1175400,8.836184723901178,84.82322587652206,11.286841092018351,94.60669813406042
-4.57552803,-13.72658409,4.6270864528279745,-0.5531657425000004,0.0,1.5217999999999998,166,3,32.54703370226544,90.6922,mp-25210,NiO2,https://materialsproject.org/materials/mp-25210,4.3545415529334965,74.80861549274209,19.79987249184008,88.37941022551169
-6.625429037777778,-59.62886134,4.201067832976033,-1.5641752927133343,5.0000004,0.0,12,9,104.66866888101276,264.805685,mp-761501,Mn2CoO6,https://materialsproject.org/materials/mp-761501,4.960808860278161,72.48201423591303,17.433754518792224,85.98998207855972
-5.760424380000001,-40.32297066,6.39456250149558,-0.05993915816285725,0.0010358,0.0,221,7,67.423182762848,259.6396386,mp-1147771,Al(CuN)3,https://materialsproject.org/materials/mp-1147771,29.590166726485943,58.82962004803341,57.70170123423699,37.92962353174002
-5.551599099375,-88.82558559,5.411318537966042,-1.5154422800000005,4.1829315000000005,0.0,12,16,137.50484725221486,448.09698,mp-756258,Li3Co4CuO8,https://materialsproject.org/materials/mp-756258,10.431939018714052,79.42459258819244,28.22786662244792,78.01418606684817
-5.1230455571428575,-71.7226378,4.37822656028322,-1.2518407614285718,5.999999400000001,0.0,12,14,141.77280912697745,373.8024,mp-752523,Li2FeNi3O8,https://materialsproject.org/materials/mp-752523,9.536837686527187,77.28730156354005,21.454153295864668,84.62146427353898
-4.804436590869566,-331.50612477,5.056890353911204,-1.1675379710869556,7.03e-05,0.026499999999999968,1,69,621.2237840165427,1891.8318,mp-758275,Li4Ni7O12,https://materialsproject.org/materials/mp-758275,10.907973138218793,79.33622278885484,28.35311487664316,77.73270790785628
-5.694821847999999,-142.37054619999998,4.425426674421813,-1.5566753017000008,1.0000002000000001,0.7873000000000001,1,25,249.25869997129058,664.287965,mp-699137,Li4(CoO2)7,https://materialsproject.org/materials/mp-699137,6.319453709866309,75.64655506345198,20.11162677148689,89.80812028393316
-5.864242939444443,-211.11274582,4.425601321233673,-1.6892587937500003,4.6838386,0.0,6,36,352.1789919858129,938.61317,mp-759196,Li3Fe2Co3O10,https://materialsproject.org/materials/mp-759196,8.719417415839256,77.06878910704378,21.374353723717736,85.99134471738545
-4.8637293448214285,-272.36884331,4.862858539288609,-1.3394951125892862,13.000000199999999,0.0,2,56,484.4206806312118,1418.6172,mp-766878,Li13Ni15O28,https://materialsproject.org/materials/mp-766878,10.884721937927237,79.98452783541366,12.491471369413974,94.5548978391108
-5.142080337857143,-287.95649892,4.537008746091981,-1.2708755421428577,6.000000675,0.08000000000000007,1,56,547.24468316739,1495.2096,mp-776318,Li2FeNi3O8,https://materialsproject.org/materials/mp-776318,2.0574479276312165,68.99201808762186,18.26637322281432,84.78065099449287
-5.836328205384616,-75.87226667,4.35696355195596,-1.439858353846155,7.9995134000000006,0.3772,166,13,140.09349322473196,367.580785,mp-752999,LiFeCo3O8,https://materialsproject.org/materials/mp-752999,8.596659864176742,76.73100740723558,21.04492772359101,85.89868849459897
-6.405402078,-32.02701039,8.756547499716326,0.2688424450479999,0.0,0.0,166,5,56.84972812427447,299.78659500000003,mp-1247096,Co(PdN)2,https://materialsproject.org/materials/mp-1247096,28.79445340621084,56.67205711568675,74.34857871427374,9.004933488170524
-4.8718598525,-116.92463646,4.0419141698575975,-1.5202852935416669,0.0,1.3798,15,24,198.14094172157834,482.2944,mp-674420,Li2NiO3,https://materialsproject.org/materials/mp-674420,6.019983694642176,81.23347678235056,16.616753066391436,93.79549271010795
-5.500298600769232,-71.50388181,4.508297725245011,-1.229024026153846,1.1273212,0.0,12,13,138.22735164623998,375.281785,mp-761730,LiCo3CuO8,https://materialsproject.org/materials/mp-761730,5.5886320906676366,77.1166697371902,20.875096160283107,89.33773973374761
-6.250073668333332,-150.00176804,3.691822573279588,-2.412410427291668,14.9999994,1.6696,12,24,208.83037613932632,464.2858,mp-753111,Li7Fe3(SiO6)2,https://materialsproject.org/materials/mp-753111,5.5670227979824585,83.50675607846266,13.381241672951761,95.36883549984293
-5.2664636109375,-168.52683555,4.596121124250602,-1.6388590180208331,8.000019400000001,0.0,1,32,278.28079964861905,770.2392,mp-760950,Li8TiNi7O16,https://materialsproject.org/materials/mp-760950,11.082191170181403,80.26117387294714,23.497611703112632,85.03428222536478
-4.864723116071429,-272.4244945,4.868489687725865,-1.3404888838392859,13.0,0.0,2,56,483.8603744718727,1418.6172,mp-757347,Li13Ni15O28,https://materialsproject.org/materials/mp-757347,10.790240418780279,79.82065307498628,12.5063113240837,94.5579816099078
-5.2129616525,-41.70369322,4.7519768095662105,-1.5164795418750003,0.4470345,0.0,119,8,68.31802476514787,195.506195,mp-761608,Li2CoNiO4,https://materialsproject.org/materials/mp-761608,13.449595425366715,77.92503145625304,8.735963878245606,75.55102773886479
-4.815979544375,-77.05567271,4.788295301648052,-1.3222146662499998,4.85e-05,0.0,74,16,135.43336823384942,390.5328,mp-755200,LiNiO2,https://materialsproject.org/materials/mp-755200,4.367538431280763,81.07282032537064,14.187980417462821,91.96650735888548
-7.8015240494444456,-140.42743289,6.7707716463869545,-0.2296358867985191,0.0003962,0.0,2,18,166.5875692064219,679.25316,mp-1245662,Ti(CoN)4,https://materialsproject.org/materials/mp-1245662,29.696305756076107,57.141006279130295,83.02334104851876,22.513126505090188
-4.855935459772726,-213.66116023,4.378273429133172,-1.4397289375568187,5.0000003,0.0,2,44,368.0645823193972,970.4604,mp-769473,Li13Ni9O22,https://materialsproject.org/materials/mp-769473,5.984053893145489,81.32975988220964,15.823421706160257,93.2623353936745
-6.426262091666668,-77.11514509999999,4.248331689147507,-1.6415594330555558,2.9999971000000003,1.1234,166,12,137.84438333865066,352.66178499999995,mp-753061,TiCo3O8,https://materialsproject.org/materials/mp-753061,4.675578550825519,73.04051587255032,20.34058091496536,86.29751231202954
-4.874519563333333,-58.49423476,4.08178675398897,-1.5229450043750006,3e-07,1.3164000000000002,12,12,98.10270945569587,241.1472,mp-556550,Li2NiO3,https://materialsproject.org/materials/mp-556550,5.9945885762388516,81.21307777967256,16.631097780232214,93.78222556393378
-4.68003309,-60.84043017,4.450124892544265,-0.8203161592307686,1.0000001,0.0,12,13,137.9551296187549,369.7098,mvc-16813,Li(NiO2)4,https://materialsproject.org/materials/mvc-16813,5.650779069524447,77.0205401765379,20.545510759292068,89.62243140503625
-6.090999476153847,-79.18299319,4.33647402529428,-1.5486163176923082,4e-07,0.0,166,13,139.2815895154134,363.73188500000003,mp-758629,LiCrCo3O8,https://materialsproject.org/materials/mp-758629,5.766650470460867,77.14149441087874,20.958571743574947,86.22329216369991
-5.608606715,-78.52049401,4.4284470200738815,-1.4249464157142842,2.99999995,0.0,2,14,141.59277752252711,377.60998,mp-764935,Li(CoO2)2,https://materialsproject.org/materials/mp-764935,7.005536176564231,75.59903758569864,18.73447250728267,89.4810506072658
-4.995170772333334,-149.85512317,4.89276116240472,-1.287570555,0.9999998999999999,0.0,159,30,260.5348297727707,767.66319,mp-764661,Li3CoNi3O8,https://materialsproject.org/materials/mp-764661,1.7019374708822663,73.5000101115508,2.9695404875135805,58.35089632561736
-6.706547686818182,-147.54404911,3.4021471937972554,-2.692998421678182,3.00000025,1.9528,64,22,213.5662668728708,437.5590444,mp-770689,Li2MnAl2O6,https://materialsproject.org/materials/mp-770689,3.5757811113108597,77.45160541947362,17.806370035206434,92.58882223903431
-4.1418186925,-16.56727477,5.867588669358717,0.9948726095833332,4.5e-05,0.0,221,4,64.73131921153414,228.731,mp-975611,Ge3B,https://materialsproject.org/materials/mp-975611,58.28331142525033,54.09173398031025,79.63577746080568,15.239367702539154
-9.394977412000001,-46.97488706,5.552055408868538,-0.9918119634280004,0.0011405,0.0,164,5,43.03932470582481,143.9031,mp-1069841,V2N3,https://materialsproject.org/materials/mp-1069841,27.671812884064607,55.79290873976616,12.57788575702904,68.67279873545945
-7.94110286625,-63.52882293,6.9626431631405765,-0.11112668743999964,8.5e-07,0.0,63,8,66.15923723637357,277.4058,mp-1245595,CrNiN2,https://materialsproject.org/materials/mp-1245595,29.953739079710463,57.32318962445604,85.15419378224769,19.03040846165282
-6.19727233625,-99.15635738,4.488612649862623,-2.1317521797916665,3.0,1.0356999999999998,12,16,140.7365520467622,380.425785,mp-756719,Li4TiCo3O8,https://materialsproject.org/materials/mp-756719,11.856617193946358,81.1541472758059,22.8958193466607,84.70562698894734
-5.077768293125,-81.24429269,4.6980342444275855,-1.482644798749999,3.0000004000000002,0.06540000000000035,12,16,138.12014046710522,390.772595,mp-867640,Li4CoNi3O8,https://materialsproject.org/materials/mp-867640,11.88782579752575,79.34993073813908,23.730222342837692,84.68913778268148
-5.752682357659575,-270.37607081,4.711887186451615,-1.40137531393617,6.999999799999999,0.8614999999999999,2,47,479.19438118223394,1359.745125,mp-758387,Li4Co15O28,https://materialsproject.org/materials/mp-758387,5.132649989257193,76.94094075310072,18.329855344993923,92.12572687426416
-4.864117745,-58.36941294,4.67400100530454,-1.370352866875,1.0000000333333332,0.0,12,12,104.05886093058164,292.8996,mp-866271,LiNiO2,https://materialsproject.org/materials/mp-866271,11.211259813815376,80.37190431931569,23.555938373709317,84.99229695691125
-4.183924345,-50.20709214,3.9455601222545864,-0.3512166370416671,0.9999673000000001,0.0,8,12,137.64952640065354,327.06516928,mp-1102157,NaNi3O8,https://materialsproject.org/materials/mp-1102157,6.289723360280668,74.83598887234987,19.6038149166882,89.75892543093791
-5.481601264166668,-131.55843034,4.266554068843802,-1.7210694914583335,11.5795111,0.0,2,24,208.3171784632772,535.245775,mp-1174271,Li7Co5O12,https://materialsproject.org/materials/mp-1174271,7.253277252807889,84.10817960059181,12.659202398154564,93.76910259629345
-5.53328504,-177.06512128,4.395890705741577,-1.7380863746874995,18.000000399999998,0.8426,2,32,276.13069681545534,730.991765,mp-1175401,Li9Co7O16,https://materialsproject.org/materials/mp-1175401,8.789234481870583,84.9018880015147,11.302756658941787,94.6751794026326
-6.741898485,-80.90278182,4.252384370041803,-1.6183557185733335,8.0000002,0.0,166,12,137.35404711019322,351.7425300000001,mp-771970,Mn3CoO8,https://materialsproject.org/materials/mp-771970,5.10540726500092,72.28363438036794,16.982264464754866,85.4254519368086
-5.740836662272727,-126.29840657,4.941678193947328,-1.711009807045455,0.0,0.0,12,22,213.77481353539864,636.182775,mp-757593,Li4Co5SbO12,https://materialsproject.org/materials/mp-757593,8.309758890697818,74.8521096219627,20.39117190962747,84.74333783488666
-9.713724189166667,-116.56469027,14.326851712566613,0.11599939750000016,2.36e-05,0.0,193,12,194.9918192754685,1682.3566399999997,mp-1101992,Ta2Ni,https://materialsproject.org/materials/mp-1101992,62.59122756920535,58.06805415971157,77.54800740705174,14.574412860387996
-7.797061168000001,-38.98530584,7.418393775493693,-0.1452824598093329,9.886344699999999,0.0,221,5,64.17269686196249,286.689035,mp-10666,Mn3AgN,https://materialsproject.org/materials/mp-10666,61.278520412116606,54.43031702358885,80.71492651285176,16.537963989106387
-5.769568339166668,-69.23482007,4.356383653879331,-1.165723720833333,7.000007400000001,0.0,166,12,137.46641479485592,360.639785,mp-753474,FeCo3O8,https://materialsproject.org/materials/mp-753474,4.9443650825572245,72.45852986627384,17.44553005280833,85.90710459363537
-4.7938212263157896,-182.16520659999998,4.7817183422803975,-1.216593599342106,1.00000005,0.09580000000000012,2,38,334.2283431704232,962.45,mp-757913,Li4(NiO2)5,https://materialsproject.org/materials/mp-757913,4.304605969210565,80.82157862501755,14.459822262577136,92.28953853640598
-8.897493908,-44.48746954,6.5142918476610765,-0.929171600952,0.0,0.0,139,5,48.07287311793233,188.5898,mp-1245760,V2NiN2,https://materialsproject.org/materials/mp-1245760,30.172056231188694,58.13129659904111,84.8710162414821,18.929355545788496
-3.05705066,-6.11410132,0.8143957267599748,-0.4831960043099999,1e-05,3.0180000000000002,225,2,16.207753507169212,7.9489399999999995,mp-23703,LiH,https://materialsproject.org/materials/mp-23703,29.004011728978156,57.71211664075468,88.41801633148245,18.99742250885288
-6.121633318571428,-85.70286646,4.383755294027683,-1.6726219936399989,1.0000004,0.0,166,14,138.01359005607034,364.350245,mp-754303,Li2MnFe3O8,https://materialsproject.org/materials/mp-754303,1.8543964336606933,68.88250128481093,17.378200993334232,84.3609063889983
-5.662773399545454,-249.16202958,4.351485825895471,-1.303049944204547,12.9999999,1.0465,2,44,477.88180957691725,1252.301735,mp-769527,Li2MgCo13O28,https://materialsproject.org/materials/mp-769527,4.669228820956013,76.77450932204297,18.386162116608034,92.26224723753285
-5.745163279375,-183.84522494,4.405128160638827,-1.3328186214062503,13.0000028,0.0,2,32,346.84230644425173,920.113755,mp-759051,Li2FeCo9O20,https://materialsproject.org/materials/mp-759051,5.425069759343192,77.04892667769272,20.7350911973758,89.55769567328504
-5.474655400833334,-131.39172962,4.463112289379493,-1.7141236281250003,6.0,0.0,5,24,199.1427613187221,535.245775,mp-770769,Li7Co5O12,https://materialsproject.org/materials/mp-770769,4.418295513310235,80.76984442506995,13.84677037325986,91.49568237660809
-4.849706436666667,-58.19647724,3.938328358267628,-1.9657760539483335,1.00001335,0.0,164,12,104.20519226501976,247.14520640000003,mp-758524,Li2NiO2F,https://materialsproject.org/materials/mp-758524,6.402717075000131,95.13096134063721,12.776238298503781,93.63981683760908
-7.67888839,-61.43110712,3.192854006739162,-1.4139478774399998,0.0,3.5623000000000005,122,8,67.72592380950289,130.222164,mp-15704,BeSiN2,https://materialsproject.org/materials/mp-15704,6.098792700048615,57.54656081314796,59.744067362696114,35.36267290331696
-5.459610901538461,-70.97494172,4.39919018341767,-1.2256467723076925,1.9995880000000001,0.0,166,13,139.82394431740846,370.429185,mp-779166,LiCo3NiO8,https://materialsproject.org/materials/mp-779166,5.518919413690965,77.07587534691507,20.695562230451372,89.61150716604551
-5.857450629000001,-58.57450629,4.360248723342268,-1.5109222942499998,3.0000002,0.3428,12,10,105.35777780392941,276.64879,mp-763429,LiFe(CoO3)2,https://materialsproject.org/materials/mp-763429,8.647234859042388,76.80045989602348,21.190622831667106,85.75371558148613
-4.8643133405,-97.28626681,4.679102308130123,-1.3705484623750004,1.0,0.0,2,20,173.24235454141666,488.166,mp-850062,LiNiO2,https://materialsproject.org/materials/mp-850062,11.18182482514993,80.28404188893029,23.517404493011608,85.17402952482135
-5.70191829375,-91.2306927,4.022946734818467,-1.870570008185001,8.0000003,0.0,12,16,138.4851903945455,335.504635,mp-1174085,Li5Mn(CoO4)2,https://materialsproject.org/materials/mp-1174085,7.077338560310992,85.74429839393332,-5.093179461338916,94.59546904257195
-2.8379566725,-11.35182669,8.690420306271598,0.21592363500000025,2.1600000000000003e-05,0.0,221,4,63.55540151165938,332.616782,mp-984719,BeAg3,https://materialsproject.org/materials/mp-984719,58.19209749402741,54.26462433940927,79.53738038918341,15.06939907337034
-7.680073186875,-122.88117099,3.1882035273026337,-1.415132674315,0.0,5.1459,33,16,135.6494247268026,260.444328,mp-7913,BeSiN2,https://materialsproject.org/materials/mp-7913,6.091810995234915,57.55057889652444,59.77591977741196,35.35303601598961
-5.7483815245454535,-126.46439354,5.0074946090341115,-1.7239159772727282,1.0000002000000001,0.0,12,22,209.95363399778634,633.132775,mp-756712,Li4Co5SnO12,https://materialsproject.org/materials/mp-756712,8.894105317038774,79.04011573165286,20.59674721369837,84.77950757799384
-6.678558722222222,-120.21405700000001,4.10337650122232,-1.5828234822111114,14.999997899999999,1.0845,12,18,212.6073647271357,525.3764249999998,mp-755683,Mn5NiO12,https://materialsproject.org/materials/mp-755683,5.204489964342549,72.1638159066945,17.309206197126027,86.65761019351902
-4.346768945833333,-52.16122735,4.995021097175016,-0.3244066583333331,0.558995475,0.0,63,12,120.59844056207102,362.7688,mvc-6477,NiO2,https://materialsproject.org/materials/mvc-6477,4.125088152909114,80.41834657766624,2.8976185713054363,57.39317469351846
-5.689323105,-159.30104694,4.9607262609482285,-1.5056628057142842,0.999999875,0.0,186,28,252.80012671522135,755.21996,mp-771014,Li(CoO2)2,https://materialsproject.org/materials/mp-771014,-0.5581899227222892,72.14126169551045,2.7741046844118364,58.16339745984864
-4.858933888035715,-272.10029773,4.279052978719057,-1.4565770722321436,4.9999993,0.4604999999999997,2,56,470.1792034280857,1211.6075999999996,mp-766611,Li17Ni11O28,https://materialsproject.org/materials/mp-766611,6.036584813946803,81.37988266141599,15.834633287372371,93.27429667614255
-5.510242515714286,-154.28679044,4.345676626214831,-1.7299010900892855,4.99999975,0.0,12,28,241.92284078382968,633.11877,mp-1174291,Li4Co3O7,https://materialsproject.org/materials/mp-1174291,7.217203113822433,84.05372769529593,12.495616571865199,93.83166858726804
-5.715262113214287,-160.02733917,4.5153104649266,-1.5316018139285703,0.999664475,0.0,60,28,277.73776290876253,755.21996,mp-758122,Li(CoO2)2,https://materialsproject.org/materials/mp-758122,6.2910559756760165,75.71565379111874,19.209912521252626,89.34768285560102
-4.857956758928571,-272.04557850000003,4.340044612600544,-1.455599943125,3.0000001,0.4558,2,56,463.5716681619927,1211.6075999999996,mp-757655,Li17Ni11O28,https://materialsproject.org/materials/mp-757655,5.923023164086732,81.29295894315717,15.898796698480075,93.2337480265893
-5.34814946,-80.22224190000001,4.481341094472585,-1.4910555913973336,6.0000003,0.0,12,15,140.74653824393712,379.836445,mp-753219,Li3MnNi3O8,https://materialsproject.org/materials/mp-753219,11.911967091810654,80.71053551966584,22.689927792741084,84.6913602604593