energy_per_atom,energy,density,formation_energy_per_atom,total_magnetization,band_gap,sgr,num_sites,cell_volume,weight,mp_id,formula,URL,tsne_cry_0,tsne_cry_1,tsne_xrd_0,tsne_xrd_1
-2.873904695,-22.99123756,4.2409124787987045,-0.7944308951724137,3.425e-06,0.8245999999999998,55,8,333.7087495539475,852.2711999999998,mp-8360,RbTe,https://materialsproject.org/materials/mp-8360,-2.0953426833691484,-29.175235999705148,-27.48226765352476,-57.814550500123126
-3.9668539525,-47.60224743,5.90086190639362,-1.2361993115813572,4.75e-06,1.7129,63,12,405.638828488849,1441.4709037999999,mp-7212,CsSmHgSe3,https://materialsproject.org/materials/mp-7212,10.112174156161078,0.5468830059186391,-3.3957932835380444,-20.14656646450716
-3.9176777667500002,-313.41422134,3.8244968879438286,-0.39557152911206894,0.0,1.6303,61,80,3206.603768529439,7385.3404456,mp-573631,Cs3As7,https://materialsproject.org/materials/mp-573631,-7.555644322402648,-5.725316726984308,-30.256336681983818,-47.09544292358615
-6.297417021428571,-88.1638383,3.3360239155236293,-1.92680889875,3.0000016,0.4910999999999999,166,14,332.3978860106279,667.78755,mp-1246965,Y3Mg2MoS8,https://materialsproject.org/materials/mp-1246965,14.119492174668435,10.306060877163643,-23.663718634819674,-78.52496809129858
-3.908832915,-78.1766583,4.3399332857251,-0.16419478015625014,0.001388175,0.4902000000000002,62,20,735.239831856281,1921.6,mp-672706,Sb2Se3,https://materialsproject.org/materials/mp-672706,-4.268747678045526,2.0614320550867915,-7.389508147757707,-16.753186274551474
-5.768910445833334,-69.22692535,6.045157580240357,-0.7283445053645833,0.5,0.0,216,12,328.27641222166994,1195.0834,mp-23051,NbSeI,https://materialsproject.org/materials/mp-23051,17.856214371096154,2.657185626993901,-0.4884541037322506,-15.906422929158573
-7.755261200454546,-170.61574641,4.090014093255713,-3.2280150819718187,0.0,1.8229,71,22,347.1496040191829,855.0517264,mp-579086,KSrNb2O6F,https://materialsproject.org/materials/mp-579086,-28.75795110291874,-70.38032862573499,-5.88340675326508,-56.931002546406276
-5.3890297225,-21.55611889,4.679400608698344,-2.1803672744062506,0.0,2.3390000000000004,166,4,90.2692273346718,254.37876928,mp-3613,NaErS2,https://materialsproject.org/materials/mp-3613,14.21329302484136,6.7450302442341945,-25.288366480159826,-76.63935906493651
-5.825158888571429,-81.55222444,3.453216072073606,-1.6040374748214288,3.99999995,0.0,74,14,333.15312505221334,692.8170299999999,mp-1247059,LaMgMnS4,https://materialsproject.org/materials/mp-1247059,12.412067935393257,7.714055323599809,-24.19933575399993,-78.6859516935277
-2.970649258181818,-32.67714184,4.180402693744414,-1.0670994516154544,0.0001678,1.5338,8,11,302.372111294291,761.221,mp-1021494,Cd5(S2Cl)2,https://materialsproject.org/materials/mp-1021494,-1.1773498566495475,-1.7357221995350811,-17.253680987499347,-15.420662533163615
-3.1182259450000003,-56.12806701,4.035362870621039,-0.8963207489305556,5e-07,1.9035,72,18,485.7832036998937,1180.5272,mp-1232308,K2Zn3Se4,https://materialsproject.org/materials/mp-1232308,-1.2231655101472831,1.9395187865233718,23.434132170948057,-47.544125197836216
-4.268559886125,-341.48479089,3.11805717868492,-0.2868473686300341,0.0,1.1897,14,80,2314.5666170762634,4346.149582800002,mp-1204552,Cs3Ge9(H3N)2,https://materialsproject.org/materials/mp-1204552,-2.120389826694644,4.260527712552379,-33.836784701593906,-31.29501970154162
-8.427385480357144,-235.96679345,4.606847906192085,-2.1946960226785728,14.001831175,1.4712,62,28,673.4146058307152,1868.26,mp-1232388,Gd2MgS4,https://materialsproject.org/materials/mp-1232388,12.367440793568045,5.508175735890625,-7.46793811319788,-16.473810872788718
-3.776558113571429,-211.48725436,4.875131721106082,-0.5993056727678575,0.0,0.6358000000000001,54,56,1909.6545162741918,5606.5031199999985,mp-555275,NbTe7Br5O,https://materialsproject.org/materials/mp-555275,13.307734382019515,0.23376210029953656,-20.98006353497433,-30.4606289517117
-4.06160885,-28.43126195,4.043099557478328,-0.8627432118452383,0.000562,0.0,156,7,175.6271478480817,427.619,mp-1224167,In2GaS4,https://materialsproject.org/materials/mp-1224167,-1.6208272211336925,9.432647093084842,-15.084871484179848,-71.05621559824688
-4.32144562,-43.2144562,5.459690807548012,-1.6312593544375005,1.94600745,0.0,167,10,269.03168322304003,884.55,mp-1301,Yb2S3,https://materialsproject.org/materials/mp-1301,10.960788469101082,11.558087014162293,-8.178941458665705,-7.6748337755847595
-8.1571777455,-489.43066473,5.189845568952738,-3.8078237980833327,0.0,4.485200000000002,14,60,964.4589673052819,3014.3182288000007,mp-781707,La4Al2O9,https://materialsproject.org/materials/mp-781707,-11.087344394516904,-59.181903933625954,-19.93232434043632,-58.12136821910679
-6.974056148541668,-334.75469513,3.6059474975373456,-2.382751556500002,1.25e-07,2.6534,14,48,755.2038340050467,1639.96468,mp-541211,KLaCr2O8,https://materialsproject.org/materials/mp-541211,-33.35461183685126,-24.89564231702807,-19.89343826931714,-13.882756892516445
-4.662258557564102,-363.65616749,4.266829609881693,-0.8286538357800526,0.0,0.5599000000000001,159,78,2299.4960765485025,5908.6583999999975,mp-16001,Rb5Ti6AgSe27,https://materialsproject.org/materials/mp-16001,-0.7071344145855712,1.6007676819469596,0.31796299333041034,-23.4925639703896
-7.066186348452381,-593.55965327,4.009034357713371,-3.407172137312908,0.0029663,5.0989,1,84,1254.5911305300956,3028.9555536000007,mp-1218956,Sr20P12Br(O16F)3,https://materialsproject.org/materials/mp-1218956,-20.1244215707666,-32.4748634823527,-9.82182463984718,-33.59076203390092
-4.511119228666667,-203.00036529,4.326066054050897,-0.10430253609523814,1.82e-05,0.0,1,45,872.6037264316908,2273.32286,mp-1227291,Cd8Cu7P30,https://materialsproject.org/materials/mp-1227291,9.536531230557813,2.767503726193474,13.197060345807948,-51.128405189062875
-6.4748294575,-25.89931783,6.833579203850977,-2.391427738906251,4.5299999999999997e-05,0.0,166,4,90.38750512882427,371.96968,mp-1222701,LaTmS2,https://materialsproject.org/materials/mp-1222701,24.604889444694553,10.766753446695398,30.397528750659443,-39.868977930405904
-3.933031233333333,-11.799093699999998,5.062750310291856,-0.10038145000000044,4.0000003,0.0,164,3,101.56385852459226,309.6539400000001,mp-571122,FeI2,https://materialsproject.org/materials/mp-571122,19.175530294849644,8.509907171544196,-4.102666182973864,-3.8036860093653897
-4.7117057925,-37.69364634,5.637313813534878,-2.3021468167297923,2.1000000000000002e-06,1.4272999999999998,129,8,174.53311730431844,592.5172064,mp-1086652,BaAgSF,https://materialsproject.org/materials/mp-1086652,20.598867275990568,-7.636932184249338,-0.07523904926892921,-14.548276131046086
-2.7915911722222213,-25.12432055,4.544991937812826,-0.9556912102681993,1.39e-05,0.6932999999999999,139,9,345.50082123791674,945.6558438,mp-543024,Cs2Pd(IBr2)2,https://materialsproject.org/materials/mp-543024,-6.931116655910971,-5.045521728759955,-29.684673621146175,-49.84434344066036
-3.881321305714286,-27.16924914,3.6133343625533163,-1.3515536886699506,4.999999400000001,1.1516,139,7,250.6844815762259,545.489645,mp-27263,Rb2MnBr4,https://materialsproject.org/materials/mp-27263,-2.1736788986561626,12.974739189873462,7.905097597404938,-53.49338584254054
-4.811301872307691,-250.18769736,4.871779959561028,-1.1430453575464188,5e-08,0.9399,163,52,1566.2330427659326,4595.0998838,mp-1213326,CsTm(NbBr3)6,https://materialsproject.org/materials/mp-1213326,7.772270293731352,1.262219721055844,-2.029191779989965,-20.978561258418484
-4.818678290192309,-250.57127109,4.807271862869168,-1.1465801017771884,0.00080925,0.9583,163,52,1584.4840349614594,4587.092103800001,mp-1213418,CsHo(NbBr3)6,https://materialsproject.org/materials/mp-1213418,7.8243828179500285,1.2709487625140534,-2.0520698892790907,-20.886193740699575
-3.644139572857143,-51.01795402,5.159322831827423,-0.7403842981398812,0.0,0.4057,216,14,363.111641345033,1128.194,mp-1226914,CdIn2(SeS)2,https://materialsproject.org/materials/mp-1226914,11.263900500637071,12.67476722822186,-21.161611393918022,-74.44830342086202
-3.974702082,-79.49404164,6.132734155139816,-0.8607966530382548,1.9999935000000002,0.1322000000000001,13,20,703.8953560285944,2599.6396276,mp-571275,Cs2UHg2Se5,https://materialsproject.org/materials/mp-571275,10.060594135513812,0.2815126571198049,-11.012257213056305,-9.066984211073734
-3.4913460442857143,-48.87884462,5.316314471894421,-0.6263832646249406,1.5e-06,0.3365,166,14,380.96259504507293,1219.6744,mp-1223776,In2AgSe3Cl,https://materialsproject.org/materials/mp-1223776,23.101409856847035,3.5955190686101566,8.223299286819831,2.1424685087427124
-4.832592346666667,-28.99555408,6.169937067411751,-2.496224337336667,0.9999998999999999,0.0,166,6,120.83701675086098,448.9848,mp-546292,YbClO,https://materialsproject.org/materials/mp-546292,-1.3439645696811573,-57.62262679189209,5.708541009474307,-55.02965708873434
-6.536251899375,-104.58003039,6.93425052997004,-0.32180182437500005,1.822875175,0.0,53,16,386.9355650493194,1615.80552,mp-616481,NbFeTe2,https://materialsproject.org/materials/mp-616481,20.572595085783675,4.1269336858412276,15.343416430188535,-9.88486473165791
-4.662879612916666,-335.72733213,2.0224513197706173,-0.6238492334505551,5.96e-05,4.1544,62,72,915.9275961170772,1115.5528,mp-867946,CdH10C3NCl3,https://materialsproject.org/materials/mp-867946,-27.06588359627493,-2.70466595383344,-74.16788620474628,-10.595342406410015
-2.62634406,-7.87903218,3.611055134013492,-1.4855319571733334,4e-07,3.5214,166,3,84.29808571140543,183.317,mp-22881,CdCl2,https://materialsproject.org/materials/mp-22881,14.437941145371168,9.756499220222029,-26.698666408527032,-78.10170404221411
-6.386867613,-127.73735226,6.473883983476883,-2.4660389314375,0.0,0.7389000000000001,62,20,432.14289458253313,1684.78,mp-8850,Dy2S3,https://materialsproject.org/materials/mp-8850,13.768942117629685,-5.620499808086292,-1.5378612206599238,-13.222368781087662
-4.4357943275,-124.20224117,4.8392394035614945,-1.7901250669642852,8.5825e-05,1.0526,62,28,684.4211832061121,1994.58,mp-1232217,Yb2MgS4,https://materialsproject.org/materials/mp-1232217,-2.3063067217023607,1.212348190525606,-7.681605807785988,-13.757177100790171
-7.2440536659090915,-159.36918065,4.096278713296048,-3.2651714464393944,0.0,4.3938,167,22,308.47473099229734,760.9568,mp-16432,Sr3(BO3)2,https://materialsproject.org/materials/mp-16432,-17.920310244298754,-32.450093346199125,1.9526805077947784,-35.698874844637835
-6.6432699303125,-212.58463777,6.034339709030286,-2.267715301601563,4.75e-07,1.2809999999999997,62,32,645.0993351264742,2344.268,mp-1197488,Er2ZrS5,https://materialsproject.org/materials/mp-1197488,13.89010228274596,-5.926333040336587,-0.3681833574406907,-12.640756226136233
-7.220179128611112,-259.92644863,3.0742076072416364,-3.0132754393650787,0.0,5.4198,14,36,530.5672676849136,982.2556960000001,mp-556776,Sr(PO3)2,https://materialsproject.org/materials/mp-556776,-29.491903792362308,-23.426608825888,-24.724606449150013,-4.3721132063259285
-5.3726421875,-21.49056875,4.2869586865613565,-2.218333892781251,0.0,2.3663000000000003,166,4,103.87034025273,268.15862000000004,mp-15786,KHoS2,https://materialsproject.org/materials/mp-15786,14.395861475769296,5.614094166016551,-4.359300028750048,-4.242898992361908
-5.031826045,-60.38191254,4.923116287377148,-3.1616509324600006,2.00000055,4.6575,36,12,183.4975496474015,544.0280256,mp-555321,BaNiF4,https://materialsproject.org/materials/mp-555321,-12.917351240782633,-22.209978052061143,-15.672340807177415,-17.357849953493012
-8.002026434893617,-376.09524244,5.030267944489747,-3.4084955566081567,0.0,4.0103,189,47,606.6059560212218,1837.59033784,mp-6760,Na3La9B8O27,https://materialsproject.org/materials/mp-6760,-17.088709003653246,-33.42494737119612,-7.1604517546955275,-21.423118663904667
-4.8290991228846165,-251.11315439,4.632188173620102,-1.1516821912964188,4.5e-07,0.9846,163,52,1633.9267888916665,4557.9514638,mp-1213498,CsSm(NbBr3)6,https://materialsproject.org/materials/mp-1213498,7.975265624677559,1.3032350206457426,-2.061421381052056,-20.79108542049745
-4.817592186730769,-250.51479371,4.7961411466770825,-1.1459036363925723,0.0,0.9556,163,52,1589.7737396285038,4591.749463800001,mp-569903,CsEr(NbBr3)6,https://materialsproject.org/materials/mp-569903,7.831211228193692,1.2757765608195817,-2.1141843236921964,-20.83534554826536
-3.871756742142857,-54.20459439,4.657290300101622,-0.975167431845238,0.0,1.0566,227,14,335.37232337363184,940.6139999999999,mp-559200,Cd(InS2)2,https://materialsproject.org/materials/mp-559200,10.75282000513511,12.754237003794932,-20.71240862942944,-75.6174586606089
-3.2019047155000004,-64.03809431,4.823309029558965,-0.7881026733189659,0.01568065,0.0,36,20,710.9535031897623,2065.0815,mp-1219952,Rb2PtI5O2,https://materialsproject.org/materials/mp-1219952,-2.5641150096142358,1.8183297710150867,-33.80724809705268,-30.40232397860666
-5.819690214782607,-267.70574988,3.861577087641351,-4.139460853871304,0.0,6.934900000000002,68,46,684.6173794866254,1592.0750568,mp-29978,Sr5Al2F16,https://materialsproject.org/materials/mp-29978,-14.522955585196971,-26.060175014010053,-15.39301467359561,-16.805144403420652
-3.371634728333333,-20.22980837,4.292221341250424,-0.2812264251149432,3.825e-05,0.2906,12,6,254.55215011095527,657.9756,mp-568018,RbSb2,https://materialsproject.org/materials/mp-568018,11.481005871847186,3.9382298898011565,-12.526804121380884,-8.098923768811929
-6.2545768835714295,-87.56407637,3.1531269830524957,-1.971514418035714,3.0000011000000004,1.1008,166,14,328.53632005592124,623.84365,mp-1247288,Y3Mg2CrS8,https://materialsproject.org/materials/mp-1247288,14.133540909977471,10.346588997798984,-23.62923561233076,-78.54452161723731
-7.178830653444445,-646.09475881,2.9535626311157097,-3.27142678888889,0.9999998999999999,0.0,161,90,1180.4352586188945,2099.613068,mp-1203362,Ca9Mg(PO4)7,https://materialsproject.org/materials/mp-1203362,-18.71886405337705,23.922260392145773,-12.874417629145364,15.319841031049556
-6.20638242875,-49.65105943,5.898657040480262,-1.9955425302232144,1.00000005,0.0,166,8,142.162208330426,504.99632400000013,mp-13207,CeZnPO,https://materialsproject.org/materials/mp-13207,18.80473962624789,-38.82163401850132,18.55178493250657,-39.87861023396355
-4.0491062875,-97.1785509,4.454053317549104,-0.4477681899479175,0.0,1.5018000000000002,148,24,552.3328147422496,1481.5187999999996,mp-13740,AgAsS2,https://materialsproject.org/materials/mp-13740,-2.1003878861578,-3.935503078322795,1.3364467297863334,-34.701311052568954
-5.965215547857143,-83.51301767,4.545505121470662,-1.8200232871428577,2.9999978,0.0,166,14,343.41391832970896,940.05,mp-1247098,Sm3Mg2WS8,https://materialsproject.org/materials/mp-1247098,12.858324256677124,7.980289961947001,-24.50648795110708,-78.02255280677551
-7.320361195625,-234.25155826,5.266330038723924,-2.293975096914063,0.0,1.2263000000000002,62,32,651.5951701836289,2066.5068,mp-16919,Y2HfS5,https://materialsproject.org/materials/mp-16919,13.859527704265425,-6.029012339281132,-9.650801306224654,-15.471156636489818
-3.447976045,-193.08665852,5.303813729090408,-0.37818882205357135,1.000725625,0.4699,54,56,1869.1856688896387,5970.2376,mp-1198792,Te7WBr5O,https://materialsproject.org/materials/mp-1198792,13.13826961571298,0.23985882751580925,-32.78582886230295,-29.85852201499282
-5.880922715833332,-141.14214518,5.072607507573965,-3.970284619600805,0.000126625,6.8674,62,24,400.2931043710235,1222.8136512,mp-1209225,RbNdF4,https://materialsproject.org/materials/mp-1209225,-13.287429524581375,-27.076746031009588,-17.135840342218927,-16.21815546844033
-6.4524792433333324,-77.42975092,6.462548660673167,-2.159674719036459,4.999999900000001,0.6326,8,12,251.61918013385062,979.261045,mp-1222397,Lu4MnS7,https://materialsproject.org/materials/mp-1222397,11.739088823704979,-2.6043148593370518,-5.489619050305077,-17.526934948538262
-5.1998650175,-20.79946007,6.607460482862071,-1.6186345574479168,0.0043424,2.1519000000000004,166,4,85.25965863318622,339.2572,mp-1225516,ErAgS2,https://materialsproject.org/materials/mp-1225516,22.58200861559072,10.5492280803385,29.045903872007646,-40.742209655095074
-4.810112729423077,-250.12586193,4.859574661687423,-1.1400219627387271,0.0,0.9746,163,52,1574.289654749972,4607.1654638,mp-1213352,CsLu(NbBr3)6,https://materialsproject.org/materials/mp-1213352,7.777351939707459,1.2658321970211586,-2.042982617298904,-20.935625731888344
-5.034524842857143,-70.4833478,4.762743884548996,-0.3942960127678573,12.5546855,0.0,160,14,349.6005081507608,1002.7211900000001,mp-1221918,Mn2CrGa3Se8,https://materialsproject.org/materials/mp-1221918,13.615728498027014,22.52291417136267,-9.840308679402623,-72.8380721161753
-8.015971793999999,-160.31943588,5.8682921502008565,-3.4294621325000003,5.0009989,2.9259000000000004,36,20,321.7673612141439,1137.11562,mp-1180667,La3FeO6,https://materialsproject.org/materials/mp-1180667,-10.842079399582513,-61.76839766997095,-6.79431651502391,-61.804722419007426
-4.731635085625,-75.70616137,4.3110450571207055,-0.9864839364735992,8.1e-06,1.659,70,16,568.608911325411,1476.2065676,mp-15223,Cs2NbCuSe4,https://materialsproject.org/materials/mp-15223,-6.633376711522906,-2.356837966884719,-32.77012315048471,-47.062657691556694
-2.82856691,-28.2856691,3.591171619437384,-0.8729017642000002,1e-07,2.0535,72,10,368.8112618100794,797.6112,mp-12535,K2ZnTe2,https://materialsproject.org/materials/mp-12535,-3.467061730667302,-7.692236149887222,-32.881529185171374,-27.101695594328923
-6.24381351857143,-87.41338926,3.1449246055304623,-2.000572375892858,1.9999997999999999,0.0,166,14,328.8363509226564,622.7890500000002,mp-1246884,Y3Mg2VS8,https://materialsproject.org/materials/mp-1246884,14.133747605577225,10.334437629901666,-23.73208166408623,-78.59674522550593
-3.31949455125,-53.11191282,5.066758959634485,-0.2294391533984377,0.0,1.0351000000000004,14,16,458.8379072465905,1400.04,mp-1213194,CuTeSeBr,https://materialsproject.org/materials/mp-1213194,-5.666911368993144,-1.6178174084206798,-30.736923080741402,-37.752523647637545
-4.375032656086956,-201.25150218,4.484357364931473,-0.6428975227309776,0.0039647,0.6013999999999999,12,46,1201.4212676317175,3244.49,mp-684021,Sn4Sb6S13,https://materialsproject.org/materials/mp-684021,0.34945255612411336,-3.787765269860583,-18.56187205006802,-33.646525480908146
-4.838539549285714,-67.73955369,5.0322914874395375,-1.653233553035714,0.9999998,0.0,216,14,339.19067498346794,1027.923045,mp-1215805,Yb4MgMnS8,https://materialsproject.org/materials/mp-1215805,12.122413217064835,6.665875792725303,-24.5186922366517,-77.8160179169208
-2.765107816818181,-60.83237197,6.9380347851448985,-0.2581009592329544,0.0,0.1442000000000001,9,22,624.2932519074967,2608.411,mp-18230,Si(Hg2Se3)2,https://materialsproject.org/materials/mp-18230,-2.7813185926534603,1.2860822063166208,-8.269366398620344,-13.854036673546116
-7.340269754375,-234.88863214,2.8674569206560747,-2.8963301460416666,5.0004152,0.13140000000000018,1,32,358.2367842889614,618.6115,mp-1227192,Ca4Si3(BO4)5,https://materialsproject.org/materials/mp-1227192,-53.82643690975471,16.8430132979868,-8.557559295609492,-20.92350744406092
-4.3254079153125,-138.41305329,4.162487821930457,-0.779024789785157,0.00025860000000000005,0.5846999999999998,1,32,772.8671958658447,1937.3529999999998,mp-767088,Li3Sb11S18,https://materialsproject.org/materials/mp-767088,0.6460557405966548,-2.1176518955355235,-29.92553124661861,-35.18997772321524
-3.2245327725,-25.79626218,5.98686747430478,-0.2773960391666668,0.0,0.0,140,8,268.95170452756025,969.672,mp-20320,InTe,https://materialsproject.org/materials/mp-20320,7.722840062058856,-31.16230899130073,3.904190307269561,-32.24808857451953
-4.5109442805,-270.65665683,2.1737211982951274,-0.7111042854079993,0.0,4.0526,14,60,809.327452945842,1059.44648,mp-570587,CdH8C2NCl3,https://materialsproject.org/materials/mp-570587,-26.996896784119574,-2.684589401830263,-74.12251098125103,-10.52446484968084