energy_per_atom,energy,density,formation_energy_per_atom,total_magnetization,band_gap,sgr,num_sites,cell_volume,weight,mp_id,formula,URL,tsne_cry_0,tsne_cry_1,tsne_xrd_0,tsne_xrd_1
-7.904233464444445,-71.13810118,5.132617470789388,-3.1772315452777797,0.0,3.6508,121,9,151.9758293785696,469.74734000000007,mp-546007,La2MoO6,https://materialsproject.org/materials/mp-546007,-47.488084216954576,-52.5860533819909,-19.94727239665038,-65.80953348145503
-5.948717084,-118.97434168,5.104441324930903,-1.7619294812500002,0.0,3.3462,227,20,379.3381654569851,1166.0728,mp-1999,Sb2O3,https://materialsproject.org/materials/mp-1999,-19.68571959478365,-67.27426005966169,-29.93906383064573,-61.591951846799994
-5.745153850357143,-160.86430781,5.05602177973114,-2.1887670905357157,0.0,2.0900000000000007,122,28,595.4859148462177,1813.14,mp-1232092,Sm2MgS4,https://materialsproject.org/materials/mp-1232092,19.191380706948852,-3.556368459098972,7.499635167392171,-8.758494253631705
-5.428996306,-27.14498153,5.929932494223312,-2.3230923151519995,4e-07,1.5406,107,5,115.86359632735714,413.7592,mp-1227965,BaBiClO2,https://materialsproject.org/materials/mp-1227965,-21.068955919610296,-55.76251652236574,-11.555853585602193,-60.37207805142647
-4.4180859595238084,-185.5596103,4.946876646618972,-0.9205930464860432,1.0831515,0.0,64,42,1649.4441395073325,4913.824063800002,mp-504805,Cs(Zr3I7)2,https://materialsproject.org/materials/mp-504805,10.350308834518236,7.801636287126304,-6.032354472131897,-5.42723715066373
-3.75020841,-26.25145887,5.2460557333819855,-0.3862188384821432,0.0,0.7225999999999999,82,7,208.03560314020424,657.2361999999998,mp-1223888,InAgSnSe4,https://materialsproject.org/materials/mp-1223888,15.205236081407776,15.013468214722431,5.822503297235983,-16.612245717830156
-6.885653088809524,-289.19742973,2.9024610235844426,-3.0175186623214287,4.0000119,0.0,176,42,563.6911485237371,985.2774,mp-1214077,Ca5Si3O13,https://materialsproject.org/materials/mp-1214077,-18.70043122727723,24.929880252798572,-11.32366831203612,16.837933710782693
-4.341874014,-21.70937007,3.5802264630074143,-0.2875871439999997,3e-07,0.0,139,5,114.77452161667988,247.46107719999998,mp-12863,Ba(AlSi)2,https://materialsproject.org/materials/mp-12863,6.969699307357745,-34.257960260352284,-1.1497672219143795,-37.05517171439481
-4.9168070875000005,-491.68070875,2.856386297616703,-0.4575380364076,0.004028800000000001,1.2348,15,100,1426.1457158863473,2453.1932,mp-1197650,BaTe3H15(CN)3,https://materialsproject.org/materials/mp-1197650,-1.7751955152664978,-6.71058274235584,-20.56197367242034,-29.619531709166587
-8.059806396309524,-677.02373729,6.038201429546122,-3.238065132936508,1.0162560999999999,0.0,62,84,1052.1127985638955,3825.7872,mp-1211058,Nd5(BO3)4,https://materialsproject.org/materials/mp-1211058,-17.59751346376016,-33.23930451955774,-13.130048753245035,-34.147484638041185
-7.1027180041071425,-397.75220823,4.305743537230084,-2.3140215200000003,1.000000075,0.4805,14,56,852.2554375143084,2209.8808,mp-1203182,NdCrO5,https://materialsproject.org/materials/mp-1203182,-55.69981867940866,-49.64660733108858,-32.18982847099939,-47.706531769720534
-5.896692457,-117.93384914,5.401312572790741,-2.1333413004375013,4.055e-05,2.0553,36,20,460.910800705014,1499.226,mp-1189242,Dy3GaS6,https://materialsproject.org/materials/mp-1189242,6.792822013811804,-2.475241181972939,-8.16940762924593,-13.533285927575474
-3.93474185375,-157.38967415,4.905504671940789,-1.1165229055226298,2.5e-07,1.7230000000000003,62,40,1231.489788931389,3638.0228151999995,mp-1199216,Cs2ZnBi2S5,https://materialsproject.org/materials/mp-1199216,3.2571926676063376,-8.22837411057871,-21.96954596859318,-33.405873232264675
-1.74539503203125,-111.70528205,6.0282658646023055,-0.4242018320312497,0.0,1.9357,61,64,2311.6196193557957,8391.887999999999,mp-29097,Hg3TeBr4,https://materialsproject.org/materials/mp-29097,2.152639349959516,-6.3588551739317225,-36.50361440175418,-30.99055804549161
-6.8557221592857145,-287.94033069,4.250656305404108,-2.4018009726190486,0.0,2.7302,161,42,464.16955705859385,1188.1835999999996,mp-780282,Cd(BO2)2,https://materialsproject.org/materials/mp-780282,-17.278563227258903,-30.178736248219714,-17.305573375048116,-15.827411756502395
-4.93528453575,-197.41138143,2.7953046654940508,-2.662458775066483,0.001308725,4.4041,62,40,1215.3001177457195,2045.802,mp-1209182,RbY2Cl7,https://materialsproject.org/materials/mp-1209182,-6.302714843067587,6.553149019989334,-36.76463283185815,-29.210937386403266
-7.1192961725,-170.86310814,4.8355908416217215,-2.6121506048922414,0.0,3.6335,49,24,414.23628751646487,1206.2813038,mp-1213184,CsSm(MoO4)2,https://materialsproject.org/materials/mp-1213184,-49.387976169187155,-51.542513684049254,-29.892621365512575,-54.84274826058358
-5.9344112275,-23.73764491,3.2431417414973485,-2.10836275953125,1e-06,0.37929999999999975,123,4,81.91063668977206,159.97685,mp-755552,LiYS2,https://materialsproject.org/materials/mp-755552,14.08329906707767,9.647813320226472,-27.271320778442373,-77.45264090572095
-4.6153251780952385,-193.84365748,4.893253567160329,-2.508975152221905,1.0,0.0,15,42,582.5747642406249,1716.7232895999998,mp-29457,Ba2Cu5F14,https://materialsproject.org/materials/mp-29457,-14.20749620445427,-20.748615935497455,-21.505493637023243,-15.056449960340323
-6.8444489831578945,-260.08906136,3.958833878749931,-2.2314382378070188,0.0,2.0869,125,38,586.4899203216802,1398.2304,mp-555885,SrV4(AgO6)2,https://materialsproject.org/materials/mp-555885,-14.423749673791065,-42.50603107908803,-2.1951811668910888,-35.418944087296765
-7.227616255499999,-578.20930044,4.847039034442477,-3.099008791,0.0,3.1359,230,80,1165.6013157990524,3402.338,mp-15103,Sr3Y2(GeO4)3,https://materialsproject.org/materials/mp-15103,-4.583795977077154,-55.25516292836252,16.674883449879033,-44.502857778815354
-6.128563043571428,-85.79988261,4.0353241616866855,-1.2551775796428577,8.9065729,0.0,166,14,305.87264476578974,743.31,mp-1246859,SmMg2Mo3S8,https://materialsproject.org/materials/mp-1246859,1.5148129692764245,26.045352598572194,-22.326732041413933,-80.47549609281576
-4.0961458125,-16.38458325,6.9379818679649725,-0.9443635742968746,5.5e-06,0.0,156,4,94.42120590412985,394.506,mp-1100834,YbCuSe2,https://materialsproject.org/materials/mp-1100834,32.20283516126047,-3.3494863597471123,16.038217651291582,15.377510234411336
-7.193495869166667,-86.32195043,5.977955028964622,-2.807062855416667,0.0,3.7503,88,12,157.3113966013512,566.3223999999999,mp-1095216,NdAsO4,https://materialsproject.org/materials/mp-1095216,-20.321862813541774,-65.94713474378683,-10.296248653576367,-64.65519564029661
-3.1079351446428576,-87.02218405,4.039616324646232,-0.8663701538973216,0.0,1.9011,15,28,680.1910355287444,1654.71015424,mp-1024049,Na2Zn2Se3,https://materialsproject.org/materials/mp-1024049,-3.9404968740627933,-0.5672048909279579,-32.85202294887602,-35.07412068864286
-7.1307919209523805,-299.49326068,3.056307500249504,-3.2648750397704083,1.0000002000000001,0.4940999999999998,173,42,544.7318434569407,1002.606972,mp-1227239,Ca5P3O13,https://materialsproject.org/materials/mp-1227239,-18.58129304468634,24.765590698870373,-11.413095209583714,16.68979912043024
-6.997017708518517,-188.91947813,5.859256497772285,-2.327857519629629,5.5093638,0.0,81,27,609.9511310744705,2152.2289100000003,mp-676880,Ce10US16,https://materialsproject.org/materials/mp-676880,18.108081843576656,-4.474938346711999,8.997028065807127,-8.810076159062742
-4.143147251428571,-87.00609228,4.6163659663005125,-1.32289913946021,0.0,2.2007000000000003,1,21,630.9287157025343,1754.0074519000002,mp-1225999,CsBa3Ga5(Se5Cl)2,https://materialsproject.org/materials/mp-1225999,-8.741374168026919,-3.271309074309237,-18.236293077356912,-53.16349959236189
-3.494738005,-34.94738005,4.219728387974772,-0.8920237750689658,3.00000035,0.0,194,10,302.3107486190355,768.2259899999998,mp-1206319,RbCoBr3,https://materialsproject.org/materials/mp-1206319,-2.137938798642833,14.51749840955955,8.30791468382522,-54.62978013098367
-4.861940601000001,-48.61940601,7.341942988121889,-1.071592174375,0.0,1.0006999999999993,129,10,225.307721370085,996.1804,mp-1078366,Bi2S2O,https://materialsproject.org/materials/mp-1078366,4.276089167370358,-6.840184610394981,0.9306310744139518,-10.894398311351347
-5.8510023362500005,-140.42405607,4.167873778344414,-2.171133413515625,0.0,3.512,14,24,367.46132624159736,922.3104,mp-4092,SrSeO4,https://materialsproject.org/materials/mp-4092,-29.711371659860287,-52.53780606351211,-27.721534889117304,-52.187137318721774
-4.804370376785714,-134.52237055,6.663788881372057,-0.3753194096428573,0.0,0.0,62,28,834.6081593903032,3349.30552,mp-28616,NbTe5Pd,https://materialsproject.org/materials/mp-28616,18.889070844216143,0.9076939949014929,16.548543129410007,-9.886418692655822