energy_per_atom,energy,density,formation_energy_per_atom,total_magnetization,band_gap,sgr,num_sites,cell_volume,weight,mp_id,formula,URL,tsne_cry_0,tsne_cry_1,tsne_xrd_0,tsne_xrd_1
-4.912390988,-24.56195494,2.8081723737003257,-3.471513610614,0.0,5.9262000000000015,221,5,61.669142191160965,104.28997888,mp-560399,NaMgF3,https://materialsproject.org/materials/mp-560399,-12.583754494986286,52.02437875074247,-2.2846103263372983,57.738818171783606
-7.074001511666666,-42.44400907,9.707505526766065,-0.5385173405555553,0.00022109999999999998,0.0,191,6,63.870818386174285,373.388585,mp-15709,LuCo3B2,https://materialsproject.org/materials/mp-15709,55.28398754257495,26.28886265606459,68.27903281165348,19.32550244637417
-5.216969104,-104.33938208,13.964024304005713,-0.4821284293333328,0.0,0.0,194,20,387.6112810371878,3259.552,mp-510439,In2Pt3,https://materialsproject.org/materials/mp-510439,62.670629803147676,58.47058574018963,77.33522931468917,14.43700225554784
-5.25817993375,-42.06543947,4.637061610005941,-1.5616978231250007,2.9999999,0.0,10,8,70.01107525913092,195.506195,mp-753276,Li2CoNiO4,https://materialsproject.org/materials/mp-753276,12.173707992899251,79.24742944393131,23.85018779395554,84.201945611976
-6.108072195909092,-134.37758831,4.613848990862364,-1.8061638429545452,5.997851799999999,0.0,12,22,218.57970948009202,607.329155,mp-753214,Li4NbCo5O12,https://materialsproject.org/materials/mp-753214,8.742320062753665,74.72251478878806,20.547450247485248,84.6044096174227
-4.91803145,-39.3442516,4.756191082153411,-1.3636370981250003,2.9909357999999995,0.0,10,8,69.86796922282305,200.11900000000003,mp-755308,Li2CuNiO4,https://materialsproject.org/materials/mp-755308,11.592018526942717,80.38989925214416,23.66766522355745,84.65820807493702
-10.058850165833332,-120.70620199,10.933615807351638,-0.3844596616666654,1.075e-05,0.0,194,12,165.8378682781285,1091.93912,mp-1218008,Ta2Cr3Si,https://materialsproject.org/materials/mp-1218008,71.05244979333519,50.09023398255302,71.34760678091227,20.745440774902875
-5.5186444571875,-176.59662263,4.346505064295498,-1.723445791875,15.9999997,0.07469999999999999,12,32,279.2681351442876,730.991765,mp-1175380,Li9Co7O16,https://materialsproject.org/materials/mp-1175380,9.357753157429824,85.00334652168517,10.704909611760387,93.51862273728399
-6.3341169375,-76.00940325,5.0391147694148515,-2.1328690260416674,0.0,1.5902000000000005,12,12,115.25189996156715,349.7464,mp-1176748,LiCu3(SiO3)2,https://materialsproject.org/materials/mp-1176748,24.748840515601085,50.4915148317101,50.784800216823704,5.8224547685400365
-6.4574331625,-77.48919795,4.333774966703897,-1.46903521774,9.0000007,0.5468,166,12,134.68258472548288,351.5027350000001,mp-1176568,Mn3NiO8,https://materialsproject.org/materials/mp-1176568,6.145562754113159,71.1101140956894,15.646898326550419,84.25467052243741
-6.2314949539999995,-62.31494954,4.247776397722549,-1.647743104442,6.999999799999999,0.6650999999999998,2,10,106.13736417851658,271.50689,mp-762633,LiMn2NiO6,https://materialsproject.org/materials/mp-762633,10.133241373269485,76.15107812123705,21.219613653340076,84.18687836485452
-5.7450191545,-114.90038309,4.302914592340842,-1.920214369375,15.974415300000002,0.0,166,20,176.52050875080272,457.4133186000001,mp-1222628,Li5Al(Co2O5)2,https://materialsproject.org/materials/mp-1222628,12.139182506761975,81.23661690259195,3.281360101931674,90.02173693803438
-3.66322035,-7.326440700000001,14.089679293484346,0.023236600000000163,0.0,0.0,166,2,30.702706727699752,260.512569,mp-1225677,CuAu,https://materialsproject.org/materials/mp-1225677,62.452908334385064,58.73112544584678,77.5091019370327,14.517436461329293
-9.126570915,-54.75942549,13.998375896962914,-0.07295612458333285,2.19217435,0.0,227,6,84.19112315832487,709.7327799999999,mp-310,NpCo2,https://materialsproject.org/materials/mp-310,71.77921773943578,50.15287552797585,71.59789612859092,22.55644856845681
-5.089281539275363,-351.16042621,5.0075722067031485,-1.3113622360144934,10.666667033333333,0.038000000000000256,1,69,627.8191436879707,1893.27057,mp-1177650,Li4Co2Ni5O12,https://materialsproject.org/materials/mp-1177650,11.213001172794817,79.1732222273405,28.49084966771603,77.40180017712467
-7.55784623625,-60.46276989,6.400084302597108,-0.3404652337499998,0.0481318,0.0,223,8,129.73880083153506,500.042,mp-1079796,Ti3Pd,https://materialsproject.org/materials/mp-1079796,49.829069248773784,40.58375115996253,70.25307125022496,19.403318002931133
-7.9751225,-31.90049,12.090457603767964,0.09393640749999843,0.22124899999999997,0.0,139,4,64.8456757311338,472.14421,mp-1187652,TmRu3,https://materialsproject.org/materials/mp-1187652,61.97487814423438,55.1324186956865,81.32312300779414,16.748670251595307
-5.323756942666666,-79.85635414,4.424636140365128,-1.4666630740639996,5.999999900000001,0.0,166,15,142.55030825772346,379.836445,mp-771310,Li3MnNi3O8,https://materialsproject.org/materials/mp-771310,12.16354317690026,80.79378151366198,22.309059192881737,84.04778945464393
-5.80544159125,-46.44353273,18.40293454375035,-0.30517443374999953,0.0006255,0.0,225,8,125.41323680937114,1389.8929999999998,mp-1206346,MgPt7,https://materialsproject.org/materials/mp-1206346,61.582025908052366,58.19406496915436,82.28908013319838,14.512969117794285
-6.54636684375,-52.37093475,6.745172794952249,-0.4933335142383344,2.47e-05,0.0,123,8,100.02955982524263,406.32388,mp-1079768,Ti2HPd,https://materialsproject.org/materials/mp-1079768,47.24953836995442,32.99785305870761,80.51617871827453,19.995791158701795
-5.8023513996875,-185.67524479,4.282748959745884,-1.8670024363099988,17.9999995,0.21340000000000006,2,32,280.32746488155794,723.001465,mp-1175603,Li9Mn2Co5O16,https://materialsproject.org/materials/mp-1175603,9.335905461790436,84.94990990843375,10.609462889509347,93.84549529369284
-7.9833780375,-31.93351215,11.933880090128712,0.10798910125000027,0.0003043,0.0,221,4,65.4633812062489,470.469,mp-1184213,ErRu3,https://materialsproject.org/materials/mp-1184213,61.97256125949394,54.97538424781767,81.24433314515309,16.64138056528958
-6.622406841,-66.22406841,2.66463478829202,-1.2037176599519994,1.8000000000000001e-06,3.3533,194,10,68.61171736145164,110.099892,mp-6977,Be3N2,https://materialsproject.org/materials/mp-6977,7.283817061261117,59.518863424543895,47.69679633768471,27.631969898542174
-5.7201549442857145,-80.08216922,4.4035588694275765,-1.5471538071428574,4.0000004,0.0,166,14,138.80902646410664,368.1056,mp-775286,Li2Fe3NiO8,https://materialsproject.org/materials/mp-775286,1.4629151035403336,68.65608472994568,17.479604506776873,83.9724430063935
-9.528837953,-95.28837953,6.648455006220955,-0.565826761951999,0.0028754,0.0,167,10,91.9136870116358,368.0034,mp-1096882,Cr3N2,https://materialsproject.org/materials/mp-1096882,30.95941361274365,57.54717583525707,83.53606205730061,19.049896779313208
-3.8604297275,-15.44171891,9.874224429878003,-0.4933001716666667,0.0,0.0,225,4,72.59202458235961,431.661,mp-20265,LiIn2Pt,https://materialsproject.org/materials/mp-20265,87.28021280699566,-0.8598461650208089,66.7688233465767,46.84136585406539
-4.90252172875,-78.44034766,6.300922950005938,0.2274936256549997,1e-07,0.0,123,16,227.02642404410992,861.4527999999998,mp-1105864,Cu11PdN4,https://materialsproject.org/materials/mp-1105864,31.106744803444577,50.7926458218842,86.98956891175608,6.746426668417831
-7.9644655525,-31.85786221,11.916123357421545,0.1269015862499998,0.00035089999999999996,0.0,139,4,65.56093103242307,470.469,mp-984705,ErRu3,https://materialsproject.org/materials/mp-984705,61.97865113326028,54.95368405675929,81.31126476852887,16.669851629842082
-5.483800282083332,-131.61120677,5.145038305389411,-1.5406585410416669,4.0000002,0.0,5,24,209.2863193988324,648.4557749999999,mp-764915,Li5Co5(CuO6)2,https://materialsproject.org/materials/mp-764915,11.009928051409473,79.18144590467924,28.375337105675435,77.43737875334926
-6.2424362,-124.848724,3.961136498187911,-1.6586843504420004,6.999999099999999,1.3384,15,20,227.63557412385742,543.01378,mp-25284,LiMn2NiO6,https://materialsproject.org/materials/mp-25284,9.829638398338307,74.56094226973255,17.25577959661787,88.70513538976353
-9.6883748625,-116.26049835,11.305547980820405,-0.26413275249999896,1.148569975,0.0,194,12,169.41882023569298,1153.46436,mp-11449,HfMn2,https://materialsproject.org/materials/mp-11449,71.26421018325534,49.859166852287004,71.0971947901952,21.39021862213028
-6.03060408857143,-84.42845724,4.3129205379816735,-1.676393109285714,8.9968196,0.4008000000000001,12,14,142.71461558157412,370.672885,mp-752954,Li2CrCo3O8,https://materialsproject.org/materials/mp-752954,10.414707553739227,76.5715831502105,21.410960192875642,83.56587476254337
-8.66333571,-17.32667142,14.272651573425215,-0.14653616500000055,2.62e-05,0.0,166,2,33.433562160973985,287.36787999999996,mp-1217896,TaPd,https://materialsproject.org/materials/mp-1217896,63.726329845469124,58.3830417188199,57.643951932512216,38.102415504184016
-7.2043991475,-28.81759659,12.162022360527008,-0.5746511400000003,2.7000000000000004e-06,0.0,221,4,65.21593431804453,477.65070999999995,mp-1187567,TmRh3,https://materialsproject.org/materials/mp-1187567,61.99253198781406,55.08810371032614,81.26085934671691,16.639009700416498
-6.4495135875,-25.79805435,11.329031373554955,0.8797655624999994,6.38e-05,0.0,221,4,63.043507035482044,430.11447000000004,mp-974457,Ru3I,https://materialsproject.org/materials/mp-974457,67.31358630199179,60.642126819533615,88.29578993804175,18.284425170484468
-4.9325710339999995,-49.32571034,2.8984298862322064,-3.514500376964,0.0,6.2834,225,10,128.72624890183016,224.68848848,mp-1223317,KNaMg2F6,https://materialsproject.org/materials/mp-1223317,-12.665371797004573,52.01017589157894,-2.380307321925226,57.79035989258218
-6.157339646428571,-86.20275505,4.08904567762804,-2.178310066428572,1.0,0.3386000000000005,74,14,128.09642478394605,315.435,mp-761324,LiSiNiO4,https://materialsproject.org/materials/mp-761324,-0.6008225650637757,72.29323278393596,3.447784612772931,57.98272887989642
-4.6339217659375,-148.28549651,4.478228806549682,-1.0309283475000006,5.0000004,0.1995,2,32,345.28349540784035,931.1786464,mp-760267,Na5(NiO2)9,https://materialsproject.org/materials/mp-760267,7.140752588541889,74.12413276221393,18.321978652899407,91.41092399477176
-5.751021623076923,-74.7632811,4.6211310893791,-1.4156651730769223,5.9999997,0.0,216,13,139.43424231752618,388.03298,mp-1222210,Mg(CoO2)4,https://materialsproject.org/materials/mp-1222210,1.7287684393640452,68.62787277327931,17.354835387318346,83.46654913129125
-5.30941562625,-42.47532501,4.781735087612357,-1.5523040418749998,1.9896352,0.0,119,8,69.57800777520369,200.358795,mp-755354,Li2CoCuO4,https://materialsproject.org/materials/mp-755354,13.612150050638759,77.97533327608528,8.702929167693176,75.39522818544756
-8.5212706675,-34.08508267,10.934483821637142,-0.5768950750000004,0.00023740000000000002,0.0,225,4,69.8806976712429,460.1574186,mp-865149,PaAlRu2,https://materialsproject.org/materials/mp-865149,87.61683540811657,1.2766293551030434,65.46991452422297,48.23719840255572
-6.443755856,-32.21877928,2.8485835088080385,-1.0250666749519994,0.0,4.246,164,5,32.09054050907657,55.049946,mp-1017550,Be3N2,https://materialsproject.org/materials/mp-1017550,7.440410755234568,59.78149664869336,85.21979751392728,19.180997504900155
-9.68229478,-232.37507472,11.202686596090686,-0.2580526699999979,1.546929675,0.0,194,24,341.9487967639845,2306.92872,mp-1190880,HfMn2,https://materialsproject.org/materials/mp-1190880,71.32629891890359,49.834029525771534,71.05305072956197,21.665092594324413
-7.0536631483333325,-42.32197889,9.470211276169806,-0.5261274022222212,2.3800000000000003e-05,0.0,191,6,64.41341395441944,367.355795,mp-5714,TmCo3B2,https://materialsproject.org/materials/mp-5714,55.28388618866561,26.27055806373751,68.26023036846225,19.316135438394802
-4.93697368125,-157.98315780000001,5.055299974077941,-0.7741199506249998,0.0,0.013800000000000257,137,32,418.05864840377365,1272.7264,mp-510751,CuO,https://materialsproject.org/materials/mp-510751,26.02916301472393,50.164007772398904,13.222145615655078,45.5931479810192
-2.9656745975,-11.86269839,11.852239104791398,0.18527553333333333,1.4400000000000001e-05,0.03730000000000011,216,4,71.81602401073908,512.5930000000001,mp-11882,TiCuHg2,https://materialsproject.org/materials/mp-11882,88.09904385709929,0.7031592186149667,66.19255312772364,47.45601210459929
-7.770935443333332,-23.31280633,16.28791482453711,-0.3620031199999995,8.2e-06,0.0,164,3,49.249021489562715,483.07437999999996,mp-1220321,NbPt2,https://materialsproject.org/materials/mp-1220321,63.63923026349735,58.513916107279556,82.63883017501165,17.249375119871253
-7.454392634047619,-313.08449063,2.8921931522614583,-3.1986813554761904,0.0,5.819099999999999,148,42,379.30608284117625,660.644784,mp-3347,Be2SiO4,https://materialsproject.org/materials/mp-3347,-34.680224407964175,43.010719984478996,-0.2934049091820013,54.73933055565172
-7.125050278888889,-128.25090502,4.166734757330036,-1.8065679622111108,17.0000042,0.7755000000000001,12,18,206.70548677963748,518.679125,mp-1176453,Mn5CrO12,https://materialsproject.org/materials/mp-1176453,6.397443046490527,70.90883092987312,15.02251021050822,84.30075674386958
-5.5133929553571415,-154.37500275,4.287282515102588,-1.7330515297321436,9.00000015,0.7572999999999999,2,28,245.2179045440453,633.11877,mp-1174197,Li4Co3O7,https://materialsproject.org/materials/mp-1174197,9.942121273129851,85.56920401321335,9.565946165747425,95.32338256715107
-6.601355575833334,-316.86506764,4.171360633784902,-1.4778128094066671,13.999999925,0.2127000000000001,212,48,560.0879467123913,1406.9701200000004,mp-758012,Mn3CoO8,https://materialsproject.org/materials/mp-758012,6.366095385605044,70.91372930934705,16.130978185941142,84.1193062159763
-4.862050910625,-77.79281457,4.621040183170625,-1.3682860325000004,0.99999995,0.0,12,16,140.3352784427772,390.5328,mp-752850,LiNiO2,https://materialsproject.org/materials/mp-752850,11.904409104843946,79.5076088309682,23.809612884660183,84.15727686570878
-5.093607816666666,-61.1232938,4.6179368459157315,-1.464698116875,4.0,0.0,164,12,105.40841631257841,293.13939500000004,mp-1222524,Li3Co(NiO3)2,https://materialsproject.org/materials/mp-1222524,11.761796339381526,80.40212875328294,23.868359262992392,84.08214105748857
-5.272229125,-231.9780815,1.1965580029178746,-1.3936772146590906,0.001562025,0.0,1,44,1464.6479970644086,1055.4020352,mp-1244893,Al8O3,https://materialsproject.org/materials/mp-1244893,8.88672610113206,65.22745631930049,21.893625415556713,56.8133770295705
-3.49554582,-13.98218328,16.319279497986546,-0.015506530000000131,1e-07,0.0,221,4,66.5919501022077,654.4457070000002,mp-2103,CuAu3,https://materialsproject.org/materials/mp-2103,63.65190519604038,55.35598743375489,57.24384321904883,36.85970146669929
-8.949279576,-44.74639788,8.758370207069174,-0.2780659767500012,0.0,0.0,221,5,68.28751370182961,360.17661200000003,mp-7130,ScRu3C,https://materialsproject.org/materials/mp-7130,48.99671910018466,35.27668238819096,56.62158765792289,36.45305989546042
-5.7751971646875,-184.80630927,4.262613645373809,-1.83984820131,16.0000013,0.000800000000000356,3,32,281.6516481414326,723.001465,mp-1176305,Li9Mn2Co5O16,https://materialsproject.org/materials/mp-1176305,11.165964476408837,85.751513239549,9.348237999919887,95.44259642605421
-5.838260274285713,-163.47128768,4.7040279173593,-1.6020103467857143,10.9999999,0.0,8,28,263.32497256536305,745.955375,mp-781613,Li4Fe3Co5O16,https://materialsproject.org/materials/mp-781613,-2.1056553839924947,72.17849765434063,2.6975547987706023,60.162644964728706
-9.183638625,-36.7345545,14.261510706777733,-0.09049239671875142,0.06900869999999999,0.003600000000000492,221,4,64.35554726092062,552.7165,mp-1678,PuRh3,https://materialsproject.org/materials/mp-1678,63.14155622205635,55.955131509299896,80.34948249179064,15.477331359385133
-7.0744952922352935,-601.33209984,4.130389544399752,-1.8041141344338816,85.000001,0.0,146,85,981.4237765556186,2441.17266,mp-775739,LiMn28O56,https://materialsproject.org/materials/mp-775739,6.4256042530271955,70.87988817940767,16.102667579548154,84.06238545828592
-6.030562022000001,-30.15281011,6.619039298672117,-0.5401880261146672,0.026179400000000005,0.0,139,5,51.22073479759067,204.16988,mp-1070391,Ti2H2Pd,https://materialsproject.org/materials/mp-1070391,47.04597330680581,32.969754973800455,80.49053187094616,20.053401982014734
-3.365599075,-13.462396300000002,5.700442128856403,-0.1912214324999999,5.59e-05,0.0,225,4,71.76089181155244,246.347,mp-1185622,MgZrZn2,https://materialsproject.org/materials/mp-1185622,89.02418561991324,-0.2497506789812332,71.10022231325418,55.10789356886391
-5.03843765,-15.11531295,7.285944372732708,0.3452479258733341,5e-07,0.0,123,3,32.15779422089797,141.0987,mp-1147700,Cu2N,https://materialsproject.org/materials/mp-1147700,30.42391172745132,58.03039068174685,84.03249906214137,18.477874461239203
-7.58246782,-75.8246782,4.152146289280843,-3.1598173652500003,3.0,3.6388000000000007,146,10,91.55723137027158,228.9371158,mp-1228485,Al3CrO6,https://materialsproject.org/materials/mp-1228485,7.219330562138448,61.527019915520896,7.422008707396007,50.228602220837885
-4.636695340357143,-129.82746953,4.361997816571718,-0.997756018857144,1.000000025,0.0,13,28,311.20720470578783,817.49667712,mp-764934,Na(NiO2)2,https://materialsproject.org/materials/mp-764934,7.086857792514037,74.24855721354967,17.754165522303687,90.95261090630365
-5.531093485625,-176.99499154,4.336838492958686,-1.7358948203124998,18.0000001,0.653,2,32,279.89060825571516,730.991765,mp-1175467,Li9Co7O16,https://materialsproject.org/materials/mp-1175467,8.875495636708267,85.44404984579339,10.430005750726648,95.19264254387043
-5.579521006428571,-156.22658818,4.139071819468684,-1.509809039714286,0.0,0.19409999999999966,59,28,354.58820229884384,883.84916,mp-752629,K(CoO2)2,https://materialsproject.org/materials/mp-752629,7.027284407203991,74.06628291829432,-7.881229403637387,63.060963962498896
-5.212364036666666,-15.63709211,2.5354949156440205,-0.6494224624999999,2.6361299,0.0,42,3,59.55292071419179,90.931995,mp-1062643,CoO2,https://materialsproject.org/materials/mp-1062643,5.866378932697952,75.17980116992484,17.978048111313818,89.7456298135727
-4.794803187857143,-67.12724463,4.3984167041543625,-1.5623959506207157,1.0000011,0.0,12,14,120.37163549970552,318.8390032,mp-761276,Li4Ni3O6F,https://materialsproject.org/materials/mp-761276,8.775579347878361,83.27168640190696,13.919040034457268,91.54617252410858
-6.1905492127777775,-445.71954332,3.732605563758903,-2.1929327607716664,34.999999700000004,1.2342000000000002,5,72,622.3239564633047,1398.8769949999999,mp-770619,Li24Mn11CrO36,https://materialsproject.org/materials/mp-770619,-11.290934409487994,100.74469917135464,-12.132988270961773,98.89697535863245
-9.095562445,-36.38224978,14.065650467743527,-0.35014508218750073,0.0001079,0.0,221,4,64.42528591907586,545.7165,mp-11536,NpRh3,https://materialsproject.org/materials/mp-11536,63.15546606578041,55.95461487588087,80.36898357699889,15.492862812820732
-7.94712232375,-63.57697859,10.651800736164574,0.2778506213099989,0.0246475,0.0,194,8,86.34490625634001,553.8736,mp-1246809,NiOsN2,https://materialsproject.org/materials/mp-1246809,50.75791770850176,19.206379615022854,50.07088030608513,6.718685710884805
-6.190477954861112,-445.71441275,3.7306711099663685,-2.192861502855,34.9999989,1.2311,5,72,622.6466482531407,1398.8769949999999,mp-770622,Li24Mn11CrO36,https://materialsproject.org/materials/mp-770622,-11.286986627534757,100.72158524525035,-12.125372828637474,98.91648082897757
-8.000703656666667,-24.00211097,4.1717378352638725,-3.4860060972022238,1.3e-06,0.0,123,3,32.98391370435035,82.8648032,mp-753657,TiOF,https://materialsproject.org/materials/mp-753657,-10.99854687398385,72.85323668886319,-4.326749502053478,57.89836241415722