energy_per_atom,energy,density,formation_energy_per_atom,total_magnetization,band_gap,sgr,num_sites,cell_volume,weight,mp_id,formula,URL,tsne_cry_0,tsne_cry_1,tsne_xrd_0,tsne_xrd_1
-4.021855376111112,-217.18019031,4.651283322629669,-0.12734291692592592,1.9e-06,0.0,223,54,1394.9300530472028,3907.2944,mp-640312,K4In3Ge20,https://materialsproject.org/materials/mp-640312,15.075169299338913,21.214781613617767,15.484166736599596,-46.629497742363405
-2.9300411,-29.300410999999997,3.6998206062962615,-1.3124187205189657,0.00073,1.4401,225,10,333.5028397417202,743.07236928,mp-1110631,Rb2NaGaBr6,https://materialsproject.org/materials/mp-1110631,-0.7786456836216193,14.243988506222134,-27.686956763337182,-70.26846651449735
-3.767213364,-37.67213364,3.962568838299675,-1.5195622909559998,9.109999999999999e-05,2.8093000000000004,148,10,262.0058584494352,625.22845,mp-35906,Y(AgCl2)3,https://materialsproject.org/materials/mp-35906,11.589814854223006,13.014913838672712,-7.846855050287102,-11.707730969913984
-6.5652170195,-262.60868078,5.9086480606169065,-2.1346561049375,3.000231875,0.2661000000000007,58,40,810.6882602991292,2884.6486,mp-1208516,Tb3CrS6,https://materialsproject.org/materials/mp-1208516,12.856629481658926,-4.046804099515435,-4.309158810838153,-17.309757244980304
-8.575084646,-85.75084646,5.124407311533597,-2.1894106399560007,13.99998125,0.17220000000000013,12,10,272.75458695972094,841.7180000000002,mp-1078829,Gd2Cl3,https://materialsproject.org/materials/mp-1078829,6.066731322550031,-0.599551187679115,-3.5862656155502415,-21.303897145280455
-5.474325195,-43.79460156,5.450140064349941,-0.4914060192968748,4.999999900000001,0.2291000000000003,8,8,179.48413222490123,589.094045,mp-1215404,ZrMn(CuSe2)2,https://materialsproject.org/materials/mp-1215404,34.32392185521492,20.683445162318925,54.69077196654798,-3.0848263037132893
-7.693478609642857,-215.41740107,6.270479651487335,-3.595844682500001,0.0,3.131,62,28,507.5358274595549,1916.5421600000002,mp-752656,BaLa2O4,https://materialsproject.org/materials/mp-752656,-7.6722739087697835,-62.54049331050456,-0.4673055153420935,-58.77577052672129
-6.2925221633333335,-94.38783245,6.362646387708868,-0.11943895933333315,25.728471799999998,0.0,12,15,361.401371341057,1384.7727,mp-1213756,Cr7Te8,https://materialsproject.org/materials/mp-1213756,21.937347451145786,8.597710425288208,26.90216084697229,-39.83428570540496
-6.5969571688888875,-59.37261452,2.814763690136344,-3.1886898439601663,0.0,5.9598,155,9,118.16371397545684,200.2981704,mp-7323,RbBe2BO3F2,https://materialsproject.org/materials/mp-7323,-28.90744905748531,-19.06454599360888,-14.365139058968587,-11.052305007811253
-3.7232870355555554,-134.03833328,3.7603747672080208,-0.755153976873333,9.675e-06,2.5469999999999997,62,36,653.8364854413411,1480.64584,mp-541375,CdH4Br3N,https://materialsproject.org/materials/mp-541375,-3.2014108338134504,7.752719245383796,-0.23097683786727574,-16.711283404834724
-4.2718155795,-85.43631159,4.460842705427809,-0.2326751915000003,0.0,0.8219000000000003,92,20,482.4203890172001,1295.9656,mp-7623,MgAs4,https://materialsproject.org/materials/mp-7623,13.507496337898795,22.85524114655812,18.2523739878539,-47.525317417204924
-8.320685234210528,-158.09301945,6.444208223002484,-3.6425190442105273,0.0,3.462699999999999,148,19,311.60271397999963,1209.26562,mp-755135,La6WO12,https://materialsproject.org/materials/mp-755135,-23.335570247110887,-66.54873597393697,-15.880584833321073,-66.8161842611015
-4.2510440014999995,-85.02088003,4.779238248897803,-0.9291298541041668,0.0,1.7866000000000004,11,20,486.9347224713581,1401.4588,mp-556231,In2GaBiS6,https://materialsproject.org/materials/mp-556231,-0.008124031465986873,-3.1041447521658823,-6.542879084745415,-18.24142163343
-4.4211127830555546,-159.16006019,4.520293419663811,-0.6882705597569448,0.0,1.045,62,36,942.2800412498848,2565.06,mp-17835,Sn2Sb2S5,https://materialsproject.org/materials/mp-17835,6.0731610394760605,-6.524560239984384,-6.233601746749773,-15.09129932358362
-5.463064257857144,-152.96579922,4.9863529637290815,-1.1808033383836207,5e-08,2.4394,225,28,1061.1347079706618,3186.4304714,mp-669364,Cs3Re3(SI)4,https://materialsproject.org/materials/mp-669364,-4.212812705581499,1.2068485681442138,-38.5441758892911,-36.50208958346934
-4.628638072941177,-157.37369448,4.2398041106638376,-0.7281550717979846,0.0,1.1788999999999998,9,34,1085.4299717919162,2771.39552,mp-683902,Rb3Nb2AsSe11,https://materialsproject.org/materials/mp-683902,-0.6496300308828573,1.577031937296839,-31.10281418688217,-38.85194651271002
-6.5268868324324325,-241.4948128,5.9022704912956225,-2.46753483633446,4.3703959999999995,0.0,12,37,873.7667152517519,3105.743,mp-1213853,Ce4(ErS2)11,https://materialsproject.org/materials/mp-1213853,8.900572508438213,-3.015903077922341,-5.4112439845411435,-14.724738550739861
-7.860913690499999,-157.21827381,6.024137707495951,-3.5440202510000005,0.0,3.8351000000000006,36,20,321.0940545384842,1164.87162,mp-754150,La3GaO6,https://materialsproject.org/materials/mp-754150,-10.869182305255453,-62.05852560439206,-6.765914734775713,-61.821023002349776
-4.0617867755,-81.23573551,5.010324703805664,-0.6535719454999999,0.0,0.1538999999999997,10,20,499.66617186289545,1507.6368,mp-972120,Sr(GaAs)2,https://materialsproject.org/materials/mp-972120,22.032838040766734,-8.247391112947076,4.369438762912543,-21.203712814405968
-5.946818245714287,-83.25545544,3.372518808067672,-1.9059999614880965,0.006962,0.0,74,14,334.16158588760163,678.67494,mp-1246901,LaMgTiS4,https://materialsproject.org/materials/mp-1246901,12.366265714046927,7.684377079757575,-24.283416553349646,-78.70421859218283
-4.139253735833333,-49.67104483,5.692698379370299,-1.2056034078313578,0.9855985999999999,0.0,63,12,414.49545183763496,1420.9829037999998,mp-574472,CsCeHgSe3,https://materialsproject.org/materials/mp-574472,10.125434821947856,0.5395853319118802,-3.3863867567883648,-20.01849712292028
-2.4757974238888893,-89.12870726,5.823734753315593,-0.5769376861527777,0.0013950999999999998,1.1021,60,36,1135.7493468590703,3983.2264,mp-1212008,K2Hg3Se4,https://materialsproject.org/materials/mp-1212008,-3.2760018773966064,1.5140169172965845,-35.35702620544896,-40.33015323931654
-2.878273559166667,-103.61784813,3.822273133450381,-1.1077735770210728,0.0,0.0,88,36,1341.7510414194767,3088.4784,mp-568477,Rb2SbBr6,https://materialsproject.org/materials/mp-568477,-0.12292014902098045,14.0459963665105,-27.88022626814448,-70.47560980602935
-3.116109708,-124.64438832,4.0567806528549415,-1.2131268478620691,0.0,2.3785,62,40,1515.0376527037718,3701.3134228,mp-582423,Cs3Cu2Br5,https://materialsproject.org/materials/mp-582423,-7.968417310452972,-5.89419594834769,-29.50215154588097,-47.23653485776556
-5.946164192647059,-202.16958255,4.254065778662353,-3.4021149194394122,15.00000185,3.6848,161,34,524.1822551638958,1342.88067896,mp-1228567,Ba2NaMn3F11,https://materialsproject.org/materials/mp-1228567,-14.559525727732488,-24.650015325164965,-17.097277026753808,-14.084235305600386
-4.256125648461539,-55.32963343,5.179025593610239,-0.4653172045673076,0.0047485,0.0,1,13,250.93811147002057,782.6464,mp-675590,Cu6BiS6,https://materialsproject.org/materials/mp-675590,-2.4421711469381457,-4.0300595387624165,-25.146464470245657,-43.745529178377716
-6.3100431314285705,-353.36241536,3.5638436007631045,-2.253360645178572,0.0,1.4213000000000005,29,56,1231.4870565900223,2643.0136,mp-1232029,Y2MgS4,https://materialsproject.org/materials/mp-1232029,17.214364709765835,5.648872937384424,-2.6316460680746143,-16.666446873258188
-4.01084105625,-32.08672845,4.7910752055600145,-0.6218971622135419,0.0,1.136,122,8,202.9421621734153,585.5394772000001,mp-14091,AlAgSe2,https://materialsproject.org/materials/mp-14091,14.916714756375814,14.740839755651116,5.757636735551207,-17.080634086061483
-7.310404762857143,-102.34566668,4.261034451334627,-1.6675133308928574,0.0096112,0.0,227,14,313.2684258003273,803.8639999999999,mp-1103820,Zr3S4,https://materialsproject.org/materials/mp-1103820,3.7703602977833266,26.27902350320916,-20.913685143000226,-77.58319178569502
-8.404859148,-336.19436592,5.839899978601978,-3.89837342025,0.0,3.532,206,40,741.1343324936066,2606.47312,mp-2292,La2O3,https://materialsproject.org/materials/mp-2292,-9.700454001716404,-61.39098501319018,-15.890531079616096,-66.86412523750575
-3.769371057083333,-180.92981074,5.5253063411854235,-0.5582721670833332,9.0175e-05,0.0,31,48,1562.3805251463393,5198.692000000001,mp-1228664,Ba3Ga4Sb5,https://materialsproject.org/materials/mp-1228664,7.01803458143891,-31.250619253185054,-1.2143224120462528,-31.20747423733797
-3.5248806100000003,-35.248806099999996,4.366868798781903,-0.7302077473333337,0.0,1.0878,15,10,422.4557099709572,1110.96976,mp-541013,TiI4,https://materialsproject.org/materials/mp-541013,-6.492869599934423,-12.951671756488269,-19.396428036509462,-14.78843701238013
-3.882917172857143,-326.16504252,4.318155464084349,-0.7464844215059531,0.0,1.1197,60,84,2156.8322693331825,5608.743200000001,mp-559880,K2Ag6Sn3S10,https://materialsproject.org/materials/mp-559880,-4.311049366119638,-1.842568077971643,-32.87809427108285,-40.696137108709436
-4.021458954285714,-56.30042536,4.536401429500047,-0.8624233608928569,0.00103195,0.0,227,14,346.07168873988724,945.428,mp-556597,In3S4,https://materialsproject.org/materials/mp-556597,10.772641904048331,12.602106453345408,-20.8445947472362,-75.25082496692966
-4.019617582857143,-28.13732308,3.769206152916609,-1.2351527714285713,4.9999995,1.7795999999999998,65,7,171.12707320786518,388.43604500000004,mp-28250,Li2MnBr4,https://materialsproject.org/materials/mp-28250,20.50773186284956,11.007978622677108,-28.367884338714088,-70.70561617810075
-2.2133973444444446,-79.6823044,6.114790489028385,-0.4896421434099619,6e-07,1.0159,60,36,1393.7661118990684,5132.4224,mp-29107,Rb2Hg3Te4,https://materialsproject.org/materials/mp-29107,12.013848895171176,1.6083976634803705,-11.206502662732033,-8.892768428023189
-2.75518536625,-22.04148293,4.176095810624796,-0.8454596970833335,0.0,2.4965,12,8,281.9431988861009,709.06,mp-570219,InBr3,https://materialsproject.org/materials/mp-570219,-0.3199596432303904,4.779791722684255,-25.31313072804192,-75.47045418801952
-3.543931386,-17.71965693,4.294972904082194,-0.8072032151999998,0.0,0.7676999999999996,71,5,170.0435953963558,439.8166,mp-1206350,K2Te2Pd,https://materialsproject.org/materials/mp-1206350,-2.689293129358953,4.858496100107962,-27.89320804805049,-78.51414792445323
-2.9680588425,-59.36117685,3.1322620117695816,-1.810734521056,0.0,3.5099,62,20,546.8257479348206,1031.4732,mp-23442,KCdCl3,https://materialsproject.org/materials/mp-23442,-26.384845254706697,-2.6218220126698166,-34.204212533429285,-33.57674546931874
-4.737510313571429,-66.32514439,5.733752024594338,-0.3899713815773812,2.99883505,0.0,74,14,344.2939795269941,1188.8285999999996,mp-1226303,CrAgSnSe4,https://materialsproject.org/materials/mp-1226303,29.120207543209766,26.23564664579082,-20.180837649596114,-75.36125071867795
-5.60274883,-22.41099532,5.435830167847552,-1.2163300192968751,0.0,1.0768999999999995,156,4,94.81248639637005,310.37185,mp-675902,YCuSe2,https://materialsproject.org/materials/mp-675902,32.72058137152541,-3.521365795950921,16.024489386984538,15.31753599739143
-5.991827163888888,-215.70577790000002,2.8663804734517555,-2.2453028908892056,0.0,5.7674,14,36,430.11911221476987,742.460728,mp-24171,SrPH3O4,https://materialsproject.org/materials/mp-24171,-34.44901345585071,-24.752022905716558,-31.164402232466745,-32.60900336080374
-6.87035795090909,-302.29574984,3.9043938402430665,-2.488501516477273,1.99963995,0.8635000000000002,2,44,665.5572097723384,1564.9120000000007,mp-1101369,Sr2Cr2O7,https://materialsproject.org/materials/mp-1101369,-23.05049094971375,-33.21159844529392,-5.441244289027688,-25.456140149260502
-4.129433829,-123.88301487,3.5303361598318066,-1.350532625933333,1.0986627166666667,0.0,173,30,921.9412297966028,1960.0638,mp-567718,KTiBr3,https://materialsproject.org/materials/mp-567718,-2.2765004741339854,14.147339422272545,0.11471350699985228,-35.76577724351045
-6.454647832499999,-129.09295665,3.7785183462518153,-2.1327146009375,9.9e-06,2.0516,36,20,464.80852723172086,1057.6611,mp-1189598,Y3GaS6,https://materialsproject.org/materials/mp-1189598,9.484907159254412,-4.377392034558008,-8.085094726629453,-13.532667568332307
-3.2843962821428567,-91.9630959,3.449708844789945,-0.8013970591428569,3.25e-07,1.056,15,28,1102.758179093118,2290.9396,mp-27331,K3GeTe3,https://materialsproject.org/materials/mp-27331,-2.497061990518485,-1.7145003397837757,-33.78672280917551,-27.084848720720373
-6.422130641621622,-237.61883374,5.942852008415724,-2.4891816355236496,0.0004905,0.0,12,37,872.4116011438452,3122.2470000000003,mp-1200469,Nd4(ErS2)11,https://materialsproject.org/materials/mp-1200469,8.900786677381701,-3.0188029441755364,-5.3747833305956005,-14.673695421870999
-7.95506412,-47.73038472,6.312728971220095,-4.094634601646668,0.99999995,0.0,166,6,92.12602282853136,350.22760639999996,mp-755007,CeOF,https://materialsproject.org/materials/mp-755007,-23.937533805983616,-66.67828496926599,-16.059310284472655,-67.85902166974317
-6.856712270526316,-130.27753314,3.0991531598573645,-2.852855534434794,2e-07,5.5916000000000015,82,19,307.78916770932074,574.443448,mp-1209338,Rb2Sr(PO3)4,https://materialsproject.org/materials/mp-1209338,-32.98183652523838,-18.761069198437127,-11.153192911512694,-22.109331951537815
-3.7999631371428566,-26.59974196,5.020637223043573,-0.691692500625,0.0,1.43,82,7,188.6533383629247,570.3930772000001,mp-3038,Al2HgSe4,https://materialsproject.org/materials/mp-3038,14.091537228404373,14.363778720330092,-27.742807549001245,-64.42491307825983
-7.117931880694443,-512.49109541,4.070636123592066,-3.3449244676355545,0.0,4.1748,62,72,1033.7398177859725,2534.1040128000004,mp-560818,Sr5B3O9F,https://materialsproject.org/materials/mp-560818,-18.05435203220809,-32.32727999481432,-6.677744908760205,-19.303047682755686
-4.436811839375,-212.96696829,4.201791724700537,-0.23351495794583366,0.0449642,0.0,1,48,812.2872029591617,2055.3938,mp-1012740,H6RuCI3N,https://materialsproject.org/materials/mp-1012740,-1.5394822877671386,5.324141164082117,-34.02248066373868,-30.659655212589588
-3.631566855,-14.52626742,4.271198709511595,-1.2695902582812502,0.0,0.7236000000000002,123,4,78.08408053812524,200.84599999999998,mp-1222003,MgCdS2,https://materialsproject.org/materials/mp-1222003,14.363806502785359,10.307660346680787,-27.665104427247414,-74.03946568071986
-4.3239714775,-51.88765773,5.281468454899795,-0.9901847294980244,3.3769117999999994,0.0,63,12,378.3961730976517,1203.5172937999998,mp-542948,CsYbCoSe3,https://materialsproject.org/materials/mp-542948,10.166793902943438,0.6870844715402393,-2.908738659401476,-19.931134894489784
-5.8356746753333315,-350.14048052,6.031806940406367,-2.2643913357708336,1.4008333333333331e-05,0.2667999999999999,62,60,1352.3177845952318,4912.212,mp-684004,YbCeS3,https://materialsproject.org/materials/mp-684004,13.110722122900887,-6.006948636413939,-3.161159913822312,-13.210820423241836
-4.6130464024615385,-599.69603232,1.892894062394856,-0.5332897813935382,0.0,2.1217,36,130,1673.1631919891604,1907.28468,mp-1229317,Cd3H36C10N5Cl11,https://materialsproject.org/materials/mp-1229317,-27.244096912427892,-2.772862595578537,-74.20171202648739,-10.800887113079591
-6.9648707540000006,-139.29741508,6.0088976012930635,-4.055983642626249,0.0,3.4622,6,20,318.23114446409403,1151.564832,mp-1220289,Nd3SOF5,https://materialsproject.org/materials/mp-1220289,-12.34097383765264,-32.426259018865416,-25.2598822919925,-43.365761051845496
-4.96352479,-14.89057437,4.0659056898565655,-0.8511131566666664,2.9999992000000004,1.0943,164,3,86.07129606659065,210.7495,mp-971787,VBr2,https://materialsproject.org/materials/mp-971787,20.10733866568221,11.10943475575642,27.814980617702503,-43.13067471273981
-2.032958685,-8.13183474,2.803070986605308,0.2845431199999999,0.00365545,0.0,194,4,111.40436014587826,188.056,mp-1095013,MgGa,https://materialsproject.org/materials/mp-1095013,22.517328859468016,9.434668211161405,26.094816515033077,-38.54176451484082
-5.369846195166667,-644.38154342,4.306569838774497,-1.6189080024999996,0.9999799375,0.1543000000000001,88,120,3901.280762207333,10117.882,mp-1198882,Y5RuBr9,https://materialsproject.org/materials/mp-1198882,20.71661083725148,0.4787365757486751,12.676460112152464,3.022253414253644
-4.076503268,-40.76503268,4.902812311210081,-0.12366692315624946,3.805e-05,0.6339000000000001,12,10,261.95943491674547,773.4464,mp-1078443,As2Se3,https://materialsproject.org/materials/mp-1078443,6.630912226825795,0.8915443309129142,25.617806291226447,-46.05641469997535
-3.825149760625,-61.20239617,5.819267395093558,-0.12529971979166676,0.0,0.0,205,16,433.140451321596,1517.9168,mp-20412,InAs,https://materialsproject.org/materials/mp-20412,21.166608002440125,8.074915099570731,28.00764070308661,-38.05682037230521
-3.7649651965,-75.29930393,2.2259631777595468,0.1319590865000002,0.00032905,0.0,1,20,396.466594888108,531.466,mp-1073232,Mg2Si3,https://materialsproject.org/materials/mp-1073232,35.173301676208865,20.544046777545315,54.787467797483714,-1.4574459601609655
-7.857841354736843,-149.29898574,6.0772789933605385,-3.426117540000001,3.0788924,0.029100000000000126,148,19,321.96812404929875,1178.3463499999998,mp-22671,Pr7O12,https://materialsproject.org/materials/mp-22671,-23.826111634157854,-66.80437674140259,-15.951087472302408,-66.94521654507082
-6.5348488,-45.7439416,2.930318288361091,-2.803469232741429,0.0,4.0934,187,7,116.57962105959902,205.7256032,mp-865427,KSrCO3F,https://materialsproject.org/materials/mp-865427,-18.80570266552929,-23.66202795894004,-40.22951430566924,-54.35441005554083
-4.8943054,-337.7070726,5.614398834535959,-1.5402475674275369,21.5430034,0.0,8,69,1620.9054825498456,5480.395,mp-675360,Yb22Fe7S40,https://materialsproject.org/materials/mp-675360,12.034827169708192,6.7332192386683225,-23.177860294453826,-78.658447611259
-4.447745589,-44.47745589,3.735136740440912,-0.6711014308571436,1.5e-07,0.17439999999999944,194,10,214.7031932239055,482.94304800000003,mp-1078849,Ca(GaP)2,https://materialsproject.org/materials/mp-1078849,14.927666878951564,23.06997953277821,-9.55050949576309,-72.92533533067065
-3.2639651975,-26.11172158,5.8948937827153065,-0.2819771750000002,0.0,0.5065,121,8,260.44510055258223,924.577,mp-1223857,In3GaTe4,https://materialsproject.org/materials/mp-1223857,7.863500816925356,-31.19635427400987,4.075692223610487,-31.92189717900835
-3.2042915588888885,-28.83862403,2.9769523558801834,-1.1177981820354408,0.0,0.193,143,9,312.8160900821217,560.805,mp-776922,Rb2O,https://materialsproject.org/materials/mp-776922,-7.9113714310765175,-11.975618442722835,-36.388638219953535,-15.123357859538114
-3.2733950042857143,-91.65506012,4.703721676036217,-0.41077920714285693,0.0,1.255,62,28,1015.1259313125033,2875.49388,mp-28608,Ga3Te3I,https://materialsproject.org/materials/mp-28608,17.273632889147006,13.142995251917705,-12.528797328305064,-13.5843714580568
-3.282761117,-32.82761117,3.969043146499697,-0.18504457899999985,0.0975955,0.0,8,10,436.98687037384974,1044.492,mp-32580,Ga2Te3,https://materialsproject.org/materials/mp-32580,17.306907091773365,13.185967301903135,-11.726692476258009,-13.988676245067275
-5.19509494375,-41.56075955,6.526107720368166,-1.6361727149479168,0.0,0.8198000000000003,109,8,173.4974661970025,681.86482,mp-1079656,TmAgS2,https://materialsproject.org/materials/mp-1079656,18.83031314283772,9.921286362584036,28.533520630390438,-41.00153912784881
-3.4338418535,-68.67683707,5.340963064661585,-0.32499454950000023,0.0,1.1518000000000002,167,20,689.1035947195044,2216.4349999999995,mp-1205332,Te6RhBr3,https://materialsproject.org/materials/mp-1205332,20.374896754469226,0.5774267704427974,13.75297628635375,-7.661526972319429