energy_per_atom,energy,density,formation_energy_per_atom,total_magnetization,band_gap,sgr,num_sites,cell_volume,weight,mp_id,formula,URL,tsne_cry_0,tsne_cry_1,tsne_xrd_0,tsne_xrd_1
-5.2703233166666665,-79.05484975,4.7126213470399225,-1.4546072420000002,1.0,0.0,2,15,135.33137722653169,384.07139,mp-779959,Li3Co2(NiO4)2,https://materialsproject.org/materials/mp-779959,9.046914504989314,79.93320965099116,18.915528157901193,85.41617999699272
-4.796686118181818,-105.5270946,4.610311929394936,-1.158758310227273,2.00000005,0.31910000000000016,9,22,205.99275120460808,571.9172,mp-758831,Li2(NiO2)3,https://materialsproject.org/materials/mp-758831,7.066734092148509,77.97041421039637,19.515182524342073,89.11537627323509
-5.643091354285715,-39.50163948,4.849718352903596,-1.459431055,0.9999998999999999,0.0,160,7,64.64665245026069,188.80499,mp-754742,Li(CoO2)2,https://materialsproject.org/materials/mp-754742,6.106885552197389,76.65593480956268,19.798275669219393,88.26621644422102
-4.777663102857144,-33.44364172,4.668943185064294,-1.057356477857144,1.0,0.2784999999999997,2,7,66.97911422953193,188.3254,mp-755045,Li(NiO2)2,https://materialsproject.org/materials/mp-755045,6.759914418853036,77.83704862972918,21.196878551399386,88.5188946787179
-5.5265517059375,-176.84965459,4.452348259950796,-1.7313530406249995,14.000160500000002,0.0,12,32,272.62924929291586,730.991765,mp-1175418,Li9Co7O16,https://materialsproject.org/materials/mp-1175418,8.589949742018183,84.42603215353185,12.09518876091753,94.49905072032342
-4.795169793888889,-172.62611258,4.691670833881345,-1.1252057793055568,1.9999999,0.4717000000000002,1,36,335.7299034535285,948.568,mp-758803,Li3(NiO2)5,https://materialsproject.org/materials/mp-758803,7.000844904927591,78.02860126315427,21.557017799482725,88.24989121845323
-5.1018942733333335,-122.44546256,4.638035032916231,-1.4729845735416671,2.00000375,0.0,15,24,209.90329141753705,586.2787900000001,mp-760869,Li3Co(NiO3)2,https://materialsproject.org/materials/mp-760869,7.325517026983133,75.55632112763675,18.124278677369997,89.09955310261275
-5.5962426475,-44.76994118,4.72953379174407,-1.6356887381249994,1.0000001,0.0,166,8,67.64214065163578,192.657795,mp-1222775,Li2FeCoO4,https://materialsproject.org/materials/mp-1222775,10.182334328217856,80.09551735614744,22.35245376314571,86.09910705354507
-5.88734854625,-282.59273022,5.0189053420064,-1.612863827500001,0.0,1.7038000000000002,212,48,535.470052082036,1618.4344,mp-543103,NiGe3O8,https://materialsproject.org/materials/mp-543103,4.05862277889507,73.57654968529813,19.10910566074569,86.17552629045784
-5.583560195,-178.67392624,4.610821642195161,-1.7883615296874993,3e-07,0.10980000000000034,2,32,263.2590149644369,730.991765,mp-1175409,Li9Co7O16,https://materialsproject.org/materials/mp-1175409,6.0454450571791085,81.24902860042178,16.162179079201525,93.12196547041519
-4.796973707931034,-278.22447506,4.626591207753772,-1.139161357931035,1.0,0.06669999999999998,1,58,545.7203632148907,1520.4851999999996,mp-758751,Li5(NiO2)8,https://materialsproject.org/materials/mp-758751,7.084778624708113,78.01061711103667,21.379202672914253,88.5127273900225
-4.993756343125,-79.90010149,4.281408116397148,-1.6256115600000005,2.0000003,0.0,166,16,138.13018147287454,356.1444,mp-756312,Li4MgNi3O8,https://materialsproject.org/materials/mp-756312,9.16959138268972,83.93961790265037,18.483849829593613,84.99788755650358
-4.810205378928573,-269.37150122,4.749224943387376,-1.0898987539285727,0.9999987875,0.7825000000000002,212,56,526.775097244508,1506.6032,mp-774941,Li(NiO2)2,https://materialsproject.org/materials/mp-774941,2.528601486505868,69.60510504482802,19.016380160213348,86.362896884
-5.277256119375,-84.43609791,4.767819026537978,-1.5807740087500006,1.00000015,0.0,74,16,136.18204363561398,391.01239,mp-753536,Li2CoNiO4,https://materialsproject.org/materials/mp-753536,10.0998630791035,80.09485381448059,23.04760270481017,85.71222983621823
-5.685944774615384,-73.91728207,4.76400758728272,-1.3272315792307685,2.9998463,0.0,166,13,129.20011165600428,370.66898,mp-758972,Li(CoO2)4,https://materialsproject.org/materials/mp-758972,4.730954963808898,75.76080026400885,19.396290733789016,87.62975160146415
-5.138717466666667,-61.6646096,4.715701978565588,-1.5098077668750003,2.0,0.0,12,12,103.22310692490903,293.13939500000004,mp-754316,Li3Co(NiO3)2,https://materialsproject.org/materials/mp-754316,9.84561493088315,80.00099309723518,23.18416974720865,86.5006029292981
-4.806258557142857,-67.2876198,4.700239752496884,-1.085951932142858,1.0000001,0.06530000000000014,2,14,133.06626699520612,376.6508,mp-1172967,Li(NiO2)2,https://materialsproject.org/materials/mp-1172967,2.482793966941781,69.49073510989753,18.864888978614214,85.83394904352716
-7.846805106666667,-23.54041532,5.739707419456343,0.24917492962333296,2.5e-06,0.0,160,3,24.5768240713026,84.95059499999998,mp-1245659,CoCN,https://materialsproject.org/materials/mp-1245659,27.870864945724172,56.002357516936684,8.830417575715641,75.86701720956194
-5.0418049325,-282.34107622,4.622003831734838,-1.2056598889285712,0.999999575,0.07960000000000013,19,56,541.6192366689781,1507.56238,mp-775285,Li2CoNi3O8,https://materialsproject.org/materials/mp-775285,2.304168765432832,69.21273043111995,18.686283879913475,85.52194109258848
-4.8406894578947375,-91.97309969999999,4.675075017764675,-1.2634618309210537,2e-07,0.4905,2,19,170.9262196836524,481.225,mp-763578,Li4(NiO2)5,https://materialsproject.org/materials/mp-763578,8.870959547098753,79.44124719817195,22.94973866961745,87.00729452905453
-5.960064705,-71.52077646,4.642932150258217,-1.873998297788333,3.9999957000000004,0.019699999999999832,12,12,103.58361254649635,289.623835,mp-761633,Li3Mn(CoO3)2,https://materialsproject.org/materials/mp-761633,10.419980434505312,80.73394354430793,23.140195944792165,85.80438483198806
-5.699434333636364,-125.38755534,4.756763050776742,-1.6192143820454548,1.0000002000000001,1.0537,9,22,200.1529110949937,573.3559700000001,mp-758725,Li2(CoO2)3,https://materialsproject.org/materials/mp-758725,6.288082435813358,76.62620773206079,19.48661369666668,88.98807367809094
-6.0830412480357134,-340.65030989,4.5781298104776535,-1.72883026875,0.50000005,0.0,5,56,537.788854482229,1482.69154,mp-762609,Li2CrCo3O8,https://materialsproject.org/materials/mp-762609,2.345704538118254,69.291062908149,18.5791144146887,85.61017735297627
-5.014093672142857,-70.19731141,4.570444686133891,-1.1779486285714285,2.9999994,0.1001000000000003,2,14,136.93230960765086,376.890595,mp-1178027,Li2CoNi3O8,https://materialsproject.org/materials/mp-1178027,7.134976445904907,77.95506250402524,21.333456582506255,88.54701917841406
-4.959681428421051,-188.46789428,4.6806958284319045,-1.3268597385526315,3.9999989,0.0,2,38,340.4314183304436,959.6016,mp-759197,Li8FeNi9O20,https://materialsproject.org/materials/mp-759197,8.771515027782684,79.6784817292097,23.013416278385076,87.07732353306679
-5.8348615636363625,-64.1834772,4.3950915894044,-1.620777103863636,4.0000010999999995,0.0,12,11,104.81141781656515,277.4134,mp-758515,Li2(FeO2)3,https://materialsproject.org/materials/mp-758515,8.938322117959784,77.61673709187983,21.479495261969948,85.98880182659106
-4.839470818260869,-111.30782882,4.692582555242919,-1.2767584519565225,5.0000002,0.20279999999999987,1,23,204.83744897576318,578.8581999999999,mp-690572,Li5(NiO2)6,https://materialsproject.org/materials/mp-690572,8.641633167377089,79.48884651717276,23.003826801413673,87.10992686255484
-5.5439808677272735,-121.96757909,4.604786009072399,-1.5154291920454546,2.0026648000000002,0.07869999999999999,12,22,208.42221829583104,577.968775,mp-773165,Li4Co5CuO12,https://materialsproject.org/materials/mp-773165,7.000115434072285,75.69275655329821,18.823745283505502,89.10703307596191
-5.733303732272727,-126.13268211,4.512072288390988,-1.630773029318182,3.051943,0.2810000000000001,12,22,209.87072970391617,570.267775,mp-756543,Li4FeCo5O12,https://materialsproject.org/materials/mp-756543,7.011019757484987,75.71355816283013,18.720201031168926,89.08892300171719
-4.758945615333333,-214.15255269,4.625107343667717,-1.0185019461666671,5.999999400000001,0.0,2,45,438.24453394368703,1220.6446,mp-768104,Li6(NiO2)13,https://materialsproject.org/materials/mp-768104,6.674782591357168,77.72493154818758,21.08459231767741,88.70913863695986
-5.0780686018333325,-304.68411611,4.5931385632621655,-1.3497794875319993,9.0000001,0.2864,2,60,551.9983286377625,1526.8564900000001,mp-758650,Li6MnNi7O16,https://materialsproject.org/materials/mp-758650,8.45048807208165,78.9633880980168,22.54461175788527,86.99000263893747
-5.884765565,-129.46484243,4.499672715556988,-1.696013362500001,3.0013657000000005,0.1524000000000001,12,22,209.0286815035509,566.418875,mp-771079,Li4CrCo5O12,https://materialsproject.org/materials/mp-771079,7.018270476044092,75.7033699825667,18.684125220449776,89.05960200864544
-4.803780152142857,-67.25292213,4.666873572472998,-1.0834735271428582,1.0000003,0.008399999999999963,148,14,134.01763474723973,376.6508,mp-504102,Li(NiO2)2,https://materialsproject.org/materials/mp-504102,2.4358032111197727,69.41620071541647,18.970525730777847,86.04093217051171
-5.812873716842105,-220.88920124,4.576342917162814,-1.7701227164473696,13.0000006,0.4702000000000002,6,38,346.73614112397524,955.5833650000001,mp-764985,Li8Fe3Co7O20,https://materialsproject.org/materials/mp-764985,8.988223337268611,77.79425675986627,22.11409926533152,86.27088337119396
-4.8078908948484855,-317.32079906,4.62016087621218,-1.16996308689394,1.9999913,0.2750999999999997,1,66,616.6608893234609,1715.7515999999996,mp-758726,Li2(NiO2)3,https://materialsproject.org/materials/mp-758726,7.279583768569045,78.12612940963184,21.537408545987375,88.29041162124321
-6.0906835263636365,-133.99503758,4.461249306251503,-1.8895029832575758,0.9999844999999999,0.0,12,22,209.29207472712315,562.289775,mp-770955,Li4TiCo5O12,https://materialsproject.org/materials/mp-770955,6.960664975493916,75.71635952358325,18.67514433435268,89.10343581822839
-4.916660019166667,-176.99976069,4.5923182496962225,-1.1880133826388888,1.9999997999999999,0.0,2,36,341.9633029128728,945.7196,mp-758623,Li6FeNi9O20,https://materialsproject.org/materials/mp-758623,7.140952379500562,78.0251048706135,21.50377307565917,88.33303818787466
-6.307506468666668,-94.61259703,4.493357110211009,-1.95719741,5.0000004,0.0743999999999998,12,15,136.9851685320369,370.67679,mp-763114,Li3Cr2(CoO4)2,https://materialsproject.org/materials/mp-763114,10.009577804495342,80.15704369869087,18.56508955612656,85.02721707144043
-4.781146485,-28.68687891,6.472822710417768,-0.6182927543750001,0.00010986666666666666,0.0,221,6,61.219771371070394,238.6362,mp-1120722,CuO,https://materialsproject.org/materials/mp-1120722,28.725862551531467,56.628026944421755,79.50876729992578,14.166970092595047
-5.5892784821428565,-78.24989875,4.428401400640261,-1.4162773450000006,1e-07,0.0,12,14,138.0303329219994,368.1056,mp-753165,Li2Fe3NiO8,https://materialsproject.org/materials/mp-753165,7.208719396942557,77.64554764734527,21.03563162123938,89.07922726120601
-6.335519486153848,-82.36175332,4.532832870534797,-1.6318209416861544,7.0000003,0.20630000000000012,12,13,132.86219111021686,362.67868,mp-778584,LiMn2(CoO4)2,https://materialsproject.org/materials/mp-778584,4.690742329931693,73.23758664083964,18.555328160271614,86.42817288680773
-5.374818191,-53.74818191,4.613450023556653,-1.23954729525,3.0,0.5686000000000002,2,10,100.60063362461568,279.49719,mp-774305,LiCo2NiO6,https://materialsproject.org/materials/mp-774305,6.426376129764877,77.5435409426329,21.13476800154032,88.41896596227284
-5.228289587857144,-73.19605423,4.643939026592217,-1.2763061257142865,1.99999995,0.0,74,14,134.85098150071286,377.13039,mp-753047,LiCoNiO4,https://materialsproject.org/materials/mp-753047,8.688812944710483,79.77178986712768,19.23952961056121,85.7651269984696
-5.52631540125,-176.84209284,4.417884355625338,-1.7311167359374997,12.3566088,0.0,12,32,274.75602935495806,730.991765,mp-1175415,Li9Co7O16,https://materialsproject.org/materials/mp-1175415,8.845532520849131,84.5324967160053,11.899738607723751,94.63473501470249
-4.778501820000002,-33.44951274,4.575499571407988,-1.0581951950000013,0.9999998999999999,0.0827,10,7,68.34700212361382,188.3254,mvc-16803,Li(NiO2)2,https://materialsproject.org/materials/mvc-16803,7.039999646537992,77.93881101753716,21.293037505429968,88.60376454180363
-4.856307996428573,-339.94155975,4.58260199592304,-1.0896660040000012,4.0000012,0.0,1,70,682.5845163811352,1883.73359,mp-1120825,Li5CoNi9O20,https://materialsproject.org/materials/mp-1120825,7.024149969486433,77.90199917130788,21.326803628375554,88.55261336484376
-4.924454080625,-78.79126529,4.887797096908515,-1.3700597287500005,0.99999995,0.0,15,16,135.9734888978677,400.23800000000006,mp-772597,Li2CuNiO4,https://materialsproject.org/materials/mp-772597,10.32422718091458,80.03579998128485,23.19321571105013,86.61689677651991
-9.00858566,-63.06009962,5.6545388418715525,-0.3342998985028568,3.1095222999999996,0.0,221,7,62.2613727599718,212.0151,mp-1014460,Cr3N4,https://materialsproject.org/materials/mp-1014460,27.74002672496685,55.83325022686768,79.41288601325061,14.218828469006452
-5.306591426428572,-74.29227997,4.481959064203541,-1.3102746136399992,4.999999900000001,0.0,2,14,138.15553319220422,372.895445,mp-758714,Li2MnNi3O8,https://materialsproject.org/materials/mp-758714,7.364418196678322,77.90755547130458,21.336274895446433,88.57043923645176
-5.1198735102777775,-184.31544637,4.5810550085219415,-1.2697164001388892,5.99232485,0.0,10,36,344.1842433670824,949.52718,mp-1177722,Li3Co2Ni3O10,https://materialsproject.org/materials/mp-1177722,9.082252319112127,78.0367533764133,22.677486330590447,86.05988896242832
-4.7899704181818175,-105.37934920000001,4.629294923846995,-1.1520426102272727,1.99999995,0.3117000000000001,9,22,205.14805253718512,571.9172,mp-753296,Li2(NiO2)3,https://materialsproject.org/materials/mp-753296,7.035484151766701,75.80743998341711,19.429365188227166,89.12994563714308
-6.611106175,-26.4444247,3.2951600178770812,-3.083879621875,0.0,6.1195,166,4,33.21992125434992,65.92133860000001,mp-8001,LiAlO2,https://materialsproject.org/materials/mp-8001,5.7408672986483715,82.88414015088046,20.088564129616856,87.88608404718863
-4.9528020595,-198.11208238,4.773243106108545,-1.418493734875001,4.946121099999999,0.0,10,40,339.73454837971536,976.571795,mp-769507,Li10CoNi9O20,https://materialsproject.org/materials/mp-769507,8.651994447297287,79.79942373846333,23.10720839947709,87.12318099492038
-6.392311178571428,-89.4923565,4.541980555716304,-2.018569949761905,0.9972313,0.0,166,14,134.00767735472527,366.543785,mp-754682,Li2TiCo3O8,https://materialsproject.org/materials/mp-754682,2.3651756671431863,69.32480646916368,18.628687397054414,85.71299364444519
-4.8989555075,-58.78746609,4.77915663790355,-1.3647709802083334,3.9696697999999997,0.0,12,12,103.45531435914116,297.7522,mp-754458,Li3Cu(NiO3)2,https://materialsproject.org/materials/mp-754458,10.686146641675053,80.39715520335722,23.403768083776807,85.82047645433884
-5.5848110053125,-178.71395217,4.600337139228684,-1.7896123399999997,2.0,0.5794999999999999,2,32,263.85900140886713,730.991765,mp-1175469,Li9Co7O16,https://materialsproject.org/materials/mp-1175469,6.0002037720291845,81.26830782849167,16.10999308804433,93.14901709713058
-4.8584825658333335,-233.20716316,4.9347934407072875,-1.3291701079166671,11.000001199999998,0.0,12,48,411.652845741822,1223.3508,mp-758517,Li11Ni13O24,https://materialsproject.org/materials/mp-758517,10.597869279254832,79.95924432040256,12.512491077994984,94.46191567050327
-4.850738982,-388.05911856,4.453762209279958,-1.4209597474999995,7.5543533,0.0,2,80,670.1444805343579,1797.4067999999993,mp-705828,Li23Ni17O40,https://materialsproject.org/materials/mp-705828,6.046524129066518,81.33250281293373,15.870693326053605,93.23627525561676
-5.6790216425,-204.44477913,4.586631372423305,-1.5585748890277773,1.0000057,0.2635000000000001,1,36,344.28667958362126,950.96595,mp-774507,Li3(CoO2)5,https://materialsproject.org/materials/mp-774507,6.620396745902059,75.78919337423147,19.010853440116318,89.19346416170309
-4.878696673333334,-175.63308024,4.542788940745235,-1.1636843848611111,4.9986104000000005,0.0,12,36,346.82051171748986,948.807795,mp-775263,Li6CoNi9O20,https://materialsproject.org/materials/mp-775263,7.562968250762273,78.00544542239525,21.656001594433654,87.43195977481348
-6.00089033,-84.01246462,4.563936383590344,-1.6570582614971423,3.9999872000000005,0.0,12,14,135.93572718686906,373.61483,mp-754108,Li2MnCo3O8,https://materialsproject.org/materials/mp-754108,5.836764108689206,77.24354463250472,20.850104431582825,89.17037966631473
-5.311959812142859,-74.36743737,4.4710232305850885,-1.3156429993542855,4.9999629,0.13850000000000007,12,14,138.49345268994313,372.895445,mp-752530,Li2MnNi3O8,https://materialsproject.org/materials/mp-752530,8.72931432346954,77.56769119610259,21.49079773030792,86.25861939791055
-5.850491372857142,-81.90687922,4.603686670561479,-1.6317713214285712,3.0000002,0.0,166,14,135.0891339542742,374.521785,mp-867710,Li2FeCo3O8,https://materialsproject.org/materials/mp-867710,2.2578801419970542,69.19604100727122,18.479684310587032,85.46609109591863
-4.88690203,-146.60706090000002,4.4837034035469365,-1.3544150539999995,3.9999998,0.4342999999999999,2,30,271.3906180685373,732.7952,mp-769569,Li6MgNi7O16,https://materialsproject.org/materials/mp-769569,7.6966182010230435,79.81324906406955,16.59556857024025,92.92278325023227
-5.516504640909091,-121.36310209999999,4.63541591755098,-1.5100000465909098,0.9999998,0.0,12,22,205.30666502646258,573.116175,mp-755767,Li4Co5NiO12,https://materialsproject.org/materials/mp-755767,6.722235431439936,75.70657980603876,19.00487419793484,89.15171454220747
-6.253961325833332,-75.04753591,3.719106924302221,-2.6027438427083323,4.0000001,0.9196999999999996,12,12,102.56544099213028,229.7156722,mp-1222601,Li3Al2CoO6,https://materialsproject.org/materials/mp-1222601,5.773264468353678,83.22268868527998,13.427957405729561,94.87568197821459
-4.9235077527272715,-108.31717056,4.514853416033501,-1.2118645874999994,3.0000002,0.1532,5,22,210.43629541383427,572.1569949999998,mp-772703,Li4CoNi5O12,https://materialsproject.org/materials/mp-772703,7.154236615609507,75.60727408197475,18.738038068099755,89.10917258255421
-7.207104915,-14.41420983,7.528328818287985,0.3241283488099995,0.1728692,0.0,225,2,16.08850332450603,72.93989499999998,mp-1009078,CoN,https://materialsproject.org/materials/mp-1009078,29.737115971069475,57.815095072649974,88.24553902513597,19.01484551941475
-5.803328507272727,-127.67322716,4.385658292181581,-1.6784870529545457,4.0000003,0.0,64,22,214.7508475431876,567.17958,mp-757742,Li2Fe(CoO3)2,https://materialsproject.org/materials/mp-757742,7.364379142707416,75.67696676722845,18.246890570701147,88.84511409305756
-6.077088647142857,-85.07924106,4.5783316741174325,-1.7228776678571427,0.9999998999999999,0.0,166,14,134.4412856961884,370.672885,mp-761748,Li2CrCo3O8,https://materialsproject.org/materials/mp-761748,2.32992754130162,69.28539247307869,18.563130404786378,85.65117752169243
-6.1011975750000005,-134.22634665,4.400926136263895,-1.8039131215909092,1.99999985,0.0,64,22,211.10132483327422,559.48178,mp-757009,Li2Cr(CoO3)2,https://materialsproject.org/materials/mp-757009,7.097255769754765,75.69369962847334,18.417700515019966,88.96070639041147
-5.419155766,-54.19155766,4.597299383202508,-1.2353812912499995,3.753215,0.0,12,10,102.70680413723288,284.34979,mp-758532,LiCo2CuO6,https://materialsproject.org/materials/mp-758532,8.015798224955264,77.24318793086172,21.537015601153637,86.8884087108501
-5.6174141495833325,-134.81793959,4.4916951639271145,-1.0544725754166675,1.47430255,0.0,5,24,268.9338829495597,727.45596,mp-1178540,CoO2,https://materialsproject.org/materials/mp-1178540,4.3467454117605655,74.02951475638956,18.68315688445733,88.16572232876335