energy_per_atom,energy,density,formation_energy_per_atom,total_magnetization,band_gap,sgr,num_sites,cell_volume,weight,mp_id,formula,URL,tsne_cry_0,tsne_cry_1,tsne_xrd_0,tsne_xrd_1
-5.8104906909375,-185.93570211,4.283695626256081,-1.8751417275599989,14.0000006,0.7016,2,32,280.265514489643,723.001465,mp-1175431,Li9Mn2Co5O16,https://materialsproject.org/materials/mp-1175431,19.062506412049746,88.8903691874666,10.699289644926788,91.04746265063244
-8.277812048571429,-115.88936868,5.095210306454231,-0.4087738310199995,9.183793199999998,0.0,11,14,152.40203912242148,467.6315472,mp-1246896,Mn3AlN3,https://materialsproject.org/materials/mp-1246896,26.202605829713878,55.49908880660543,56.601895384966184,9.268047569264237
-8.777003565,-35.10801426,15.638346925448204,-0.3174175849999994,3e-07,0.0,51,4,61.80406610503808,582.048,mp-999502,MoPt,https://materialsproject.org/materials/mp-999502,58.53376692513032,58.23999319371796,82.43260676347943,13.004967384980324
-7.4812975239999995,-74.81297524,3.873499573555533,-3.4462071372500005,0.0,5.853700000000001,167,10,87.42000774428871,203.9225544,mp-1143,Al2O3,https://materialsproject.org/materials/mp-1143,6.739536603042942,61.46823453393582,8.06929430747673,50.34691923061978
-5.78770602375,-185.20659276,4.237499451730927,-1.8523570603724997,16.0000011,0.0,2,32,283.320900046202,723.001465,mp-1175666,Li9Mn2Co5O16,https://materialsproject.org/materials/mp-1175666,11.376593868646404,85.81026208999556,8.692603122817031,95.5960803717956
-5.3340129425,-21.33605177,10.71350563727061,-0.33409226000000025,6.3e-06,0.0,225,4,67.78176214239085,437.316,mp-977571,MgRh2Pb,https://materialsproject.org/materials/mp-977571,87.59570979144716,1.735841808290424,58.453759031335046,69.02458856774766
-5.483515258333332,-131.6043662,4.204472386255359,-1.7229834856249997,16.0000005,0.0,2,24,211.39311279295785,535.245775,mp-1174223,Li7Co5O12,https://materialsproject.org/materials/mp-1174223,9.476365822341187,86.66364614869255,9.394095255397,96.2345075956068
-7.678952813333333,-46.07371688,14.861002407767627,0.7291967254766677,8.296666666666666e-05,0.0,221,6,69.12908606574041,618.6711,mp-1018734,IrN,https://materialsproject.org/materials/mp-1018734,50.64033167272825,19.156706490468487,58.133574878392714,34.39547978740066
-7.148699545555554,-64.33829591,4.0924226047205625,-1.8221447427133333,8.0000004,0.573,12,9,104.63261061817728,257.86859,mp-775006,Mn2CrO6,https://materialsproject.org/materials/mp-775006,6.7014096718864815,70.62112717417897,15.484419490328806,83.91836191743717
-8.327649213157898,-158.22533505,6.965927699614798,-0.04463155731789626,10.880812400000002,0.0,12,19,172.9309037805451,725.441645,mp-1245641,Mn(Fe5N4)2,https://materialsproject.org/materials/mp-1245641,30.19389770580226,56.53564659398496,76.04919509537449,8.934962288878056
-3.9698126575,-15.87925063,10.266828968238556,-0.051328253749999934,0.0038639000000000004,0.0,221,4,61.003608327836936,377.17488,mp-1187257,TaZn3,https://materialsproject.org/materials/mp-1187257,57.400516129735244,56.07535225847654,80.90734304103903,12.491762363850244
-10.18975542125,-81.51804337,11.228043847506768,-0.38894432124999945,5e-08,0.0,223,8,139.29547416054194,941.87228,mp-1458,Nb3Ir,https://materialsproject.org/materials/mp-1458,64.20457396617469,23.062410866338528,69.79158401061537,25.311363339469104
-4.251966295,-17.00786518,15.775428345234337,0.4930622424999998,0.07455360000000001,0.0,221,4,67.98159626681803,645.8377519999999,mp-1206376,MnAu3,https://materialsproject.org/materials/mp-1206376,63.90127254656355,55.095190685199135,56.667084847668285,36.20717513202654
-6.216071753333334,-447.55716624,3.6806135930985264,-2.2103828151627782,31.002757,1.037,1,72,625.8057103767247,1387.109215,mp-777643,Li24Mn7Cr5O36,https://materialsproject.org/materials/mp-777643,-11.21057990655615,100.34671604219376,-12.258315239481027,98.54416030895617
-5.807143046875,-185.8285775,4.247762997466535,-1.8717940834974989,16.0000012,0.6061000000000001,10,32,282.63633336552505,723.001465,mp-1100737,Li9Mn2Co5O16,https://materialsproject.org/materials/mp-1100737,19.231482403242637,90.72636041458507,9.954064393760632,89.2393927761472
-4.9970134,-19.9880536,10.4856968991513,-0.38076999625000063,6e-07,0.0,123,4,62.56830984700135,395.096,mp-1207090,CuSnPd2,https://materialsproject.org/materials/mp-1207090,60.997704713084794,56.851107939718254,82.28388059210886,15.286194119313322
-4.753562176428573,-133.09974094,4.858949030900928,-1.0332555514285724,0.99999985,0.34450000000000003,186,28,257.4397689169686,753.3016,mp-754917,Li(NiO2)2,https://materialsproject.org/materials/mp-754917,-0.8265564533966185,72.04172310511831,3.0577581104986757,58.18857292767245
-5.20520514875,-124.92492357,5.127635759500621,-1.4041511664583333,2.031309,0.0,5,24,214.47805773304057,662.2941900000002,mp-771177,Li5Co2Cu5O12,https://materialsproject.org/materials/mp-771177,19.451034542306008,53.29767503732946,2.819552139586622,50.105207487529256
-6.198542763854167,-595.06010533,3.694073356931253,-2.1984036599216683,45.0167857,1.2035,1,96,836.2163282801171,1860.2660850000002,mp-778189,Li32Mn13Cr3O48,https://materialsproject.org/materials/mp-778189,-11.25376222459406,100.54604089103474,-12.268910142711036,98.51558710728293
-5.708818185,-22.83527274,18.685233672582765,-0.7839870449999999,2.5e-06,0.0,221,4,67.38869268556651,758.2919999999998,mp-300,YbPt3,https://materialsproject.org/materials/mp-300,69.03290626893312,56.962132409049175,57.24130234953514,41.37315310811919
-5.69786999625,-45.58295997,3.5954390503143068,-0.3938827512499996,0.011648899999999998,0.0,123,8,128.62811779981251,278.508693,mp-1217081,Ti3Al5,https://materialsproject.org/materials/mp-1217081,59.998153921425626,53.780576946268454,80.90170017863298,17.942839804927747
-8.183640325,-81.83640325,4.170297021934291,-3.318745103583334,1.00000005,0.0,148,10,97.8308280245028,245.6934772,mp-774520,TiAlO3,https://materialsproject.org/materials/mp-774520,13.204973073708976,54.51030243437226,9.86959864646508,41.740450216922866
-10.2491143775,-40.99645751,18.450970091850774,0.20905083815500086,0.8604605,0.0,221,4,65.52650398671976,728.09343,mp-1100774,U3N,https://materialsproject.org/materials/mp-1100774,50.51994856774335,36.428914516904676,58.561571661993064,34.346969600676104
-6.781323675,-27.125294699999998,11.352178597053316,-0.2687708737500003,0.000176,0.0,139,4,62.52177799288605,427.4265,mp-978974,SnRh3,https://materialsproject.org/materials/mp-978974,67.32089050068663,60.991233793697354,88.74227089243854,17.959938855492357
-4.942376875,-29.65426125,12.268859604354555,-0.2897959733333337,0.2700262,0.0,216,6,81.85447658769016,604.7801689999999,mp-1024977,YbNi4Au,https://materialsproject.org/materials/mp-1024977,70.54750552394933,49.665336727410704,72.38565108864971,22.274762572643905
-4.1569932000000005,-16.627972800000002,12.882286500339324,-0.04234842416666673,3.1e-06,0.0,160,4,66.72877240580225,517.6747690000001,mp-1229031,AgPd2Au,https://materialsproject.org/materials/mp-1229031,63.747996693781005,58.41730412881078,57.463125636971796,38.1565393640514
-9.468460169166667,-113.62152203,11.66366138957244,-0.015073814166665755,0.0476096,0.0,194,12,165.55475702041701,1162.8601199999998,mp-1217791,Ta2Cr3Cu,https://materialsproject.org/materials/mp-1217791,70.83648837922597,49.943178935164525,71.4112145501969,20.671981910386226
-10.24866134,-61.49196804,10.738978640540259,-0.230698080000001,1.1e-06,0.0,166,6,88.08471332103686,569.6583049999998,mp-1217985,Ta2MnV3,https://materialsproject.org/materials/mp-1217985,80.52369091474999,30.011015498348307,70.98475688042105,24.164180188063412
-8.42686660125,-67.41493281,6.319747803530163,-0.6988500841066667,0.0015857999999999998,0.0,194,8,70.84562377479698,269.62719,mp-1246050,TiCoN2,https://materialsproject.org/materials/mp-1246050,29.32898284098319,60.251006322459745,83.10022484022878,21.6537922032899
-9.621496075,-19.24299215,8.035970379461247,0.34927812500000144,0.00011040000000000001,0.0,187,2,30.351339475707693,146.8815,mp-995205,VMo,https://materialsproject.org/materials/mp-995205,60.67836791942339,61.45851690963155,84.17098520548299,14.198995480828774
-9.582198526666668,-28.74659558,5.761461249600719,-0.4542371062500005,7e-07,0.0,164,3,32.82586258358584,113.8937,mp-1008632,V2C,https://materialsproject.org/materials/mp-1008632,30.35685091144725,58.845981590255356,82.8279012477608,20.452364693485986
-6.1764537696428565,-172.94070555,4.5085776379625235,-1.769653162142857,13.0000008,0.0,8,28,269.6303547944064,732.081185,mp-774878,Li4Cr2Fe3Co3O16,https://materialsproject.org/materials/mp-774878,-2.4245119170609666,72.25414820016023,2.7041749787992293,60.59260408041053
-3.4677615685714285,-24.27433098,6.810622879449853,-0.17867219785714233,1.4e-06,0.0,166,7,121.49410859491823,498.30237999999997,mp-1220689,Nb(ZnGa)3,https://materialsproject.org/materials/mp-1220689,58.09350930930624,52.2714690394018,83.71511185964368,14.136170476232948
-5.838329313214286,-163.47322077,4.209072255485025,-1.8978161183721431,9.0000001,0.7890000000000001,1,28,246.62209780260727,625.12847,mp-1174585,Li4MnCo2O7,https://materialsproject.org/materials/mp-1174585,10.473983103115675,86.58651349623982,8.921067979860167,95.59898413388528
-6.8194321592857134,-381.88820092,3.7862257717601655,-2.711041101785713,1.999999325,4.3935,212,56,499.6706986969857,1139.3084,mp-766692,Li2Si3NiO8,https://materialsproject.org/materials/mp-766692,-0.5635672283074449,72.3635614778958,3.6114481822553524,57.83477417621135
-9.335849440833334,-112.03019329,10.596204259979043,-0.1811332325,7.8e-06,0.0,38,12,164.77633126658634,1051.468,mp-1216281,VSiW,https://materialsproject.org/materials/mp-1216281,70.7719782745673,50.3612515653209,71.30775376143012,20.69105216496844
-5.426736312,-27.13368156,4.34258467657572,-1.9379600673189656,1.9999339,0.0,221,5,61.352724600708505,160.4475386,mp-975427,RbAlO3,https://materialsproject.org/materials/mp-975427,16.89459306999953,-94.34762967554043,54.2924615162463,-66.73350050628152
-8.086588795,-64.69271036,8.76669907212968,-0.6495360550000013,5e-08,0.0,223,8,128.30363176268514,677.37,mp-2339,Ti3Pt,https://materialsproject.org/materials/mp-2339,45.39956161184034,38.491553842920474,48.5366356815026,-0.3584937976030961
-6.70979477125,-53.67835817,7.0892032892509995,0.32829282249999897,1.1312124,0.0,194,8,124.25483783536792,530.471,mp-983607,V3Cd,https://materialsproject.org/materials/mp-983607,50.68744743659077,38.823689557478254,78.01369974372834,14.953354055109928
-5.668009113125,-90.68814581,3.9174189494599467,-1.8366608275600005,9.9999999,0.0,10,16,142.2157169570169,335.504635,mp-1174120,Li5Mn(CoO4)2,https://materialsproject.org/materials/mp-1174120,3.9787093558473683,93.29492184680294,-3.7747817565348663,94.05370419305805
-4.05814187,-8.11628374,10.69461216791358,-0.05473410833333325,3e-07,0.0,187,2,33.272260491962086,214.2882,mp-1183222,AgPd,https://materialsproject.org/materials/mp-1183222,68.09901372613527,58.94601636755002,58.002900950703975,41.415119529153344
-6.39464359142857,-89.52501028,4.20679586192662,-1.8463064030628564,11.000000199999999,0.4867999999999997,12,14,144.2274921345204,365.384735,mp-753229,Li2Mn3NiO8,https://materialsproject.org/materials/mp-753229,10.837829997708583,76.26298338224052,21.236357767093,83.11239487376072
-4.065695615,-8.13139123,10.69361240399022,-0.06228785333333331,0.0,0.0,166,2,33.275371171911175,214.2882,mp-1229012,AgPd,https://materialsproject.org/materials/mp-1229012,68.09863159546353,58.94524375673502,57.940859424836475,41.51430023947602
-6.8130843651,-681.30843651,2.501733503944651,-2.8351265144750006,0.0,4.7507,1,100,830.078589459546,1250.5791,mp-1244963,BeO,https://materialsproject.org/materials/mp-1244963,-34.969206595440355,43.644105249155004,-1.4885387588311554,55.844448268015356
-4.5493458725,-18.19738349,4.523644140896009,-0.3828057379166667,3e-07,0.0,123,4,61.390111170231826,167.2390772,mp-1217009,TiAl2Zn,https://materialsproject.org/materials/mp-1217009,57.68635167439246,55.47229183028457,80.14828819778266,14.66735737048366
-6.043910663333333,-72.52692796,4.437066599659431,-0.3870976041266658,1.025e-06,0.0,62,12,119.57931369145729,319.52358,mp-1246834,LiCoN,https://materialsproject.org/materials/mp-1246834,37.194828524052866,39.604739892533686,64.14285693021813,-14.744101251512204
-9.315037765,-55.89022659,12.411928903705757,0.5741749308333345,5e-08,0.0,194,6,57.32756235309001,428.5028,mp-1018850,OsC2,https://materialsproject.org/materials/mp-1018850,49.602424201992186,18.2907605723678,48.647908029402544,-1.459355344929336
-7.4256500332142865,-207.91820093,3.6401098344979146,-2.8719318473042863,4.325e-06,4.0829,62,28,260.8418564575956,571.7980632,mp-675601,Al3NO3,https://materialsproject.org/materials/mp-675601,2.444990041952926,62.351608950248405,8.450436528709492,52.42199084675129
-5.881169691666668,-141.1480726,4.1419394740367,-1.9337708548716663,13.9999995,0.9918999999999998,1,24,211.3812395809737,527.2554749999998,mp-1175034,Li7Mn2(CoO4)3,https://materialsproject.org/materials/mp-1175034,9.751609748922313,87.18682706049816,9.112302091372689,95.53214697598172
-5.679113314583333,-136.29871955,5.105207416655419,-1.1161717404166656,1.0000000125,0.3537000000000001,62,24,236.6150721946684,727.45596,mvc-5816,CoO2,https://materialsproject.org/materials/mvc-5816,1.6254272820827254,72.00384621110555,2.4142976784079053,56.586989649415976
-8.48234954125,-67.85879633,11.633507848197365,0.049414973184999766,0.25709825,0.0,63,8,77.91012399153085,545.8276,mp-1245632,ReNiN2,https://materialsproject.org/materials/mp-1245632,51.04344172044113,19.026515071696586,49.72402429165518,6.906335755400856
-5.80299891375,-185.69596524,4.241077070591304,-1.867649950372499,19.9999998,0.5736999999999997,1,32,283.0819008064633,723.001465,mp-1175691,Li9Mn2Co5O16,https://materialsproject.org/materials/mp-1175691,11.59949243379156,86.30714841349777,8.39418284733434,95.47715212622984
-2.1214572,-8.4858288,6.1022655559845225,0.18949221000000005,2.4e-06,0.0,139,4,61.03956964716282,224.31250000000003,mp-1187936,Zn3Si,https://materialsproject.org/materials/mp-1187936,58.57435131796747,55.68982699659225,81.39566790463428,14.468125420361742
-7.09535598,-28.38142392,10.340547314815902,-0.6464630424999998,0.0006172,0.0,225,4,74.05417496733618,461.15188,mp-977441,MgPaRh2,https://materialsproject.org/materials/mp-977441,87.40196488378437,-2.2306652071113686,67.64611137340647,45.99145821069067
-7.08423114,-28.33692456,8.11201738297817,-0.5465964883333339,3.955e-05,0.0,51,4,63.16544326003928,308.574,mp-980094,TiPd,https://materialsproject.org/materials/mp-980094,50.7890754632472,38.76367093028009,78.02731002034871,14.987196542564886
-7.2575203166666675,-43.5451219,8.462282782729831,-0.4872937438888888,0.0,0.0,191,6,66.43064180590687,338.5375850000001,mp-4454,CeCo3B2,https://materialsproject.org/materials/mp-4454,55.2529250068156,26.310502524681244,68.25930998925591,19.31905087943024
-5.863907178333334,-140.73377228,4.1374617363438535,-1.9165083415383333,12.0000001,0.3159000000000001,1,24,211.61000538096118,527.2554749999998,mp-1174999,Li7Mn2(CoO4)3,https://materialsproject.org/materials/mp-1174999,15.746414706633587,89.277197882224,7.939621725483709,92.84093485395893
-5.56767006,-16.70301018,8.858725929484505,-0.5434590575000003,2.44e-05,0.0,139,3,68.08064547077541,363.2000000000001,mp-1063016,SmPd2,https://materialsproject.org/materials/mp-1063016,24.98760489793108,6.959265728661557,56.44507301753242,32.87243152124073
-5.53707685,-27.68538425,4.070786560880508,-2.34355007125,1.9999995,0.0,221,5,65.23523477101384,159.9232,mp-1187182,SrMgO3,https://materialsproject.org/materials/mp-1187182,2.3430953528664804,-97.50044230737731,39.50853686293232,-74.19874652818744
-6.170802927272727,-135.7576644,4.068074870701198,-1.83030373222,7.9999991999999995,1.5006000000000002,64,22,227.3181328498647,556.8957800000002,mp-554979,Li2Mn2NiO6,https://materialsproject.org/materials/mp-554979,10.393824681463565,73.5417864867484,12.945413619445628,73.24298564896046
-2.92613827875,-23.40910623,5.197631031208243,-0.17614362874999978,1.07e-05,0.0,194,8,138.0856354672715,432.22,mp-1185352,LiGa3,https://materialsproject.org/materials/mp-1185352,48.193374596481895,35.803996020621796,56.50445585156291,33.29489017836109
-9.217878135,-73.74302508,18.531295974263895,0.3141846262500003,2.745e-05,0.0,194,8,132.5514283879375,1479.24842,mp-1187673,TmOs3,https://materialsproject.org/materials/mp-1187673,69.00943340275221,57.0347095372233,57.63270984279396,40.752098979648814
-7.3711800225,-117.93888036,10.008955133453751,-0.42556036625,1.310907825,0.0,139,16,249.16492520667796,1501.85,mp-669918,VSnRh2,https://materialsproject.org/materials/mp-669918,59.24664122564886,57.859499814166725,82.86925265765424,12.699287748262751
-4.9186398725,-19.67455949,10.756592795009468,-0.3470688258333343,1.2e-06,0.0,123,4,67.01038880448627,434.07800000000003,mp-1223699,InPd3,https://materialsproject.org/materials/mp-1223699,64.17291865353506,37.914150325463574,79.13566838373066,23.547972045485412
-5.905341485384616,-76.76943931,4.312626018265949,-1.4711149776923071,11.0000001,0.0,12,13,140.34469321526709,364.49259,mp-1176746,LiFe2(CoO4)2,https://materialsproject.org/materials/mp-1176746,12.066689899143634,77.16481039026749,17.456891966172808,83.66733739812456
-10.102018488333334,-60.61211093,15.007458099507911,0.3151258093749997,0.0026831999999999997,0.0,227,6,78.7124811172342,711.38,mp-2570,PuFe2,https://materialsproject.org/materials/mp-2570,71.18439802815067,50.362383764132964,71.79805952153156,21.73959348503342
-5.8237905979411755,-198.00888033,4.263147234750472,-1.515452834852942,13.995201500000002,0.0,6,34,360.1921596263505,924.7311699999999,mp-759569,Li2Fe2Co3O10,https://materialsproject.org/materials/mp-759569,10.651652442501328,76.18830711732114,21.255398545416078,83.20122667616897
-6.8440615175,-27.37624607,10.449848413339144,-0.8294077949999998,2.6e-06,0.0,225,4,66.47203033501296,418.31153860000006,mp-16501,HfAlPd2,https://materialsproject.org/materials/mp-16501,94.25809292212786,9.903678263555213,60.87703613258536,66.33384070763438
-7.6679568775,-92.01548253,5.956905354542718,-0.2524344003566661,0.00013145,0.0,63,12,117.27288228112171,420.6968,mp-1247484,VNi2N3,https://materialsproject.org/materials/mp-1247484,25.243841143160036,54.01968399674461,11.129990295831055,46.37479990079715
-6.148271309999998,-36.88962786,10.667595802258438,-0.3297173049999991,0.01635435,0.0,74,6,88.69170920986271,569.7711899999998,mp-1225599,ErCoNi,https://materialsproject.org/materials/mp-1225599,79.99521250075594,29.59196362951922,71.35646802318139,25.98164898516152
-8.22680111625,-394.88645358,19.91602751908858,-0.7203151562500002,1.2666666666666667e-05,0.0,11,48,766.601559651715,9194.39856,mp-567638,TaPt3,https://materialsproject.org/materials/mp-567638,67.73827084818599,61.73273177798992,89.0789834968663,17.986238682099977
-3.89536309,-11.68608927,6.099600480112867,-0.4534126695400005,1e-07,0.0,123,3,31.135496571064497,114.36894,mp-1018133,LiHPd,https://materialsproject.org/materials/mp-1018133,35.181376462291844,41.718846049101906,59.07002258421835,33.15143328152337
-8.017760646666668,-24.05328194,17.388076366786876,-0.3590936933333341,5.6e-06,0.0,71,3,46.42269188546713,486.108,mp-952,MoPt2,https://materialsproject.org/materials/mp-952,60.64161611197283,57.975227433152455,82.18318402338218,14.373833405166414
-4.648089598,-46.48089598,3.2933426908044523,-3.034215082614,0.0,5.7453,225,10,119.31340341451346,236.63395776,mp-1114336,Na2LiGaF6,https://materialsproject.org/materials/mp-1114336,-14.589096626724048,54.574362664931094,2.104402153421633,57.22558632391993
-3.52951229,-14.11804916,3.716756401959637,0.0392322574999997,5.03e-05,0.0,221,4,67.31392403540623,150.66761580000005,mp-983594,Al3Ga,https://materialsproject.org/materials/mp-983594,48.58920332457818,36.29268798509802,57.718390568835105,34.26591260749821