energy_per_atom,energy,density,formation_energy_per_atom,total_magnetization,band_gap,sgr,num_sites,cell_volume,weight,mp_id,formula,URL,tsne_cry_0,tsne_cry_1,tsne_xrd_0,tsne_xrd_1
-4.875554096666667,-58.50664916,4.182438479733835,-3.4357073099599997,0.0,5.0649,88,12,181.8561068811731,458.0452256,mp-5078,SrZnF4,https://materialsproject.org/materials/mp-5078,-22.765802541866016,-67.09381886992888,-20.818814899995992,-69.43359171675132
-5.835140246666668,-70.02168296,8.571841510174803,-0.3232134233333343,7.5e-08,0.7001999999999997,14,12,271.541509532802,1401.72,mp-1102857,SbTeRu,https://materialsproject.org/materials/mp-1102857,28.5303280380862,24.548541447540078,37.15243920512216,-24.965825048691038
-5.2077910113157895,-197.89605843,3.3675401321949,-1.5925898758034218,0.0,1.9636,5,38,671.5432941686679,1361.8764384,mp-1194943,Te3C2S2(OF)6,https://materialsproject.org/materials/mp-1194943,-3.1864823544585663,7.147585653216405,-15.01299036580401,-4.532048635498229
-4.46015453,-44.6015453,4.83438386026504,-2.9993385927829648,0.0074066,0.0,225,10,176.0352978228129,512.4975578,mp-1112411,Rb2AlHgF6,https://materialsproject.org/materials/mp-1112411,-54.050319682227794,-73.48429739532772,-56.88070537562787,-64.99301535403968
-4.8107343275,-134.70056117,3.173223250028145,-1.686211301964286,0.000500725,1.3308,61,28,684.7365611533595,1308.504,mp-866883,Ca2SnS4,https://materialsproject.org/materials/mp-866883,-5.0089937046392565,2.777912419678612,-38.3198957765104,-35.971572253704245
-6.055651341428572,-84.77911878,3.2452568570398634,-1.8026519271428583,0.44220410000000004,0.0,166,14,300.68291748495085,587.6364699999998,mp-1246549,LaMg2Ti3S8,https://materialsproject.org/materials/mp-1246549,0.21432044294711605,26.009932846706906,-21.294992284464808,-82.29465667752379
-3.8409676155555563,-34.56870854,4.465234541569172,-1.1160237369348662,2.0,0.0,225,9,345.50596043315244,929.0749037999999,mp-541753,Cs2WBr6,https://materialsproject.org/materials/mp-541753,-1.205947461817533,14.477193237061375,-29.467444528623577,-70.11116252901725
-6.079150215714287,-85.10810302,6.050666085215298,-2.213023972976192,3.3e-06,1.6500000000000004,82,14,306.32562696134585,1116.1882,mp-37923,Sm5AgS8,https://materialsproject.org/materials/mp-37923,17.250582875258612,-4.569684593183079,9.544129171480575,-8.64263551638433
-6.3819938725,-51.05595098,6.5208048640926215,-0.052116202499999716,15.2821093,0.0,10,8,183.68753266161147,721.3263450000001,mp-1221638,MnCr3Te4,https://materialsproject.org/materials/mp-1221638,22.10122384834818,8.473978981266056,56.56975093464618,-23.654681270916893
-2.7540801424358974,-214.81825111,3.688507679006666,-0.9573395226569412,16.000002300000002,0.3431000000000001,139,78,3020.554112486793,6709.4701,mp-1197258,Rb21Tl7(Br21O4)2,https://materialsproject.org/materials/mp-1197258,0.14711209160519642,-7.002879773234929,-16.812781024806405,-5.459723157119753
-5.527383835,-22.10953534,4.266453190540998,-2.1390941276562505,0.0,1.8017,166,4,86.18278550001276,221.43099999999998,mp-1222296,LiSmS2,https://materialsproject.org/materials/mp-1222296,13.838737922873154,9.227920059063724,-26.931615576379762,-78.10623630819956
-6.4201015450000005,-38.52060927,6.2037375558713705,-0.8445960300000005,1.6899999999999997e-05,0.0,115,6,144.7158092423532,540.6551,mp-1215465,Zr2SiTe2As,https://materialsproject.org/materials/mp-1215465,21.572542141284863,1.3256309541273734,15.422615466275742,10.08321009363486
-6.712977707916667,-161.11146499,3.8345793736153286,-1.9613704936197918,3.00000025,0.6484000000000005,173,24,478.2364579462024,1104.361664,mp-1191316,Y3BeCrS7,https://materialsproject.org/materials/mp-1191316,13.90869874243735,-15.110950996216236,-1.2593681440966953,-17.824431380867342
-6.063075247142858,-339.53221384,4.426684408721883,-2.1586958808928576,1.9244903375,0.0,29,56,1298.8074116670693,3462.3759999999997,mp-1232202,Ce2MgS4,https://materialsproject.org/materials/mp-1232202,12.468393765811207,5.039348911773668,-10.627218803509818,-8.308392490519232
-3.199482413,-31.99482413,3.151274678546587,-1.0754574395999998,0.0005746000000000001,2.9597999999999995,11,10,370.38786097749824,702.9005999999998,mp-998612,KGeBr3,https://materialsproject.org/materials/mp-998612,-8.385851438168483,-5.317487433764058,-31.25087749546305,-39.73502428839232
-6.412074023789472,-609.14703226,5.931953734447548,-2.4337050426842097,0.06643760000000001,0.0,1,95,2144.1835596332003,7659.68,mp-684860,Sm39S56,https://materialsproject.org/materials/mp-684860,17.7325264085657,-4.571319211499988,8.959951166857081,-8.739525821823085
-3.834472696617648,-260.74414337,3.3775322692995093,-0.9368940434758825,0.004199100000000001,0.8734,14,68,1290.538021641384,2624.95112,mp-695843,SbH7(Br2O)3,https://materialsproject.org/materials/mp-695843,-3.5307410022486474,4.094589430417674,-32.419770583043594,-39.44219755686477
-2.286052376666667,-13.71631426,3.223955683164434,-0.036876052864583286,1.75e-06,0.8221,136,6,245.96094020346848,477.536,mp-861891,SeBr2,https://materialsproject.org/materials/mp-861891,-6.9244001410627005,4.61343005496029,-43.43422395304391,-39.33535756855513
-5.4602575125,-21.84103005,4.9746087109097115,-2.1092022832812507,1e-07,0.3349000000000002,123,4,79.55525598129456,238.33,mp-1222286,LiErS2,https://materialsproject.org/materials/mp-1222286,13.278091132387773,9.474113045611093,-27.21704266059812,-77.52664834075615
-4.1065525325,-32.85242026,3.495194337791926,-1.0079063281562508,1e-06,0.9558,15,8,198.47423521220023,417.75953856,mp-5414,NaSbS2,https://materialsproject.org/materials/mp-5414,-7.285563287777915,5.232406824935423,-35.54308931451089,-32.592617582245346
-6.754059937826088,-155.34337857,4.252485103066709,-2.4336708697214684,0.0,1.8609,217,23,233.29817647566455,597.4548,mp-14921,Zn4B6SeO12,https://materialsproject.org/materials/mp-14921,-12.92931121355027,38.86468254065637,-34.57976584162182,-51.49644060552104
-8.879162313157895,-168.70408395,8.143601247515809,-4.046947032368422,2e-06,2.4197,160,19,303.72937439178037,1489.54698,mp-1101415,Sm4Th3O12,https://materialsproject.org/materials/mp-1101415,-23.9661620469801,-70.13705965950099,-8.861367358754663,-78.7405379881378
-4.00977563,-28.06842941,4.768389158520333,-0.5034653665773808,0.0,1.1017,82,7,198.28719172838944,569.3997386,mp-1228963,AlAgSnSe4,https://materialsproject.org/materials/mp-1228963,14.87844572484112,15.049467478262589,5.675543976626978,-17.012836028662775
-2.419106362,-24.19106362,3.3031527207878963,-0.1565714432,0.0,0.242,139,10,288.92505911092263,574.7312,mp-568052,K2Ga3,https://materialsproject.org/materials/mp-568052,15.147595620208714,10.126586658133737,-0.7847479659380409,-21.477760248951057
-6.418150738,-128.36301476,5.812985450880972,-2.4877129354375,0.0,1.0140000000000002,11,20,473.104045108504,1656.1772199999998,mp-1188730,Pr(HoS2)3,https://materialsproject.org/materials/mp-1188730,8.54543657058356,-3.0048344870418062,-5.052358652470631,-14.187179003544436
-7.047023470000001,-140.9404694,5.757659528155713,-4.061936693095001,2.5e-07,3.949,6,20,322.85049845947066,1119.433632,mp-686701,Nd3O2F5,https://materialsproject.org/materials/mp-686701,-9.979793505425127,-60.54367559593752,-33.567167621178925,-47.53071881131997
-4.011832439090909,-88.26031366,6.5941105167984055,-0.9483379262886948,2.65e-06,0.0,63,22,536.0894975808451,2128.8469038,mp-1190671,CsYb2Cu3Se5,https://materialsproject.org/materials/mp-1190671,31.91665423766357,-3.560992148648984,2.9924842306774737,-21.324913512257144
-4.169185177555557,-187.61333299,3.544083841366888,-0.862838975658333,0.0,0.18510000000000004,146,45,1398.8965477727822,2985.6609999999996,mp-1226136,K8Sn8Se20O9,https://materialsproject.org/materials/mp-1226136,-3.3042900338335195,2.4654037273180927,-38.96836857785871,-34.982645196131976
-7.678179320769232,-199.63266234,5.23842802123939,-2.8663634818269235,0.0,3.068,1,26,389.0666411074896,1227.3710800000001,mp-705680,La2Mo2O9,https://materialsproject.org/materials/mp-705680,-49.81346388247457,-48.057886011618,-27.403653168456568,-52.73244889421408
-4.574136843958333,-219.55856851,4.074060039050521,-0.8926187242916659,1e-06,1.2691,61,48,800.9160466781166,1965.01255424,mp-780403,NaCu3O2,https://materialsproject.org/materials/mp-780403,-21.56158526481073,12.055487538592761,-16.967005659360186,-18.5946748254614
-7.357552830384615,-191.29637359,3.5240956779484813,-3.054401888791209,3.9999998999999997,3.1208000000000005,2,26,348.34262912573615,739.2736480000001,mvc-3018,SrCaCr(PO4)2,https://materialsproject.org/materials/mvc-3018,-24.89965452039445,-33.72854904159818,-0.9378160084018684,-27.36929875975492
-8.190943213571428,-114.67320499,3.2702110197841026,-0.042815378214285715,0.00050855,0.0,194,14,162.168035375695,319.3684,mp-1208630,SrC6,https://materialsproject.org/materials/mp-1208630,-20.42464474851739,-26.476861912192174,-15.008933228602553,-11.47172300770324
-4.1278019875,-82.55603975,3.828495174657258,-1.4667001988642243,0.0,1.7892,71,20,736.3616281027003,1697.7360195,mp-556239,Cs5Nb2S4Br9,https://materialsproject.org/materials/mp-556239,-5.882857185916084,-5.873727863962072,-21.10568008307824,-29.677770341649104
-7.035340288035713,-393.97905613,4.654567355196413,-1.8863014846428583,12.1232091625,0.0,29,56,1302.8483897915069,3651.9440000000004,mp-1232050,Eu2MgS4,https://materialsproject.org/materials/mp-1232050,12.453451250013511,5.029014865961622,-10.685753062038302,-8.294719956427004
-6.991105215999999,-34.95552608,2.445740339894876,-0.8018950316186662,0.0,3.4352,12,5,93.18975789580853,137.2554,mp-1068850,Sr(BN)2,https://materialsproject.org/materials/mp-1068850,-25.562623201940927,-5.198708967877669,-19.676048808920537,-16.831297859790215
-6.719037796666668,-201.5711339,5.768951602291117,-2.450530509916667,5.9999998,0.3091999999999997,15,30,486.8742461836847,1691.4712,mp-6641,Ba3SrRu2O9,https://materialsproject.org/materials/mp-6641,-15.376723315484355,-80.92488420384925,15.204738114135521,-71.03561807380075
-7.3605601688461535,-191.37456439,3.524037993900859,-3.0748321903296696,2.9999998,2.6401,2,26,347.35446863019456,737.164448,mvc-3010,SrCaV(PO4)2,https://materialsproject.org/materials/mvc-3010,-24.865476138555003,-33.92059661555626,-0.8490295670457806,-27.16067667366704
-4.144775245,-8.28955049,4.984736979938017,0.07545625392857147,9.5e-06,0.0,44,2,33.5445792176316,100.69676199999999,mp-971648,GaP,https://materialsproject.org/materials/mp-971648,31.683881913543235,25.11700791262068,23.332012394279005,-42.922711110815676
-6.4421878725,-25.76875149,5.457853982436007,-2.8789267957112066,2.7000000000000004e-06,3.3976999999999995,166,4,78.60974852687905,258.37425,mp-1101401,RbPrO2,https://materialsproject.org/materials/mp-1101401,3.5660377378317034,-59.26668999152403,6.775415409688067,-56.23276726345232
-5.1325630455,-102.65126091,2.7664097636171894,-1.0558319915327379,0.0,2.0478000000000005,163,20,488.7980089285341,814.323272,mp-8616,ScAg(PS3)2,https://materialsproject.org/materials/mp-8616,-8.825548192900081,5.981947205494058,-0.07138705099156463,-20.975710056469524
-6.5931636241666665,-158.23592698,3.9219432663173928,-1.938078936536458,0.0,0.35299999999999976,173,24,486.0589920974054,1147.9981772,mp-1191008,Y3AlFeS7,https://materialsproject.org/materials/mp-1191008,13.90895862511575,-15.112328814548919,-1.3840510999463462,-17.67919448747979
-4.877352565714285,-68.28293592,5.2659040091912015,-3.1089210272797785,4.0,4.9398,160,14,219.45368830611596,695.9318807,mp-1225987,CsBa2Ni2F9,https://materialsproject.org/materials/mp-1225987,-10.821031292526342,-81.97002247584831,16.030725111516787,-72.52726979546246
-4.1170069300000005,-82.34013859999999,4.556818855603961,-0.7573765426666661,5.000000175,1.6256000000000002,62,20,596.8529326275865,1637.8721799999996,mp-28912,MnInBr3,https://materialsproject.org/materials/mp-28912,3.869356731837717,-33.30697309151402,1.4698317188507208,-31.94946179226624
-2.349513319583333,-56.38831967,4.2354425646159415,-0.3768045437212647,0.0,0.2820999999999998,62,24,1215.6021132801586,3100.5672304,mp-1191118,Cs2Sb,https://materialsproject.org/materials/mp-1191118,-5.442515352826503,-25.153991791999488,-41.247086140546905,-14.0861146655233
-4.630058155277777,-333.36418718,3.6647010499587713,-0.08713667170634902,0.0,0.8797000000000006,4,72,1709.2242916585901,3772.1462159999996,mp-567472,CuP4I,https://materialsproject.org/materials/mp-567472,-5.110890113373895,-1.8081901061863441,-30.427853644441296,-37.36896974370997
-4.693803931551724,-272.24062803,5.1090986346925655,-0.55120729775862,0.0,0.0,88,58,921.727509193798,2835.9446212000007,mp-1498,Al21Pd8,https://materialsproject.org/materials/mp-1498,44.13442340663878,39.227135704337584,4.134581999809265,-12.612848529530645
-6.920245821621622,-512.0981908,2.810667524051023,-3.2936096174735137,1.9999997,0.5299000000000003,15,74,1101.3689216159758,1864.203,mp-1203161,Ca10Si5(ClO10)2,https://materialsproject.org/materials/mp-1203161,-19.19267568175345,26.215903596313197,-12.926769043308575,16.524983284526186
-7.86867406125,-188.84817747,3.8871181061540745,-3.0367518885763896,2.75e-06,7.117000000000001,31,24,207.49468790676727,485.7196,mp-5540,SrB4O7,https://materialsproject.org/materials/mp-5540,-18.796206907811868,-30.115071895042487,17.353711634966572,-0.8683065398290114
-5.129176577,-51.29176577,5.649769464755781,-0.8061073676250003,5.0000004,0.7637999999999998,12,10,239.80481526257648,815.90489,mp-557805,MnBiS2Br,https://materialsproject.org/materials/mp-557805,1.8186538664885448,-7.116666100842847,-18.528933567850668,-37.293568757956606
-5.523175269375,-88.37080431,5.120297733793142,-1.9952472311562504,0.0,1.0414999999999996,63,16,363.7179412391087,1121.52988,mp-11606,KHo2CuS4,https://materialsproject.org/materials/mp-11606,15.67697543333977,-12.159038124633724,-12.101939123523865,-5.261641229264341
-5.2534591825,-21.01383673,5.168969145405626,-2.152886954832975,0.0,2.1526,166,4,116.28204357109156,361.96577189999994,mp-505158,CsHoS2,https://materialsproject.org/materials/mp-505158,4.778269384307847,-3.7795115794319343,-3.3011229636490844,-6.152174387881322
-2.7085912660000004,-13.54295633,5.511513785076944,-0.3516905400000002,5.05e-05,0.0,119,5,152.4763601014395,506.086,mp-1227881,BaMgIn3,https://materialsproject.org/materials/mp-1227881,6.571585260092426,-32.39552673796245,-17.15371595305685,-11.36114877293693
-4.05872373375,-64.93957974,3.5047818835499727,-1.0405447933674576,6e-07,1.9445,2,16,514.2690594509712,1085.4312,mp-10621,RbSbS2,https://materialsproject.org/materials/mp-10621,-5.056314253774212,-6.174952724063862,-34.24579985493446,-25.33566201010202
-8.066866393749999,-193.60479345,4.925979843839711,-3.526525286190476,0.0,4.5207,14,24,315.35785561379845,935.5073279999999,mp-3962,LaPO4,https://materialsproject.org/materials/mp-3962,-19.913021186228065,-35.671674023194775,-22.03488512736218,-36.652577944331505
-7.136780708965517,-206.96664056,2.652256654192537,-2.904433915854835,0.0001165,4.5079,5,29,329.94953628672533,527.0040824600002,mp-866613,CsNa2Be6(BO3)5,https://materialsproject.org/materials/mp-866613,-28.48391538367144,-8.177143856658601,-24.05574765597009,-3.7787845109593614
-5.8810439642857135,-82.3346155,3.3728042784893124,-1.3575898557142858,12.0000008,0.0,166,14,299.7560650165911,608.849605,mp-1246759,LaMg2Mn3S8,https://materialsproject.org/materials/mp-1246759,0.2828723168390157,26.023555467410546,-21.407316872171094,-82.0048146654667
-4.918005006428571,-68.85207009,4.826036912116887,-3.134220305979286,4.0000003,4.9626,160,14,207.17860997114468,602.1247288,mp-1223553,KBa2Ni2F9,https://materialsproject.org/materials/mp-1223553,-10.454563275938668,-81.96380215675214,16.377242378523174,-72.41741450218538
-7.171932138333332,-86.06318566,4.601764904641798,-2.610348746,0.0,3.5786,82,12,173.84604370715053,481.77043928,mp-1220757,NaLa(MoO4)2,https://materialsproject.org/materials/mp-1220757,-53.90915720088404,-53.30380842035899,-25.563390142822126,-64.59826635454023
-7.261141344222223,-653.50272098,3.022688871274032,-3.2232027207991134,4.93295505,0.0,161,90,1187.0967722420364,2160.879158,mp-1200974,Ca9Mn(PO4)7,https://materialsproject.org/materials/mp-1200974,-18.715273706814898,23.9052251330744,-12.891225317204649,15.308707938786798
-2.692231038333333,-48.46015869,4.739769735386452,-0.759802929,0.0,0.8659999999999999,128,18,725.0023363202843,2069.41484,mp-28247,K2PtI6,https://materialsproject.org/materials/mp-28247,-1.5260428089817912,5.299948121599726,-34.765772984301314,-30.547827404287403
-4.756865203333334,-57.08238244,5.39017577704592,-0.8949850566666674,1.575e-06,0.2751000000000001,11,12,425.1740133565566,1380.13176,mp-571279,ZrI2,https://materialsproject.org/materials/mp-571279,21.19138472227729,-1.1988927994284375,11.970212564590376,6.968996759926361
-5.523726707777778,-397.70832296,3.747158687753107,-4.028628565237779,0.0,6.6874,4,72,999.3049739267527,2255.0233536,mp-561022,SrMgF4,https://materialsproject.org/materials/mp-561022,-14.883979075426007,-26.15571953305168,21.555893725273503,-48.976390790384634
-8.707445548333332,-313.46803974,6.526950812465856,-2.788434800833334,11.999999875,0.0,15,36,504.6167611213223,1983.4576,mp-1213281,Eu2MoO6,https://materialsproject.org/materials/mp-1213281,-16.534824351200257,-65.57435285065841,-8.772202006037864,-65.63894211371597
-4.761545092222223,-85.70781166,3.289631695521797,-1.7239479244791676,2.7000000000000004e-06,0.02550000000000008,185,18,403.0857088739203,798.538,mp-866509,Ca3SnS5,https://materialsproject.org/materials/mp-866509,8.593272077316794,1.4906161080278442,23.485386510362073,-41.59630791267443
-5.648764418571429,-39.54135093,5.6070794087339415,0.5845844480699997,2.0,1.2949,44,7,197.50059686509047,666.8928000000002,mp-1217488,Te2W2N2O,https://materialsproject.org/materials/mp-1217488,-2.7775400214431816,6.211955545645871,-11.583340760449262,-1.3761402700647276
-7.141654873333334,-342.79943392,5.308158265505952,-2.410381535833333,1.000000075,0.0,60,48,831.3390364409757,2657.498,mp-1213849,CeTl(MoO4)2,https://materialsproject.org/materials/mp-1213849,-51.91569911224829,-51.789226405042804,-27.90511766095521,-55.26738052993395
-4.927568575714285,-34.49298003,4.161150438863206,-0.5570500038771422,1.0000002000000001,0.017599999999999838,12,7,156.63017928089138,392.5001,mp-1173210,Sr4N3,https://materialsproject.org/materials/mp-1173210,6.898202588815894,-39.05098904420722,15.024337348865664,-68.35325157078442
-3.4324601285714285,-192.21776719999997,3.5178215269638007,-0.4375024862857145,0.0,0.6389999999999998,59,56,1822.678593567896,3861.3112,mp-28728,K6Sn3As5,https://materialsproject.org/materials/mp-28728,8.2008322870253,1.3251899472274953,-2.1972876717888696,-21.40104243910584
-6.3911244975,-51.12899598,4.685289102418981,-2.614771274565,1e-07,3.6060000000000003,11,8,146.27242653859102,412.71454,mp-1207170,LaClO2,https://materialsproject.org/materials/mp-1207170,-14.381841111272244,-27.90318511058333,-33.262106823500055,-31.823255851815947
-3.647563705000001,-72.95127409999999,5.785958047815921,-0.1796068446250004,0.25451485,0.0,216,20,389.4012372349369,1356.8239999999998,mp-1229225,Ag5BS4,https://materialsproject.org/materials/mp-1229225,18.15401097100822,3.778535095466013,60.462400179391594,-13.787026643693947
-3.3376364091666666,-80.10327382,3.922703848101812,-0.6230170066302083,0.0,1.1909,15,24,695.0145761822753,1641.83815424,mp-573581,Na2TeSe3,https://materialsproject.org/materials/mp-573581,-3.1824975361800867,-0.2740693790758058,-32.33746135299676,-36.66717501295796
-5.864187464166666,-140.74049914,5.773741968533383,-1.846860427369792,1.0000001,0.0,173,24,483.5227186687471,1681.22239,mp-1192256,Dy3GaCoS7,https://materialsproject.org/materials/mp-1192256,12.340410994578335,-12.990739911922994,1.9099144414587013,-5.2564162073782565
-4.823810386666667,-43.41429348,12.113383026457694,-0.20603746333333264,6.666666666666667e-08,0.0,164,9,252.11408442518643,1839.1344,mp-569581,Bi2Pt,https://materialsproject.org/materials/mp-569581,28.75558285193037,24.115206132524705,26.527804088164658,-42.07052421309793