energy_per_atom,energy,density,formation_energy_per_atom,total_magnetization,band_gap,sgr,num_sites,cell_volume,weight,mp_id,formula,URL,tsne_cry_0,tsne_cry_1,tsne_xrd_0,tsne_xrd_1
-1.1063229925,-4.42529197,7.4117442691553554,0.07698071500000014,1.7e-06,0.0,139,4,69.1477511387377,308.6380000000001,mp-981200,Zn3Cd,https://materialsproject.org/materials/mp-981200,52.04704477600481,31.13729428581647,55.75593310385622,37.85475513254253
-3.2510957775,-13.00438311,6.413989175867371,-0.0034365370833331355,1e-07,0.0,216,4,64.92084314708957,250.7629,mp-1211042,LiSiAg2,https://materialsproject.org/materials/mp-1211042,35.78071371967373,37.74614704074821,46.729969643447674,62.32558977106456
-5.047283677857143,-70.66197149,5.284217745955496,-1.3703538657142869,2.00000695,0.0,63,14,129.2737336857854,411.3788,mvc-6405,Mg(NiO2)2,https://materialsproject.org/materials/mvc-6405,16.579279603356312,63.49243988917248,4.706993581749699,48.30037896524974
-5.75554108625,-46.04432869,3.3293085848673063,-1.992043858245,2.0000001,0.0,65,8,69.70657128475533,139.758645,mp-754245,Li3MnO4,https://materialsproject.org/materials/mp-754245,1.8137996888435068,91.63680135089493,-5.857195269041644,92.9069119707704
-3.3594179578571435,-47.03185141,2.8650136688938206,-0.2242932370685712,4.26e-05,0.0,12,14,129.05793903316837,222.67032000000003,mp-1180401,Mg2NiH4,https://materialsproject.org/materials/mp-1180401,35.81311216901469,40.65652483386429,45.85601732544762,62.76872122083736
-4.37330528,-26.23983168,9.645457029753787,-0.2029169183333336,3e-06,0.0,216,6,84.82154872155023,492.69699999999995,mp-580136,LuCu5,https://materialsproject.org/materials/mp-580136,67.2060205878021,49.068866892107536,73.69409656926645,23.099124632879537
-5.8218909171428574,-163.01294568,4.187461985234359,-1.8813777223007155,6.99999975,0.2771999999999997,2,28,247.8948425348803,625.12847,mp-1174418,Li4MnCo2O7,https://materialsproject.org/materials/mp-1174418,17.915527430998484,88.66632730907136,8.189312291496304,91.51058724323109
-4.172605215,-16.69042086,6.71823382212267,0.3192775062500006,7e-07,0.0,139,4,69.56966574958629,281.466,mp-1184183,CuGe3,https://materialsproject.org/materials/mp-1184183,52.67457673349206,30.11613408613868,54.812793706309634,42.08179485160568
-11.52575473,-46.10301892,20.479077698752548,-0.14937225124999998,0.0024289999999999997,0.0,221,4,60.946301490855845,751.63788,mp-1187243,TaOs3,https://materialsproject.org/materials/mp-1187243,67.61150518434125,63.5232408475999,89.41860270882101,17.0612108599787
-5.360362052619048,-225.13520621,4.284977551199293,-0.25716556214285696,0.00060795,0.0,15,42,652.9391180014493,1684.8923124000003,mp-570651,Al17Mo4,https://materialsproject.org/materials/mp-570651,46.794439701499975,38.53864137054789,66.17881663775954,-2.8224885490576
-8.193392986400001,-204.83482466,5.215961497618181,-3.6116062020833337,0.0014422,0.0,12,25,308.39629762706886,968.71147,mp-1218562,Sr4LaTi5O15,https://materialsproject.org/materials/mp-1218562,16.9233631234396,-94.32945803649515,59.62021742452124,-64.46488197681514
-5.3581657875,-21.43266315,3.815304477036928,-0.13791243749999982,1.1973709,0.0,139,4,57.85992963866622,132.94071580000002,mp-867780,Al3Cr,https://materialsproject.org/materials/mp-867780,57.14895963634292,55.86507338081916,82.20025766583015,10.07415117753226
-6.8968115545833335,-331.04695462,4.046022222847985,-1.695874739009999,51.0000004,0.0,12,48,571.9964887184659,1393.7103849999999,mp-771188,Mn13Fe3O32,https://materialsproject.org/materials/mp-771188,7.28035239124296,70.06691833179707,15.567817505487332,82.9491716768982
-6.75490559875,-162.11773437,3.615264893039343,-2.771541275625,1.9999990666666667,1.6532,2,24,214.6866453092532,467.40791579999996,mp-755460,Li2AlVO4,https://materialsproject.org/materials/mp-755460,5.365195084330863,83.93550592587243,25.613222127526196,80.03737291211165
-3.11086263,-24.88690104,6.768892991371031,-0.18196067291666693,0.0,0.0,194,8,119.76186266985479,488.1880000000001,mp-1187531,TiZn3,https://materialsproject.org/materials/mp-1187531,59.64403399154565,55.988456975114566,83.45160621030574,18.58720927923918
-5.544954548571428,-155.25872736,4.6408226427769055,-1.4480240046428574,4.0000012,0.0,8,28,272.96783706588457,762.881985,mp-754017,Li4Fe2Co3Cu3O16,https://materialsproject.org/materials/mp-754017,-2.798785216539563,72.2484358606621,2.650311148397405,60.874829344315394
-4.3907844925,-35.12627594,12.26476018772254,0.4294207630000004,3.365e-05,0.0,194,8,169.062913895951,1248.7006,mp-1185053,KPt3,https://materialsproject.org/materials/mp-1185053,52.733687813264105,19.5590588585407,49.68171360184352,7.102900888106718
-9.259078983333334,-111.1089478,9.851884775799967,-0.21869521999999955,6.1010231,0.0,164,12,167.0509271701419,991.10376,mp-1215298,ZrTaFe4,https://materialsproject.org/materials/mp-1215298,67.88827463489493,48.75916132107256,72.71628054005296,19.572394548336643
-4.845924508,-24.22962254,5.30435919702451,-1.438836733916667,1.0444016999999999,0.0,221,5,58.578623028762465,187.1212,mp-1185889,MgInO3,https://materialsproject.org/materials/mp-1185889,4.426263714622,-96.41708232789757,55.97214635479361,-68.18600489620107
-8.7011902475,-34.80476099,14.067113115056426,-0.29490533562499976,2.15e-05,0.0,225,4,71.84113821521555,608.596,mp-866012,Hf2ZnRe,https://materialsproject.org/materials/mp-866012,94.9916261608262,2.230097308356997,71.63481295403649,55.21547383498982
-6.7327339042857135,-282.77482398,4.379138271200386,-2.730430532142857,2.00000015,3.0833000000000004,8,42,401.91604868237886,1059.9244632000002,mp-34234,Al2NiO4,https://materialsproject.org/materials/mp-34234,1.5268248460340004,65.03479458901525,10.7083104491941,52.98611110786252
-5.77095265625,-46.16762125,17.02746837206784,-0.19649442625000013,0.0,0.0,139,8,137.89730828974723,1414.024,mp-1078755,SbPt3,https://materialsproject.org/materials/mp-1078755,59.86740632507253,34.849955818670374,56.43777717143519,38.03366014918249
-5.934598044333332,-178.03794133,3.1746207171491387,-2.182588047083334,4.00000045,0.979,15,30,269.5196391306496,515.268,mp-770924,Li6Cr2O7,https://materialsproject.org/materials/mp-770924,-28.818846919900786,64.14938014986281,-32.94189584291076,63.53646318738266
-6.675727472857143,-93.46018462,3.706359300021624,-3.027206351428572,0.0,4.457700000000001,36,14,126.0678559724422,281.3862,mp-1020112,Mg2SiO4,https://materialsproject.org/materials/mp-1020112,7.653910270124414,61.14498797948741,8.027714734085924,49.126258674863024
-7.181936374107143,-402.18843695,3.4821339089715613,-3.3908658780357146,3e-07,5.1747,186,56,528.1568985504782,1107.5397816,mp-17313,Mg3BeAl8O16,https://materialsproject.org/materials/mp-17313,1.97396738529622,62.58152669123367,8.57512179216214,52.337468883271974
-9.8231095125,-235.75462830000004,7.745775909683474,-0.02759388249999972,0.0038669625,0.0,194,24,337.68885939683634,1575.18864,mp-1191777,NbCr2,https://materialsproject.org/materials/mp-1191777,68.10844114513993,46.05559842489093,77.31734001739329,23.850854127477522
-0.919845765,-7.35876612,9.555213487473864,0.11069696625000014,1.3e-06,0.0,194,8,137.92054381610322,793.6339999999999,mp-972095,Zn3Hg,https://materialsproject.org/materials/mp-972095,50.1280543370803,35.429161827613946,54.62524819269586,33.163137781258634
-7.01671222,-28.06684888,4.195926712183443,-0.15684090999999967,1.9214321,0.0,225,4,67.50808207996722,170.5825386,mp-999027,Ti3Al,https://materialsproject.org/materials/mp-999027,98.40514386827805,8.933562019261796,64.92077331516008,62.250555587887106
-4.755089405714286,-66.57125168,3.1381284494305786,-2.7685316647064293,2.0000044999999997,1.9476,71,14,121.8785867747758,230.3292192,mp-753281,Li6NiOF6,https://materialsproject.org/materials/mp-753281,-12.616889847795086,73.9698720462848,-5.37146570891004,66.12861546727582
-4.86777651,-19.47110604,9.560096167608057,0.7598391978515631,1.4e-06,0.0,225,4,69.86804054827415,402.246,mp-631305,Ga2WSe,https://materialsproject.org/materials/mp-631305,93.70373812061199,8.27972219849717,57.90459510075786,67.42865301822289
-3.584546175,-14.338184699999998,2.570189430014526,0.15890633749999994,3.47e-05,0.0,139,4,58.11897477900758,89.9567978,mp-1183412,BeAl3,https://materialsproject.org/materials/mp-1183412,56.69575675500075,56.19659606613707,81.72069880031928,9.72692729520871
-7.663066453333332,-137.93519616,2.7140444741329803,-3.0370172708333336,0.0,4.1899,148,18,220.5689555760392,360.5058,mp-559389,SiO2,https://materialsproject.org/materials/mp-559389,-79.92136514671151,30.277189296936587,-77.61667357117015,41.53401916729013
-7.056820835000001,-98.79549169,3.4820548500909037,-3.3416491085714286,1.75e-06,4.3565999999999985,160,14,135.6886787906115,284.5313544,mp-34330,MgAl2O4,https://materialsproject.org/materials/mp-34330,1.8885060778423484,62.61988853992892,9.655422844748296,53.77509800725454
-5.469287525,-21.8771501,4.019697515582268,-0.3411701350000005,3.2500000000000004e-05,0.0,225,4,74.53959030213589,180.4393626,mp-972884,Sc2AlCu,https://materialsproject.org/materials/mp-972884,92.00786465881298,-5.0049607738294295,74.56941760439626,53.92026723566821
-9.9259884925,-119.11186191,10.127383674784982,-0.08554520375000034,1.22e-05,0.0,156,12,161.81697173632273,986.89794,mp-1218071,Ta3Cr8Si,https://materialsproject.org/materials/mp-1218071,66.32149032396397,49.4647931835938,71.92241083897349,19.5692040679062
-5.333711143333333,-32.00226686,2.9132819180859304,-0.592994227916666,0.0,0.0,6,6,77.48218803722162,135.9362544,mp-1265399,Al4CO,https://materialsproject.org/materials/mp-1265399,21.888921228283913,53.82453308363379,9.633989404558001,46.660333825958716
-9.829067041666667,-58.97440225,7.7687584129624545,-0.033551411666665615,3.1e-06,0.0,227,6,84.17246659775704,393.79716,mp-548,NbCr2,https://materialsproject.org/materials/mp-548,68.08721527263143,46.052636962212496,78.30077521643756,24.064313935474964
-3.910792886,-19.55396443,2.35279981961312,-0.7712823768500001,3.9999989,0.0,221,5,66.36898671629312,94.0375,mp-1184939,KLiO3,https://materialsproject.org/materials/mp-1184939,-12.714384094224432,51.95621435951791,80.07899657382826,18.4791030523562
-6.8337131,-82.00455720000001,4.051860963415419,-1.6692672894066665,13.0000009,0.0,166,12,142.88598250536288,348.654335,mp-756562,Mn3FeO8,https://materialsproject.org/materials/mp-756562,7.2855967613972865,70.07622849496653,15.679547646064169,82.97241918426919
-6.587796076666668,-39.52677646,6.867660346979513,-1.0345402178645835,0.0,0.0,129,6,117.42535637374692,485.648,mp-4878,ZrGeSe,https://materialsproject.org/materials/mp-4878,33.99549301854512,26.35076505980278,54.520050147488774,9.727674006302916
-6.709314089591836,-657.51278078,4.380857890093536,-2.7070107174489797,1.2883342357142855,2.3825000000000003,1,98,937.4359971839099,2473.1570808,mp-532510,Al2NiO4,https://materialsproject.org/materials/mp-532510,1.5279423951859192,65.03640957807244,10.690833279740652,52.97307540298216
-9.178396825,-91.78396825,6.117949307481874,-0.21538563395199897,1.75191285,0.0,194,10,99.88379795913279,368.0034,mp-1096885,Cr3N2,https://materialsproject.org/materials/mp-1096885,25.755183865903387,54.838545901251926,81.82403904838931,21.09166971700441
-5.80018636375,-185.60596364,4.246600898689636,-1.8648374003724992,15.9999994,0.3881000000000001,2,32,282.71367789239423,723.001465,mp-1175470,Li9Mn2Co5O16,https://materialsproject.org/materials/mp-1175470,19.02630743232235,89.1483902726066,10.331826596433167,89.91581874822216
-7.433496635,-297.33986539999995,3.9104327006414215,-3.3984062482500006,4.90625e-05,5.4415,61,40,346.3773844384845,815.6902176,mp-776490,Al2O3,https://materialsproject.org/materials/mp-776490,6.784047314984961,61.410580955826035,7.979801019690845,50.25697807419833
-5.783224060714286,-80.96513685,4.697538147532593,-1.564504009285714,5.0002262,0.0,160,14,132.39020648499616,374.521785,mp-775721,Li2FeCo3O8,https://materialsproject.org/materials/mp-775721,-0.4848723726577955,70.64059737532659,4.434786515132736,57.692999014200495
-5.59262627,-134.22303048,4.1482839866650405,-1.817860819791668,19.0000001,0.0,1,24,209.21567707775318,522.6532,mp-760174,Li7Fe4NiO12,https://materialsproject.org/materials/mp-760174,-11.639775454776109,72.63756754199787,-21.694035279130286,70.31965274343722
-5.4814010146875,-175.40483247,4.2731930133802924,-1.6862023493749998,21.870253100000003,0.0,10,32,284.05933453045736,730.991765,mp-1175396,Li9Co7O16,https://materialsproject.org/materials/mp-1175396,5.134366955982743,95.96040113357452,2.1904233977747998,89.75244386962126
-2.630737249230769,-34.19958424,1.3074338700300685,-0.15657058999999954,0.0001057,0.0,12,13,216.4146214917321,170.3951544,mp-568404,Li9Al4,https://materialsproject.org/materials/mp-568404,36.371876653794295,38.3569960405589,41.210904792905694,55.36449263806977
-4.85393531375,-77.66296502,5.190145094782474,-1.2535276962500008,0.34236170000000005,0.0,166,16,141.50506931925938,442.2852,mp-756159,Li3Ni5O8,https://materialsproject.org/materials/mp-756159,22.66273810924303,78.05965390423847,29.495068145762744,77.80458621502443
-6.43829752,-25.75319008,4.750979004468466,-0.2440712691071427,4.9000000000000005e-06,0.0,139,4,64.36156340564081,184.145286,mp-1188028,ZrP3,https://materialsproject.org/materials/mp-1188028,47.42122236031657,36.86855301974842,68.02280313741797,18.002180840386625
-9.80944824,-39.23779296,11.001077896410534,-0.62944013125,0.0004354,0.0,225,4,64.61034401706729,428.043792,mp-867897,ScTaRu2,https://materialsproject.org/materials/mp-867897,91.76086039429327,16.781914569427077,57.12626247551052,61.02535505402661
-5.341989108333333,-32.05193465,2.9045843063783936,-0.6012721929166661,3.02e-05,0.0,1,6,77.71420402116749,135.9362544,mp-676414,Al4CO,https://materialsproject.org/materials/mp-676414,21.88855173206652,53.824859006141175,9.65620905555169,46.63539581687646
-5.8024504175,-185.67841336,4.228212578367146,-1.8671014541224995,20.0000003,0.5972999999999997,1,32,283.943187897457,723.001465,mp-1175861,Li9Mn2Co5O16,https://materialsproject.org/materials/mp-1175861,10.097302048928439,87.77692530012081,8.361276234608408,96.46887656166427
-10.9980549775,-43.99221991,17.959851809104954,0.6877991823437489,0.0029048999999999998,0.0,123,4,70.17421351136281,758.9815386,mp-20130,Pu3Al,https://materialsproject.org/materials/mp-20130,50.68350196036472,34.574360293380245,55.44964720204739,35.09643989279732
-9.813168078333334,-117.75801694,7.776471438689812,-0.017652448333333126,0.000394375,0.0,194,12,168.1779617340943,787.5943199999998,mp-1095643,NbCr2,https://materialsproject.org/materials/mp-1095643,68.05373208119529,46.08713741667751,77.25101426512744,23.713561968021484
-3.6866068475,-29.49285478,6.636943748042916,-0.22906949013020794,7e-07,0.0,141,8,168.27405255378972,672.568,mp-676764,InCuSe2,https://materialsproject.org/materials/mp-676764,23.674247713741128,22.668781164193746,57.86669462721993,-26.85880809531529
-6.371036235882353,-866.46092808,8.830601898561987,-0.4809448060784321,5.125e-07,0.0,61,136,1472.5437556127345,7830.859359999998,mp-1203887,Tm2(Ni2B)5,https://materialsproject.org/materials/mp-1203887,56.090386763130255,30.43341850974591,61.87547905566659,8.465940332861287
-9.8095113,-117.71413559999999,9.9978793419806,-0.10883584333333236,0.0040219,0.0,156,12,163.72966014790302,985.7939786,mp-1218061,Ta3AlCr8,https://materialsproject.org/materials/mp-1218061,66.37527609404377,49.499390141919356,71.90858192187405,19.606497195219045
-9.9449427975,-39.77977119,15.420880614756598,-0.915137689999998,4e-07,0.0,225,4,70.2191843892108,652.1025,mp-865178,Hf2IrRh,https://materialsproject.org/materials/mp-865178,96.77011166990913,4.836173107976383,65.60918760022571,64.35994354918415
-1.18979700625,-9.51837605,5.0033021815496035,0.09942349387500003,7.75e-06,0.0,194,8,145.51110063049214,438.43353856,mp-1186211,NaZn3,https://materialsproject.org/materials/mp-1186211,47.15370049412088,34.31544945280985,50.900821372011634,35.11808128609893
-10.9919827,-32.975948100000004,11.755434201539785,-0.0483362433333312,2.3e-06,0.0,42,3,52.23608034975672,369.79426,mp-1217902,TaNbMo,https://materialsproject.org/materials/mp-1217902,66.87934453980397,26.777919287790628,64.84468145897654,62.918595413322
-6.22250581625,-298.68027918,3.6321223423795095,-2.214798756538334,4.99999985,0.9994999999999998,1,48,421.8770869227622,922.77818,mp-768594,Li4MnCrO6,https://materialsproject.org/materials/mp-768594,-11.015258824907544,99.3755232481941,-12.610664013777726,96.7419893530044
-8.23917433875,-65.91339471,7.705175431198073,-0.13523484625000215,2.17e-05,0.0,223,8,111.73934117379179,518.489,mp-1664,V3Pd,https://materialsproject.org/materials/mp-1664,48.179873544433924,42.05654323082028,80.53897147544251,-2.8108411525187527
-6.583806626666667,-158.01135904,3.1000743342516204,-2.745722079455,3.9999998999999997,1.7332,2,24,241.81209792362634,451.4410444,mp-772241,Li3MnAl2O6,https://materialsproject.org/materials/mp-772241,-29.021915267851853,61.49283856559261,-22.50662598081548,58.15785102849992
-11.071661295,-22.14332259,20.432794803347583,-0.15993478999999944,6e-07,0.0,187,2,30.561523069911736,376.05699999999996,mp-1223778,IrW,https://materialsproject.org/materials/mp-1223778,67.62973699847902,63.49711420382712,89.54724183877009,16.836154451313902
-7.5491973425,-30.19678937,9.8920068114654,0.9773247624999994,0.6807939000000001,0.0,225,4,69.61844915837555,414.72447,mp-975905,Mo3I,https://materialsproject.org/materials/mp-975905,100.70145160466842,6.123893775987582,67.49651432437047,60.673595982967356
-6.922669907857142,-96.91737871,4.138731412656521,-2.275892965714285,3.9999992999999994,0.0,166,14,141.885155257485,353.6348950000001,mp-752608,Li2V3CoO8,https://materialsproject.org/materials/mp-752608,0.09795330445462168,68.10535660144494,16.293580331386927,83.12195079843156
-6.176409215,-24.70563686,6.799539678057081,-0.0953168341666668,2.9999998,0.0,216,4,65.7533479043054,269.2454,mp-999076,Ti2InNi,https://materialsproject.org/materials/mp-999076,93.50640931838682,12.794072133459228,58.35777520931608,64.58856776653711
-3.47115354,-13.88461416,10.315597498847096,-0.05511287250000008,2e-07,0.0,139,4,69.22261522322782,430.0246,mp-985296,Ag3Pd,https://materialsproject.org/materials/mp-985296,52.897398257942456,30.457797827317904,55.959684740538776,41.84196621441321
-5.6670785200000005,-34.00247112,9.227054902840912,-0.367210605555556,0.0042895,0.0,216,6,88.12980919126586,489.7076,mp-1206393,CeInNi4,https://materialsproject.org/materials/mp-1206393,70.24023336759561,46.63176837569455,73.5279088729573,25.36199619498239
-5.7891101109375,-185.25152355,4.2365621141723615,-1.8537611475599995,16.0000002,0.11799999999999987,1,32,283.38358467434693,723.001465,mp-1175960,Li9Mn2Co5O16,https://materialsproject.org/materials/mp-1175960,18.05595341798652,88.81014133540836,9.342133097735926,90.23011589942364
-4.40239716,-17.60958864,5.502024113625711,0.4209917850000009,2.48e-05,0.0,139,4,74.2457190969173,246.0055,mp-1187004,SiGe3,https://materialsproject.org/materials/mp-1187004,45.254793330736405,33.22321814378386,50.781021252086354,36.876444155645686
-6.182312802903227,-383.30339378,4.274449818312732,-1.812771117876344,17.4903442,0.0,26,62,639.2309143190813,1645.46596,mp-774870,Li4TiFe4(Co2O9)2,https://materialsproject.org/materials/mp-774870,-7.623467976308559,66.2735093786662,-8.717509567898661,71.5711792725582
-5.359636322499999,-64.31563587,3.821614644297636,-1.7377721202083336,2.99999995,0.0,12,12,104.98984205630778,241.62679,mp-1173880,Li2CoO3,https://materialsproject.org/materials/mp-1173880,19.011437758492296,91.77536854624478,-11.081818121711118,98.25144820428144
-6.1577928265,-123.15585653,8.388929108328044,-0.009947554499999709,0.0,0.0,229,20,451.36797715601,2280.28,mp-1521,Sb7Mo3,https://materialsproject.org/materials/mp-1521,47.783715225012436,-5.9934292384795365,50.4283014709895,2.7844426925554906