energy_per_atom,energy,density,formation_energy_per_atom,total_magnetization,band_gap,sgr,num_sites,cell_volume,weight,mp_id,formula,URL,tsne_cry_0,tsne_cry_1,tsne_xrd_0,tsne_xrd_1
-5.59371971142857,-39.15603798,10.046676940513873,-0.54944806244898,2.1600000000000003e-05,0.0,123,7,112.6868675426087,681.783762,mp-1025296,SnPPd5,https://materialsproject.org/materials/mp-1025296,58.98170511288,43.436745356445435,76.23399952547128,11.931800465631992
-9.574526062999999,-191.49052126,10.019093766400816,-0.3200342829999997,6.025e-05,0.0,186,20,238.1425050886372,1436.866,mp-978989,Tc7B3,https://materialsproject.org/materials/mp-978989,61.16275798541825,40.0946259597461,73.05623299338869,10.530070538514279
-9.182286284166667,-220.37487082,9.350288661539055,-0.2761526970633336,2.08084505,0.0,4,24,296.78460986896636,1671.1572,mp-1225439,FeNi3(Mo3N)2,https://materialsproject.org/materials/mp-1225439,63.054752284821596,41.68141490087455,74.8183868907935,5.766205057948088
-9.24255128,-18.48510256,7.518395337249331,-0.9925542061900005,5e-07,0.0,221,2,23.241619749734788,105.2307,mp-1009836,ZrN,https://materialsproject.org/materials/mp-1009836,35.480588532160894,49.69813995846209,58.598075799552184,-28.76842755322105
-6.7513774875,-108.0220398,6.141273349321038,-0.4735451035416665,0.0036156,0.0,189,16,284.7528702592428,1053.119,mp-1217250,Ti10(GaSb)3,https://materialsproject.org/materials/mp-1217250,51.89442167941825,43.2410505318201,65.74731995937313,-3.6639728630387047
-10.8729326275,-304.44211357,14.017966931895796,-0.0754898101785711,1.311263125,0.0,227,28,345.1128224159087,2913.37934,mp-15813,Mn3W3C,https://materialsproject.org/materials/mp-15813,61.04334511153835,30.69872008170543,66.46094470689061,16.715707313619994
-8.718937257999999,-43.59468629,6.282851225163866,-3.618344366083333,2.8999999999999998e-06,0.0,221,5,62.0491953431205,234.77067000000002,mp-8020,LaTiO3,https://materialsproject.org/materials/mp-8020,3.363010184153337,-98.42345339964326,53.457630440918685,-66.74237579231956
-2.683735785,-5.36747157,6.693511840707381,-0.4816189017968751,1.5e-06,0.0,225,2,47.47567856550718,191.371,mp-1055,CdSe,https://materialsproject.org/materials/mp-1055,25.862033857937718,7.170391158623291,12.036528050724868,-0.4892233818446392
-5.0535973175,-40.42877854,5.794118773846463,-1.6804934742968751,5e-08,1.5621999999999998,141,8,187.63706506229263,654.722,mp-35717,LiDySe2,https://materialsproject.org/materials/mp-35717,17.015063339562342,7.725855966607629,9.708647818686183,1.684235484647019
-5.7927554284375,-185.36817371,4.2140822021852085,-1.8574064650599995,19.999999399999997,0.7077,1,32,284.8952870418944,723.001465,mp-1175830,Li9Mn2Co5O16,https://materialsproject.org/materials/mp-1175830,17.55561980465118,88.68564439716114,7.928516039765227,91.15550987526741
-5.829254490978261,-1072.58282634,9.810904597238011,-0.2566493351811603,0.0019062625,0.01849999999999952,230,184,2300.450037180771,13591.6683088,mp-1195438,AlB7Pd15,https://materialsproject.org/materials/mp-1195438,61.83361494613175,39.504908188288866,72.20155112535714,7.520118028636936
-7.947105511666668,-95.36526614,4.218374589952875,-0.7524585511899993,2.9999998,0.02179999999999893,36,12,121.27086021642349,308.0721999999999,mp-1246402,FeSi2N3,https://materialsproject.org/materials/mp-1246402,19.08668304102952,51.08575696704634,44.36738667622343,31.44970448946627
-9.02741817,-36.10967268,9.178323750061454,-0.14802830500000042,5e-06,0.0,65,4,69.67923503436491,385.13914,mp-1220635,Nb3Pd,https://materialsproject.org/materials/mp-1220635,66.66150384412376,26.32433104275969,68.55625410449704,59.62224566206535
-5.347949387941177,-181.83027919,4.5522796886919314,-1.6801028067647057,15.0000006,0.0,1,34,288.15811468856674,789.970185,mp-779007,Li10Fe2Co3Ni3O16,https://materialsproject.org/materials/mp-779007,17.01441965309542,70.09227233130503,0.6459910265984345,64.67422053252697
-5.0073801475,-20.02952059,14.131926059757163,-0.02984323,1.1599999999999999e-05,0.0,194,4,94.95729146005812,808.1288,mp-22923,BiPt,https://materialsproject.org/materials/mp-22923,49.1029258011951,20.064406332039283,31.955766356366468,8.660343262801096
-6.8321973358536585,-280.12009077,7.463903133331883,-0.6259974755691055,1.56e-05,0.0,69,41,553.9673735214521,2490.01,mp-568511,Ca7(B7Rh10)2,https://materialsproject.org/materials/mp-568511,53.351603408016466,19.001576604493586,48.72168461420521,7.619372328330408
-5.63767875,-16.91303625,6.215938896538143,-0.06801572944444582,0.0,0.0,139,3,55.60429473869089,208.145,mp-30501,Ti2Cd,https://materialsproject.org/materials/mp-30501,44.445757199653826,30.27983979494853,46.00205729323486,32.77149075586918
-8.03958332,-56.27708324,4.08088871835596,-3.095599302619048,0.9970449,0.0,10,7,67.82011916997406,166.6726,mp-675334,LiTi2O4,https://materialsproject.org/materials/mp-675334,-11.740343513922644,72.52651208652875,-25.33813369442664,73.57882706868463
-4.84566169,-48.4566169,5.912800364261267,-1.0959542373750004,7.0,0.0,87,10,90.34884293571231,321.7116,mp-677318,LiNi4O5,https://materialsproject.org/materials/mp-677318,22.675049247983694,77.86065268640054,30.30018871969446,77.07427891096144
-5.872399886666668,-140.93759728,4.111398780551948,-1.9250010498716663,14.0,0.6545000000000001,1,24,212.9514423248687,527.2554749999998,mp-1174943,Li7Mn2(CoO4)3,https://materialsproject.org/materials/mp-1174943,5.232807585358893,88.17549932873692,5.749647219710237,97.12231604738331
-2.53465695,-15.2079417,3.373851162399065,-0.09866955333333303,2.75e-06,0.0,72,6,110.40167903424023,224.312,mp-865014,Mg2Cu,https://materialsproject.org/materials/mp-865014,39.77804490854195,42.64910827081773,65.11068284777608,-12.439207334153984
-9.235211002,-46.17605501,8.995919638483189,-0.10907127600000023,1.82e-05,0.0,69,5,88.24147844332525,478.04552,mp-1220401,Nb4Pd,https://materialsproject.org/materials/mp-1220401,66.67717377303262,26.313049888651943,68.64566244878185,59.64068118363218
-8.481185511666666,-50.88711307,4.631728280375706,0.03269723341333493,1.05e-05,0.0,136,6,57.36903819845973,160.019,mp-1014366,CrN2,https://materialsproject.org/materials/mp-1014366,2.061011329488857,71.76335340817386,-14.522099381468124,87.99983590139122
-7.785688746,-38.92844373,5.967435965259362,-0.4368689306666667,1.1127056,0.0,139,5,61.83583995841438,222.21785,mp-12077,Y(FeB)2,https://materialsproject.org/materials/mp-12077,55.37490718489135,25.762748067523898,68.06104382307049,18.18164217018248
-5.411003593333334,-32.46602156,2.777230716805011,-3.654230587126667,0.0,6.7888,123,6,84.94739424049313,142.07345139999995,mp-5347,KAlF4,https://materialsproject.org/materials/mp-5347,-26.524861564213253,55.27048397810025,-27.044420734518557,60.35123024763158
-8.487974199473685,-161.27150979,6.129550553075321,-0.2519164665284204,18.3814275,0.0,12,19,196.90697548323828,726.84305,mp-1246108,Mn10ZnN8,https://materialsproject.org/materials/mp-1246108,25.507526704023608,54.05791317982806,60.133774470050106,6.724773114669616
-5.2128560293333335,-78.19284044,4.523974781287087,-1.375526218666667,9.8761502,0.0,166,15,145.09653720308668,395.30120000000005,mp-771350,Li3FeCu3O8,https://materialsproject.org/materials/mp-771350,15.712869666584265,79.39499480809235,22.10948331123869,81.08912401682974
-6.717304921875,-107.47687875,2.5568138187465994,-2.982751954375,0.0,5.5993,20,16,149.34545806521348,229.954564,mp-554159,Li2BeSiO4,https://materialsproject.org/materials/mp-554159,-61.606942871942294,28.95050027595753,-76.46582633958806,42.38516733482777
-7.024160782580645,-435.49796852,4.128425067890887,-2.3880882043589238,7.01158635,0.1092000000000004,55,62,641.8577716339811,1595.78405,mp-767219,Li4Ti4Mn(Co2O9)2,https://materialsproject.org/materials/mp-767219,-7.621545647540914,66.31353191113594,-8.799457916039385,71.51822178066142
-5.7857868846875,-185.14518031,4.231468662459829,-1.8504379213099995,16.0000004,0.3944000000000001,12,32,283.72469569744595,723.001465,mp-1176297,Li9Mn2Co5O16,https://materialsproject.org/materials/mp-1176297,19.295762596589448,90.97222135740436,10.028516311290932,89.09258568896759
-5.813870341666667,-34.88322205,4.673371098815419,-1.5094296573958337,0.0,0.8099000000000001,141,6,211.795897591306,596.072,mp-1080295,CeSe2,https://materialsproject.org/materials/mp-1080295,24.648527908989163,1.1487230704121574,12.127372055853504,-8.863323023200449
-5.470957652857144,-38.29670357,9.868096569135746,-0.5665044031632657,1e-07,0.0,123,7,106.48291900315449,632.7967620000002,mp-1025301,GaPPd5,https://materialsproject.org/materials/mp-1025301,56.76623513799997,42.379112834038686,77.3373977388101,11.483531046892404
-7.250453779999999,-36.252268900000004,5.2188579890000115,-2.8983529252500007,0.9999998999999999,0.2446999999999999,221,5,59.35966561911505,186.5597,mp-18717,SrVO3,https://materialsproject.org/materials/mp-18717,19.17462008000843,-94.27319711764083,62.56560436850758,-64.25490783352171
-6.00090538,-18.00271614,9.372490865100627,-1.0328132149999998,2.6e-06,0.0,187,3,53.603122367061864,302.54921,mp-1207181,TmNiAs,https://materialsproject.org/materials/mp-1207181,54.041879623191,-17.08849470349967,25.32394400122977,24.65310875641468
-6.877936578333332,-41.26761947,8.262993988631884,-0.009040833333332424,1.3608806999999998,0.0,160,6,135.66324342335815,675.0726950000001,mp-1224248,HfZrCoSb2Rh,https://materialsproject.org/materials/mp-1224248,87.27144351465236,2.548746016348008,58.066225446618716,68.08142959375256
-10.612624495,-42.45049798,13.856888140984989,-0.039594118750001066,2.7300000000000003e-05,0.0,187,4,58.027661850061186,484.23,mp-1217407,Tc3Os,https://materialsproject.org/materials/mp-1217407,61.17951450647397,62.11520410755269,85.5279906608696,12.511972382048814
-4.040579487826087,-185.86665644,2.9622610101652813,-0.10156380782608704,0.9968449,0.0,227,46,749.4288349218933,1336.9175695999998,mp-684027,Mg3(MnAl9)2,https://materialsproject.org/materials/mp-684027,55.122136415651426,48.923027206974716,78.21803373364659,4.924685543899299
-4.576137349142857,-160.16480722,4.669974757173254,-1.1672518072428577,8.0000005,0.3853,2,35,355.6303428065915,1000.14795424,mp-760204,Na8(NiO2)9,https://materialsproject.org/materials/mp-760204,14.92963955219048,65.22810221691691,12.809253166285846,67.66698568655244
-6.052155763478261,-278.39916512,4.8242945096061485,-1.7266930324747831,19.0000002,0.4632000000000001,4,46,429.7717048144403,1248.5977300000002,mp-774397,Li4Mn2Co5O12,https://materialsproject.org/materials/mp-774397,22.1686784457754,77.50181911808373,28.618070453513862,76.84723218521279
-2.9923183850000004,-35.90782062,7.3329666795832456,0.05663046769097176,0.0,0.0,17,12,266.93418831968154,1178.7856,mp-568889,Ag2Se,https://materialsproject.org/materials/mp-568889,43.00853170517551,17.200889635856754,51.06889382453338,32.44201428153184
-7.430001424166666,-267.48005127,1.6975191559304996,-2.8039522416666665,0.0,2.7733,166,36,705.3045062319654,721.0116,mp-561488,SiO2,https://materialsproject.org/materials/mp-561488,-80.85308464994803,30.87718202774633,-78.76220155194312,42.31948643991016
-5.6025638964285704,-78.43589455,4.680142426089794,-1.619322529817143,5.0,0.0,8,14,135.04206027044916,380.6089832,mp-780622,Li2Co4O7F,https://materialsproject.org/materials/mp-780622,-0.498781514633002,70.5570468264784,4.767273654998299,57.64643999994782
-3.4590061416666664,-20.75403685,13.418469307621086,-0.4503125566666662,9.5e-06,0.0,191,6,132.7163163588358,1072.4528449999998,mp-1831,SrAu5,https://materialsproject.org/materials/mp-1831,53.27669641431578,17.399076087384994,53.0823457920434,13.432551779471504
-8.1237207775,-64.98976622,6.3373525323063005,-0.5200825496875012,5e-08,0.0,194,8,96.22399801546378,367.2334,mp-1080835,V2GaC,https://materialsproject.org/materials/mp-1080835,57.317850950904166,48.32534734438533,82.42157887532349,20.28474324501425
-3.00655129,-12.02620516,6.0973503370571125,0.024117359999999977,2.55e-06,0.0,64,4,75.95283661643765,278.892,mp-1007857,Ga,https://materialsproject.org/materials/mp-1007857,66.04294237157032,25.800038248750376,47.96038472431529,27.203114762065926
-6.0479040416666665,-36.28742425,5.269013734554697,-0.19052397833333384,1.1e-06,0.0,227,6,69.92004212864839,221.86148799999998,mp-2028,Be2Nb,https://materialsproject.org/materials/mp-2028,37.138467954081726,41.988416613286354,64.85831700466738,45.213283329853
-9.3029876575,-37.21195063,15.123294498774747,-0.8153815424999991,2.5e-06,0.0,225,4,71.98680313180978,655.617,mp-981539,Hf2IrPd,https://materialsproject.org/materials/mp-981539,97.10169850049108,3.2676233927601657,73.30751837509364,55.97252201588583
-6.5672533605660375,-348.06442811,5.4294560400034335,-1.6264490415094337,1.9988063000000003,1.0352,10,53,527.2860158699002,1724.0644,mp-674331,V4Ge13O36,https://materialsproject.org/materials/mp-674331,2.7925349985903214,47.25419686623418,11.348454328383735,48.42224144622159
-6.34699988875,-50.77599911,2.2261255662167003,0.09905935562500012,4.815e-05,0.0,131,8,88.09147576221788,118.0958,mp-1120719,LiSiC2,https://materialsproject.org/materials/mp-1120719,-26.299654118532477,59.034374174486274,-26.966522643498735,3.4314424788910496
-5.088774058333334,-30.53264435,6.1825246737857125,0.021532563333332533,6.5e-07,0.0,129,6,112.02122209942301,417.0778,mp-1077588,SiNiSb,https://materialsproject.org/materials/mp-1077588,46.8083561590897,38.43817578417651,61.82085479805192,-14.34102396247998
-6.058373086666666,-72.70047704,11.391457741731234,-0.06049506999999939,0.0118613,0.0,8,12,158.48973116269403,1087.2548199999999,mp-1217043,U2(CuNi)5,https://materialsproject.org/materials/mp-1217043,65.52710300134811,48.811742588007725,72.13608821613731,19.323466865117
-5.960796855,-23.84318742,9.579944220753182,-0.3939489808333328,4.2354154,0.0,225,4,66.31726183705773,382.596045,mp-31328,MnInPd2,https://materialsproject.org/materials/mp-31328,96.49000719969877,9.37674988448609,62.151821700056715,64.10601955665663
-7.282115572499999,-203.89923603,14.171949196457374,-0.2735471589285713,0.0,0.0,176,28,434.18635028253686,3705.5840000000003,mp-28999,Sn4B3Ir7,https://materialsproject.org/materials/mp-28999,52.385010731986036,19.79202706938112,70.17603760860925,13.133691081422226