energy_per_atom,energy,density,formation_energy_per_atom,total_magnetization,band_gap,sgr,num_sites,cell_volume,weight,mp_id,formula,URL,tsne_cry_0,tsne_cry_1,tsne_xrd_0,tsne_xrd_1
-5.353937004375,-85.66299207,4.542817517230773,-1.6186632119350002,7.000000200000001,0.0,166,16,141.37901088429882,386.777445,mp-1177345,Li4MnNi3O8,https://materialsproject.org/materials/mp-1177345,12.407068790714947,80.93773136818112,23.87564554804039,83.83605618632036
-6.363344623928571,-178.17364947,4.620932769294348,-1.9051083639285715,7.9613031,0.0,186,28,259.74521660122605,722.8166,mp-754888,Li2CrFe3O8,https://materialsproject.org/materials/mp-754888,-1.1654912156156871,72.16509509502501,3.0490334380751465,58.39761797634414
-8.92097592,-35.68390368,8.430945613930575,0.10844257749999996,1.26e-05,0.0,139,4,66.45597313897879,337.41254,mp-999394,Nb3Ni,https://materialsproject.org/materials/mp-999394,61.504428903672924,53.78085327072439,57.80258772544477,38.80150506979886
-9.22220607625,-73.77764861,10.42366189648833,-0.1358112462500003,1.6800000000000002e-05,0.0,194,8,125.67043371274666,788.8679999999998,mp-1188033,ZrRu3,https://materialsproject.org/materials/mp-1188033,67.30394850209719,60.64965183802325,87.96083885635576,18.569965029095126
-10.252528154,-51.26264077,12.119560825057025,0.21011167200000075,5.47e-05,0.0,166,5,78.91641524374953,575.977,mp-1221469,Mo4Ir,https://materialsproject.org/materials/mp-1221469,62.869298079613905,59.880136664268996,83.40115947833749,15.294956182916074
-7.3332085000000005,-29.332834000000002,13.288547584229505,-0.4857377525000004,3e-06,0.0,139,4,62.50605700817043,500.20788,mp-30836,TaPd3,https://materialsproject.org/materials/mp-30836,61.00000075983567,56.84193995955482,82.17938744391991,14.59440963122514
-5.2914425675,-21.16577027,10.92489359216615,-0.3759995500000004,5e-07,0.0,221,4,67.03323206240914,441.02,mp-1186928,SbPd3,https://materialsproject.org/materials/mp-1186928,68.12617146303084,58.84025194452686,57.60011277719199,41.480990665589324
-6.5594182191935495,-406.68392959,4.37025794958826,-1.9145327998684096,23.268936399999998,0.4380999999999999,55,62,618.4465926119218,1627.64685,mp-768066,Li4Mn5(Fe2O9)2,https://materialsproject.org/materials/mp-768066,-7.305619242976253,66.45745332938142,-8.518390913536834,71.61686730809801
-5.775112410677965,-340.73163223,1.6315696560637212,-1.856762582605932,0.0014675,0.0,1,59,1385.456218813962,1361.2858668,mp-1245250,Al38O21,https://materialsproject.org/materials/mp-1245250,8.84761224533545,65.2145819064414,21.886789581295318,56.806677919153316
-3.883325246666667,-46.59990296,2.68831508449505,0.2683311833333336,1.675e-06,0.0,12,12,198.8361268420893,321.904,mp-1073578,MgSi2,https://materialsproject.org/materials/mp-1073578,67.81677400015488,59.33366661845031,83.3449636559763,18.034489048011306
-5.566030788333332,-33.39618473,12.173900375648792,-0.4139447266666672,1.2953687,0.0,216,6,82.75580618251004,606.707169,mp-1072381,LuNi4Au,https://materialsproject.org/materials/mp-1072381,70.77301948898534,49.542577353771115,72.24142200265065,22.38259356929882
-8.61830571,-34.47322284,9.963560926095502,-0.2087573618749996,7.2000000000000005e-06,0.0,225,4,72.03113815938548,432.20099999999996,mp-1187940,Zr2CuRe,https://materialsproject.org/materials/mp-1187940,94.31401779357748,2.169267595510462,71.27959438975523,55.030009689849436
-7.108709185,-28.43483674,19.56439326782221,0.4645289650000004,0.00010859999999999998,0.0,221,4,66.52980080827865,783.8510000000001,mp-1184777,Ir3Pb,https://materialsproject.org/materials/mp-1184777,68.98698166151718,57.12814526116336,57.548620933510044,41.36680917141824
-5.8067680465625,-185.81657749,4.235287579697865,-1.8714190831849988,21.9999999,0.5352000000000001,1,32,283.4688639243098,723.001465,mp-1175637,Li9Mn2Co5O16,https://materialsproject.org/materials/mp-1175637,11.612592200841195,86.32933952516045,8.345523198822116,95.60715445997603
-9.391874913333334,-112.70249896,10.073147466602324,-0.3512275191666656,0.00052265,0.0,194,12,178.38336242354168,1082.1076,mp-1223823,Hf2Cr3Si,https://materialsproject.org/materials/mp-1223823,80.64216559048323,30.10900291205976,69.33577873309406,24.45742491826945
-3.2372050375,-12.94882015,6.89159784784612,0.060619517500000164,1.6e-06,0.0,221,4,65.71101713880961,272.715,mp-984518,Ga3Cu,https://materialsproject.org/materials/mp-984518,68.00359547784913,59.164518620263316,58.098324496147264,41.46359075586648
-10.945864648333336,-131.35037578,19.15565826325902,-0.586222633333333,5.666666666666667e-07,0.0,51,12,194.09038616608453,2238.98928,mp-571499,TaIr,https://materialsproject.org/materials/mp-571499,68.89399114160828,57.43294611955171,88.78129087841391,18.350225464945023
-7.304637126153847,-94.96028264,3.748647969159285,-3.0780440086923075,7e-07,5.383800000000001,8,13,123.29255499876152,278.33153860000004,mp-1223534,KAlSi3O8,https://materialsproject.org/materials/mp-1223534,5.569943773753061,60.85053518516842,4.490164885866101,49.82075628627072
-6.161930923333332,-277.28689155,3.6724363669144258,-2.0271575475040002,21.000004399999998,0.0,5,45,413.15151448060834,913.72296,mp-758228,Li13Mn8O24,https://materialsproject.org/materials/mp-758228,-10.87279328800936,100.88484298466291,-12.048284391479056,98.90073258038136
-7.38849379,-29.55397516,17.948423429717867,-0.13028634999999955,1.8756712,0.0,221,4,63.0220205225825,681.192,mp-13100,MoPt3,https://materialsproject.org/materials/mp-13100,61.228865233896215,57.07426717183157,81.81843313963968,15.251620064261838
-11.561060235,-23.12212047,13.431387345298422,-0.024677589999999583,4.1e-06,0.0,65,2,34.21449745692408,276.74638,mp-1220316,NbW,https://materialsproject.org/materials/mp-1220316,95.917092397788,8.046469632385751,64.61896662480291,63.09041771679125
-9.266366902,-46.33183451,14.403976683296587,0.4691957942499997,0.00041739999999999995,0.0,166,5,67.82405678837159,588.3247000000001,mp-1221512,Mo2Ir2C,https://materialsproject.org/materials/mp-1221512,64.11390053940009,58.772018436012296,74.5946615285437,10.963420481253863
-4.959560068,-24.79780034,3.001906011288169,-3.564296131314,0.0,6.9537,221,5,66.59982850789618,120.39850959999998,mp-3448,KMgF3,https://materialsproject.org/materials/mp-3448,-12.776227814810794,51.97709449952053,-2.6749859617563767,58.582548032076424
-3.92746219,-47.12954628,2.6684603870256502,0.2241942400000004,1.1375e-05,0.0,11,12,200.31556838209931,321.904,mp-1100460,MgSi2,https://materialsproject.org/materials/mp-1100460,58.697400843504546,48.17641380332776,74.02171020176986,6.6819950271154
-3.06302035625,-24.50416285,9.691548146965266,0.08330789125000049,8.85e-06,0.0,194,8,132.66790318959102,774.3012,mp-984351,CuAg3,https://materialsproject.org/materials/mp-984351,61.18189632725117,53.70398992764583,57.094969726816,38.09970892900329
-5.877231205,-35.26338723,11.057056216317344,-0.5164372783333336,6.5e-07,0.0,227,6,87.81087640233423,584.7076,mp-2130,LuNi2,https://materialsproject.org/materials/mp-2130,79.9086275822023,29.80385606401197,71.418023192003,25.76740261819983
-9.6520696925,-38.60827877,12.913493091058452,-0.21399839999999948,0.0018192,0.0,221,4,61.941540521042526,481.7,mp-1007657,HfRu3,https://materialsproject.org/materials/mp-1007657,60.64286999089915,56.916315204468745,81.97710357620966,14.256496873187801
-6.835460654166668,-164.05105569999998,10.829781142311257,-0.4235693991666677,4.1333333333333324e-06,0.0,59,24,379.186812349234,2472.9982800000002,mp-669692,NbPd3,https://materialsproject.org/materials/mp-669692,67.33478494423521,60.60798892302982,88.09609553242109,18.593095562346953
-7.76590602,-15.53181204,9.85277096358526,-0.12026545999999973,3.48e-05,0.0,166,2,33.593517693162106,199.32638,mp-1220332,NbPd,https://materialsproject.org/materials/mp-1220332,68.12243224288399,58.827417074059184,57.4869584802622,41.556317973794386
-5.9601656541666665,-143.0439757,4.861788806813611,-1.2116486563699995,8.0000223,0.0768000000000002,8,24,247.51922537441868,724.6961200000001,mp-770859,Mn3Co3(CuO8)2,https://materialsproject.org/materials/mp-770859,0.600191501693206,72.26446866467812,2.50282638085338,58.066189226454384
-9.734527085833333,-116.81432503,10.141827948408846,-0.3388858416666665,0.0014002,0.0,194,12,177.74905277470882,1085.6115200000004,mp-1095672,Ta2V3Si,https://materialsproject.org/materials/mp-1095672,80.64878074846554,30.108567883050004,69.45937039436264,24.21565892229333
-4.03170888,-16.12683552,8.270458553315791,-0.6075881975000001,0.0012050999999999997,0.0,216,4,69.88935748935728,348.0900000000001,mp-571584,LiMgSbPt,https://materialsproject.org/materials/mp-571584,85.93706421584356,1.8065850140878572,57.474485490939614,70.01826710459383
-6.6757480042857145,-186.92094412,4.4943115773449644,-2.2069663107142863,1.0000001,0.3290000000000002,8,28,266.76937285471024,722.021375,mp-756331,Li4Ti3Co5O16,https://materialsproject.org/materials/mp-756331,-2.1990292546042185,72.22883156015446,2.696379375598209,60.387596372416354
-7.33430046,-58.67440368,11.160641938617367,0.30317846416666683,1.08369115,0.0,194,8,124.39281138681784,836.0559999999998,mp-1095082,InRu3,https://materialsproject.org/materials/mp-1095082,67.22008043004192,60.85952078817446,88.4964110605431,18.065988512617587
-5.168963042857143,-144.73096519999999,4.886630899722705,-1.3534515764285715,0.59104205,0.0,59,28,292.7752471139003,861.5784,mvc-6765,Mg(CuO2)2,https://materialsproject.org/materials/mvc-6765,7.656428829441147,73.83291306462323,17.42544245569072,90.92416125404571
-9.5993416,-86.39407440000001,6.7238257614761565,-0.5240482974599985,2.333333333333333e-07,0.0,162,9,87.42423751505957,353.9967,mp-8780,Cr2N,https://materialsproject.org/materials/mp-8780,31.444140816616912,57.617457903555355,86.08882575427488,17.387893952164355
-8.711722085,-34.84688834,10.390561210600186,-0.7597338249999996,7.0523144,0.0,225,4,69.16418789335523,432.784,mp-863249,GdGaRh2,https://materialsproject.org/materials/mp-863249,95.77672144851955,5.057848804059888,65.31076303063276,65.18850897015511
-6.8335242725,-27.33409709,10.868954844377711,-0.4216330175000005,1e-07,0.0,139,4,62.9700256156194,412.16638,mp-1135,NbPd3,https://materialsproject.org/materials/mp-1135,67.26903021269196,60.73000181185689,88.24929574809249,18.33099951727464
-7.533535631666666,-316.40849653,3.199304707764409,-0.910824495067482,0.0,4.0441,148,42,395.4597702202774,761.919036,mp-1019545,Be(PN2)2,https://materialsproject.org/materials/mp-1019545,-79.84777773958754,30.351951277598964,-0.12123790923163863,54.823064220001896
-1.345578165,-8.07346899,6.150189347516237,-0.01749998416666661,1.2e-06,0.0,189,6,94.86380967109885,351.35,mp-1094462,MgZn5,https://materialsproject.org/materials/mp-1094462,59.569692658136155,53.11605329846453,80.93076863938602,18.136261777327228
-8.02615495,-40.13077475,8.76893519844027,-0.5063900707500011,7e-07,0.0,221,5,69.24798393454893,365.683112,mp-10712,ScRh3C,https://materialsproject.org/materials/mp-10712,49.030663253499206,35.09698095836664,56.297827557444656,36.32215063764101
-10.10039253,-40.40157012,20.343102103385476,-0.6291733062499993,4e-06,0.0,221,4,66.49958245225311,814.6799100000002,mp-1044,UIr3,https://materialsproject.org/materials/mp-1044,68.98781938380532,57.09684193948266,57.53622959301963,41.33439412938547
-1.4280104141666667,-17.13612497,5.007279105125231,-0.044680877499999966,2e-06,0.0,63,12,205.77067272983803,620.4920000000002,mp-1094198,MgZn2,https://materialsproject.org/materials/mp-1094198,49.79112859479279,40.66799333233177,77.6997843465678,15.11024104037924
-8.081288918333334,-48.48773351,12.275389795604458,0.036389705520833836,0.14535479999999998,0.0,216,6,83.84932089528712,619.84878,mp-1226700,CePuCo4,https://materialsproject.org/materials/mp-1226700,71.55319460605963,49.664355549505004,71.7744009964168,22.66220255772776
-6.198640295520833,-595.06946837,3.695202048639037,-2.198501191588333,45.0004742,1.2042000000000002,1,96,835.9609077582562,1860.2660850000002,mp-777770,Li32Mn13Cr3O48,https://materialsproject.org/materials/mp-777770,-11.268137971289127,100.61193339242357,-12.223684803481367,98.69203685654362
-3.2053955175,-12.82158207,6.9128903893443585,-0.2786794479166663,3.91e-05,0.0,225,4,68.1334107495842,283.642112,mp-867109,ScZn2Ag,https://materialsproject.org/materials/mp-867109,96.25701298456192,8.621139181911737,63.154299746208686,65.32600848557837
-7.111238950416666,-170.66973481,3.6757319044014936,-1.8008291199033326,2.99999985,1.6861,194,24,314.19489536560144,695.4947599999999,mvc-11561,MnO2,https://materialsproject.org/materials/mvc-11561,6.737429610720117,70.58233769412936,14.197803431266443,84.3975867627151
-5.7950584765625,-185.44187125,4.252491835911942,-1.859709513184999,22.0000016,0.3839000000000001,2,32,282.32203727493624,723.001465,mp-1175611,Li9Mn2Co5O16,https://materialsproject.org/materials/mp-1175611,5.6708195504497025,95.588849620658,3.04808241145629,90.24343252741464
-4.939823345,-19.75929338,10.792484683200813,-0.27353335249999944,7e-07,0.0,225,4,66.85235806966092,434.4993,mp-864902,MgTlRh2,https://materialsproject.org/materials/mp-864902,89.05542011542269,15.486384716152447,60.71923802805231,66.50267007915737
-9.444956131666666,-56.66973679,11.03394159077958,0.004644394246666887,3.1e-06,0.0,8,6,64.47765459655349,428.4408,mp-1077299,ReN2,https://materialsproject.org/materials/mp-1077299,49.62780719397735,18.320168130144733,68.03780779821479,19.240881666053227
-8.70762034736842,-165.4447866,6.056315405162077,-0.4541148178442082,17.9742787,0.0,12,19,188.01802541640225,685.7390499999998,mp-1245829,Mg(Mn5N4)2,https://materialsproject.org/materials/mp-1245829,29.392689406952034,58.71795506612268,83.03392541425106,22.48019247566697
-6.622681855,-13.24536371,14.215756606704664,0.2356601587500009,1.6e-05,0.0,187,2,29.39120320135347,251.616,mp-1187983,ZnRe,https://materialsproject.org/materials/mp-1187983,60.64944061385404,62.12030114515643,83.57633715628,8.961064586272594
-4.8363081625,-19.34523265,4.317387266422593,-1.342543284375,1.0,0.3160000000000003,8,4,37.5513546030501,97.6332,mp-25587,LiNiO2,https://materialsproject.org/materials/mp-25587,8.304380028934906,74.7148013629769,17.10628958804114,88.76266135716293
-7.6448867975,-30.57954719,11.048651857752128,-0.6511025500000001,1e-07,0.0,221,4,67.45654567329571,448.8325,mp-1518,CeRh3,https://materialsproject.org/materials/mp-1518,62.22762449579616,53.84716426539364,57.571903601055574,38.793897546081745
-6.7786121175,-54.22889694,11.282116046469973,-0.2660593162499998,3.3100000000000005e-05,0.0,194,8,125.82008322855962,854.8530000000001,mp-1187077,SnRh3,https://materialsproject.org/materials/mp-1187077,67.35367205198719,60.946342392426814,88.14754583538608,18.480383399389247
-5.782605152203391,-341.17370398,1.5925513261856816,-1.864255324131356,0.011600399999999999,0.0,1,59,1419.400611618393,1361.2858668,mp-1245113,Al38O21,https://materialsproject.org/materials/mp-1245113,8.837243536394707,65.2253774763275,21.883220246376148,56.80845356264139
-6.207372510625,-595.90776102,3.6883156692352457,-2.2042062243808327,43.112568700000004,1.0065,1,96,834.8726915006341,1854.382195,mp-1177783,Li32Mn11Cr5O48,https://materialsproject.org/materials/mp-1177783,-11.242507759265369,100.49425856923095,-12.297185773957255,98.42504933386923
-6.207414894791667,-595.9118298999999,3.6855730108350384,-2.2042486085475,37.106966799999995,1.0270000000000001,1,96,835.4939709037869,1854.382195,mp-777960,Li32Mn11Cr5O48,https://materialsproject.org/materials/mp-777960,-11.246066206479087,100.50846253870964,-12.26502624436885,98.54911382050406
-2.101831615,-4.20366323,8.684426896814044,-0.05108141583333303,1.21e-05,0.0,187,2,33.1321293576028,173.2772,mp-1187974,ZnAg,https://materialsproject.org/materials/mp-1187974,60.30589451608074,53.01258571152338,81.34502863509832,19.61131174459397
-7.054406043048781,-578.46129553,2.556237105731627,-0.6749174255792698,8.5e-07,2.3347,2,82,609.5782680313828,938.386,mp-32715,B36O5,https://materialsproject.org/materials/mp-32715,5.9141327274771065,57.51795675661955,0.1657324667267585,54.416119620232436
-5.898739980344828,-171.06345943,3.886227048911991,-1.7910974990648274,8.999998300000001,0.08230000000000004,8,29,276.1098537363468,646.1911200000001,mp-759545,Li7Mn3Co3O16,https://materialsproject.org/materials/mp-759545,3.3211898962580735,77.22051343789056,17.83185485398818,92.63900495100314
-9.223278318666669,-276.69834956,12.148304868665535,-0.4622425720000005,0.0054224,0.0,136,30,520.6437828383116,3808.9676,mp-1192954,Nb2Pt,https://materialsproject.org/materials/mp-1192954,63.51560832804918,22.99302171054857,69.24503218802766,16.493690500617937
-5.610878398333334,-67.33054078,6.226229097279525,-0.4956106248655565,0.016565299999999998,0.0,123,12,109.4420956662067,410.35564,mp-1102011,Ti2H3Pd,https://materialsproject.org/materials/mp-1102011,46.74389494148386,32.6320796952756,52.269026474116174,36.158649031383106
-7.69809442,-61.58475536,7.7550352424062865,0.17369188625000032,9.04593365,0.0,194,8,121.41863453444378,567.04827,mp-22389,Mn3Sn,https://materialsproject.org/materials/mp-22389,57.51619872626025,56.32430426543983,81.54048493272987,12.913205803201196
-5.328112180833333,-63.93734617,4.596347913734013,-1.564057659374999,4.9999574,0.0,164,12,105.99014862711056,293.37919,mp-1222507,Li3Co2NiO6,https://materialsproject.org/materials/mp-1222507,12.427690689065113,80.36556703229256,23.86593332825953,83.93450834858301
-4.6211261383333335,-83.18027049,4.414189564318724,-1.0460906445000002,2.9999997000000005,0.4039999999999999,2,18,196.5289231934986,522.43030784,mp-759923,Na3(NiO2)5,https://materialsproject.org/materials/mp-759923,7.318033813241079,73.90988530797668,12.912579656237906,67.04382267363121
-5.03594114125,-40.28752913,10.915347184558446,-0.4643700945833346,1e-07,0.0,139,8,132.0715600186891,868.1560000000001,mp-1078721,InPd3,https://materialsproject.org/materials/mp-1078721,68.0812817497939,58.982667719079686,57.962072933123004,41.329240652024566
-4.42481058,-57.52253754,3.2773894116697315,-0.16821711692307745,1.3e-06,0.0,204,13,213.70045374558674,421.7784632,mp-16719,Al12Tc,https://materialsproject.org/materials/mp-16719,54.833337612424145,49.7787331098095,78.28040139614026,6.260846939312309
-7.8189964975,-31.27598599,14.662465387080633,0.5891530413100012,1e-07,0.0,186,4,46.710085348263505,412.4474,mp-1184774,IrN,https://materialsproject.org/materials/mp-1184774,49.94644903646776,19.402207025718308,48.683626797525775,-1.3219705202817147
-5.614267487199999,-280.71337436,4.275423072590855,-1.5487541284999995,32.9999994,0.33929999999999993,1,50,502.5586224347659,1293.947735,mp-777406,Li8MgCo13O28,https://materialsproject.org/materials/mp-777406,10.655535334165366,76.32556674038159,21.199088892765037,83.14591298959115
-5.837286287142858,-163.44401604,4.209223412736884,-1.8967730923007144,7.00000015,0.7018,12,28,246.61324136642037,625.12847,mp-1174556,Li4MnCo2O7,https://materialsproject.org/materials/mp-1174556,19.168562816873774,90.62358439834223,9.876727365631242,89.25920168564781
-8.992537386666667,-26.97761216,10.568465872879427,0.04800771341333388,4e-06,0.0,191,3,34.290850751793926,218.2434,mp-973935,OsN2,https://materialsproject.org/materials/mp-973935,51.74545834044041,18.0106168371018,19.18339409286084,89.91193727284616
-6.650394386,-66.50394386,4.106059663956874,-1.8754078002499996,3.9999998,0.4847999999999999,8,10,107.51805538928323,265.862795,mp-763359,LiCr2CoO6,https://materialsproject.org/materials/mp-763359,10.55906235260083,76.04180122133081,20.920795836256552,82.69977411599788
-8.22453725875,-65.79629807,19.909513070472148,-0.7180512987499998,0.0,0.0,59,8,127.80873230599228,1532.3997599999998,mp-30850,TaPt3,https://materialsproject.org/materials/mp-30850,67.73432215687289,61.74994344573319,88.69240724606631,18.219726216488713
-6.534009246666668,-39.20405548,10.986772982204387,-0.2853900800000003,1.9216268,0.0,227,6,88.51757965658486,585.66678,mp-2206,LuCo2,https://materialsproject.org/materials/mp-2206,80.10008784119704,29.70002121762269,71.30254489038116,25.94827186598176