energy_per_atom,energy,density,formation_energy_per_atom,total_magnetization,band_gap,sgr,num_sites,cell_volume,weight,mp_id,formula,URL,tsne_cry_0,tsne_cry_1,tsne_xrd_0,tsne_xrd_1
-7.057300952142858,-691.61549331,3.487500710233526,-3.342129225714287,1.2164285714285715e-05,3.3268000000000004,1,98,948.3375716289012,1991.7194808,mp-531459,MgAl2O4,https://materialsproject.org/materials/mp-531459,1.9139108396529891,62.60800842167532,9.632975085377891,53.7438183068716
-4.97762912,-19.91051648,4.033457143010809,-1.0296642915299996,0.0,0.5762999999999998,12,4,39.74991886719047,96.55274,mp-996953,CuHO2,https://materialsproject.org/materials/mp-996953,-25.665909616866266,59.57497503513424,-27.93692003423241,60.482967180117676
-6.112494633333332,-18.3374839,11.70752383172492,-1.2091466533333337,0.0,0.0,216,3,69.7561138921992,491.811,mp-10194,LuSbPt,https://materialsproject.org/materials/mp-10194,87.73644329113554,2.5883850419063164,57.55734953149993,68.19055756397002
-6.941782955,-27.76713182,13.567986343493574,-0.4301116937499998,2.99e-05,0.0,225,4,73.29209117090285,598.8574,mp-865334,Lu2NiOs,https://materialsproject.org/materials/mp-865334,92.60634043182837,-7.070199969698341,72.6431382227229,50.35468467352366
-5.785649099375,-185.14077118,4.224057335278856,-1.8503001359974995,19.9999991,0.5872000000000002,1,32,284.222505358213,723.001465,mp-1175840,Li9Mn2Co5O16,https://materialsproject.org/materials/mp-1175840,15.705263040470324,89.84635989955983,7.482072775273481,91.50441802438172
-3.73160446,-14.92641784,14.40035395565517,-0.04514750999999961,0.0,0.0,123,4,60.080646985112544,521.025138,mp-522,CuAu,https://materialsproject.org/materials/mp-522,55.06180662762207,41.5928396472352,78.80739274049809,11.551804930635564
-5.6755546589999994,-56.75554659,13.5109222804495,-0.4380716952333337,3e-07,0.0,191,10,152.16744939714843,1238.1055385599998,mp-28614,NaBPt3,https://materialsproject.org/materials/mp-28614,52.788918310318344,19.551190350121207,49.511747407377406,6.932814620734223
-9.14942302875,-73.19538423,17.9090630546795,0.41445613999999853,3.95e-06,0.0,194,8,135.96363081869643,1466.38,mp-1183851,DyOs3,https://materialsproject.org/materials/mp-1183851,64.56275460649577,38.73179120740009,57.44877393415107,39.97055413023304
-2.208995535,-8.83598214,2.7926124225966102,-0.1721677300000004,1e-07,0.0,225,4,74.49023932348544,125.274,mp-30648,LiMg2Ga,https://materialsproject.org/materials/mp-30648,84.38402056570466,-4.176813736400256,65.78734663329368,43.229869963320255
-5.8364815992857135,-163.42148478,2.4384048971303853,-2.101258922444285,0.0,4.9283,14,28,212.4798132855811,312.0142344,mp-777738,Al(HO)3,https://materialsproject.org/materials/mp-777738,-9.856830645036284,77.68965546112376,-27.64686508947611,75.6778340691708
-7.1860090025,-28.74403601,4.294413903719317,-0.5247867433333333,1.4e-06,0.0,38,4,58.73774361915503,151.905,mp-1065146,TiSi,https://materialsproject.org/materials/mp-1065146,56.07620037749919,52.83021338898101,85.88291096498975,10.495736538916148
-6.982276428928572,-195.50374001,3.509416384645476,-2.99716399383,8.05e-06,4.3283000000000005,186,28,249.74764647067727,527.8216659999998,mp-696529,Al5HO8,https://materialsproject.org/materials/mp-696529,4.732792441842,62.22632317540414,7.720721479210553,51.06013528992833
-5.789746705625,-185.27189458,4.220669094015709,-1.8543977422474995,21.999999600000002,0.4589999999999996,8,32,284.4506716510728,723.001465,mp-1100679,Li9Mn2Co5O16,https://materialsproject.org/materials/mp-1100679,11.510209407966798,89.1197795412087,6.713294692545898,93.59938120671684
-6.669256695,-13.33851339,5.614514691118719,-0.34488235929687416,4.706402,0.0,225,2,39.6014514760979,133.898045,mp-972,MnSe,https://materialsproject.org/materials/mp-972,23.390410226548862,23.13062158291711,59.51927219393826,-27.412068033602022
-8.040388954651164,-345.73672505,3.9769706208392575,-3.1670098527906982,0.000123,0.0,6,43,420.4516744238851,1006.9766,mp-38468,Li7Ti12O24,https://materialsproject.org/materials/mp-38468,-11.77023652101524,72.62789681054066,-7.570930334451767,66.18976354177128
-6.79425604,-13.58851208,9.368141534872118,-0.09968328500000023,4.8899999999999996e-05,0.0,187,2,29.729545435366003,167.72299999999998,mp-867841,GaTc,https://materialsproject.org/materials/mp-867841,55.432553060451156,51.28161598714527,82.61050582118588,19.73211564240505
-3.94542116125,-94.69010787,2.6537124205763942,0.20623526875000006,1.99e-05,0.0,26,24,402.85763821843017,643.808,mp-1263094,MgSi2,https://materialsproject.org/materials/mp-1263094,58.409860089265976,47.76455188331818,73.39745931980326,8.703957152238205
-6.6353840066666665,-79.62460808,6.848717201030543,-0.6960140366666666,8.95e-06,0.0,62,12,231.58369624615815,955.1424,mp-1207384,ZrGeAs,https://materialsproject.org/materials/mp-1207384,34.0583739619659,26.430312699983798,54.741720378978,9.368411059601137
-5.243183753928571,-146.80914511,4.555943283069657,-1.2965298728571435,10.0000001,0.0,8,28,271.4469870785149,744.7564,mp-772168,Li4Fe3Ni5O16,https://materialsproject.org/materials/mp-772168,-2.5754637602110853,72.2129907199458,2.766640388654206,61.24153189129157
-3.965293471666667,-47.58352166,2.7687703647545208,0.1863629583333335,2.025e-05,0.0,65,12,193.05832146161092,321.904,mp-1073299,MgSi2,https://materialsproject.org/materials/mp-1073299,58.41773518331667,47.948984055126495,73.95334458239228,6.690607333691482
-7.1004074275,-511.22933478,4.417269685567612,-1.7899975969866668,3.000007420833333,0.8253999999999999,62,72,784.3507075436992,2086.48428,mvc-12283,MnO2,https://materialsproject.org/materials/mvc-12283,-10.554299165757396,68.94780655563476,1.1904404803591682,59.03845047231738
-5.848823563571429,-327.53411956,2.3996310566821912,-2.1136008867300005,4.25e-07,4.9834000000000005,1,56,431.8262307983872,624.0284687999998,mp-626502,Al(HO)3,https://materialsproject.org/materials/mp-626502,-9.850659838789564,77.68044592295296,-27.661538564562626,75.87732937356418
-6.247195515520833,-599.73076949,3.621798501631358,-2.2319205000299998,35.0391336,0.9782000000000002,1,96,839.4150895751773,1830.846635,mp-777886,Li32Mn3Cr13O48,https://materialsproject.org/materials/mp-777886,-10.909698362740786,98.89483891328301,-12.5394291957615,97.37852992212149
-3.7368637330000003,-37.36863733,3.03909624116021,0.07389109057200045,10.8348228,0.0,225,10,115.75624217045788,211.85551919999997,mp-1079464,Fe(NF2)3,https://materialsproject.org/materials/mp-1079464,-25.45134054467352,62.33071342695803,-41.7118667697854,65.48425433911702
-6.327313285,-101.23701256,4.325788656406808,-2.0682956856250003,3.99999975,2.133,15,16,142.58508557942156,371.4414,mp-754952,Li2CrFeO4,https://materialsproject.org/materials/mp-754952,17.39557477682983,81.26111875310811,23.964389358835,80.23353968146934
-5.200788027,-52.00788027,5.74680894051566,-0.4568298028386664,1.2e-06,0.0,38,10,75.85666177968696,262.52544,mp-1215245,ZrTi(NiH3)2,https://materialsproject.org/materials/mp-1215245,54.9227998207776,24.74641736433301,57.48500738617736,14.30609587116357
-6.81281551,-34.06407755,5.708988174873482,-2.97078109675,0.9999998999999999,0.0,221,5,61.43299502091703,211.20867,mp-1184964,LaMgO3,https://materialsproject.org/materials/mp-1184964,3.5296487677709516,-96.76510648895182,54.85769013488129,-68.9114832844225
-5.792994153125,-185.3758129,4.212725471987548,-1.8576451897474997,22.0000002,0.2561,12,32,284.98703905414186,723.001465,mp-1176308,Li9Mn2Co5O16,https://materialsproject.org/materials/mp-1176308,5.726865740407156,95.35160539942785,2.8028935196563514,90.12714838277542
-6.1067921725,-48.85433738,9.58444660605562,-0.3680083129166656,8.5554883,0.0,166,8,133.77494322413807,772.13409,mp-1221865,Mn2InSbPd4,https://materialsproject.org/materials/mp-1221865,96.39173713937046,9.134386317339485,62.27529438215045,64.46765084167747
-7.30796735125,-58.46373881,5.786160854071693,-0.7178008059375003,7e-07,0.0,194,8,119.81788292644352,417.50632,mp-1025455,LiNb2O,https://materialsproject.org/materials/mp-1025455,51.877092574946396,37.07083257316694,14.433846884602175,-8.540513741575902
-8.3926369875,-33.57054795,5.555686526039339,0.058493320000000175,3.8900000000000004e-05,0.0,38,4,70.68968630562622,236.50737999999998,mp-1217091,Ti3Nb,https://materialsproject.org/materials/mp-1217091,46.77065083343243,30.93715274029163,48.34470432959657,32.62442645966575
-5.5028495521875,-176.09118567,4.2682469735651,-1.707650886874999,24.0000016,0.0,12,32,284.3885021693419,730.991765,mp-1175436,Li9Co7O16,https://materialsproject.org/materials/mp-1175436,10.781153672757776,87.1260513776478,7.8916706714078035,95.66877792872508
-10.111205065,-60.66723039,10.338328956016325,-0.10658245833333288,0.0729706,0.0,227,6,90.85640821754744,565.66176,mp-567276,TaV2,https://materialsproject.org/materials/mp-567276,80.6994333675447,29.847939672168483,70.80859566421965,26.708076989112488
-6.8492034760000005,-34.24601738,5.1103340299883495,0.2500504680480006,5.1340294,0.0,115,5,66.05929816662477,203.29849,mvc-15728,Mn2ZnN2,https://materialsproject.org/materials/mvc-15728,26.07551363087369,49.757360197921045,12.25199624810875,45.221710470074775
-5.487809486875,-87.80495179,4.206130642665081,-0.4420005362500001,0.0011149,0.0,99,16,272.54609688927803,690.3568432000002,mp-1215487,Zr3NbAl12,https://materialsproject.org/materials/mp-1215487,47.2554205433682,36.51233269281471,56.52925351882224,32.77129264006134
-5.844504772142857,-163.64613362,2.4399774204658358,-2.1092820953014284,0.0,5.183,14,28,212.3428737131485,312.0142344,mp-560196,Al(HO)3,https://materialsproject.org/materials/mp-560196,-9.8588997095596,77.67584380546221,-27.649244949103192,75.66006938591843
-7.84657396,-31.38629584,6.813190406291968,0.5521855569050009,1.64e-05,0.0,221,4,70.11424660688941,287.67870000000005,mp-1188007,Zr3N,https://materialsproject.org/materials/mp-1188007,48.30238701177427,35.357546351011564,56.92478548111181,34.653445409256584
-4.4935047825,-17.97401913,12.210688591101064,0.8679069275000009,0.41876709999999995,0.0,225,4,69.00770277208437,507.4446,mp-1183177,Ag3W,https://materialsproject.org/materials/mp-1183177,96.15084509667469,5.521624373025722,64.98266502570632,64.50125600673823
-3.839728445555556,-34.55755601,2.814769736769327,-0.3834039168577779,0.0,1.9201,225,9,65.18968331444124,110.50263999999999,mp-23804,Mg2FeH6,https://materialsproject.org/materials/mp-23804,35.662426630703344,41.07619715702655,46.34634893971533,62.456149646663825
-10.51087144,-42.04348576,15.132838194647157,-0.6022150474999997,3e-06,0.0,225,4,70.79142464018516,645.1370000000002,mp-864684,Hf2MoIr,https://materialsproject.org/materials/mp-864684,96.76214377679581,4.600882253859808,65.77339783726556,64.45646597909275
-6.349991056666667,-95.24986585,3.6527250969489105,-2.0914304261920003,9.0,1.0202000000000002,166,15,145.73353423041456,320.5733350000001,mp-771777,Li4Mn3O8,https://materialsproject.org/materials/mp-771777,-0.2916453201117524,76.3010823801434,-7.130444654562083,92.08986789165094
-4.008679736666667,-12.02603921,5.017728516127032,-0.367690935,2e-06,0.0,216,3,74.91408633036126,226.3714,mp-961667,CaNiTe,https://materialsproject.org/materials/mp-961667,84.3792638871616,-4.219650103438327,65.8088392690705,43.327023849374854
-7.781045741666666,-186.74509780000002,0.8927452231271822,-3.154996559166667,0.0,6.1955,227,24,894.0721115624112,480.6744,mp-12350,SiO2,https://materialsproject.org/materials/mp-12350,-81.67256029058319,31.8460898393996,-81.77052941718817,42.66673901435161
-11.41470922,-22.82941844,14.03757757406833,-0.13621103374999954,6.8e-06,0.0,65,2,33.01699752901391,279.11338,mp-1220322,NbRe,https://materialsproject.org/materials/mp-1220322,67.11943371623752,27.59070967029541,62.80879424601759,61.79986564759751
-2.1307945575,-8.52317823,0.8480954675428536,0.2325600575000002,2.14e-05,0.0,139,4,58.41616465660682,29.835182,mp-975794,Li3Be,https://materialsproject.org/materials/mp-975794,64.62159989328107,62.665590756747065,86.24579291183142,10.975360626805234
-3.47826560375,-27.82612483,10.34856975069402,-0.06222493625000025,7.2000000000000005e-06,0.0,194,8,138.00412108397782,860.0492,mp-1183206,Ag3Pd,https://materialsproject.org/materials/mp-1183206,52.9173919123072,30.476373148609554,56.04255044945295,41.98403836898279
-8.0198276125,-64.1586209,6.8876396674489495,-0.1374401246875001,2.0300000000000002e-05,0.0,194,8,89.55320620114941,371.4518,mp-20197,Cr2GaC,https://materialsproject.org/materials/mp-20197,31.55374120225634,57.42685847538263,82.76456118991813,19.731499714356154
-7.330666614827586,-212.58933183,3.1825770813417504,-3.393131181956897,1e-07,4.6168999999999984,160,29,317.16963623520394,607.8850246000001,mp-760755,KAl11O17,https://materialsproject.org/materials/mp-760755,3.0208510355512064,61.755396156643975,8.005884900876628,52.874523457275544
-6.918520634,-172.96301585,4.10799658202286,-1.6514705890571997,22.0000033,0.30900000000000016,2,25,287.60097673455937,711.49416,mp-1221945,Mn8O17,https://materialsproject.org/materials/mp-1221945,-10.252716261242883,68.5476604943089,-9.2117926213424,61.33140795613964
-4.3373349975,-17.34933999,12.256855131805295,0.8951344831250001,2.0921406000000005,0.0,225,4,69.06845644672107,509.8116,mp-1186896,ReAg3,https://materialsproject.org/materials/mp-1186896,96.13356521896223,5.434175978503487,65.01109333250443,64.55227081150811
-10.1066104975,-80.85288398,13.47050936158507,-0.19323187250000015,1.25e-06,0.0,194,8,119.36639360592571,968.31576,mp-1187258,TaRu3,https://materialsproject.org/materials/mp-1187258,59.28062475659258,57.65265063390233,83.77363532778631,12.780263509062474
-5.7874000746875,-185.19680239,4.224329202975742,-1.8520511113099989,20.0,0.4360000000000004,1,32,284.2042134793792,723.001465,mp-1175910,Li9Mn2Co5O16,https://materialsproject.org/materials/mp-1175910,11.139912519522369,89.03669302457466,8.459765670651398,96.38291622087685
-7.790531205,-62.32424964,3.291338731816757,-0.5755515883774995,0.0,3.856100000000001,122,8,49.47935613573464,98.072564,mp-15703,BeCN2,https://materialsproject.org/materials/mp-15703,32.08991358103501,64.23675473298528,80.81058024390471,9.477166920048846
-5.81745974375,-46.53967795,4.459959546899578,-1.856905834375,6.9999997,0.0,119,8,71.73064835985161,192.657795,mp-1177955,Li2FeCoO4,https://materialsproject.org/materials/mp-1177955,14.026298243698866,77.86262954397584,8.657690839565687,75.12249896735074
-6.869783021000002,-68.69783021,8.738525333542485,-0.6040469096666683,0.0,0.0,63,10,157.71854221687127,829.9879999999998,mp-30840,Ti2Pd3,https://materialsproject.org/materials/mp-30840,56.86298359563683,40.99167489898565,76.17839480103001,7.198252842662369
-6.026459055,-24.10583622,15.314137251554664,0.2561903550000002,1.545e-05,0.0,194,4,86.61898621449906,798.8340000000002,mp-510198,IrPb,https://materialsproject.org/materials/mp-510198,48.90629557776985,20.119557841136015,74.62429158337063,16.004866769719587
-8.2066097725,-32.82643909,11.31051108743748,-0.043249259999999616,0.0008181000000000001,0.0,156,4,59.655656218519184,406.3355,mp-1221443,MoPdRuRh,https://materialsproject.org/materials/mp-1221443,65.50474528635222,62.88022269437541,89.84590872672358,15.8942526280286
-5.7600708525,-23.04028341,10.266356668142413,-0.6624976312499999,2.4100000000000003e-05,0.0,225,4,75.21108902366974,464.99591200000003,mp-1206369,ScPd2Pb,https://materialsproject.org/materials/mp-1206369,87.98752000964699,-2.613771568530012,68.16969652638127,45.843151340682276
-9.4050576825,-37.62023073,14.484359608157222,-0.292156409375,3.4e-06,0.0,225,4,69.55805162341588,606.7330000000001,mp-977567,Hf2CuRe,https://materialsproject.org/materials/mp-977567,95.05442916207986,7.409186729772174,64.85138030060098,65.17498044651515
-6.0800284542857135,-85.12039836,5.934418552587878,-1.4209364849999997,3.0000002,0.0,227,14,134.75730532698427,481.59437,mp-18748,Co3O4,https://materialsproject.org/materials/mp-18748,-6.978767564957599,57.34530515848501,13.705026028988016,53.47656677979662
-5.50459383875,-176.14700284,4.268003781722622,-1.7093951734374997,23.9999999,0.0,12,32,284.4047066919616,730.991765,mp-1175390,Li9Co7O16,https://materialsproject.org/materials/mp-1175390,10.704803777965203,87.14200895947641,7.78332763446894,95.93700482989492
-7.09778935,-28.391157399999997,10.294525674019152,-0.3070133112500004,3.8619508000000002,0.0,139,4,61.35421995038339,380.366,mp-1018062,FeSnRh2,https://materialsproject.org/materials/mp-1018062,59.056407863391534,58.01712849966568,82.99343791612212,12.61418807233726
-3.7284428875,-74.56885775,14.412109056319348,-0.04198593750000015,0.0,0.0,74,20,300.15821386357965,2605.12569,mp-582681,CuAu,https://materialsproject.org/materials/mp-582681,55.043964242438754,41.60751264463318,78.43570554223871,11.58247442601544
-10.12209465125,-80.97675721,17.559127098547787,0.366484801875,0.00015590000000000002,0.0,194,8,119.3947203692299,1262.522,mp-1186900,Re3Ge,https://materialsproject.org/materials/mp-1186900,58.422307705723476,58.57658775961073,83.31260655151364,12.532485031578961
-6.5212185599999986,-117.38193408,4.234086259141117,-1.4599648149355555,8.9999995,0.0,64,18,207.704874697399,529.61137,mp-752633,Mn2CoO6,https://materialsproject.org/materials/mp-752633,7.396586469167638,70.08520097933929,14.700415298867169,83.78390517503863
-6.647848905,-39.88709343,3.340374040649073,-2.5808710508333332,0.996934,0.0,63,6,58.63963355354552,117.9606772,mp-1096799,AlO2,https://materialsproject.org/materials/mp-1096799,-6.649092220736611,68.78113857824103,-7.8325638524768,63.90415804837093
-5.808841518214287,-162.64756251,4.177339379628776,-1.8683283233721428,8.00000005,0.3223999999999996,1,28,248.4955458760729,625.12847,mp-1174678,Li4MnCo2O7,https://materialsproject.org/materials/mp-1174678,16.44189172340096,88.96841930718695,7.9368401377553806,91.69881188797224
-5.34375918,-16.03127754,14.565267961181641,-0.1082616733333334,4.0648836,0.0,139,3,51.1743501931436,448.87118300000003,mp-11252,MnAu2,https://materialsproject.org/materials/mp-11252,59.602861747388104,20.001156152832014,56.46682289990275,13.304982034810354
-3.051037015,-12.20414806,8.32060561196632,0.007493960000000133,1e-07,0.0,65,4,69.96629778857826,350.5861386,mp-1228927,AlAg3,https://materialsproject.org/materials/mp-1228927,65.86597226923104,23.421895504612927,53.433777168702214,26.443728803620747
-6.11911418,-73.42937016,3.7004064962037013,-2.123515849535,2.99999985,0.6976999999999998,12,12,104.84321471481192,233.63648999999998,mp-1173939,Li2MnO3,https://materialsproject.org/materials/mp-1173939,1.839985110722932,91.80069126198862,-5.591284016064309,85.42434699589398
-3.45289091125,-27.62312729,5.341826485788193,0.4897422245833338,8.65e-06,0.0,194,8,136.76422436821312,439.96,mp-1184351,Ga3B,https://materialsproject.org/materials/mp-1184351,25.79313792580441,49.266486120215816,66.21319988243165,10.273470096035338
-6.228738044722222,-448.46913922,3.626539039258392,-2.219012863469444,28.9999977,1.0099999999999998,1,72,632.4428195506788,1381.225325,mp-768905,Li24Mn5Cr7O36,https://materialsproject.org/materials/mp-768905,-11.03042022886894,99.42714014971727,-12.619863694085634,96.57710325285696
-8.21588403,-32.86353612,9.984670855882555,-0.4141574250000009,1.0003663,0.0,225,4,69.03879140240618,415.124,mp-1188015,ZrSbRu2,https://materialsproject.org/materials/mp-1188015,100.85518087528473,6.307373704145844,67.48954386534061,60.503073113292544
-5.907469585,-23.62987834,5.211541801855488,-0.538969775,0.002015,0.0,225,4,69.56531354248895,218.328224,mp-1186942,Sc2GaNi,https://materialsproject.org/materials/mp-1186942,99.29502938296312,5.8108752038006,66.15753329328601,62.307660984900295
-5.285145090714286,-73.99203127,4.876849756033018,-1.469633624285714,0.0,0.33020000000000005,88,14,146.68122259157914,430.7892,mvc-5997,Mg(CuO2)2,https://materialsproject.org/materials/mvc-5997,19.809814005859987,52.66555530120638,15.909457967801654,67.13108520568318