energy_per_atom,energy,density,formation_energy_per_atom,total_magnetization,band_gap,sgr,num_sites,cell_volume,weight,mp_id,formula,URL,tsne_cry_0,tsne_cry_1,tsne_xrd_0,tsne_xrd_1
-4.738517936428573,-66.33925111,3.812180239717688,-0.6854676164285719,2.9961333999999997,0.0,63,14,509.9275680852539,1170.66552,mp-655086,Nb2Br5,https://materialsproject.org/materials/mp-655086,18.36007708790831,4.332131498753207,15.227582806240394,-11.026296233179071
-6.596316697083334,-158.31160073,2.54027987676594,-2.5407712429166667,1e-07,0.10299999999999998,43,24,345.5661214759365,528.6444,mp-1191741,CaSiO4,https://materialsproject.org/materials/mp-1191741,-17.135226662965838,31.097696501437593,-17.114795569284617,-8.570163255761667
-3.4640323354807685,-360.25936289,3.1606068448633446,-1.2060622132363459,0.00598725,1.6836999999999998,2,104,3225.7879074714533,6139.8420000000015,mp-1203849,Ga8Sb7Se8Cl29,https://materialsproject.org/materials/mp-1203849,-0.5641363991185252,-0.2294382192824104,-33.13654333112402,-35.127003182733546
-1.7645399217857145,-49.40711781,6.947859273081317,-0.28682911749999995,0.0,1.2572,5,28,1016.9726299381796,4255.11388,mp-571177,Hg3Te2IBr,https://materialsproject.org/materials/mp-571177,20.436174725801585,-9.579532132934064,-20.07378655217104,-27.779867406889966
-8.085788053958334,-776.23565318,5.783959415603366,-3.514790614687501,0.000123875,4.3767,14,96,1296.3062560794729,4515.2704,mp-1211241,LiNd6B3O14,https://materialsproject.org/materials/mp-1211241,-11.581091381260991,-58.43624136849835,-19.373891831240265,-57.85515416160665
-4.69378035,-46.937803499999994,10.231996862029078,-0.38559971199999976,7.1e-06,0.0,12,10,250.88818106149884,1545.9360000000001,mp-570562,Te3Pt2,https://materialsproject.org/materials/mp-570562,29.07598798734661,23.65524035090701,26.27558828521599,-44.12252628154705
-3.7912630525,-60.66020884,5.274527015347759,-1.4150876662500005,0.02295115,0.0,15,16,468.6630884377282,1488.65884,mp-1211067,LiTm2Br5,https://materialsproject.org/materials/mp-1211067,19.018089638673967,1.7570123474253236,0.20617911079529744,-17.889677856231252
-4.64075925,-64.9706295,4.627055309892475,-0.7436066050595243,4.841958,0.0,166,14,317.00393180364176,883.324445,mp-1221783,MnAg2Sn3S8,https://materialsproject.org/materials/mp-1221783,4.338340815452407,26.278700014777183,-20.327992799580677,-76.30034177004352
-5.739763984285713,-40.17834789,5.907028364924222,-2.8367268528400005,0.1011137,0.0,139,7,126.80126874492208,451.06960639999994,mp-6123,Ba2Pd(OF)2,https://materialsproject.org/materials/mp-6123,9.62210661743725,-33.0602498888384,16.008673127613232,-68.66894232996086
-4.27054722,-34.16437776,5.180440709733505,-2.0142292040475,4.95e-06,0.69,129,8,158.3141217820365,493.89800639999993,mp-1080135,SrZnAsF,https://materialsproject.org/materials/mp-1080135,30.68164576557565,21.83151039880414,20.83936769823199,-42.06262599664055
-6.7193317940625,-215.01861741,5.385287360008321,-2.306542687226563,0.000139175,1.101,62,32,681.1627114957469,2209.076,mp-1196148,Sm2ZrS5,https://materialsproject.org/materials/mp-1196148,13.77090084224408,-6.574094397788754,-1.1773747798881358,-12.233079959049974
-7.842951910416668,-188.23084585,4.695864812331581,-3.2928334217708346,3.5e-07,4.540100000000002,113,24,269.0828671789962,760.9437280000001,mp-541040,Y2Be2GeO7,https://materialsproject.org/materials/mp-541040,-16.866916181572428,-36.18050397939991,-14.436666868418856,-34.49384611251943
-5.54390888,-22.17563552,4.612053494747436,-2.1778402770312506,4.5799999999999995e-05,1.9762000000000004,166,4,82.80864883017111,229.99635,mp-1222297,LiTbS2,https://materialsproject.org/materials/mp-1222297,13.445885536731565,9.46292478158035,-26.529410785086323,-78.22897427849199
-7.0393394421739135,-485.71442151,5.795914960014953,-3.294729964456522,1.88e-05,3.0279,6,69,1005.7953034395263,3510.60945,mp-761869,Sr3Li3La5O12,https://materialsproject.org/materials/mp-761869,12.76684407699885,-61.04537182227802,7.307565818054442,-45.837229876123715
-6.116224027916666,-146.78937667,4.308324563208898,-1.8027430348697928,0.0,1.4826000000000006,173,24,519.1133497578006,1346.8571000000004,mp-17747,Y3CuSnS7,https://materialsproject.org/materials/mp-17747,13.577232357057905,-14.792663304682483,3.7436725804069013,-4.7439392385297205
-5.91087635625,-47.28701085,5.526654478198067,-2.8654394681250004,0.0,2.1819,221,8,169.33887976555417,563.5986,mp-1079882,Ba3SrO4,https://materialsproject.org/materials/mp-1079882,24.35259044727623,10.8127526987716,-27.266174920432626,-69.5331430572281
-4.9882078225,-39.90566258,3.9386603816457786,-1.0971914181249989,1e-07,0.0,65,8,165.25141455530542,391.9626,mp-546449,BaCu3O4,https://materialsproject.org/materials/mp-546449,-6.242851515869469,-18.55937614121937,-10.958438433319989,-3.7932735408855343
-2.9687037741666664,-35.62444529,5.846403449251209,-0.33745938156249977,0.000683625,0.7103000000000002,205,12,307.1256940228667,1081.3239999999998,mp-1095493,CdSe2,https://materialsproject.org/materials/mp-1095493,21.265648601538857,7.863842328098419,5.823557601483079,-7.987246390982312
-5.849288165,-233.97152659999998,6.506768375212351,-0.4676227155,4.25e-07,0.0,62,40,1140.1999586280306,4467.83656,mp-28754,Nb3GeTe6,https://materialsproject.org/materials/mp-28754,21.353947305773332,1.4976181125601726,-0.05446396566890521,-16.79165955758997
-6.687950263499999,-133.75900527,5.514654675435674,-2.2335348479375,0.000179125,0.8664999999999998,62,20,496.25011988220575,1648.0479999999998,mp-998419,BaHfS3,https://materialsproject.org/materials/mp-998419,3.2458419568892016,-8.259918278153503,-21.926174064203803,-37.63581093232737
-5.816286573157893,-110.50944489,2.92182757893652,0.5063337718455271,1.9999999,0.0,2,19,383.30048751163065,674.4423999999998,mp-1106362,TeC4Se4(N4Cl)2,https://materialsproject.org/materials/mp-1106362,-2.0445264990636427,-6.385886242188461,-32.73230982256244,-29.62994766969101
-3.941794051515152,-130.0792037,2.443322774931926,-0.7485711465181819,6.0,0.1527,2,33,720.3382880778673,1059.9082,mp-1182722,Ca2Cd3(Cl5O9)2,https://materialsproject.org/materials/mp-1182722,-28.76878655208116,-3.269394002969582,-67.36884858316853,-13.086563611661894
-8.960818305,-125.45145627,7.2429156591105235,-4.019037339910712,2.0000001,0.0,82,14,214.70486996538918,936.4966599999999,mp-753456,Ce4ThO9,https://materialsproject.org/materials/mp-753456,-23.764849598263254,-70.8319070685742,-7.660002709159156,-68.04933660171464
-5.5684163600000005,-144.77882536,7.5016356494288745,-0.3397970123076922,9.5e-07,0.0,2,26,551.1255246695995,2489.75952,mp-1220914,Nb2Ni5Te6,https://materialsproject.org/materials/mp-1220914,20.69352299734798,4.7538695494487895,14.778030167191195,-10.149539190980649
-3.5285600475,-70.57120095,3.837460555564116,-1.6928896023500002,0.00018295,4.2104,14,20,619.3515628512954,1431.30461568,mp-1210529,Na3ErBr6,https://materialsproject.org/materials/mp-1210529,10.909312398301498,4.233800278511899,-11.429010337032375,-7.3743231775121965
-4.645584864761905,-195.11456432,5.020973575679768,-0.9705988016666668,0.0014245999999999998,0.9278,64,42,1585.240452349397,4793.29316,mp-1207495,Zr6GeI14,https://materialsproject.org/materials/mp-1207495,10.25109916002947,8.04393277608092,-6.062517539709939,-5.299433596649762
-3.5186025080000003,-70.37205016,3.845837905299189,-1.69185535535,8.400000000000001e-06,4.1991,14,20,619.4490652860471,1434.65503568,mp-1210332,Na3TmBr6,https://materialsproject.org/materials/mp-1210332,10.885743016273377,4.2389534730304765,-11.415854951016465,-7.392921912755886
-3.9730562203571433,-111.24557417,6.193709007211979,-0.13109603975446404,0.0,0.5031999999999996,62,28,589.0477332732745,2197.112,mp-29476,Cu3SbSe3,https://materialsproject.org/materials/mp-29476,16.236595469619314,24.266345117517805,18.03506940726833,-47.56230269549439
-3.197626699375,-102.32405438,3.4813828062066445,-0.03727308997844858,0.0,1.2115,142,32,1228.6233400825,2575.8552304,mp-866482,CsSi,https://materialsproject.org/materials/mp-866482,-6.464793333539602,-24.4152072510372,-28.521234422412995,-57.43810841052162
-3.2538491909090914,-71.5846822,3.7231092229467295,-0.6348212879090912,0.0,0.3923000000000001,9,22,924.8411067564972,2073.5944,mp-1224100,K4Ba2SnSb4,https://materialsproject.org/materials/mp-1224100,4.15344968117336,-31.782838705139397,-20.80021836046384,-29.696533570839343
-3.802886936071429,-106.48083421,4.362864462669693,-1.9113065381157632,0.0,4.2078,167,28,1105.5661695723525,2904.7407114,mp-1193312,Cs3Er2Br9,https://materialsproject.org/materials/mp-1193312,2.3045148484940885,12.360098649376047,-33.08341679533077,-70.50444273390524
-6.3491181,-63.491181000000005,8.16159606194397,-2.35456084475,0.0,0.3504000000000005,186,10,159.22064375568928,782.57394,mp-29257,LaTlO3,https://materialsproject.org/materials/mp-29257,3.0758614023763005,-59.50182375740379,5.643151429003183,-55.47801456687839
-4.532634514074074,-244.76226376,5.733065940287036,-0.27875929287037016,0.0032714,0.0,155,54,1315.380885663122,4541.396000000002,mp-1228873,Ba8Ge43Pd3,https://materialsproject.org/materials/mp-1228873,18.950310581059348,23.80302766670587,16.879863563806882,-46.175014887356205
-7.879044099999999,-283.6455876,4.824911766813356,-3.8037600324899983,4.2833333333333335e-06,4.5981000000000005,190,36,483.17422446472,1403.9254392,mp-541995,LaSiO3F,https://materialsproject.org/materials/mp-541995,-20.03682225687329,-35.51282230823221,-26.93304073355106,-39.44509656179907
-5.086450825,-20.3458033,7.096491315088554,-1.197333484296875,2e-07,1.1730000000000005,156,4,91.3514525904988,390.40021,mp-36209,TmCuSe2,https://materialsproject.org/materials/mp-36209,32.31740424200368,-3.2462798918290567,16.020785671681693,15.24565140279792
-1.2121488335714286,-16.97008367,0.31850747456208484,1.576245180424107,5.8548077,0.3944999999999999,221,14,7332.202128929559,1406.3874,mp-1215080,Ag12SBr,https://materialsproject.org/materials/mp-1215080,-81.49077948785637,-22.427685853004512,-78.76094599263124,-16.785612789043075
-4.234758175714286,-59.28661446,4.763877736793952,-0.7943420547023814,0.0,0.4326999999999997,44,14,311.96564010007205,894.9902,mp-1224227,In2CuAg(SnS4)2,https://materialsproject.org/materials/mp-1224227,3.870132629293532,26.324248996963767,-21.2930587206258,-78.22053664636672
-4.381688407142858,-61.343637699999995,4.685982953498601,-0.7903102218452389,0.9808511999999999,0.0,74,14,295.2477502436063,833.1787999999998,mp-674493,In2NiS4,https://materialsproject.org/materials/mp-674493,4.058894149020519,28.50408437740893,-19.40453499746049,-77.52230465558873
-3.943922005,-55.21490807,2.5465364601449694,-1.636488029577143,4.00001335,0.1734,55,14,317.7397929942178,487.27307712,mp-1210460,Na2FeCl4,https://materialsproject.org/materials/mp-1210460,-17.551772422770828,14.074935772462075,-9.069015473476528,-21.60707613204113
-3.0472363422222215,-27.42512708,4.6267910821674265,-0.6576922045210729,0.010289399999999999,0.0,225,9,369.7934472021538,1030.36242,mp-1206836,Rb2TcI6,https://materialsproject.org/materials/mp-1206836,2.4204209846582785,11.719100301304605,-32.024324617684265,-69.52629220372985
-5.986961356785714,-167.63491799,3.9551763556101873,-2.0825819905357146,1.975413075,0.0,62,28,726.8210064772252,1731.1879999999999,mp-1232186,Ce2MgS4,https://materialsproject.org/materials/mp-1232186,12.627014760942652,4.662581989361757,-11.789698552886211,-7.557176966998258
-3.854449620277778,-138.76018633,3.3008579300627714,-1.1880942480808336,1.7775e-05,1.1220000000000003,2,36,1147.4532655752805,2280.9341544,mp-1194909,AlSb2(SeCl2)2,https://materialsproject.org/materials/mp-1194909,13.83186436975858,-0.16962268557812654,-1.3974316172933192,-22.045288256645765
-6.23396879,-24.93587516,6.577860953213182,-0.08313659499999915,4.143546700000001,0.0,194,4,92.16113024089131,365.07608999999997,mp-404,MnTe,https://materialsproject.org/materials/mp-404,22.02511859139916,8.487914668625223,56.55361104075914,-23.665751802495212
-3.643975447045455,-160.33491967,3.9909444011034982,-0.527525969031656,0.0,1.3910999999999998,14,44,1355.568161138636,3257.976496,mp-568855,K2Hg(PSe3)2,https://materialsproject.org/materials/mp-568855,-0.6218418881995506,0.17738843752551214,-36.838399760049896,-38.25730153576167
-5.60309935375,-44.82479483,4.331214663793782,-2.7431146600390632,0.0,2.6687000000000003,221,8,165.06542563750602,430.5432,mp-1079788,Sr4SO3,https://materialsproject.org/materials/mp-1079788,23.006342716446447,10.382735058482783,32.84347136182765,-39.53155795162446
-5.727698001916666,-687.32376023,4.8531366613719005,-1.9147848552430558,0.0001890375,2.1585,96,120,2980.314638477222,8710.3488,mp-1203279,Pr4InSbS9,https://materialsproject.org/materials/mp-1203279,9.427699806281137,-6.514309188900907,-8.677587639672508,-18.42309919341491
-4.431261705694443,-319.05084281,3.2078044983838025,-2.3058463256646737,0.0,5.3515,56,72,1197.582346179822,2313.4716768000003,mp-555178,Rb5H5(OF3)2,https://materialsproject.org/materials/mp-555178,-29.524336286276693,-18.504579912179143,-6.559475689875468,-9.813570435831881
-4.128176057999998,-20.64088029,4.626233909049487,1.0709963590240008,0.0011425,0.0,221,5,170.03484961286688,473.7142386,mp-21910,Nd3AlN,https://materialsproject.org/materials/mp-21910,0.4992808470126395,12.63923362274308,-27.70742567752221,-69.01344035158375
-3.534426625,-21.20655975,7.2423816521194295,-0.6505892355555556,5e-08,0.0040000000000000036,194,6,208.2674874209977,908.3512,mp-1205318,BaAgBi,https://materialsproject.org/materials/mp-1205318,9.199042265467963,-35.20514728782726,-24.20462783245471,-67.46427608897433
-5.652633969166666,-135.66321526,7.969474749356549,-0.3948628724999992,5e-08,0.0,31,24,663.0287045350946,3182.09352,mp-505164,NbTe4Ir,https://materialsproject.org/materials/mp-505164,20.103487316275046,3.4513441524259716,15.681387215702832,-10.592192414899415
-8.690332376499999,-347.61329506,6.36675477189599,-3.78075396975,2.012381825,0.0,206,40,684.8563586747953,2625.8416,mp-542313,Ce2O3,https://materialsproject.org/materials/mp-542313,-9.357127727059336,-61.95842462142385,-7.8379417479484275,-67.05134424547357
-2.0085695500000003,-6.02570865,5.145413410290782,-0.05297219888888893,0.00012190000000000001,0.024599999999999955,115,3,116.72123558515099,361.67714,mp-33154,AgI2,https://materialsproject.org/materials/mp-33154,17.736385312454253,13.798163825051933,4.628738917266069,-14.717594007063699
-6.141849945111112,-276.38324753,2.575212455363081,-2.445140831385445,9.000000000000001e-07,5.1689,5,45,561.5637310358703,870.8894399999998,mp-696075,Ca2H2S2O9,https://materialsproject.org/materials/mp-696075,-53.61812770319292,18.422603325673553,-41.48093136396752,-59.46986174593546
-5.347169208026316,-406.38485981,2.7156498485380807,-1.4890449147587719,0.0,1.3943,14,76,2307.4719464652485,3773.6456,mp-556341,Ti4S8Br6O,https://materialsproject.org/materials/mp-556341,-7.503277653892266,0.05323650379046509,-35.48736490074308,-42.83855222605059
-3.171706263928572,-88.80777539,4.299987961247568,-0.8684472644458131,0.0,1.2446,15,28,1390.572273177312,3600.9054228,mp-1193021,Cs3SnTe3,https://materialsproject.org/materials/mp-1193021,-6.784479068978452,-13.044148469819934,-18.953908718243195,-13.779668484529296
-6.2309857415000005,-249.23942966,5.233567143780351,-2.1903566636875,0.53381225,0.0,58,40,896.5983522607302,2825.8340000000003,mp-1211047,Nd6TiInS12,https://materialsproject.org/materials/mp-1211047,12.592134607552426,-5.895391302001598,-3.0868535806509327,-13.516344098804812
-6.9527756285714295,-243.347147,6.244738670893872,-2.6796715595714287,3.0000004000000002,0.0,12,35,607.3061579286964,2283.8778,mp-1203847,Ba10Re3O22,https://materialsproject.org/materials/mp-1203847,-16.881985992785367,-80.19426390643187,-16.617021885743124,-53.16441137860533
-3.4949193139999997,-104.84757942,4.1658830789609285,-0.8922050840689655,2.9999761,0.0,165,30,918.6546216672735,2304.67797,mp-1209410,RbCoBr3,https://materialsproject.org/materials/mp-1209410,-2.142787766275811,14.506348260998292,8.32493011436222,-54.657580729933386
-3.224183354285714,-22.56928348,5.356208730727416,-0.3807798335714284,2e-07,1.007,82,7,221.74431781225587,715.255,mp-15777,Zn(GaTe2)2,https://materialsproject.org/materials/mp-15777,17.414840202911982,14.474327141171218,5.7949961858387296,-15.161314055305956
-3.752759161,-75.05518322,2.2235552156084637,0.1441651219999997,0.000986175,0.0,1,20,396.8959417952405,531.466,mp-1072989,Mg2Si3,https://materialsproject.org/materials/mp-1072989,33.66652436164805,22.23666768443665,55.33142487105348,-2.3940732524242523
-4.376573898999999,-43.76573899,5.91187166686099,-0.8516742784760005,3.7000000000000006e-06,0.6465000000000001,194,10,356.70237062654985,1269.9362,mp-567666,Ba3BiN,https://materialsproject.org/materials/mp-567666,-3.8368516613280375,-26.349613480712357,-26.72203420883891,-67.65929571607951
-4.8222773275,-57.86732793,8.215814033802872,-0.34466586416666684,0.0,0.0,205,12,282.91245603504973,1399.76,mp-1356,Sb2Pd,https://materialsproject.org/materials/mp-1356,28.21517206702918,24.81497306332224,38.27269569072031,-23.821886390203673
-6.171197775714285,-43.19838443,7.0156156451058225,0.4318539585714285,7.9311387,0.0,187,7,139.33102392351134,588.6600000000002,mp-1225139,Fe4Sb3,https://materialsproject.org/materials/mp-1225139,27.09528018472877,22.614291519030623,60.966622969677175,-13.17018994184524
-4.18930284625,-33.51442277,5.552185149945051,-0.0521537685714284,0.0,1.0188999999999997,122,8,173.83817875008475,581.2460480000001,mp-1079714,SiHgP2,https://materialsproject.org/materials/mp-1079714,-7.630298538753969,-0.7360319213663564,-37.901388768315584,-52.32576501838025
-3.2130296275,-25.70423702,6.737082516287727,-0.1885780451302086,5e-08,0.0,140,8,235.19929986017559,954.2426,mp-568517,TlInSe2,https://materialsproject.org/materials/mp-568517,9.704849544860439,-31.202000477181002,5.848409925207556,-35.44561582805518
-3.6848723985714287,-103.17642716,3.0127562228592875,-1.0803286856116077,0.0,2.3407,14,28,733.7847118680443,1331.3233857599996,mp-9682,Na3AlSe3,https://materialsproject.org/materials/mp-9682,-2.5924472881103484,-10.307167268027268,-22.892134037536675,-29.33441397107523
-6.9246697275,-221.58943128,3.5539035825394123,-2.479961657230604,0.0,4.6134,199,32,491.72941347127954,1052.4046,mp-984332,Rb2Sr2(CO3)3,https://materialsproject.org/materials/mp-984332,-19.771587866965035,-24.925852313065203,-7.2047634205892335,-14.704499537269815
-4.955396097692309,-450.94104489,3.9502639384304064,-2.2599135495054945,0.2406422,0.0,1,91,2209.800270966362,5256.904,mp-685526,Ca28(Yb5S16)3,https://materialsproject.org/materials/mp-685526,14.51731352181358,7.878592665012633,-25.837682790930053,-76.0182873987607
-3.5305664890000004,-35.30566489,2.6823335336505822,-1.1018312462380002,0.0,2.0965,8,10,182.84997344099082,295.3647,mp-676650,Li6Br3N,https://materialsproject.org/materials/mp-676650,-7.836595025017273,-16.356406435374378,-30.582032223093947,-57.813762285239754
-4.697869882,-46.97869882,10.251513544762114,-0.3896892439999995,8.900000000000001e-06,0.0,166,10,250.41054378287987,1545.9360000000001,mp-541180,Te3Pt2,https://materialsproject.org/materials/mp-541180,29.077267229161,23.65882175638403,26.270282823877128,-44.12289432643211
-3.282137104285714,-22.97495973,5.233262557080416,-0.3308129452380954,0.0,0.5710999999999999,1,7,239.84621430683404,755.8860000000001,mp-1224103,In2CuTe3Br,https://materialsproject.org/materials/mp-1224103,21.1322984614098,13.885400575486136,-12.111507264249148,-13.097470676168456
-3.3646506273529417,-114.39812133,5.493159774618458,-0.32719337735294163,0.0,0.9238999999999996,5,34,1313.222364207254,4344.2159999999985,mp-1224649,In6Te10Pb,https://materialsproject.org/materials/mp-1224649,13.287928588908775,1.959165409544076,-13.263004807580426,-7.18605575265821
-2.991787731666667,-17.95072639,3.733576120104931,-1.0840240681002156,0.0,2.0269999999999997,129,6,208.90762688200627,469.71044236,mp-8658,CsNaSe,https://materialsproject.org/materials/mp-8658,-0.3959915179857045,-30.190886249769115,-10.817291623766467,-27.76158734190889