energy_per_atom,energy,density,formation_energy_per_atom,total_magnetization,band_gap,sgr,num_sites,cell_volume,weight,mp_id,formula,URL,tsne_cry_0,tsne_cry_1,tsne_xrd_0,tsne_xrd_1
-4.51271992,-36.10175936,10.535525314435905,-0.31090675125000106,1.8000000000000001e-06,0.0,194,8,121.2579103393214,769.3380000000001,mp-971909,ZnPd3,https://materialsproject.org/materials/mp-971909,59.737282183182465,56.663797717311105,85.29156080502494,15.374155235881565
-7.631850209166667,-91.58220251,6.851238142812597,-0.6042390541666668,1.7575e-05,0.0,38,12,172.803191173738,712.97078,mp-1215304,ZrCoSi,https://materialsproject.org/materials/mp-1215304,77.5240165550297,29.82834702627081,75.4011238218112,24.221956204269148
-5.357258981071428,-150.00325147,6.6030454847706475,-1.2643337996428576,0.0,0.3609,62,28,248.73761925739134,989.09196,mvc-12655,Zn(CoO2)2,https://materialsproject.org/materials/mvc-12655,19.16508719514511,56.495135168349854,51.15385264744008,8.721073264864671
-6.060778902666668,-181.82336708,4.505583890369495,-1.81727077116,20.999982199999998,0.2602000000000002,8,30,275.82634813909357,748.406825,mp-760956,Li6Mn5Ni3O16,https://materialsproject.org/materials/mp-760956,16.884788743458053,70.00371923556334,2.6758035745105637,60.9988764356566
-5.0850533771428585,-106.78612092,14.21731598308245,-0.4446404328571432,9.913333333333334e-05,0.0,1,21,394.11609948546385,3374.37,mp-1224298,In3Pt4,https://materialsproject.org/materials/mp-1224298,63.15104927830181,22.035802261719,68.7742211127959,16.151102701748474
-4.861309382045454,-213.89761281,5.2370833664892755,-1.2512069700568185,10.00000005,0.0,2,44,389.7535405113884,1229.2224,mp-768091,Li4Ni7O11,https://materialsproject.org/materials/mp-768091,22.49764176670302,77.96313281916916,29.36838833575757,77.6080865192918
-3.8598553485714286,-54.03797488,5.087481512571038,0.4331567426189287,0.14184095,0.0,12,14,166.36989838137566,509.71628,mp-1220729,Nb(H2Se)2,https://materialsproject.org/materials/mp-1220729,22.56329439162649,5.809466282618773,13.382505620996131,-8.993730887663926
-1.6866184925,-13.49294794,8.033425301903133,-0.02482998041666651,4.6e-06,0.0,194,8,125.7152291829941,608.1904000000002,mp-1187969,Zn3Ag,https://materialsproject.org/materials/mp-1187969,58.59172806476547,48.897494642514324,82.06180703448985,19.850700331707845
-5.7847781578125,-185.11290105,4.2667686911877265,-1.8494291944349996,13.999999300000002,0.0,2,32,281.377371379252,723.001465,mp-1175687,Li9Mn2Co5O16,https://materialsproject.org/materials/mp-1175687,18.79491475081672,88.70808044572483,10.351068307302636,90.91408139806536
-6.40148307875,-51.21186463,17.783295709424873,-0.20154371249999947,3.8236525,0.0,225,8,120.360984026228,1288.9880449999996,mp-1206110,MnCuPt6,https://materialsproject.org/materials/mp-1206110,57.592819197211476,58.38118717621518,81.86208874524088,12.082293915079427
-5.799979266875,-185.59933654,4.251460060318903,-1.8646303034974991,15.9999999,0.5132999999999996,2,32,282.3905532631626,723.001465,mp-1175407,Li9Mn2Co5O16,https://materialsproject.org/materials/mp-1175407,18.736310891341734,88.64167707064493,10.532339149524336,90.77386340919935
-6.105670055,-36.63402033,9.852005990003633,-0.1440204747222218,4.5082821,0.0,216,6,86.88347244212628,515.4811,mp-1024962,HoInCo4,https://materialsproject.org/materials/mp-1024962,70.72836361428607,47.78151065490815,73.53879759483814,23.94535717869336
-6.658328766,-199.74986298,4.227104040096403,-2.1488390726666657,7.99999985,0.3769,2,30,285.7767200503623,727.4793900000001,mp-756512,Li3Cr3CoO8,https://materialsproject.org/materials/mp-756512,17.140246083864092,81.28515844901037,23.99013162571284,80.12048138107005
-8.69406319,-34.77625276,3.4499311305434013,-1.3785637995233326,0.0,5.241599999999999,186,4,23.89077240884913,49.6354,mp-2653,BN,https://materialsproject.org/materials/mp-2653,31.942364119677748,64.41360871580359,88.81114844329892,14.145962313081268
-5.455139467916666,-130.92334723,4.1641905004306565,-1.694607695208333,17.9999873,0.4988999999999999,12,24,213.43800320629842,535.245775,mp-1174365,Li7Co5O12,https://materialsproject.org/materials/mp-1174365,12.446459373949402,86.77882291580893,0.9755953192116924,92.80928852499805
-5.008761293125,-80.14018069,5.060814157087589,-1.287094728125,0.9596841,0.0,12,16,151.49016434885755,461.6956,mp-756343,Li3Cu4NiO8,https://materialsproject.org/materials/mp-756343,19.432997987955954,53.22472278400331,2.7669458982180157,49.98999282165719
-7.688459180714285,-107.63842853,3.5120766094830667,-0.8190534313599999,2.75e-06,1.8186,194,14,132.65422267899712,280.5666,mp-40793,Si3N4,https://materialsproject.org/materials/mp-40793,5.476962993070419,60.279243803668116,48.72298560879961,8.594557096260955
-2.2242979275,-17.79438342,1.7903753871006334,0.4519211425000002,1.01e-05,0.0,225,8,190.26914732039953,205.1461544,mp-1039010,MgAl,https://materialsproject.org/materials/mp-1039010,25.290306820226693,7.3557055244103715,11.98372681845274,-0.22484575513646568
-8.502930545,-51.01758327,11.690669534275939,0.008243277499998905,0.0534447,0.0,216,6,85.44040986351858,601.52491,mp-1226672,CeUFe4,https://materialsproject.org/materials/mp-1226672,72.00924661451732,49.791997002524745,71.35781172679381,22.940891765241574
-8.711429475,-17.42285895,3.4576921908001013,-1.3959300845233322,1.39e-05,4.4502000000000015,216,2,11.918573851847675,24.8177,mp-1639,BN,https://materialsproject.org/materials/mp-1639,31.93591923743632,64.41034592677883,88.33880422736166,13.823825198254289
-4.3784345075,-17.51373803,16.803773386721012,0.3932864949999999,0.00035660000000000005,0.0,139,4,68.38004099001233,691.9697070000001,mp-974364,RuAu3,https://materialsproject.org/materials/mp-974364,52.06924000230665,32.166560456591576,56.26334779107608,37.71564060818237
-6.09865171875,-48.78921375,8.138606429877745,-0.09988359125000024,1.05e-06,0.0,223,8,140.45220091204862,688.3820000000002,mp-2354,Ti3Hg,https://materialsproject.org/materials/mp-2354,45.34584987215918,38.43145168025973,48.57722276122287,-0.5357167410534691
-5.8056387903125,-185.78044129,4.2296540767914825,-1.8702898269349992,22.0000008,0.6981999999999999,1,32,283.84641788966815,723.001465,mp-1175708,Li9Mn2Co5O16,https://materialsproject.org/materials/mp-1175708,11.769733176838566,86.45991065162524,8.161370927380974,95.44649250809348
-5.805536405625,-185.77716498,4.229944329039437,-1.8701874422475,22.0000001,0.7180999999999997,1,32,283.8269407867898,723.001465,mp-1175663,Li9Mn2Co5O16,https://materialsproject.org/materials/mp-1175663,10.21817538512684,87.24473222752101,8.478578036871317,96.36108465152815
-8.1310366075,-65.04829286,6.131121730725446,-0.15896980343749956,0.006630500000000001,0.0,187,8,89.02715915123976,328.71033860000006,mp-1228967,AlCr4GaC2,https://materialsproject.org/materials/mp-1228967,31.539032052262964,57.59888579255474,82.50549402876463,19.53398217578352
-8.186991488333334,-98.24389786,6.06512171907719,-0.23463997118999916,0.0013345,0.0,36,12,116.0205281568021,423.76518,mp-1246564,CrCo2N3,https://materialsproject.org/materials/mp-1246564,21.88150989586345,52.04338767797447,44.720973615282574,36.99038354389407
-7.107980303333334,-42.64788182,6.310596624317133,-0.4674466611111126,1.435e-05,0.0,139,6,114.46058097710863,434.98800000000006,mp-1206780,Ti2Sb,https://materialsproject.org/materials/mp-1206780,36.54664702269258,26.78624609914491,73.84944019201312,14.768683474856848
-7.4481736875,-29.79269475,5.512402051646081,-0.08076405250000017,0.00011279999999999999,0.0,221,4,60.9385428758895,202.2944,mp-981209,Ti3Ni,https://materialsproject.org/materials/mp-981209,59.843832982110065,55.69605086680106,85.23318613317271,15.847732163081785
-9.266911985,-18.53382397,6.132122774249755,0.16417673562500035,1.3720998,0.0,225,2,17.332625933680152,64.0068,mp-579,CrC,https://materialsproject.org/materials/mp-579,29.36678161117218,60.51323662188915,56.447638886543906,44.02666245885916
-7.118853683333334,-128.1393663,3.219155106084091,-1.80844385282,2.999999616666667,1.0153,84,18,269.0681630048013,521.62107,mp-1189857,MnO2,https://materialsproject.org/materials/mp-1189857,-11.045359370727095,69.44479916222063,-8.617572046438234,62.136356995418225
-3.6867415675,-14.74696627,4.841889206599251,0.6031684864285718,0.00011440000000000002,0.0,225,4,69.42872728449039,202.444024,mp-1008472,CdSiP2,https://materialsproject.org/materials/mp-1008472,86.16592938172188,0.883149521992091,56.53397287987285,68.80385611202007
-6.262560565,-25.05024226,10.095609937998244,-0.08914178750000001,4.5801742,0.0,166,4,61.54858064349719,374.19804500000004,mp-1221576,MnPd3,https://materialsproject.org/materials/mp-1221576,59.0713230742313,51.22852363247864,83.24431537711371,17.57033052885712
-6.5279190975,-26.11167639,6.068739000464808,0.10209481083333304,0.0054126999999999995,0.0,221,4,68.8074448292447,251.4692,mp-621131,Ti3Ag,https://materialsproject.org/materials/mp-621131,48.43332022692717,35.57909462657569,56.945473278465,34.58576323333136
-8.906445312499997,-106.87734375,12.191918821802187,-0.4954095683333328,1.75e-06,0.0,194,12,154.3910739568996,1133.56169,mp-1217775,Ta2Co3Si,https://materialsproject.org/materials/mp-1217775,69.63512132959143,50.301572412296345,72.06231606563092,19.053810561928792
-9.7613452125,-78.0907617,18.27543123994842,-0.5851902524999986,6.15e-06,0.0,194,8,121.67441133534128,1339.1147600000004,mp-1186231,NbIr3,https://materialsproject.org/materials/mp-1186231,59.82031087278218,58.1073926710297,83.02297280740582,13.848572158175907
-3.773427025,-7.54685405,5.951695640374505,0.06582817249999984,6e-07,0.0,123,2,40.35623118827197,144.6446,mp-10048,GaAs,https://materialsproject.org/materials/mp-10048,23.57874589826603,22.9822109707651,59.27518676287858,-27.87729258624572
-4.911389776666667,-29.46833866,10.254672716678053,-0.3457694238888891,0.3439123,0.0,216,6,84.62972922833555,522.6315999999998,mp-1206307,YbInNi4,https://materialsproject.org/materials/mp-1206307,70.67350904067303,48.226122060244826,73.5456579322115,23.44645350637611
-6.805207515,-13.61041503,3.5754020961556665,-0.9340418135714286,0.0,0.0,221,2,35.26433799069503,75.929674,mp-16728,ScP,https://materialsproject.org/materials/mp-16728,99.34415893970392,5.597242476372994,66.29675164404658,62.28276022341214
-7.795669487222222,-140.32205077,9.835568626230575,-0.4126161585185189,0.0010918,0.0,137,18,174.57214011146718,1034.0113800000001,mp-505343,U(CoB)4,https://materialsproject.org/materials/mp-505343,55.493747775506776,26.022428345858806,69.97178901888118,21.62010713521669
-4.348195875,-8.69639175,10.056842000113253,-0.13925656930999966,1.2e-06,0.0,225,2,17.738002481769993,107.42793999999999,mp-24289,HPd,https://materialsproject.org/materials/mp-24289,53.031070460243924,28.978843086042662,55.654317108164435,41.35274731940702
-5.141208535,-30.84725121,10.281342761807766,-0.38227035250000013,4.74e-05,0.0,216,6,84.3326729480625,522.1516,mp-1077095,LuCdNi4,https://materialsproject.org/materials/mp-1077095,70.64606029528984,48.28239432981465,73.49900786193326,23.291580767334427
-6.392307355,-25.56922942,18.57542688795488,-0.01295119999999983,0.001048,0.0,139,4,61.51742306174317,688.1574999999998,mp-974616,Pt3Rh,https://materialsproject.org/materials/mp-974616,60.2516407975888,57.87835101115425,82.63987474120967,14.03325584254109
-7.1161992283333335,-42.69719537,4.099565546906832,-2.4032879275000005,1.0000001,0.0,65,6,57.912469682976024,142.97523859999998,mp-753658,AlCrO4,https://materialsproject.org/materials/mp-753658,-11.01100022423611,84.31526713992163,-12.768854761381615,79.5778821444903
-3.05786101,-24.46288808,6.562961432939645,-0.27926931499999963,2.55e-05,0.0,160,8,147.21717703246316,581.8475999999998,mp-1222568,Li3Ag3Sn2,https://materialsproject.org/materials/mp-1222568,86.90585058421324,-1.997547948356932,67.22721739966755,44.03166941259409
-8.657913443333333,-51.94748066,7.20957972986609,0.057131663750000186,3.24454255,0.0,58,6,56.982473132076244,247.4014,mp-1871,Fe2C,https://materialsproject.org/materials/mp-1871,48.45102353000897,62.81556357437546,89.9425991020763,11.542387708012185
-4.0120008625,-16.04800345,12.534879531080891,-0.20369197999999988,6.900000000000001e-06,0.0,225,4,69.25865575000853,522.8115,mp-865929,Cd2PtRh,https://materialsproject.org/materials/mp-865929,96.05709862616655,5.274900517951341,64.98361827433247,64.75095137265238
-9.39195095,-56.351705700000004,11.376621589241571,0.057649575913334423,9.35e-06,0.0,65,6,62.53549607395007,428.4408,mp-1077096,ReN2,https://materialsproject.org/materials/mp-1077096,49.5938952710554,18.326926292074926,48.62492853482863,-1.2401743227452129
-8.605392676875,-137.68628283,9.654898562459584,-0.8082357418750004,1.6e-06,0.0,63,16,271.1237270057976,1576.399,mp-2626,Zr3Rh5,https://materialsproject.org/materials/mp-2626,64.02519410296651,37.830459023954255,73.49527269152934,7.281330504606043
-7.21237741142857,-201.94656752,3.603771547739661,-3.2272649763300003,0.0,4.7661,186,28,243.2086692899761,527.8216659999998,mp-626161,Al5HO8,https://materialsproject.org/materials/mp-626161,4.5604087244736995,62.08495270191775,7.802110722136872,51.3404480991407
-7.18676469388889,-129.36176449,4.038088649367418,-1.8808656283222231,15.9999935,1.0718,12,18,212.85707334795762,517.624525,mp-1176451,Mn5VO12,https://materialsproject.org/materials/mp-1176451,7.2038206709274375,70.21600600993294,14.833404233232114,83.89010264163313
-7.774319623999999,-38.87159812,8.589000541044648,-0.7639441423333337,0.0243158,0.0,221,5,70.46674780914513,364.483412,mp-569875,ScBRh3,https://materialsproject.org/materials/mp-569875,49.02591106503112,34.8522041979066,55.759214967034254,36.1291923541602
-9.139978063571428,-127.95969289,5.3893014034956215,-0.5093538231628563,7.65352045,0.0,194,14,158.8505223532511,515.55147,mp-1246736,Mn3VN3,https://materialsproject.org/materials/mp-1246736,25.099006303268084,53.97950334181525,69.56146965989727,-2.048529484689064
-4.16370039375,-33.30960315,6.754823799279048,0.3281823275000004,3.1e-06,0.0,194,8,138.38563234840396,562.932,mp-1184147,CuGe3,https://materialsproject.org/materials/mp-1184147,52.812668865839186,30.255437290691656,55.84497549464843,41.96432735192694
-7.2224477825,-28.88979113,11.244684052659744,-0.08105656249999882,0.0002948,0.0,160,4,60.794935789255995,411.6855,mp-1221431,MoPd2Rh,https://materialsproject.org/materials/mp-1221431,66.1333464424068,62.108202578382844,89.12449896099692,17.08430379987735
-2.67085998,-18.69601986,6.977977238472109,-0.028102264285713833,0.1517345,0.0,225,7,116.22240603343315,488.39400000000006,mp-972048,Zn6Mo,https://materialsproject.org/materials/mp-972048,57.67787121844192,52.36772122004528,82.59159153717695,9.558408957028444
-7.276842277205882,-494.82527485,3.5106908180291967,-3.373483103529412,3.8575e-05,2.9534,8,68,654.9811459421783,1384.7529264,mp-530233,MgAl6O10,https://materialsproject.org/materials/mp-530233,2.4614263005762758,62.34814982425965,8.459213527879575,52.471683062364576
-9.407741256,-188.15482512,6.6626744236469015,-0.4447300649519989,0.751319925,0.0,60,20,183.4350513613273,736.0067999999999,mp-1014444,Cr3N2,https://materialsproject.org/materials/mp-1014444,30.694354472576556,56.17868757261294,72.53174909560384,4.083165954007439
-8.5163321425,-68.13065714,3.036917907407784,-1.2008327520233326,0.0,5.661500000000001,62,8,54.27971514473262,99.2708,mp-644751,BN,https://materialsproject.org/materials/mp-644751,31.83635234078497,64.1750811541845,58.49541233910015,-23.263403122843126
-8.617339502857144,-120.64275304,5.858795787866981,-0.20682335530571447,5.6320184,0.0,194,14,148.26117662550237,523.1024,mp-1246664,Cr(FeN)3,https://materialsproject.org/materials/mp-1246664,25.79791208156954,53.9566614825586,69.94118328973315,-1.8457899309426251
-5.0280369444444455,-45.2523325,9.598783202678245,-0.43213923277777866,0.00046939999999999997,0.0,107,9,175.1450683663861,1012.43,mp-1218994,Sn(TePd3)2,https://materialsproject.org/materials/mp-1218994,58.875559692254896,43.599939994832226,75.51994723642545,13.252861470742081
-4.779906755,-9.55981351,18.73543488235419,0.9802839325,6e-06,0.0,187,2,34.638740530332086,390.82,mp-978009,HgOs,https://materialsproject.org/materials/mp-978009,69.10958128710412,56.711209415936004,56.72158036997898,41.281688529562004
-4.68018102625,-187.20724105,7.863175455677379,0.21671846927400013,1.2e-06,0.0,47,40,462.1444595003427,2188.3996,mp-1225808,Cu31PdN8,https://materialsproject.org/materials/mp-1225808,49.47505355388577,62.63671512759984,86.58218105342188,10.449789888485089
-8.166464415,-65.33171532,3.123714647357362,-0.5327146761158329,1.495e-05,0.0,51,8,50.649366201935216,95.2788,mp-1079333,B2CN,https://materialsproject.org/materials/mp-1079333,31.96741881598745,64.42455230147637,86.45774564975504,13.935499101668857
-8.098742964,-40.49371482,4.351484854985959,-1.0203514784760004,0.0,0.0,221,5,70.4397802759132,184.5892386,mp-10675,Ti3AlN,https://materialsproject.org/materials/mp-10675,48.948732637733876,34.89499241340684,55.196694564016525,36.98891486730206
-7.115880325,-99.62232455,3.739369385338436,-2.5848303694228583,4.00000015,0.91,74,14,136.73971523490022,307.92429,mp-753095,LiMnSiO4,https://materialsproject.org/materials/mp-753095,-2.247581561059377,72.31107991517072,3.4623607358088355,59.067639420617226
-5.50004496,-66.00053952,4.484088027613244,-1.684268196121667,5.9999997,0.0,12,12,107.07535268200064,289.144245,mp-756364,Li3Mn(NiO3)2,https://materialsproject.org/materials/mp-756364,14.454093896636133,79.82766014742842,22.955021382829276,81.33132829593276
-1.7662017886842107,-134.23133594,3.7117381584384983,-0.06706549039473679,0.00075325,0.0,63,76,1387.628695709969,3101.7123088000008,mp-1204993,Mg19Al4Zn15,https://materialsproject.org/materials/mp-1204993,49.28475724155353,41.74381570791997,65.04478293319343,-2.935139087304697
-5.7793436296875,-184.93899615,4.214438092117443,-1.8439946663099995,22.0000012,0.49200000000000005,1,32,284.87122894395037,723.001465,mp-1175781,Li9Mn2Co5O16,https://materialsproject.org/materials/mp-1175781,11.921301914250293,86.64996234974569,7.93709151340741,95.44600388067343
-5.8516965957142855,-327.69500936,2.401136249821227,-2.1164739188728565,1.75e-07,4.9893,14,56,431.5555331735016,624.0284687999998,mp-626470,Al(HO)3,https://materialsproject.org/materials/mp-626470,-9.851673121091382,77.67362479083505,-27.659499774229303,75.86804516262174
-6.228759026805554,-448.47064993,3.6409867524875295,-2.2190338455527767,29.0008073,1.0341,1,72,629.9332381894028,1381.225325,mp-768784,Li24Mn5Cr7O36,https://materialsproject.org/materials/mp-768784,-11.090933720124164,99.72296603106187,-12.47088796555723,97.762018892327
-3.2512602875,-13.00504115,10.558834445295997,0.5665096324999999,0.0,0.0,216,4,68.12756413178012,433.2013,mp-631475,TlZn2Tc,https://materialsproject.org/materials/mp-631475,93.68901373275905,8.854523332820149,58.488034289387656,66.98470540751644
-3.9419035000000004,-31.535228000000004,9.809959542520076,-0.1546947875,1.225e-05,0.0,194,8,136.8564030519285,808.5060000000001,mp-1184308,Ga3Pt,https://materialsproject.org/materials/mp-1184308,50.07991011180394,35.617197665067565,54.736135664310524,33.25186111128832
-6.228408859722222,-448.44543789999994,3.6423056502456217,-2.2186836784694437,29.000668100000006,1.0389,1,72,629.7051360982068,1381.225325,mp-768843,Li24Mn5Cr7O36,https://materialsproject.org/materials/mp-768843,-11.095652236836269,99.74313836343784,-12.456727752847634,97.85356976816715
-10.2241533175,-40.89661327,10.936014760188279,-0.4194774450000017,4e-06,0.0,225,4,70.71463375212616,465.714,mp-974943,HfZrTc2,https://materialsproject.org/materials/mp-974943,95.79341143013666,4.3227535668006585,65.56368725480651,65.06676739299468
-6.3923604275,-25.56944171,18.58515924224288,-0.013004272499999914,5.479999999999999e-05,0.0,221,4,61.48520868314582,688.1574999999998,mp-974395,Pt3Rh,https://materialsproject.org/materials/mp-974395,60.24709394344537,57.88614263674408,82.56301146576034,14.002939989910354