energy_per_atom,energy,density,formation_energy_per_atom,total_magnetization,band_gap,sgr,num_sites,cell_volume,weight,mp_id,formula,URL,tsne_cry_0,tsne_cry_1,tsne_xrd_0,tsne_xrd_1
-6.5654114622,-656.54114622,5.892536315902769,-2.5697408314250003,0.0,1.8469,142,100,2218.933602825784,7874.0376000000015,mp-560711,Sm10S14O,https://materialsproject.org/materials/mp-560711,13.55664254759855,-5.984588551616354,-1.7061335415851255,-12.42982600386891
-7.7066492534375,-246.61277611,4.0139672394764645,-3.3613094294531263,0.0,4.4903,148,32,418.83528206355555,1012.4369619999999,mp-18043,Sr6YSc(BO3)6,https://materialsproject.org/materials/mp-18043,-18.13381213873253,-32.295930203450176,-1.512408829045294,-15.526232924461205
-4.65761540368421,-88.49469267,2.8210880707714336,-0.7302964341583498,4.0000001,0.010099999999999998,6,19,496.6634350153759,843.7810000000002,mp-676534,Rb8C4O7,https://materialsproject.org/materials/mp-676534,-6.489784312415291,-28.534411896688532,-8.159867810741725,-29.11238802406812
-2.470373001,-24.70373001,3.361018047557095,-0.9321504806344828,1e-07,0.9854,225,10,491.4962747843104,994.81422,mp-1111285,K2RbGaI6,https://materialsproject.org/materials/mp-1111285,2.685276077464295,3.928944885982229,-17.498280277988588,6.643640880072256
-6.666265370571429,-466.63857594,6.468035114088727,-0.4079118485320196,5e-08,0.0,176,70,2057.443095219133,8014.032711399998,mp-581635,Cs3Te17Mo15,https://materialsproject.org/materials/mp-581635,20.62369983631851,5.005842196218554,14.317292074531078,-9.40233001646779
-3.7996576925,-75.99315385,2.2902661094299717,0.09726659049999994,0.00174625,0.0,12,20,385.33515288853994,531.466,mp-1073114,Mg2Si3,https://materialsproject.org/materials/mp-1073114,35.28229454991199,20.448848863858267,54.7103217659023,-1.1710078624486495
-6.046544099285714,-84.65161739,5.445677685783713,-2.458701482321429,5e-07,2.1436,122,14,296.50499487490714,972.3774,mp-38327,Ca(TbS2)2,https://materialsproject.org/materials/mp-38327,18.910349090239862,-3.896722821220047,8.426711345428606,-9.020850448913318
-5.0544383666176484,-343.70180893,5.021203246833592,-2.0251404693425004,14.000513199999999,0.8619999999999999,62,68,1675.4813697792279,5066.386451199999,mp-1195190,Ba4Fe3(Se3F2)2,https://materialsproject.org/materials/mp-1195190,9.859423454563013,-22.285997087052984,-15.8272643651635,-32.395242988432386
-5.499569779107143,-307.97590763,4.025099579052595,-3.4261933649571423,5.00000025,3.7151,14,56,786.9960514578972,1907.656128,mp-27338,SrFeF5,https://materialsproject.org/materials/mp-27338,-14.814760766202836,-24.643777876233372,-15.37460409823349,-18.110384681350745
-3.3431516077272723,-147.09867074,4.128489640731924,-0.13461063714272695,5.99999885,0.0,201,44,1339.2273842428358,3329.63348,mp-1203055,Ho2Cu4Br13N3,https://materialsproject.org/materials/mp-1203055,-2.078362460159008,4.146501475889592,-24.557046992349314,-78.0319116838957
-3.255025486666667,-97.65076459999999,2.6958008758102863,0.2347175359999999,1.96215325,0.0,14,30,905.5031383819914,1470.0384,mp-1208558,Te(Br3O4)2,https://materialsproject.org/materials/mp-1208558,-2.0878164060602105,4.404390225899818,-33.735992590711696,-30.927517271878084
-4.305443828214286,-241.10485438,3.849075413250368,-0.7724142775357149,0.0,0.0,7,56,1560.7092451038386,3617.6732,mp-15559,KSb5S8,https://materialsproject.org/materials/mp-15559,-4.864580647493434,-5.465651020094839,-32.21812438164804,-34.256404949805805
-3.3832779966666666,-40.59933596,4.469477770654605,-0.4318721016666665,0.0,0.9145,2,12,540.5212272957361,1454.85746,mp-569578,NbI5,https://materialsproject.org/materials/mp-569578,1.6519286790210237,-0.3150028107094368,-19.011278583448632,-14.599238491098975
-8.95903714,-197.09881708,8.120653603862479,-4.05586393784091,0.0,2.6771,51,22,353.57470653354284,1729.1118399999998,mp-676227,Nd2Th2O7,https://materialsproject.org/materials/mp-676227,-24.083082985063893,-70.075940564061,-8.558412128372506,-78.60981537821152
-3.3138917178571434,-46.39448405,3.4171539563604916,-1.5711517661971433,4.25e-06,0.0,123,14,421.35880567196494,867.0966927999999,mp-1147659,K2Cu(IF)2,https://materialsproject.org/materials/mp-1147659,-7.875951544586696,5.551930548809066,-29.592015672395807,-33.9873088215191
-5.590521320625,-89.44834113,6.202649059294628,-1.3006848798437511,0.06082625,0.0,223,16,313.98919322257717,1172.85094,mp-2889,LaPd3S4,https://materialsproject.org/materials/mp-2889,1.8651864764651376,-58.16480032442424,16.868572904240807,-44.695124925631
-2.7957946,-22.3663568,5.114314136994574,-0.2893739744181034,0.0,0.0,123,8,185.67692766095558,571.8686,mp-975144,RbZn4As3,https://materialsproject.org/materials/mp-975144,16.36947986545665,22.534621682538983,61.465628382229646,-12.166633658092561
-4.74812026909091,-104.45864592,6.231217453871191,-2.2434022275565906,9.98342475,0.0,227,22,350.22347486269416,1314.2230184,mp-17745,Mn2Hg2SF6,https://materialsproject.org/materials/mp-17745,-61.731999626988156,-44.86304031789122,-8.36032541827027,-77.58798774623904
-4.762187203636363,-52.38405924,4.1759066804639104,-1.7210146331935734,6e-06,0.0064000000000001825,38,11,264.5899842600366,665.3882,mp-1173361,Rb4Sb2O5,https://materialsproject.org/materials/mp-1173361,-4.554414562956996,-29.30595368524927,-27.74933248744391,-58.94816239904548
-4.878850395714286,-68.30390554,4.452734158867725,-0.9987117249404766,3.00000095,0.7824,74,14,303.92333906606564,814.9702,mp-1226286,CrCdInS4,https://materialsproject.org/materials/mp-1226286,4.0335494964711485,28.343029182882823,-19.680238703000587,-77.30385330042186
-3.746939195892857,-209.82859497,4.250306739021608,-0.6749538702616995,0.0,1.2455,19,56,2061.3106626667013,5276.119615199998,mp-1194701,Cs2ZnSn3Se8,https://materialsproject.org/materials/mp-1194701,-4.857946943236925,0.7095320042589341,-31.705648810481094,-36.13239060416693
-5.103900868999999,-51.03900869,4.3463904859273566,-1.5395383409999999,1.55e-05,0.6878000000000002,12,10,319.02996577046866,835.0473999999998,mp-1205567,Y2Br3,https://materialsproject.org/materials/mp-1205567,21.59732417067935,-1.713584558970505,14.175044250966721,2.397480680841608
-5.097617973999999,-25.48808987,3.5094127402182043,-1.3193281668663794,5.0000012,0.7254,119,5,122.50985049358336,258.9144969,mp-1225894,CsLiMnS2,https://materialsproject.org/materials/mp-1225894,-7.6171994064801964,-11.202824388888592,-26.270507718765906,-33.67027845233746
-6.3030363450000015,-63.03036345,4.434772570487388,-1.6763218761562506,0.0,0.5559000000000003,15,10,244.72532608145488,653.583648,mp-684690,Sc2Se3,https://materialsproject.org/materials/mp-684690,20.535271607149376,10.950720540272338,28.85219045472777,-42.139386423722684
-3.235909768,-32.35909768,4.319078843738164,-0.3105835375999998,0.0,0.0,21,10,248.6533964706448,646.75,mp-1223875,K2Zn3GeAs4,https://materialsproject.org/materials/mp-1223875,15.89701507311965,22.854518806861567,24.055312780109464,-47.4299613364397
-6.4750039333333325,-38.8500236,6.671465840692097,-3.3380581034175,0.0,2.6270999999999995,166,6,112.51869310376443,452.0608064000001,mp-555850,LuSF,https://materialsproject.org/materials/mp-555850,-59.047117018570916,-41.25887175416952,-19.85992323202337,-74.92752492022744
-7.288019865,-349.82495352,3.7657178080632905,-2.6170426881666664,8.5e-07,3.589,60,48,789.9913735355756,1791.5174,mp-19499,KY(MoO4)2,https://materialsproject.org/materials/mp-19499,-51.166165350042135,-52.92283160306856,-25.69962785507268,-56.62592232201221
-3.37516094875,-81.00386277,3.595973975576859,-0.3901414956178157,0.0,0.7678999999999998,31,24,915.1200643428281,1981.73476,mp-18440,Rb7NbAs4,https://materialsproject.org/materials/mp-18440,0.8457236816066974,-30.1895693192796,-5.987365597163621,-33.29992420909249
-4.6711217000000005,-65.39570379999999,4.779089753217676,-2.0540912712376853,0.0,1.4585,14,14,408.93392169568017,1176.9262076,mp-752539,Cs2Ba2O3,https://materialsproject.org/materials/mp-752539,-4.172064806888618,-25.121845580676883,-26.189704062218212,-54.47413133202239
-6.049883651428572,-169.39674224,5.0435275634541235,-2.507504096607144,0.0,1.8129,62,28,702.9053796541939,2134.9228000000007,mp-1193989,Sr(TbS2)2,https://materialsproject.org/materials/mp-1193989,8.795459484979302,-2.052081278303631,-7.589987533716968,-12.86915358167048
-5.11361502202381,-429.54366185,2.5205175042055417,-1.9133963020138889,0.0,3.1511000000000005,14,84,1685.8766249311352,2558.9772,mp-1201842,K5Ag(S2O3)3,https://materialsproject.org/materials/mp-1201842,-32.460687397874466,-9.433255404547117,-31.04003023121315,3.2833609208218006
-4.6088223332142855,-129.04702533,3.3616791957510004,-1.5437260685406404,4.999999525,0.9698,14,28,711.7913500888056,1440.9863999999998,mp-768710,Rb3FeO3,https://materialsproject.org/materials/mp-768710,-0.8144484446432162,-33.00777891879333,-8.368676498188718,-29.72307222321355
-6.124537021041667,-293.97777701,3.904890788439869,-2.9902394473708336,4.00003575,0.927,14,48,661.9788769365165,1556.696444,mp-775735,Sr2CoCO3F5,https://materialsproject.org/materials/mp-775735,-14.892800197458186,-25.30600410293928,-16.447551540993267,-16.933053591698936
-4.89363803,-24.46819015,7.697016322143242,-0.7865240300000004,0.0,0.0,139,5,128.08085624092473,593.687,mp-6963,Ba(SbPd)2,https://materialsproject.org/materials/mp-6963,43.54308369825101,2.3788607821522314,26.374113755727635,-31.03675494649934
-4.892343749047619,-205.47843746,4.868255711950809,-0.9981801918452382,0.0,0.7963999999999998,64,42,1593.6089314421804,4672.03456,mp-28344,Zr6CI14,https://materialsproject.org/materials/mp-28344,10.418323923646023,7.9041130249755485,-6.088407183654973,-5.332147868279018
-3.9361405571428567,-55.105967799999995,4.523611065639344,-0.9883951797023812,0.0,1.1259,227,14,310.7758240607512,846.6099999999999,mp-22052,Zn(InS2)2,https://materialsproject.org/materials/mp-22052,3.161457631046489,26.313011500377197,-21.70232897987307,-78.5833767886859
-6.193980496888889,-278.72912236,2.6538674459227134,-2.4972713831632234,0.0,5.755400000000002,5,45,544.9201755971395,870.8894399999998,mp-698074,Ca2H2S2O9,https://materialsproject.org/materials/mp-698074,-53.60873148224484,18.36876326355115,-41.48517637365373,-59.4789960686163
-4.6792002492857145,-65.50880349,3.7802312516165566,-1.1923218866071434,3.0000002,1.2027,166,14,308.18250741642044,701.5801,mp-1247082,Mg2CrIn3S8,https://materialsproject.org/materials/mp-1247082,1.809095433378459,26.076087299392924,-22.31699005333257,-79.81655086528718
-5.340911786666667,-48.06820608,10.041485885975744,-0.2913594033333335,1.36e-05,0.0,12,9,221.96517649762728,1342.251,mp-1551,Te2Ir,https://materialsproject.org/materials/mp-1551,29.0328430616788,25.986629267573267,37.68321188098145,-25.927049173577114
-3.4705960728571426,-97.17669004,4.415353295021047,-0.9255167127586204,6.0003887,1.0042,194,28,1237.1991281564815,3289.6975714,mp-621938,Cs3Cr2I9,https://materialsproject.org/materials/mp-621938,8.758430148329179,8.178041278002588,-32.952081198122244,-13.156442524257956
-6.529974543928572,-365.67857446,4.925372930627108,-2.3614446853236606,0.0,3.5148,62,56,888.2763353427695,2634.7421600000002,mp-4350,La2(SeO3)3,https://materialsproject.org/materials/mp-4350,-23.7900671536538,-38.036924083708776,-19.141016589086888,-30.123007559474253
-3.7227331561666666,-223.36398937,3.4679801798970784,-1.0703573955000003,0.0,2.4105,14,60,2430.292258201282,5075.584,mp-28672,Zr2TeBr12,https://materialsproject.org/materials/mp-28672,-2.857036541563295,-0.1553352033597054,-37.022405216761435,-33.08049092687621
-2.86550980375,-22.92407843,4.534722913096248,-0.8466072118534487,0.0,1.1129000000000002,55,8,381.5708093330295,1042.0218075999999,mp-8361,CsTe,https://materialsproject.org/materials/mp-8361,-6.308729186078915,-24.72996280956261,-37.569793332266954,-12.141817449380287
-2.9517069310000004,-29.51706931,2.8920952337244747,-1.1764135919,0.0,2.9087,225,10,385.63227728114686,671.6405,mp-1111181,K3AsBr6,https://materialsproject.org/materials/mp-1111181,1.9771858857145908,7.9193947925711035,-34.62404993722591,-70.3707013132626
-7.70723366625,-184.97360799,5.01927202621764,-2.79790764,0.0,0.0,14,24,337.31586639472044,1019.5966800000001,mp-18456,LaCrO4,https://materialsproject.org/materials/mp-18456,-20.581238076123096,-35.77847388173874,-16.90614127000439,-26.41213107865821
-3.2596687458333338,-39.11602495,3.8288570354171783,-0.4297622493665851,1e-07,1.3344999999999998,72,12,364.70875328506486,840.94239416,mp-1213705,Cs2NaGaP2,https://materialsproject.org/materials/mp-1213705,0.924406470383746,-29.94317961409249,-25.725884799875146,-33.53448481175456
-6.281503724166666,-150.75608938,3.3177200224797234,-1.8132351973337502,1.99997995,0.040000000000000036,7,24,345.3866024027507,690.07474,mp-1191075,LaS2NO8,https://materialsproject.org/materials/mp-1191075,-34.31088243296283,-24.861715695942344,-20.8625242162727,-8.438410728963737
-2.8337106638750003,-226.69685311,4.186662515195732,-0.7555584612083337,0.0,2.1268,19,80,2978.4896184668305,7509.567999999998,mp-685014,In2Br3,https://materialsproject.org/materials/mp-685014,-5.310767383821439,-6.801996048822155,-22.016182336852328,-31.451795523893853
-8.299992390166668,-497.99954341,5.421422957444189,-3.681909990083332,3.999999875,0.029399999999999867,14,60,929.1942825037132,3033.686708800001,mp-1096905,Ce4Al2O9,https://materialsproject.org/materials/mp-1096905,-11.249155730058872,-58.7673614945428,-19.849454513538152,-58.22674983775262
-3.5951617,-43.141940399999996,4.792626881101981,-0.6019501740205163,0.0,1.2617999999999996,38,12,266.6080372057153,769.4807619999998,mp-559847,Ag5P(S2Cl)2,https://materialsproject.org/materials/mp-559847,-3.0265842255122624,-3.6493446691168727,-16.726953860916137,-22.252680881714948
-2.91859604125,-23.34876833,5.305613565033333,-0.5541193719612068,1.3e-06,1.1515,121,8,313.17668696502295,1000.6356,mp-1080691,Rb2SnHgTe4,https://materialsproject.org/materials/mp-1080691,12.952907557001188,1.5026350926465808,-14.453114608586366,-8.659949161953605
-3.701154606333333,-222.06927638,4.082835691595502,-0.93068573021025,0.0011849,1.0284,14,60,2076.0249494086347,5104.407999999999,mp-1207516,ZrTe7SeCl6,https://materialsproject.org/materials/mp-1207516,-2.1376615674892423,-6.192735892145713,-33.14484780242442,-31.785475488283698
-5.61634362375,-89.86149798,5.770823742620293,-1.70795031328125,0.0,1.6317,19,16,333.9894600573972,1160.704,mp-554120,DyCuS2,https://materialsproject.org/materials/mp-554120,16.153540423235278,-12.985290508403207,-10.444602912853986,-16.69817565643373
-7.204641023333332,-302.59492298,4.061818126335737,-3.2285617202227885,1.00000025,0.0017999999999998015,147,42,594.3207417056066,1453.75851056,mp-1200716,NaSr3CeP3O13,https://materialsproject.org/materials/mp-1200716,-19.9805789316654,-35.461793093614546,-11.599071043116222,-34.09400713411364
-4.378757014545455,-48.16632716,4.830029662860063,-1.0348867574545455,2.9999999,0.0,12,11,310.1347266046269,902.09256928,mp-557030,NaW2(Br3O)2,https://materialsproject.org/materials/mp-557030,-2.7627922434643044,2.399640871710609,-34.85318650184142,-39.17707684647213
-5.54880024357143,-155.36640682,5.168226533384688,-2.0792824523214293,2.7525e-05,2.3363,62,28,672.8353722125341,2094.1185600000003,mp-1193207,Ho2ZnS4,https://materialsproject.org/materials/mp-1193207,4.793216298799419,-0.9995577641459298,-11.987711080048545,-14.5524064306304
-7.7531753525,-31.01270141,3.0114509979213864,-1.0495575233774996,0.0,3.2177999999999995,166,4,70.38401468991697,127.6441,mp-12317,SrCN2,https://materialsproject.org/materials/mp-12317,-24.403021014168864,-19.89966837700008,-20.071581290291892,-16.737178179026618
-7.30484533,-452.90041046,2.6097632525869643,-3.276859510846774,2.00000035,0.0,15,62,907.2959809359047,1425.9392,mp-1196268,Ca6Si6O19,https://materialsproject.org/materials/mp-1196268,-52.07921787974075,18.614073278822204,-29.526845830889176,18.556123056668678
-3.8749149578571433,-54.24880941,5.5105356117592885,-0.481019591632653,0.0,0.5173000000000001,194,14,344.16641350158613,1142.123872,mp-10334,Pr(CdP)3,https://materialsproject.org/materials/mp-10334,9.298683336887287,-33.49501640008128,18.26968429381057,-41.689979691163884
-6.4110852335000015,-128.22170467,5.949348077410408,-2.485701196187501,0.0,1.0302000000000002,11,20,468.0213219574645,1676.8179999999998,mp-1189069,Nd(ErS2)3,https://materialsproject.org/materials/mp-1189069,8.617141388636309,-3.0153302576162724,-5.115589046022152,-14.239592868044108
-4.628935624,-46.28935624,5.653363493321867,-2.8953550519553786,0.0,1.5221,225,10,177.33681923572567,603.7494306,mp-1113422,Cs2AlAuF6,https://materialsproject.org/materials/mp-1113422,-53.88608132658303,-72.90601411540612,-56.87452501877103,-65.10990298265844
-5.874112809,-117.48225618,5.621989768740743,-2.1221714639375,0.0,2.1036,36,20,451.2527483840374,1527.7799999999993,mp-7290,Er3GaS6,https://materialsproject.org/materials/mp-7290,6.838096902653545,-2.421642943199049,-8.169442207031755,-13.613656867713733
-8.83653285,-106.0383942,6.016375301721307,-3.5392169320833333,0.0,3.6582,15,12,166.2345287488926,602.29196,mp-3901,NdNbO4,https://materialsproject.org/materials/mp-3901,-21.46371386888032,-66.67319941880744,-8.999655361577155,-66.28315355755
-3.2974279114814813,-89.03055361,7.504254059957483,-0.5646556195023154,0.0,0.7668000000000004,146,27,877.9237328790946,3967.4844,mp-556516,Tl2S,https://materialsproject.org/materials/mp-556516,-3.664052163299443,-26.37531538604116,-21.21466774626312,-65.21361642751172
-6.479326153333332,-155.50382768,3.6971949235618777,-2.803637376510417,0.0,5.9087,62,24,329.9930185718802,734.7304,mp-5285,SrSO4,https://materialsproject.org/materials/mp-5285,-21.12314426135184,-29.907508254891248,-4.738730610205112,-2.484132298563413
-6.3386507725,-50.70920618,6.747178806017508,-0.06845492750000037,7.35660085,0.0,164,8,178.24868816377426,724.2682900000001,mp-1221774,MnCrTe2,https://materialsproject.org/materials/mp-1221774,22.0704559195681,8.567597127721948,56.671242097166825,-23.670935237671976
-3.5995356997916668,-518.33314077,5.570458935890511,-0.3739770152806712,0.0010345,1.1099,5,144,3227.968126779462,10828.5704,mp-1215118,Ag16HgAs4S15,https://materialsproject.org/materials/mp-1215118,15.619398322753348,-14.541858479576357,2.4792566511459198,-23.52987830811262
-6.597700575,-39.58620345,5.702345735802107,-3.3748172000841667,0.0,1.2541000000000002,129,6,111.80501609612664,383.9421064,mp-3992,PrSF,https://materialsproject.org/materials/mp-3992,14.396285765222444,-6.063299277845898,4.641597592563224,-10.130161227780038
-3.661288124,-36.61288124,4.582182640748258,-0.8128350712413791,0.0,0.5072999999999999,194,10,310.54136612847424,856.9249037999999,mp-1079847,CsFeBr3,https://materialsproject.org/materials/mp-1079847,-1.9683064719416208,14.414191686888833,8.080396456563825,-54.55576736248531
-3.6494791116071434,-204.37083025,4.117256290710781,-0.4092411707500001,0.0,1.0249,14,56,1323.4776227974078,3281.52270848,mp-15431,Na2Ga2As3,https://materialsproject.org/materials/mp-15431,-0.9853043767278712,2.0362071128328694,-37.957716350031774,-42.248511441584725
-6.521598897142857,-45.65119228,7.887947898448161,-2.2889214446428565,6.929999999999999e-05,0.0,166,7,130.70176273138324,620.86387,mp-753380,La(BiO2)2,https://materialsproject.org/materials/mp-753380,-25.27321647796589,-63.45467867367121,-8.984687253406163,-78.5121573994217
-3.627627500277778,-261.18918002,5.656862554811774,-1.2255238046312258,0.0,1.7916,14,72,2211.0277528428933,7532.180696400002,mp-572441,Cs3AuO2,https://materialsproject.org/materials/mp-572441,-3.748004851236808,-29.246536417440158,-24.63700695483646,-54.47815134270981
-4.05790042875,-32.46320343,3.8595893885655417,-0.9592542244062504,5.5e-07,0.2389999999999999,141,8,179.7357058671696,417.75953856,mp-1173513,NaSbS2,https://materialsproject.org/materials/mp-1173513,14.488116856553257,8.776813873283523,9.616908315100043,0.9706397557967944