energy_per_atom,energy,density,formation_energy_per_atom,total_magnetization,band_gap,sgr,num_sites,cell_volume,weight,mp_id,formula,URL,tsne_cry_0,tsne_cry_1,tsne_xrd_0,tsne_xrd_1
-8.244836102926831,-338.03828022,5.321702285036996,-3.5212233421951225,1.0000002000000001,1.0184999999999995,2,41,670.1534691508696,2147.7105699999997,mp-29041,La11V4O26,https://materialsproject.org/materials/mp-29041,-11.035524567092665,-59.60487511198783,-20.086633463295765,-57.987697970865526
-3.2026216566666665,-115.29437964,4.037611381214835,-1.1320725291044065,0.0,1.7838,62,36,1046.9700391567349,2545.7144,mp-18556,Rb2Cd3S4,https://materialsproject.org/materials/mp-18556,-2.779601538844048,-2.924505873794274,-31.162701620348567,-38.6662104669624
-3.059640280625,-97.90848898,3.7479984958012262,-0.18981928330172385,3.75e-08,0.9986000000000002,14,32,1067.4779367393812,2409.40176944,mp-29566,CsNaGe2,https://materialsproject.org/materials/mp-29566,-0.4418550374834952,-4.3422981200829485,-21.508658229366628,-30.796825015799346
-3.1864814476388887,-229.42666423,5.181358784323222,-0.2295740543055555,0.0,0.8077000000000001,70,72,2084.8080614859314,6505.2,mp-568778,CuTeBr,https://materialsproject.org/materials/mp-568778,-4.567277021529184,-1.7092816693512016,-32.03528172012377,-35.895446692347114
-6.4148613975,-76.97833677,6.079016040784548,-2.4658402973697924,0.00041600000000000003,0.0,12,12,278.3715357013804,1019.08175,mp-1095641,Tb5S7,https://materialsproject.org/materials/mp-1095641,10.30615697468302,-3.1645899611898125,-4.879750712755391,-15.923722720765648
-8.265539834444445,-892.67830212,5.390763285735935,-3.5319051584413583,3.65e-06,2.8351,14,108,1672.0364365097626,5428.08836,mp-1212487,La7V2BO17,https://materialsproject.org/materials/mp-1212487,-11.179161827196568,-59.4402736819809,-19.74143926316156,-57.667277602324326
-5.128654610833333,-61.54385533,5.266103836360634,-1.1268708578313582,0.0,0.6262999999999996,63,12,330.81186151724825,1049.1109038,mp-7152,CsZrCuSe3,https://materialsproject.org/materials/mp-7152,6.904108652053478,0.9794141680780828,-2.538369744852688,-21.432839866910104
-3.768133985,-105.50775158,4.2260517542291485,-0.44660857462553905,0.0,0.7168000000000003,4,28,978.396877062009,2490.0082076,mp-568403,Cs2SnAs2Se9,https://materialsproject.org/materials/mp-568403,-5.84586656875878,-2.9116425048642256,-31.986177917963296,-46.453677456962716
-4.401710531666667,-237.69236871,5.318766704245491,-0.1786906296296296,6.0299999999999995e-05,0.0,223,54,1386.202241564972,4440.056000000001,mp-1214616,Ba4Ge23,https://materialsproject.org/materials/mp-1214616,18.824420510929148,23.629289044698524,16.714155136591174,-46.21008406377772
-3.7863941175,-90.87345882,4.34424314992642,-0.5193347492996114,0.00021275,1.4266,14,24,777.6688812729036,2034.5096555999999,mp-865980,CsAgPSe3,https://materialsproject.org/materials/mp-865980,-5.96766557060948,-3.4553080443094037,-31.62166080220561,-46.45581383041819
-4.07834327,-89.72355194,4.393444276957188,-0.7537686117613641,0.0,0.9558,9,22,537.0050670708398,1420.8048,mp-560386,In2Ag2GeS6,https://materialsproject.org/materials/mp-560386,-1.5544161361715951,-2.7454238798225754,-30.549341972406484,-36.839591581160114
-5.325199461428572,-74.55279246,4.6784415330565645,-1.3912271599107149,0.0,0.4745000000000004,227,14,367.8274452075945,1036.325648,mp-1104166,Sc2CdSe4,https://materialsproject.org/materials/mp-1104166,11.394654125291385,12.647685297147742,-21.223114476058548,-74.12415316809755
-3.997372491875,-63.95795987,4.9821959806115235,-0.5261582755729171,0.00032685,1.3979999999999997,9,16,391.63209261009837,1175.0328,mp-1205392,AgSbS2,https://materialsproject.org/materials/mp-1205392,-1.5048355828473663,-3.944843723804763,-14.594563940175249,-68.29727553735196
-2.6006792361111106,-46.81222625,6.40448477406515,-0.2511319560416669,0.0,1.3128,186,18,556.1169225968741,2144.8712,mp-567949,Hg3AsSe4Br,https://materialsproject.org/materials/mp-567949,-3.0448695586400127,1.4540265130167618,-28.212626701166702,-37.67137450320143
-4.182867125833334,-50.19440551,5.352586661133326,-1.3651859036646912,0.0,2.0647,63,12,397.79188973455393,1282.2436037999998,mp-11121,CsTbCdSe3,https://materialsproject.org/materials/mp-11121,10.189921029973007,0.6852160373089868,-3.0576950221937054,-20.030900043452228
-3.9179954836764703,-266.42369289,4.3545440780136575,-0.42771976148795937,9.225e-06,1.5871,14,68,1996.582318248444,5235.773144000002,mp-1199727,Rb2Ag2Sn(PSe3)3,https://materialsproject.org/materials/mp-1199727,-0.4465564993246926,0.01715524761241804,-29.01392993118721,-43.021559565931405
-2.851003001,-57.02006002,5.4944647613287865,-0.09600736033333347,6.25e-06,0.9976000000000004,53,20,746.5721034665645,2470.29068,mp-570431,AgTe3I,https://materialsproject.org/materials/mp-570431,13.00292834662131,2.649279583030361,-12.16428537406765,-7.737465941702972
-6.61948876,-92.67284264,7.65772185628804,-0.2793139400000005,0.0,0.05950000000000076,176,14,379.4802598074877,1750.0065999999995,mp-16096,Tl(TeMo)3,https://materialsproject.org/materials/mp-16096,20.606482660323287,3.8978983072398914,-2.6276610896404407,-19.45666045902966
-5.887194751,-117.74389502,4.9740320582167215,-1.9673360962500008,0.605951,0.0,2,20,259.7974302560355,778.2055799999999,mp-562466,SrCoO3,https://materialsproject.org/materials/mp-562466,11.813165549437892,-0.7806749727586332,-1.5273198860570476,-15.541987825142822
-6.937083015,-55.49666412,5.337337942468957,-1.8646750295982135,3.929011,0.27059999999999995,129,8,150.40888628495452,483.44726399999996,mp-510668,LaFePO,https://materialsproject.org/materials/mp-510668,18.189767580409274,-39.15605569698057,18.394747398371813,-41.97384199608414
-5.7705692766666665,-51.93512349,3.506887422212564,-1.695117048320001,3.0000004000000002,0.16259999999999994,189,9,135.0648727531106,285.2431,mp-1080076,Sr2NO6,https://materialsproject.org/materials/mp-1080076,-15.813084955427813,-27.06991783623613,4.993488758520981,-52.60963121600874
-4.137273499210527,-314.43278594,3.829630359417239,-0.6240637742631582,11.00865505,0.1358999999999999,60,76,2632.608373205156,6071.4724,mp-1195306,K7(FeTe2)4,https://materialsproject.org/materials/mp-1195306,-2.548041115884774,-1.4689558923040829,-31.607831016112954,-32.34581311047862
-8.10219154,-875.03668632,5.444561858522023,-3.3517791958487657,2.000103875,1.1682999999999997,14,108,1658.08792419026,5436.52516,mp-1212632,La7Cr2BO17,https://materialsproject.org/materials/mp-1212632,-11.265456450669387,-59.407186048697035,-19.668718903399558,-57.66880903728516
-2.893681282083333,-69.44835077,4.669236234081444,-0.5982988271408045,0.0,2.0713,62,24,843.9524386453946,2373.0928400000007,mp-569764,RbCu2I3,https://materialsproject.org/materials/mp-569764,-2.3112539741427174,-1.1516092561634448,-16.087368294800925,-14.420990649471635
-4.280481543333333,-51.36577852,5.324667997638625,-1.4067883744980243,0.0,2.147,63,12,372.7913071055329,1195.3889038,mp-1102146,CsDyZnSe3,https://materialsproject.org/materials/mp-1102146,10.15126004210724,0.7228034136014838,-2.917409315092581,-20.030880536936568
-5.3493099455,-106.98619891,4.064234250169912,-1.5039902052500005,0.0,1.9617,113,20,569.7441614778278,1394.47112,mp-606393,NbBr3O,https://materialsproject.org/materials/mp-606393,-2.8826219244465165,-1.7726458652963195,-30.1015628289616,-36.4691629918941
-2.8861212166666665,-34.6334546,4.6026556829639915,-0.5907387617241376,0.0,2.0173,63,12,428.0803929077333,1186.54642,mp-1103650,RbCu2I3,https://materialsproject.org/materials/mp-1103650,-2.2298806336240014,-1.1672565409061222,-11.298375808640488,-13.833218531674213
-3.756999088928571,-105.19597449,4.544441017573232,-0.6544465018839288,0.0,1.6011000000000002,82,28,716.1580729909875,1959.9287,mp-1224211,K3Ag9(SbS3)4,https://materialsproject.org/materials/mp-1224211,-2.32871203087434,-3.0793385433786833,-2.9121859165519797,-22.11274484583007
-2.681131562857143,-18.76792094,4.022752597909548,-0.6646573967346937,0.0,1.6107,6,7,192.73540957456157,466.912762,mp-1215629,Zn3PBr3,https://materialsproject.org/materials/mp-1215629,13.638176471720724,14.66452496122791,-33.97281709213998,-48.03037587333886
-8.352975015,-267.29520048,5.347397346739728,-3.8016529917187514,0.0,4.461,14,32,479.32934910145286,1543.57376,mp-5152,La2SiO5,https://materialsproject.org/materials/mp-5152,-11.221232663196128,-59.26256619637235,-30.663948125114498,-37.32442676607285
-4.218066957,-42.18066957,3.8812680670120048,-1.2215105270689657,3.0000004000000002,0.5905999999999998,194,10,321.8350763936657,752.2426,mp-570099,RbVBr3,https://materialsproject.org/materials/mp-570099,-1.6102259267335142,13.193133599135905,8.081365008527488,-54.19995993632571
-3.03937634,-9.11812902,5.584908645619295,-0.1005846866666668,2.0,0.0,166,3,92.91509827441622,312.50234,mp-27638,NiI2,https://materialsproject.org/materials/mp-27638,20.492258009453227,10.838643639866662,28.04109404370612,-42.675245812962814
-4.238209089,-42.38209089,3.890252280050874,-0.7427801971379309,5.0000005,0.9609,72,10,410.6888248528469,962.14729,mp-8720,Rb2MnTe2,https://materialsproject.org/materials/mp-8720,-2.882348726004814,-7.637253606080597,-24.42663285543973,-23.04769164080469
-3.5300268810000004,-35.30026881,4.891783182302516,-0.4853039814827589,0.0,0.8815999999999997,63,10,418.0391389276225,1231.5018076,mp-1078965,Cs2Sb2Pd,https://materialsproject.org/materials/mp-1078965,-2.0468673091494525,-1.3046672256828171,-19.04584625018721,-15.39360697768
-8.529026281428571,-59.70318397,5.137562662600564,-2.364653245858572,0.0,3.728,164,7,114.36593255018559,353.8382,mp-9497,Pr2C(NO)2,https://materialsproject.org/materials/mp-9497,-10.115982170142939,-59.205664636865045,-24.007362259446644,-69.33244547969521
-4.00399572,-512.51145216,4.2557765291251455,-0.6480683875289923,7.62625e-05,1.1551999999999998,61,128,2944.416184994903,7546.210592,mp-1195102,RbAg5(PS4)2,https://materialsproject.org/materials/mp-1195102,-1.7056476681215826,-2.7239870417245045,-7.424096213405777,-23.048028980823126
-4.358382876923076,-56.6589774,5.450850988183318,-0.5101097738107868,1e-07,0.0,8,13,419.3444694457969,1376.5314519,mp-1228812,CsTi2(CuTe4)2,https://materialsproject.org/materials/mp-1228812,10.768401905966286,8.509549972827232,-1.8182053732886445,-15.47303099140652
-3.5678863894318185,-627.94800454,3.8805845573187585,-0.6710197099573866,0.00309155,1.8019,13,176,6352.433345248426,14845.2726176,mp-1196459,Al2Sb5(Se2Br3)3,https://materialsproject.org/materials/mp-1196459,-0.18342103133172466,-0.4972184539541818,-30.730887973825002,-38.586150416350776
-5.8272001300000005,-34.96320078,7.903307756976577,1.3437300633333331,1.12640285,0.0,136,6,160.2211750662252,762.57,mp-1094222,Hf2Mg,https://materialsproject.org/materials/mp-1094222,23.288805386527354,11.180001333477014,23.497277806976193,-40.58480470993289
-3.989748907368421,-75.80522924,4.508355671842309,-0.5843725955098688,0.0027566999999999995,0.33809999999999985,6,19,481.80451914505824,1308.097,mp-1227013,Cd2Sb6S11,https://materialsproject.org/materials/mp-1227013,0.20004969249656834,-2.7149379056267,-7.370840415619195,-18.897322494030348
-2.835608050138889,-204.16377961,4.283730219418308,-0.8089326005906349,2.99e-05,1.3805999999999998,205,72,1916.3316405668445,4943.604192000002,mp-29746,Cd4P2Cl3,https://materialsproject.org/materials/mp-29746,-1.2217918320969898,-2.3428441711514703,-28.940540182074017,-34.514301318876626
-6.326093597567568,-234.06546311,6.472334388574726,-2.4506913856587844,8.87e-05,0.0,12,37,831.1099976433903,3239.44315,mp-637631,Tm15S22,https://materialsproject.org/materials/mp-637631,10.414357345130787,-3.0337846592344606,-5.406081595235954,-15.684427351785905
-2.448275963088235,-332.96553098,6.214238049422276,0.006032002696078444,1.25e-07,0.0,19,136,3311.0681711296074,12391.016000000001,mp-1202823,Zn9(InSb3)2,https://materialsproject.org/materials/mp-1202823,31.85245921762969,-6.786844675352897,53.17134495831178,0.8314421624339375
-3.349783528571429,-23.448484699999998,4.213801800110256,-0.6164295692949509,7.000000000000001e-06,0.9217999999999996,12,7,242.10789149995853,614.3756,mp-1077942,Rb2TeSe4,https://materialsproject.org/materials/mp-1077942,-5.858019727905887,-7.005258966853563,-18.659281073381642,-31.728668398483297
-3.7218596431818174,-81.88091215,4.1686325192802185,-1.0063354794886372,1.15e-06,1.4340000000000002,9,22,533.8727201635974,1340.239,mp-18179,Cd4SiS6,https://materialsproject.org/materials/mp-18179,-1.4400066859841063,-2.4686132895128363,-30.658197032395915,-36.564942217548364
-6.242462785,-49.93970228,5.911143413040516,-0.0916305899999994,0.09423560000000002,0.0,11,8,205.1119580953393,730.1521799999999,mp-672389,MnTe,https://materialsproject.org/materials/mp-672389,16.584146217472338,10.514836341156222,4.610777691113452,-9.83014317876724
-4.855350768888889,-43.69815692,3.5568110449178185,-1.5000991883477015,0.0,1.9464,146,9,195.09195596914617,417.8795,mp-550314,Rb4CO4,https://materialsproject.org/materials/mp-550314,-0.4213793314776284,-32.761225542295065,-14.685631563310304,-66.9837840456259
-3.9294814060000003,-39.29481406,7.4874558767436925,-0.1233547520000002,4.417250800000001,0.0,21,10,258.5132653365541,1165.6496,mp-1216651,Tl2FeCu3Te4,https://materialsproject.org/materials/mp-1216651,18.674257420797325,-37.37570845312036,19.86652862073042,-40.78411276966136
-5.441277575,-32.64766545,4.689023029119896,-2.2348435296875,0.0,2.9978,59,6,203.2271656686106,573.8720000000002,mp-27246,LuSBr,https://materialsproject.org/materials/mp-27246,13.23079812327592,6.803935491146808,-26.381304944286693,-77.66220448830731
-6.5872911194117645,-111.98394903,6.718416065759407,-0.3018694076470593,2.9577044,0.0,1,17,365.6206125885096,1479.2735,mp-1216446,V9Te8,https://materialsproject.org/materials/mp-1216446,20.298056356299114,9.579144772017514,27.106748514907704,-40.9082453642411
-4.043849677142857,-226.45558192,4.276316281259537,-0.24823579003135626,0.00136175,0.7303000000000002,2,56,1604.805927890551,4132.789143999999,mp-686581,In2(PSe3)3,https://materialsproject.org/materials/mp-686581,0.17881832377077894,-0.1368387801260399,-2.4829102013606863,-22.82383316507341
-3.742419181666667,-44.90903018,4.312449328862688,-0.6688260030208338,4.955e-05,1.7752,62,12,359.9960019773884,934.916,mp-22971,SbSBr,https://materialsproject.org/materials/mp-22971,17.036757296946693,2.1057331603898968,-0.9621399808945342,-16.530935758355202
-6.0365470935714285,-84.51165931,5.088834947254592,-2.4658626180357146,1e-06,1.5036999999999998,36,14,328.1741412928812,1005.712,mp-1214096,Ca(ErS2)2,https://materialsproject.org/materials/mp-1214096,12.704402791490974,6.456425196731068,-7.191921989413983,-16.794524149900706
-4.2616853625,-51.14022435,5.442583142567314,-1.4092031319980243,0.0,2.1716,63,12,368.6408464473,1208.2573238,mp-505713,CsTmZnSe3,https://materialsproject.org/materials/mp-505713,10.111948599188157,0.7222421036452326,-2.9049588729038773,-20.035273932720344
-4.939718378333334,-29.63831027,4.128868158839547,-0.6414739049999998,3.99999945,0.3125,136,6,170.3658064881949,423.6082,mp-1183765,CrBr2,https://materialsproject.org/materials/mp-1183765,-1.4904597647770506,14.145631508878221,27.7811443489816,-41.715403487686366
-8.267748551296295,-892.91684354,5.468670703621461,-3.681329504340829,0.0,4.416900000000001,14,108,1599.7114181039185,5268.346456,mp-1212336,La7BP2O17,https://materialsproject.org/materials/mp-1212336,-11.300545083699337,-59.26810838176036,-19.627225861211226,-57.670586464545146
-3.852000059,-77.04000118,5.459043163911786,-0.3824595008229174,0.0005616000000000001,1.0837999999999997,62,20,576.0683469203096,1893.832,mp-1212011,InSbSe3,https://materialsproject.org/materials/mp-1212011,16.603423493990864,2.332305750248824,12.563904742986873,-7.773541837067458
-5.5628304575,-44.50264366,5.199738949354346,-1.8251081767875004,4.9999997,0.15009999999999926,129,8,212.70238462266792,666.0468963999998,mp-1078949,BaMnSbF,https://materialsproject.org/materials/mp-1078949,20.604237846675165,-7.773251231299898,-1.7927305765853023,-7.971463748264445
-4.255033133,-85.10066266,4.405656602526916,-0.8005411001041665,1.7899999999999998e-05,1.4657999999999998,62,20,501.70279512114456,1331.092,mp-21365,InSbS3,https://materialsproject.org/materials/mp-21365,-0.12176539953451072,-2.7776722945233816,-29.801862593667284,-36.294030702100116
-3.9889297,-159.557188,3.887291804203058,-0.4270519177181548,0.00032875,1.3006,14,40,1178.3496998377334,2758.495296,mp-1211816,KIn(PSe3)2,https://materialsproject.org/materials/mp-1211816,-0.014880255347265038,-0.1326960676847709,-2.4023541558041934,-22.208419112265688
-6.391464417027027,-236.48418343,6.440963682481892,-2.4761357348479733,0.0102285,0.0,12,37,833.1119062397174,3231.507,mp-1201126,Sm4(LuS2)11,https://materialsproject.org/materials/mp-1201126,9.815513660629156,-3.0981742971895176,-5.485625925535059,-15.461300942741866
-3.5830757,-25.0815299,4.962900115372565,-0.4830011346354171,0.0,0.4877000000000002,1,7,204.08880544165524,609.966,mp-1224081,In2CuSe3Br,https://materialsproject.org/materials/mp-1224081,15.032763723420643,14.34591286719282,5.355669721926586,-17.115117309469447
-4.0393502250000015,-113.1018063,4.320180516377092,-0.2437363378884996,0.00015135,0.7471999999999999,2,28,794.2558987622134,2066.3945719999997,mp-1224455,In2(PSe3)3,https://materialsproject.org/materials/mp-1224455,0.19663684607706414,-0.12004799987802453,-2.4927443245943133,-22.81971516692905
-2.788301078888889,-25.09470971,3.6947773909590857,-0.3891847201915712,0.00030439999999999997,0.0,8,9,410.94817527342974,914.3789999999999,mp-1219574,Rb5Sb4,https://materialsproject.org/materials/mp-1219574,-2.8174513157715464,-7.614366209458993,-27.914948701733522,-58.09616750851153
-6.261355138928572,-175.31794389,3.3433982947757457,-2.2046726526785716,8.9e-05,1.9617,62,28,656.3422720094014,1321.5068,mp-1232031,Y2MgS4,https://materialsproject.org/materials/mp-1232031,17.141567168576902,5.855676100149058,-2.954509084345108,-16.59006721993829
-3.3510115293333333,-50.26517294,6.321218365699393,-0.19889051225000004,1.1599999999999999e-05,0.0,5,15,448.67783185940493,1707.9939,mp-1217041,Tl3In3SnSe8,https://materialsproject.org/materials/mp-1217041,16.099282289918225,2.1858534236573166,-2.8329719560357915,-20.85587768282659
-3.07383579625,-24.59068637,4.6231043535181495,-0.2968257465794335,0.0,0.11189999999999987,123,8,175.08817559185118,487.4627379,mp-1101093,CsZn4P3,https://materialsproject.org/materials/mp-1101093,16.393320266488526,10.858101221588022,24.498791178334738,-39.91424715375157
-2.5161541216666667,-15.09692473,6.0012596716086435,-0.3085331441666665,2.333333333333333e-07,0.29499999999999993,152,6,160.21585322541955,579.0269999999999,mp-1071319,ZnTe,https://materialsproject.org/materials/mp-1071319,21.283596775521232,8.242257038837035,28.01950506194449,-38.13760544438343
-3.42306209046875,-219.07597379,4.334189640738813,-0.3241382374687505,1.63125e-06,0.9487,64,64,2159.855594891298,5637.460800000002,mp-29383,KGaSb2,https://materialsproject.org/materials/mp-29383,11.685160736665706,2.2488583003000007,-13.592496521324556,-7.910588757880678
-5.800163591785713,-162.40458057,3.452543492114561,-0.9219329727278328,5.000009875,0.07360000000000033,141,28,611.243814878835,1270.88,mp-1238796,Rb(CrS2)2,https://materialsproject.org/materials/mp-1238796,-7.920509324799775,8.847302223288565,22.0566737219028,-48.9323650447824
-4.837046982,-96.74093964,5.256188329715172,-0.4581251654374995,5.000002725,0.6263000000000001,62,20,523.8244868599953,1658.08818,mp-567478,MnSbSe2Br,https://materialsproject.org/materials/mp-567478,16.585148631146087,2.4976432738700547,27.15942231572515,-41.25168615977119
-4.251806966818182,-93.53975327,4.223800605845063,-0.8542713122159104,0.0,0.9846999999999996,9,22,523.541017121855,1331.6958,mp-558407,In2Si(AgS3)2,https://materialsproject.org/materials/mp-558407,-1.5557443005832234,-2.65704229033016,-30.588861864595426,-36.68770433037139