energy_per_atom,energy,density,formation_energy_per_atom,total_magnetization,band_gap,sgr,num_sites,cell_volume,weight,mp_id,formula,URL,tsne_cry_0,tsne_cry_1,tsne_xrd_0,tsne_xrd_1
-4.6942726725,-93.88545345,3.775693510890982,-1.4132831029375006,0.0,0.9831000000000004,62,20,448.563131318786,1019.932,mp-866811,CaSnS3,https://materialsproject.org/materials/mp-866811,-3.945252867787408,2.397633106864194,-5.0407235728323725,-20.00460894403
-4.0896410959999985,-20.44820548,2.7398545896273623,0.4414871053428577,3.2182626,0.0,123,5,98.70738045042064,162.86510756,mp-1210435,Na2MnP2,https://materialsproject.org/materials/mp-1210435,21.723791038042286,24.03706127741287,24.32766707777048,-43.18965276678816
-5.718598368928572,-160.12075433,5.5610072485255655,-2.193898811250001,1e-07,2.2624999999999997,122,28,570.4112878816035,1910.26,mp-1232121,Dy2MgS4,https://materialsproject.org/materials/mp-1232121,19.190053069251267,-3.4692322608903257,7.510857006333485,-9.018503682162294
-3.830713808823529,-65.12213475,4.324324295188582,-0.9660490668924316,0.0,1.6085,146,17,647.4279534344395,1686.0118076,mp-1181839,Cs4Sr(SnSe3)3,https://materialsproject.org/materials/mp-1181839,-0.1621988084473285,-4.919924091411152,-16.13105087918833,-14.38108649835078
-3.992353433,-79.84706866,3.4490258818934403,-1.042463652104167,0.0194759,0.0,12,20,453.1769133610607,941.272,mp-1232299,MgInS3,https://materialsproject.org/materials/mp-1232299,-6.990976669610674,-0.6515317953298894,-35.206076611920025,-47.60392883847882
-5.410081628285714,-378.70571398,5.26759742677575,-1.991719904178572,4e-08,1.3569999999999998,8,70,1798.5240424022195,5705.3164,mp-531811,Ho2CdS4,https://materialsproject.org/materials/mp-531811,10.671066535321195,12.345026278577109,-20.961351175511165,-74.87197699643404
-2.969167962,-29.69167962,3.99419603651306,-1.4036550970247126,0.0,1.8935,225,10,367.11438778438185,883.04267308,mp-996943,Cs2NaInBr6,https://materialsproject.org/materials/mp-996943,1.7941134307451894,12.422087709002588,-32.167243615260126,-70.31624241274379
-7.234548828918919,-267.67830667,5.1300129076987755,-2.90594556222973,6.999999400000001,0.0,166,37,584.9722177058974,1807.1933,mp-28902,Ba8V7O22,https://materialsproject.org/materials/mp-28902,-11.745446758320947,-82.32479716379834,16.852357843598448,-72.77926183764406
-8.470667342321429,-948.71474234,4.331371828305265,-2.2379778846428584,14.0000005125,1.4455999999999998,227,112,2864.9756149743844,7473.04,mp-1232170,Gd2MgS4,https://materialsproject.org/materials/mp-1232170,13.810131397465188,8.066315907582092,-25.07106571288517,-77.19996943012403
-4.212980581666667,-50.55576698,5.649068790889079,-0.32410645833333324,4.9130251,0.0,14,12,346.6501585061693,1179.28609,mp-1221974,MgMnTe4,https://materialsproject.org/materials/mp-1221974,9.919645517690572,9.966834906720788,-2.536339927512336,-6.286038334036466
-3.8073930651612895,-118.02918502,5.780116523958006,-0.3705574791666667,0.0031931999999999998,0.0,1,31,754.6181901876703,2626.726,mp-675060,In8Cu7Se16,https://materialsproject.org/materials/mp-675060,13.17312997567676,15.27482785916476,-12.714567575494925,-72.21190504252833
-3.469017301,-34.69017301,3.824931594393874,-0.4013881261379311,0.0,0.6866999999999999,72,10,381.59548323028207,878.9775999999998,mp-8931,Rb2SnAs2,https://materialsproject.org/materials/mp-8931,-3.4018459617349737,4.021266864790219,-27.018340224452185,-46.531598882795954
-3.568891618333333,-21.41334971,6.891490822474871,-0.10720615166666647,0.0002154,0.0,136,6,171.90424220546726,713.4288799999999,mp-862601,RhI2,https://materialsproject.org/materials/mp-862601,22.09622744006686,5.569588983131113,28.07629149703785,-41.85785355518679
-4.049076309615385,-210.55196809999998,4.6960063021798915,-0.6238129544230774,1e-07,1.1324999999999994,15,52,1335.4308608046174,3776.6,mp-542596,Hg(SbS2)4,https://materialsproject.org/materials/mp-542596,0.3774486190616998,-2.663381586380815,-28.6838667837258,-35.4182728004339
-5.397153745,-21.58861498,4.396273421439103,-2.17347792315625,0.0,2.2791,166,4,92.93496718685743,246.04511928,mp-999126,NaTbS2,https://materialsproject.org/materials/mp-999126,14.428230624016287,6.6849176385575575,-25.50220709863412,-76.66241966840248
-6.077744436666666,-145.86586648,3.30896391533978,-2.088113754281609,0.0,3.2778,14,24,463.57998229654464,923.778,mp-4138,Rb2CO3,https://materialsproject.org/materials/mp-4138,-30.698132732248077,-18.228708468575398,-8.464922726018068,-23.58139293016418
-7.390982647916666,-354.7671671,4.053302663830189,-2.2556158148658327,0.0,3.3960000000000004,14,48,631.4104909190734,1541.2452,mp-554759,SrBNO,https://materialsproject.org/materials/mp-554759,-18.51127089836156,-31.998541812725772,-2.435116026567324,-22.08657682438402
-7.252278097222222,-261.0820115,5.4562192831541205,-3.3817840593055566,8e-07,2.4346,62,36,769.9307437490114,2529.84776,mp-768263,Ba2La2O5,https://materialsproject.org/materials/mp-768263,-4.901335676632693,-62.1072282488469,-25.53166280506812,-55.183246945975036
-5.396298201666667,-129.51115684,4.153655138430147,-0.8608426271044453,1.655e-05,0.9746,62,24,362.68455275461235,907.2153800000001,mp-1180484,MnAgO4,https://materialsproject.org/materials/mp-1180484,-14.403666297699546,-42.48615883306522,-24.9682444850286,-23.130980408746804
-5.626719947000001,-56.26719947,6.148484315073276,-0.6087136623333336,6.994339999999999,0.0,194,10,287.0568211352787,1062.8864,mp-608777,Eu(InAs)2,https://materialsproject.org/materials/mp-608777,21.15689111740049,7.55835527624423,5.432024069967481,-10.139302491172533
-3.923211262083333,-188.31414058,4.370427211932618,-0.4799492990813577,0.00114345,1.3899,62,48,1579.458704497602,4157.029215199999,mp-645172,CsAs2Se3,https://materialsproject.org/materials/mp-645172,-8.680314007107503,-3.234567547453876,-29.62664056785777,-46.300441258655084
-2.4284830425,-38.85572868,3.5775710451773786,-0.982874444051724,3.25e-07,2.1972,62,16,691.8054937853447,1490.4698076,mp-27641,CsBr3,https://materialsproject.org/materials/mp-27641,-8.018035673366981,-6.972422445205423,-28.876374644126027,-47.466619389757035
-6.4770588758333325,-310.89882604,3.7831431400055937,-3.155894238075833,3.999999725,1.3732,14,48,676.2680432188896,1540.7158439999996,mp-766465,Sr2MnCO3F5,https://materialsproject.org/materials/mp-766465,-14.857617011194437,-25.33444256921505,-16.317577144730674,-16.980878778674867
-4.678221075,-18.7128843,7.036969159179423,0.3384853562500005,0.1656334,0.0,166,4,90.32551841558671,382.778045,mp-1221803,MnGeTe2,https://materialsproject.org/materials/mp-1221803,32.70871249398844,-4.656173337697339,17.46305098574364,-16.215060123962104
-4.57210598625,-36.57684789,6.1426129121684525,-2.156276791612605,3.95e-06,1.2644000000000002,129,8,185.5301523888837,686.3072063999998,mp-1079647,BaAgSeF,https://materialsproject.org/materials/mp-1079647,20.931421196970923,-7.7456476165956625,29.603897617819353,10.998773675301287
-3.87012250625,-30.96098005,4.349864258558705,-1.4614382101574996,0.0,2.4635,186,8,125.87762761030471,329.74268,mp-644222,CdHClO,https://materialsproject.org/materials/mp-644222,-7.920280902938522,5.862978367894117,15.933618600152194,-58.32188343794508
-8.100566542272729,-356.42492786,6.275105059520183,-3.400927997159092,1.000052875,0.3857999999999997,62,44,661.190129114167,2498.608840000001,mp-1203257,La3MoO7,https://materialsproject.org/materials/mp-1203257,-11.488270741517134,-62.3623514210829,-8.67895913048425,-66.10658957613897
-4.851861463414634,-397.85264,3.2421068221127523,-0.5649479172560972,5.99344675,0.05149999999999999,227,82,2381.1012141676692,4648.96296,mp-1181991,Nb6Hg(Br8O9)2,https://materialsproject.org/materials/mp-1181991,-3.8186326227269087,3.758447842418061,-35.8781647464722,-31.633907334288608
-4.655398496428573,-65.17557895,3.696368912145655,-1.2927755985119056,0.9999998999999999,0.0,166,14,313.3195418297045,697.451,mp-1247164,Mg2TiIn3S8,https://materialsproject.org/materials/mp-1247164,1.9285022647169943,25.938909817399093,-22.67873862679256,-79.55582748345546
-5.73099611892857,-160.46789133,4.149929892571513,-2.166005563392857,0.000200725,1.9580999999999995,62,28,708.3459039181212,1770.26,mp-1232264,Pm2MgS4,https://materialsproject.org/materials/mp-1232264,12.471687803797208,5.0524421318779975,-11.656677181238244,-7.675860257672213
-7.790271925,-747.8661047999999,5.887888520722221,-3.059643611875001,1.00000025,0.0,222,96,1408.268286032036,4993.3946,mp-1202854,Pr5Mo3O16,https://materialsproject.org/materials/mp-1202854,-22.281923755027748,-66.96858787310583,-9.419891157221471,-79.25417137701392
-3.7309823754166667,-89.54357701,6.870396892714478,-0.9349613945572924,0.0,2.3115,36,24,510.59297639431117,2112.5528,mp-555918,Hg2SeO3,https://materialsproject.org/materials/mp-555918,1.5773368449993892,-5.120758392396228,-19.635572130966363,-35.29033641308321
-2.445547233333333,-58.6931336,4.361794865205781,-0.5155549611111114,0.0,1.7858,52,24,1122.6927335783523,2949.01552,mp-29312,InI2,https://materialsproject.org/materials/mp-29312,-4.59737291132803,-7.949973814351398,-24.48261518654924,-4.438348498052236
-4.018301371607143,-225.02487681,4.90373064668643,-0.997477417470238,0.0,1.7062,70,56,1715.0707488849791,5064.768,mp-21733,Sr(InSe2)2,https://materialsproject.org/materials/mp-21733,11.696193566113186,-23.783148626410842,-10.366426026323982,-19.240731953480296
-5.690162217272728,-125.18356878,2.77053249317964,-1.8166358748877929,0.0,5.2849,68,22,320.42110028907786,534.607768,mp-642646,BaP2(HO)4,https://materialsproject.org/materials/mp-642646,10.69581733283098,5.426660314782223,-19.439436356751198,-16.99857269831509
-5.253235223333333,-47.27911701,5.272203952160346,-3.47693026746,1.9999983000000001,4.5238,139,9,140.8940017477286,447.33781919999996,mp-556041,Ba2NiF6,https://materialsproject.org/materials/mp-556041,-12.073938657046947,-22.086647141807326,-1.3371159886282842,-7.312067366855349
-3.2369797853846154,-168.32294884,4.459010922030182,-0.3526936293103452,4.34e-05,0.5848,14,52,2440.874331286281,6554.429038,mp-628742,Cs5Sb8,https://materialsproject.org/materials/mp-628742,2.2498598233166875,-3.6125524637124,-19.02095505665446,-13.740848007666779
-7.802995840104168,-749.08760065,6.081403536438844,-3.0762395858333327,1.0000001,0.0,222,96,1381.6651028071694,5060.0816,mp-558671,Nd5Mo3O16,https://materialsproject.org/materials/mp-558671,-22.23315322301617,-66.99491355415687,-9.336117069568195,-79.0581635460452
-7.396666346666668,-310.65998656,2.6795144161779607,-2.8532595559206335,9.65e-06,3.9007,4,42,573.6168167279568,925.6118,mp-1200300,K2SrVB5O12,https://materialsproject.org/materials/mp-1200300,-26.33064160130205,-3.643456390238508,-23.965961846235214,-3.7216324328395696
-8.267624467619049,-173.62011382,6.492888630179413,-3.9062567352761914,48.9999998,0.4600999999999997,174,21,348.4902445284613,1362.6348384,mp-1190780,Eu7(ClF6)2,https://materialsproject.org/materials/mp-1190780,14.851801759146275,-5.874392457042674,14.18853551253024,-46.983896357143294
-3.7610398505,-75.22079701,2.2969170291754426,0.1358844325,0.00070235,0.0,2,20,384.21938199023714,531.466,mp-1073035,Mg2Si3,https://materialsproject.org/materials/mp-1073035,35.26792038269267,20.672563997382763,55.10876088193163,-0.8853204609808393
-4.654905021428571,-65.1686703,3.8028640966713407,-2.022343403431429,0.8474567,0.0,123,14,298.40188793781573,683.3816,mp-1147538,Sr2Cu(ClO)2,https://materialsproject.org/materials/mp-1147538,-4.483708723708303,-2.9389937071405234,-25.976409194352822,-35.316999867210434
-4.128632063888889,-74.31537715,5.356132492172604,-0.596953507043822,0.0,0.3253000000000004,51,18,339.0630515461605,1093.6609038,mp-561033,CsCu5S3,https://materialsproject.org/materials/mp-561033,15.021543328482892,26.303564621217088,20.108196300349487,-47.65987493020774
-8.481480435,-101.77776522,5.923597421006056,-2.7268745875000007,6.99489225,0.021300000000000097,88,12,174.86832633217682,623.8032,mp-1095254,EuMoO4,https://materialsproject.org/materials/mp-1095254,-22.164957340146408,-66.8560181744464,-7.638104474231095,-84.19737964656177
-4.1136739407142855,-57.59143517,5.4209989687466535,-0.4922192693601194,1.06e-05,0.2857000000000003,1,14,318.6831961862171,1040.3737800000001,mp-676348,NbAg7S6,https://materialsproject.org/materials/mp-676348,15.753468671626118,-14.247333211558454,1.435905951065647,-20.666217638881246
-3.0775785866666667,-36.93094304,5.727849284757626,-0.3269700373958339,0.0,0.8048000000000002,205,12,258.97785002899377,893.316,mp-1102515,ZnSe2,https://materialsproject.org/materials/mp-1102515,26.14494002575513,25.45516687445281,24.506159662641306,-41.902738309961684
-7.239065641538461,-658.75497338,2.9786600757044908,-3.343850671483517,8.714285714285715e-07,4.9795,146,91,1210.4180486779464,2171.237068000001,mp-531132,Ca3(PO4)2,https://materialsproject.org/materials/mp-531132,-18.659889422274045,24.089074487892212,-12.851974193943477,15.37869847085952
-4.553165864166666,-109.27598074,7.9676926206696725,-0.4431810224999999,2.5e-08,0.0,61,24,588.0969193613004,2821.84,mp-567945,SnTePd,https://materialsproject.org/materials/mp-567945,28.441866137295612,24.796756646851826,37.582457826944186,-24.878143988411043
-5.383728515,-21.53491406,4.113170571607226,-2.21706949403125,0.0,2.3136,166,4,105.83474784839657,262.15365,mp-999129,KTbS2,https://materialsproject.org/materials/mp-999129,14.409667805264453,5.3738140591253805,-4.236448156306632,-4.189140669103349
-6.363824597037038,-343.64652824,6.614925279968437,-2.4345438757407414,0.0034234,0.0,18,54,1155.0051803759234,4601.08,mp-531574,Dy11S16,https://materialsproject.org/materials/mp-531574,16.03366930393826,-4.312997227291651,9.360831888348207,-9.590921833280476
-3.882880855,-23.29728513,3.651843001257833,-0.2970164155476187,0.0,0.6055999999999999,186,6,157.0336620530182,345.34706256,mp-29529,NaSnP,https://materialsproject.org/materials/mp-29529,-3.4762682287380113,1.83194268392319,-24.186981446952423,-75.80254789695354
-6.074475833888888,-218.68113002,2.5585824186948622,-2.1867092369308736,0.0,5.3405,2,36,388.8979352410068,599.2195280000001,mp-722485,SrP2(H2O3)3,https://materialsproject.org/materials/mp-722485,-28.83692808654496,-7.936204737715906,-33.27061521762497,-30.431396679364557
-9.7417504475,-194.83500895,6.835829680370944,-4.037369442876252,20.999999399999997,1.9296,6,20,298.69382461123024,1229.612832,mp-1224717,Gd3SOF5,https://materialsproject.org/materials/mp-1224717,-12.366771572378399,-32.71774475670533,-25.12115483602449,-43.56392875390117
-7.61672640703125,-487.47049005,2.755283548099923,-2.9776790714114583,0.0,5.1459,14,64,782.9172823402756,1299.0716,mp-556250,KSrB5O9,https://materialsproject.org/materials/mp-556250,-24.970628796539263,-2.056971985739344,-33.586537173571074,-34.00549968218064
-4.098780772692306,-106.56830009,4.118411283435272,-0.5306874849530673,0.0,1.6476000000000002,15,26,578.8931310232431,1435.750648,mp-27482,Ag4P2S7,https://materialsproject.org/materials/mp-27482,-3.0275971718829267,-3.6869897461604113,-23.551625020967755,-30.232624472134603
-3.4089527760000005,-34.08952776,5.227899569721262,-1.1424444300312508,0.0,0.8876,166,10,221.57536749244042,697.5889999999998,mp-1217998,SrCd4S5,https://materialsproject.org/materials/mp-1217998,23.119776738946022,9.547133605168598,31.5645370540998,-39.204696802817566
-2.96740656625,-142.43551518,4.028470434438457,-0.4653195160201153,6.75e-07,0.9704999999999996,14,48,2038.852886125624,4946.2604456,mp-541678,Cs3GaAs2,https://materialsproject.org/materials/mp-541678,-4.4854717859214075,-24.346021984317407,-28.980783525512443,-48.18602041136958
-7.051846234513889,-1015.46585777,3.3558717519650485,-3.1667174986731164,0.0003528,5.1098,12,144,1879.7447729224136,3798.8762880000004,mp-1218826,Sr7Mg8(P4O15)3,https://materialsproject.org/materials/mp-1218826,-23.793201809654555,-32.198332034106826,-18.224665522285107,-28.509009261798887
-4.720021139545454,-103.84046507,6.57910040673133,-1.1021222767432404,0.0,1.2942999999999998,63,22,529.1251717960831,2096.4081837999997,mp-1192367,CsHo2Cu3Se5,https://materialsproject.org/materials/mp-1192367,31.927914644830985,-3.553534674412408,2.9710068714658093,-21.296851728603265
-4.1468976065,-82.93795213,2.3500626782491554,-2.346328147806,0.0,5.1851,14,20,523.7174414502646,741.18631568,mp-31362,Na3YCl6,https://materialsproject.org/materials/mp-31362,-4.090417456978658,8.218725920362251,-34.52658960423952,-32.901478202338645
-6.34531427,-25.38125708,7.453546762388794,-2.3144731576562507,1.13e-05,0.0,166,4,85.4211947524033,383.42421,mp-1218978,SmTmS2,https://materialsproject.org/materials/mp-1218978,23.09860739567861,10.947881525974886,32.34250896051892,-39.80224197859779
-6.0318781871428575,-84.44629462,6.738093608181331,-2.205360947083334,6.3e-06,1.7422000000000004,82,14,290.0328958687176,1176.8882,mp-35512,Dy5AgS8,https://materialsproject.org/materials/mp-35512,16.212887964868223,-4.2831507805462925,9.638823029304351,-9.465153422934588
-3.7922215444444447,-34.1299939,5.166304563273798,-0.4808477292187503,0.0,0.21089999999999964,1,9,258.0337115214999,802.8,mp-1224175,In3CuSe5,https://materialsproject.org/materials/mp-1224175,15.161712451131535,14.7852894830702,5.683189487251598,-16.84349566655095
-6.068720427395834,-582.59716103,3.9307755102655366,-2.1957944490625003,1.00001455625,0.06380000000000001,2,96,1531.208016160479,3624.6272,mp-1196121,SrAsO4,https://materialsproject.org/materials/mp-1196121,-50.40372321858109,-49.37105384656412,-26.467330858010893,-56.26159656378845
-6.9651997421428575,-195.02559278,5.070618651674429,-2.9434778242857145,1.0000002000000001,1.5191,14,28,510.33974093160566,1558.3724,mp-19096,Ba2VO4,https://materialsproject.org/materials/mp-19096,-9.51295649239505,-31.155173653895933,-6.625225406563977,-25.36933161470706
-5.987626756607143,-335.30709837,3.903782012455092,-3.6756254181714283,1.9999996125,2.3691,14,56,794.7671873273707,1868.428128,mp-30297,SrVF5,https://materialsproject.org/materials/mp-30297,-14.855265435062508,-24.905024126202107,-15.378970734807416,-18.009867815213486
-6.23741488,-124.7482976,2.2353856192120847,-1.4212046945000003,0.0,0.014799999999999924,141,20,673.9003486999767,907.191648,mp-1209725,Sc(AsO)2,https://materialsproject.org/materials/mp-1209725,-22.16971232028457,-9.764351641794702,-11.217986057519177,1.3214485881540878
-5.441058555,-43.52846844,7.581997193472664,-0.13547455500000005,3.23090165,0.0,164,8,161.55611720072338,737.6628900000001,mp-1221364,MnNiTe2,https://materialsproject.org/materials/mp-1221364,25.95651175237197,22.374742195377898,57.850124911850436,-23.69415344849713
-6.813883398333334,-81.76660078,4.59868740351084,-3.021405499927917,2.1775e-05,2.4517,62,12,269.899091103389,747.4570127999999,mp-1187888,YSeF,https://materialsproject.org/materials/mp-1187888,16.068625942335995,4.928082718365516,5.026444678526897,-7.6849022031271526
-6.371070605,-63.71070605,5.6296669494471105,-2.4611947694375003,0.0,2.4862,167,10,251.34063161646444,852.1112800000001,mp-978093,Ho2S3,https://materialsproject.org/materials/mp-978093,10.92096030396103,11.601530522544408,-8.638320139978191,-7.356923873000363
-4.127622551818182,-45.40384807,6.379932456842325,-0.41667919420454586,3e-07,0.0,139,11,185.81558301421532,713.9193,mp-557929,Tl(Cu3S2)2,https://materialsproject.org/materials/mp-557929,14.806270809160347,26.657691315265165,17.148236145504075,-40.65854774205877
-4.960950343,-49.60950343,4.634769482408925,-1.1816039267500005,0.0,0.8092999999999999,5,10,350.8402231498269,979.2383800000001,mp-546285,NbI3O,https://materialsproject.org/materials/mp-546285,2.327074677552577,-3.528026329396005,-18.584744662167804,-13.989224949974814
-3.48257888,-24.37805216,5.141093342742484,-0.5716576408630952,0.0,0.8688,111,7,212.4931361051151,657.887,mp-568032,Cd(InSe2)2,https://materialsproject.org/materials/mp-568032,15.515522346324953,14.770242750165135,5.865476848262711,-16.387382707915016