energy_per_atom,energy,density,formation_energy_per_atom,total_magnetization,band_gap,sgr,num_sites,cell_volume,weight,mp_id,formula,URL,tsne_cry_0,tsne_cry_1,tsne_xrd_0,tsne_xrd_1
-7.726090095000001,-77.26090095,7.245124537242598,-0.0055175759520011535,1.8760014999999999,0.0,59,10,90.9427105407507,396.7936,mp-1247015,Fe2NiN2,https://materialsproject.org/materials/mp-1247015,30.144706673800325,56.96923636258545,76.46632187532596,9.204183251801696
-6.1807143425,-49.44571474,4.56229716162402,-1.983051309375,2.9999932,0.0,119,8,68.72076283938438,188.808895,mp-754115,Li2CrCoO4,https://materialsproject.org/materials/mp-754115,13.54669555157274,77.86453521999384,8.666956520103913,75.34505882654192
-5.49771546142857,-153.93603292,4.285093558243061,-1.7173740358035714,9.00000015,0.2845999999999997,2,28,245.3431693502705,633.11877,mp-1174298,Li4Co3O7,https://materialsproject.org/materials/mp-1174298,7.290574461265301,84.13780735720451,11.291539226734299,92.06764393891973
-3.5432407175,-14.17296287,10.538267916572574,-0.4771633899999999,1.5e-06,0.0,225,4,68.97490768205924,437.735,mp-1185884,MgHgPd2,https://materialsproject.org/materials/mp-1185884,88.04382221652858,1.2403219259568579,65.26632269232756,48.73792633558708
-7.090759296,-35.45379648,7.430501452069743,0.08987861104800032,2e-07,0.0,139,5,45.71720639899945,204.57319,mp-1245878,Co2NiN2,https://materialsproject.org/materials/mp-1245878,30.067118819833965,56.92168491252928,76.54537118469506,9.260797915998893
-5.435809380625,-86.97295009,4.0801987610938975,-1.744611393125,7.9999993,0.0,2,16,138.16793741512848,339.49978500000003,mp-1174153,Li5Co3O8,https://materialsproject.org/materials/mp-1174153,7.134006702472117,85.7627079555832,-5.06422527090309,94.61390135499892
-5.8500922808333335,-140.40221474,4.17480314014122,-1.9026934440383327,10.0000006,0.3047999999999997,12,24,209.71726591678944,527.2554749999998,mp-1174508,Li7Mn2(CoO4)3,https://materialsproject.org/materials/mp-1174508,9.670224736628855,84.90736180673714,8.189012688150553,93.05411932169659
-5.597484724,-83.96227086,4.607319066897627,-1.5655369346666674,8.4759609,0.0,12,15,138.59728529507714,384.55098,mp-1177904,Li3(CoO2)4,https://materialsproject.org/materials/mp-1177904,4.295685273316387,81.07316909618898,14.052556888463993,91.81590394122296
-4.28960953,-8.57921906,14.986628004805555,-0.06372774000000002,2e-07,0.0,166,2,33.61565002311473,303.386569,mp-1219920,PdAu,https://materialsproject.org/materials/mp-1219920,63.63361483558243,58.405164168966095,57.6191120528696,38.00681770485603
-3.868983935,-15.47593574,5.53473839856204,0.5304508462499999,3.74e-05,0.0,221,4,68.08447310559212,226.93218199999998,mp-1183420,BeGe3,https://materialsproject.org/materials/mp-1183420,48.628226176118545,36.24097571672506,57.63828287737056,34.35770770689497
-2.9825731833333333,-17.8954391,10.951815657761005,-0.35402492150000003,8.5e-07,0.0,227,6,126.42958680885573,833.84581456,mp-1052,NaAu2,https://materialsproject.org/materials/mp-1052,87.55742405178707,1.239669803311312,60.50787074115907,24.07696868202728
-6.142922385,-61.42922385,4.8994362963130715,-2.03759418025,2.00000005,0.21999999999999972,148,10,93.89953581526731,277.05147719999997,mp-1178579,AlCuO3,https://materialsproject.org/materials/mp-1178579,13.251935175412962,54.244940517684,7.058616944926793,49.94256423458024
-4.15106053375,-33.20848427,5.8680558240103045,0.9856307683333334,1.6e-05,0.0,194,8,129.452331930499,457.4620000000001,mp-976080,Ge3B,https://materialsproject.org/materials/mp-976080,49.751566714866904,37.94450475060289,77.9134976710617,15.151956259923766
-6.444851290833332,-154.67643098,4.772035773970993,-1.611758341666666,1.9964663,0.0,8,24,244.79226731755853,703.480875,mp-867562,V3Co5O16,https://materialsproject.org/materials/mp-867562,0.6833263402255061,72.31128883805283,2.4989595546087844,57.91078488161274
-5.7858827834375,-185.14824907,4.264436059587124,-1.850533820059999,14.0000005,0.0,2,32,281.5312838166769,723.001465,mp-1175680,Li9Mn2Co5O16,https://materialsproject.org/materials/mp-1175680,10.04596561939644,85.42656403468966,10.349722167073708,94.12123822410427
-5.855599415384615,-76.12279240000001,5.319760558116929,-1.2408845515384614,4.8976717,0.0,216,13,131.93176161075357,422.661175,mp-761471,Co5O8,https://materialsproject.org/materials/mp-761471,1.4910849622105928,65.77101255987371,4.3122048997667335,57.618573038481884
-6.717453661666667,-40.30472197,5.276437110959139,-0.05859891896777706,0.021778,0.0,123,6,68.28514371292658,216.9791,mp-1232316,TiCu2N3,https://materialsproject.org/materials/mp-1232316,27.045518131850805,56.44168214486173,57.817281920440294,33.76368618026781
-6.45820951125,-154.99702827,4.7671452417033775,-1.6735068526388883,3.00000015,0.9221,186,24,245.68526118551358,705.3235699999999,mp-1101280,TiCo3O8,https://materialsproject.org/materials/mp-1101280,0.6599044073082353,72.31087738996784,2.5449906439743195,57.907641967269676
-7.108648344166667,-170.60756026,4.114499558676807,-1.7921841490299997,22.9999946,0.9599,10,24,279.5020318192068,692.552815,mp-769632,Mn7CrO16,https://materialsproject.org/materials/mp-769632,6.333120967657484,70.97785962889013,16.155025042000734,84.08028014425562
-5.805892785,-185.78856912,4.3049649001247765,-1.8705438216224997,13.9999999,0.5176000000000003,1,32,278.88082399345365,723.001465,mp-1175784,Li9Mn2Co5O16,https://materialsproject.org/materials/mp-1175784,18.586471769871718,88.08422960598824,10.770747910125158,92.17050314348064
-6.329100496451613,-196.20211539,2.3836253550295163,0.004901898956989632,0.0001047,0.1604000000000001,44,31,250.4426112275657,359.49853856,mp-29953,Na2B29,https://materialsproject.org/materials/mp-29953,6.2688905565683015,58.0130539414328,2.3006856725738998,53.81258748724261
-2.9332463925,-11.73298557,5.3167386779611014,-0.1832517425,4.6e-06,0.0,221,4,67.49609369028036,216.11,mp-867205,LiGa3,https://materialsproject.org/materials/mp-867205,48.538461161451146,36.25135563986381,57.701801725391334,34.2526854280303
-9.457512086,-47.28756043,10.088312125520387,-0.030178063750000206,1e-07,0.053499999999999666,221,5,67.17783323801001,408.12708,mp-22351,NbRu3C,https://materialsproject.org/materials/mp-22351,67.98342395866047,58.32191727873294,57.5348834669158,41.448258678306594
-5.6155374625,-22.46214985,6.344996728602245,-1.1685082143750003,0.0,0.10160000000000036,166,4,40.42819129631504,154.477995,mp-504711,CoCuO2,https://materialsproject.org/materials/mp-504711,24.57917713534641,50.404079414767466,46.7797688250307,27.996191967263456
-8.02659273,-32.10637092,12.297077800096927,0.05438881499999937,0.8704968000000001,0.0,221,4,64.57075326658675,478.17699999999996,mp-973652,LuRu3,https://materialsproject.org/materials/mp-973652,61.958912711025725,55.163132523542785,81.14473579958245,16.306059820445732
-5.498683566666667,-131.96840559999998,4.278869170402723,-1.738151793958334,12.0000007,0.06190000000000007,2,24,207.71761649793626,535.245775,mp-1174229,Li7Co5O12,https://materialsproject.org/materials/mp-1174229,7.877486424611174,85.29231249893591,-5.073666878951066,94.72548138627586
-6.090211929736843,-231.42805333,4.583104190456414,-1.8501685744431584,9.00000045,0.0,2,38,343.7912848975473,948.86735,mp-778482,Li4Mn2Co3O10,https://materialsproject.org/materials/mp-778482,4.047369985602892,81.04007255150954,14.198881892752578,92.35514750342104
-5.612911716666668,-252.58102725,4.36108865556906,-1.3009241083333345,13.000000300000002,0.4038,1,45,472.8608577539288,1241.878735,mp-771244,Li4Co13O28,https://materialsproject.org/materials/mp-771244,4.728357462282416,76.8180828661185,18.25967902161643,92.23510024097422
-4.66623869625,-37.32990957,4.114912257302866,0.5647096137500007,1.6e-06,0.0,194,8,128.4700294126196,318.3562,mp-978510,Si3As,https://materialsproject.org/materials/mp-978510,49.46501975785913,37.718905982588375,77.80375476289495,15.161118250921257
-5.525735495,-22.10294198,16.219217542299965,-0.58203008,1.2e-06,0.0,221,4,62.40702999176529,609.5569999999999,mp-30777,MgPt3,https://materialsproject.org/materials/mp-30777,57.35487173013564,58.01148992323176,80.79986139354325,12.8417157500992
-4.475452715,-8.95090543,15.14986266299886,-0.032701478333333256,0.0,0.0,187,2,33.2058426234148,302.9522,mp-1183209,AgPt,https://materialsproject.org/materials/mp-1183209,63.5750846369359,58.499928081518185,83.23165911129395,17.463918955297952
-4.7164805875,-56.59776705,4.523438146896472,-0.5324397033333336,0.939532725,0.0,227,12,140.29670822654728,382.1792,mp-504100,CuO2,https://materialsproject.org/materials/mp-504100,5.810299555149728,71.08601565877196,16.33210120986257,84.2867453354569
-5.065951290625,-81.05522065,5.280261444024862,-1.3641850568749998,2.0000001,0.0,12,16,139.16546333228212,442.52499500000005,mp-756787,Li3Co(NiO2)4,https://materialsproject.org/materials/mp-756787,10.951512204828598,79.65285798019066,28.894415626005745,77.93268936732106
-5.500983995,-22.00393598,8.094493524672707,0.3707405144049991,0.0002987,0.0,221,4,68.36775696900001,333.2667,mp-999294,Pd3N,https://materialsproject.org/materials/mp-999294,49.11351436625758,35.43925942152237,57.84602480723228,34.20390166010741
-4.643376618235294,-78.93740251,4.206014207790553,-0.9367744203823534,2.0000004000000002,0.04809999999999981,2,17,197.1796745007105,499.44053856,mp-760161,Na2(NiO2)5,https://materialsproject.org/materials/mp-760161,6.979449106385124,74.27375320738227,18.367560095386274,91.3895845782929
-5.40179758,-43.21438064,4.573780531377044,-1.6439609031250004,8.2e-06,0.0,10,8,69.85853361497468,192.418,mp-755008,Li2FeNiO4,https://materialsproject.org/materials/mp-755008,12.186841774447052,79.25694391847075,23.85942707913888,84.17237383146963
-9.7390065175,-38.95602607,12.777079388315025,-0.07804199749999974,9.22e-05,0.0,221,4,62.75933021951018,482.904,mp-1186016,Mo3Pt,https://materialsproject.org/materials/mp-1186016,62.236229722756356,56.45827015369481,81.17821421754175,14.899146176725823
-3.807059855,-15.22823942,16.503190598137227,0.09272048749999984,8.65e-05,0.0,221,4,65.36158616565639,649.593107,mp-976784,NiAu3,https://materialsproject.org/materials/mp-976784,63.254688854656955,55.86653026948932,80.49218665005787,15.69393189492657
-5.319543775,-10.63908755,10.321973381318069,-0.02620648430999939,0.42527429999999994,0.0,225,2,16.716989816404993,103.91344,mp-24722,HRh,https://materialsproject.org/materials/mp-24722,68.68363664906957,57.674722799133605,57.615254840534114,41.46038760294271
-7.8088029325,-31.23521173,10.635475477857916,-0.40036939500000013,8.1e-06,0.0,225,4,71.42744702623851,457.48088,mp-977558,MgPaRu2,https://materialsproject.org/materials/mp-977558,87.77913538948145,0.8131988373520256,66.04946605691408,47.55508773208732
-9.5679243325,-38.27169733,11.399550071633813,-0.11656658593750002,0.0492365,0.0,225,4,70.51683232487376,484.095912,mp-1186344,NpScRu2,https://materialsproject.org/materials/mp-1186344,88.06527036651497,0.8534653563501379,65.68756908483925,48.0707974431405
-6.70176596,-80.42119152,3.5085860025859703,-2.870447560208333,1.9999999,1.983,12,12,104.93723681657093,221.7239772,mp-755151,Li3Al2VO6,https://materialsproject.org/materials/mp-755151,5.538293399278837,83.58101190781744,13.3749978630781,95.51079301294293
-10.220266683333334,-61.321600100000005,13.74324072059244,0.1995180537500012,2.4196146,0.0,227,6,83.82321188982614,693.75218,mp-1859,NpMn2,https://materialsproject.org/materials/mp-1859,71.7589971866385,50.1717930046313,71.54515150497066,22.57853085658096
-3.09994655875,-24.79957247,6.206657959386003,-0.16801767374999965,2.6e-06,0.0,47,8,131.01714212476884,489.7076,mp-1222558,Li3Ag3Ge2,https://materialsproject.org/materials/mp-1222558,47.553295639668455,37.5796882606733,57.03371601582806,32.57823306846128
-4.4838868875,-17.93554755,10.055944508217463,-0.44326151624999977,9.75e-05,0.0,225,4,70.80140935177673,428.7614,mp-861905,LiBiPd2,https://materialsproject.org/materials/mp-861905,87.5515535622039,1.0707583570994104,65.62073520911964,47.403583511406296
-7.24362477,-28.97449908,12.442280215139267,-0.6019541250000007,5.28e-05,0.0,221,4,64.55210145296104,483.6835,mp-865802,LuRh3,https://materialsproject.org/materials/mp-865802,61.9640274886171,55.23128619599,81.21467478947675,16.362112392360142
-7.253355812833332,-435.20134877,4.100545242060128,-1.9289883741768885,27.0000027,1.5893000000000002,12,60,698.3844442959056,1724.59481,mp-771265,TiMn9O20,https://materialsproject.org/materials/mp-771265,6.342623578314233,70.98621414594602,16.13445403011684,84.09482919213352
-5.66975242625,-45.35801941,17.000788587473554,0.034829685000000936,5.35e-06,0.0,194,8,128.963904272661,1320.3472,mp-1183320,AsPt3,https://materialsproject.org/materials/mp-1183320,62.984150210316926,56.02482050971289,81.23850526488893,15.128483298562815
-7.0167839433333326,-21.05035183,10.90519030527067,0.1805894400000009,7.1921327999999995,0.0,139,3,46.72309241230254,306.84265899999997,mp-30409,Mn2Au,https://materialsproject.org/materials/mp-30409,51.93217485885907,18.161049815145045,70.62067689123519,15.387511630670545
-3.783663645,-15.13465458,6.100555951143058,-0.5792147000000001,1e-07,0.0,216,4,70.61438407270465,259.426,mp-10179,LiMgSbPd,https://materialsproject.org/materials/mp-10179,86.11047036294491,0.40672837850923216,64.99831605190616,45.87817365641995
-8.0281453925,-32.11258157,12.376502882288444,0.0528361524999994,0.2014787,0.0,139,4,64.15637632714402,478.17699999999996,mp-1185519,LuRu3,https://materialsproject.org/materials/mp-1185519,61.96122685586731,55.2502011322882,81.38451641034764,16.84393730404858
-5.472086878333332,-131.33008508,4.251757518014118,-1.7115551056250002,14.0000003,0.2604000000000002,10,24,209.04214354107586,535.245775,mp-1174431,Li7Co5O12,https://materialsproject.org/materials/mp-1174431,7.294009711830269,84.21805690160663,12.355806496579707,93.44144188011849
-5.483913814,-109.67827628,4.227537136333439,-1.7511155553750002,5.0,0.6034000000000002,12,20,171.7961434286139,437.37278,mp-1173970,Li3Co2O5,https://materialsproject.org/materials/mp-1173970,7.285702658321741,85.6647345030079,-5.096341867769438,94.6819386662686
-8.572559595,-154.30607271,6.53956639624842,-0.2694020871688881,5.8691051,0.0,2,18,167.7653274572836,660.6966,mp-1245944,V(FeN)4,https://materialsproject.org/materials/mp-1245944,29.518159872532262,57.37151928360918,83.04046528295017,22.467274282985983
-5.194958445,-103.8991689,4.731347686155207,-1.5390197808750004,7.0000214000000005,0.2230000000000003,2,20,171.49766467029747,488.64559,mp-755607,Li5Co2Ni3O10,https://materialsproject.org/materials/mp-755607,4.248517426597723,81.06685136233668,14.23067143330234,92.18073090365688
-6.066947966785714,-169.87454307,4.705823190453907,-1.7127369874999994,1.00001395,0.0,186,28,261.59792737668056,741.34577,mp-765293,Li2CrCo3O8,https://materialsproject.org/materials/mp-765293,-0.8717170771843961,72.1024426580908,2.9726042477008288,58.41562623474422
-9.6032702725,-115.23924327,5.741137609586986,-0.4753088520833337,0.0,0.0,60,12,131.7682648430045,455.5748,mp-20648,V2C,https://materialsproject.org/materials/mp-20648,30.870652076007136,58.37188577433186,82.8802216842195,20.476023879281932
-5.81205850875,-139.48940421,4.905401215130265,-1.1877623683333336,13.0000026,0.0,8,24,243.11667161910427,718.191375,mp-771370,Fe3Co5O16,https://materialsproject.org/materials/mp-771370,0.7746538462427776,72.27009155932683,2.4223424271157623,57.78063261941119
-5.7890797134375,-185.25055083,4.294146693630369,-1.8537307500599995,14.000353099999998,0.0,2,32,279.58340603280664,723.001465,mp-1175735,Li9Mn2Co5O16,https://materialsproject.org/materials/mp-1175735,9.48509329375777,84.82853455019894,10.654825408215173,93.19985287185635
-9.088620599999999,-27.265861800000003,6.765408564667632,-0.331630364126666,4.7876857,0.0,164,3,30.406472456586624,123.88278999999999,mp-1221793,Mn2N,https://materialsproject.org/materials/mp-1221793,30.86287828652823,57.67874485900614,85.84116117740251,17.859065244676255
-10.49977917,-62.99867502,11.337187726026135,-0.12349088333333333,5.7999999999999995e-06,0.0,227,6,83.46939970210252,569.8801599999998,mp-2385,TaCr2,https://materialsproject.org/materials/mp-2385,71.11345235489009,49.913812798895705,71.96309703490245,22.48407117820804
-5.7011446126315795,-108.32174764,5.044392240899372,-1.1027792086842112,14.2381161,0.0,5,19,199.00070993804516,604.525165,mp-756900,Co7O12,https://materialsproject.org/materials/mp-756900,0.9904938669776194,72.55892629516153,14.158169663426838,91.71146891981985
-5.146060259473684,-97.77514493,4.694026894628356,-1.398123384078947,6.0000007,0.0,2,19,170.40577214364762,481.70459000000005,mp-779900,Li4Co2Ni3O10,https://materialsproject.org/materials/mp-779900,4.112541882727665,80.92513195230063,14.270621254083945,92.18533773035949
-5.38897195975,-215.55887839,4.8340422565208625,-1.3940355830000002,3.000000025,0.0,164,40,410.91714802877226,1196.2325544000003,mp-1261478,Al(NiO2)3,https://materialsproject.org/materials/mp-1261478,2.4417395883142983,67.75372385568485,11.381044648869992,53.85188180021321
-5.7986190896875,-185.55581087,4.273388429909246,-1.8632701263099989,18.0000001,0.22420000000000015,2,32,280.94150070865203,723.001465,mp-1175534,Li9Mn2Co5O16,https://materialsproject.org/materials/mp-1175534,11.03532866539176,85.71622849170404,9.229792690919462,95.36109136211756
-2.9356152975,-11.74246119,5.721215815661446,0.2697613175,3.9e-05,0.0,139,4,63.325415816788045,218.181182,mp-1183428,BeGa3,https://materialsproject.org/materials/mp-1183428,58.192846129370146,54.32032817848593,78.156086241506,15.191445946025476
-4.824334430526316,-274.98706254,4.568760426452129,-1.358390468684211,13.0405291,0.0,8,57,499.31665295261337,1373.8058,mp-705910,Li15(NiO2)14,https://materialsproject.org/materials/mp-705910,12.013754597349065,80.56094693321972,22.605403337461308,83.92351996498356
-5.5490101668181815,-122.07822367,4.150586023907806,-1.5269779243181822,2.00000035,0.0,64,22,224.2505793832496,560.5236,mp-777153,Li2Fe2NiO6,https://materialsproject.org/materials/mp-777153,9.940446181788646,74.25318231918017,20.82641059047564,84.54105265288304
-8.6582221575,-69.26577726,12.98668906244853,-0.4415924424999993,0.1319023,0.0,25,8,129.88632756175213,1015.8107150000001,mp-1220433,Nb4CoPt3,https://materialsproject.org/materials/mp-1220433,62.614211126694244,58.03817107588471,77.55016332457315,14.660587107290475
-5.490265975,-109.80531950000001,4.23461473997995,-1.7574677163749997,5.000000099999999,0.9399000000000002,2,20,171.50900868653045,437.37278,mp-1173960,Li3Co2O5,https://materialsproject.org/materials/mp-1173960,7.392733047984429,85.60164543124155,-5.100883587144785,94.68821216305085
-10.490651423333334,-125.88781708,11.307265396272037,-0.11436313666666703,0.000444975,0.0,194,12,167.380568269573,1139.76032,mp-570963,TaCr2,https://materialsproject.org/materials/mp-570963,71.11691701771582,49.92456270847786,71.09342882305144,21.376604422394134
-5.5154882225,-176.49562312,4.333416613922348,-1.7202895571875,18.000000600000003,0.0,2,32,280.111623655384,730.991765,mp-1175488,Li9Co7O16,https://materialsproject.org/materials/mp-1175488,9.24315775280232,85.69856473047555,10.166189747709767,95.26596190489805
-7.9874352875,-31.94974115,12.09983529592313,0.08162361999999845,1.6e-06,0.0,221,4,64.79541861855928,472.14421,mp-1187581,TmRu3,https://materialsproject.org/materials/mp-1187581,61.96330026700832,55.13245699850379,81.20199138204019,16.420239710533313
-9.165611425,-109.9873371,6.9877703707155225,-0.4086211891266665,4.043191475,0.0,60,12,117.75556337181548,495.53115999999994,mp-9981,Mn2N,https://materialsproject.org/materials/mp-9981,31.310477508071795,57.55877771545754,86.069606835647,17.46055264734941
-7.410994355789473,-140.80889276,7.473069850782691,0.12477152689263292,1.0266361,0.0,12,19,168.2589505601874,757.23055,mp-1247046,Fe(Co5N4)2,https://materialsproject.org/materials/mp-1247046,30.203902727198468,56.886806928337094,76.27253857376375,9.06488054813644