energy_per_atom,energy,density,formation_energy_per_atom,total_magnetization,band_gap,sgr,num_sites,cell_volume,weight,mp_id,formula,URL,tsne_cry_0,tsne_cry_1,tsne_xrd_0,tsne_xrd_1
-5.684568893333334,-34.10741336,8.201023441460006,0.27914447365111056,1.0587968,0.0,63,6,73.21986155476176,361.61619,mp-1247213,CoAgN,https://materialsproject.org/materials/mp-1247213,23.326509666478234,51.66458018020466,72.08222079624731,8.471969381926419
-4.1172845816666666,-24.70370749,9.848162788604084,-0.16657401166666652,6e-07,0.0,216,6,81.93252185564923,485.9174,mp-1077341,YbCu4Ni,https://materialsproject.org/materials/mp-1077341,66.48837763388799,48.83683037919685,73.76731017473747,22.14416119434587
-8.59180927,-42.95904635,11.54509932751826,-0.2819293177500001,2.7300000000000003e-05,0.0,221,5,70.50401124203931,490.1877,mp-1207093,LuRu3C,https://materialsproject.org/materials/mp-1207093,50.86080637501321,30.44048270072216,55.1287284691193,38.20887752767013
-8.53967054125,-68.31736433,11.175401801148258,-0.5011823087499998,8.35e-06,0.0,194,8,119.35328741892948,803.24576,mp-1186230,NbRh3,https://materialsproject.org/materials/mp-1186230,65.479431751011,62.91744253461216,89.82000515013904,15.929187672608705
-3.43461716,-17.1730858,16.608849892519775,0.004138598000000116,0.0,0.0,166,5,85.12349335338372,851.412276,mp-1225742,CuAu4,https://materialsproject.org/materials/mp-1225742,51.912377337516965,27.641139383610014,52.46529529372997,37.613869537224396
-7.16889093,-28.67556372,13.99453817996747,0.96997900625,0.0375097,0.0,225,4,72.76307042937884,613.225912,mp-631325,ScHgW2,https://materialsproject.org/materials/mp-631325,92.5843850201762,-6.732339997714067,72.05949818457748,50.492840267773154
-2.854062455,-11.41624982,11.159683172085769,-0.3852351112500001,2e-07,0.0,139,4,58.22631182816933,391.311,mp-865355,Zn3Pt,https://materialsproject.org/materials/mp-865355,55.351419546273725,57.34903034870573,81.09626847096911,9.189935068765493
-5.789479666875,-185.26334934,4.176519909020122,-1.854130703497499,20.0000003,0.1391,10,32,287.45754474120696,723.001465,mp-1100721,Li9Mn2Co5O16,https://materialsproject.org/materials/mp-1100721,13.433834995476627,89.1283579626518,2.009599003722028,94.40542906492928
-7.627533847777778,-137.29560926,4.373627557818665,-2.500069999024444,6.9999997,0.4536000000000002,38,18,190.07873618419902,500.6408032,mp-780119,V6O11F,https://materialsproject.org/materials/mp-780119,-13.548200270978825,88.15914336442165,-15.562100676204825,87.51295485564349
-7.9605042525,-31.84201701,13.670930141355765,-0.3524651724999988,4.3862422,0.0,123,4,60.737837482938616,500.04409000000004,mp-1670,MnPt,https://materialsproject.org/materials/mp-1670,55.442188821904885,40.65417138362629,73.87151691139869,15.695805532971168
-10.714885715,-42.85954286,13.75785206871197,-0.2588365611899999,1.55e-06,0.0,186,4,47.75922398995901,395.6934,mp-972036,WN,https://materialsproject.org/materials/mp-972036,50.01662253861947,19.31573366852111,48.380633636467294,-2.200215424933099
-7.680204788333333,-92.16245746,5.977219846628383,-0.17176589119000005,1.6e-06,0.0,36,12,117.46027205980567,422.806,mp-1246517,CrNi2N3,https://materialsproject.org/materials/mp-1246517,21.807879921499925,52.050948604834325,9.585603934979165,46.065188192948035
-5.43577129,-21.74308516,16.6923379615329,-0.4161564524999992,7.840000000000001e-05,0.0,221,4,58.91083669530588,592.193,mp-861931,LiPt3,https://materialsproject.org/materials/mp-861931,56.084875361998684,58.06832408878371,81.31710186495714,11.093252082725826
-5.29963999,-15.89891997,8.635190296254661,-0.7611212799999993,0.0,0.12739999999999976,216,3,69.34928973740101,360.632481,mp-2894,ScSnAu,https://materialsproject.org/materials/mp-2894,86.17560040550491,2.2136137597228323,57.668594715617644,70.0299541536061
-6.398766285,-76.78519542,2.2793613457690274,0.27976030833333354,2.525e-06,0.0,1,12,94.51114503505731,129.732,mp-632401,B,https://materialsproject.org/materials/mp-632401,5.720979998743767,58.21042976784694,1.159668084099907,54.737952103400495
-5.976295225,-35.85777135,10.462486531993646,-0.2156122783333328,2.2535578999999997,0.0,166,6,91.23867664228771,574.863585,mp-1225055,Er2Co3Cu,https://materialsproject.org/materials/mp-1225055,80.19682139043535,29.19958065492239,70.84850198004439,26.461201013403684
-5.234306361956521,-240.77809265,4.8300179834984505,-1.4137056213043475,16.00000075,0.0,4,46,429.6852579348516,1249.8276,mp-758641,Li4Fe2Ni5O12,https://materialsproject.org/materials/mp-758641,22.221941660442308,77.67780106197567,28.677755797490395,76.95516325101687
-5.711633010625,-91.38612817,3.948451722647529,-1.880284725060001,10.000000199999999,0.2633000000000001,5,16,141.0979755236539,335.504635,mp-1174011,Li5Mn(CoO4)2,https://materialsproject.org/materials/mp-1174011,6.573640344028915,87.60193296679567,-4.417650684439439,94.45649468894828
-6.4854757733333335,-38.91285464,10.294075523228805,-0.21945895166666676,1.87143525,0.0,227,6,91.23596893745476,565.5934199999998,mp-2396,HoCo2,https://materialsproject.org/materials/mp-2396,80.28960966508045,29.175998010079155,71.1563184064649,26.61442395613898
-9.2364071175,-36.94562847,14.723459952225962,-0.4302974137500009,1.34e-05,0.0,225,4,68.88219108857703,610.756,mp-864974,Hf2CuOs,https://materialsproject.org/materials/mp-864974,95.06035429208082,7.752397213033414,64.48371688560388,65.14448045962592
-5.105741694000001,-25.52870847,3.3177373684096367,-1.167237354382,1.1749489,0.0,221,5,63.03338332333806,125.93995459999998,mp-1069166,MnNF3,https://materialsproject.org/materials/mp-1069166,-25.72710245906129,62.50824544258007,-42.497182668263605,65.16242637210124
-3.223423486,-16.11711743,3.551251770829498,-0.057747672190000536,2.0940381,0.0,221,5,60.64456670313244,129.69530959999997,mp-1068795,NiNF3,https://materialsproject.org/materials/mp-1068795,-25.79327179474159,62.52654399076974,-42.45800746156308,65.20097879471943
-5.40509171375,-129.72220113,10.20150343570286,-0.4652895587500001,0.001452775,0.0,62,24,364.0156481796465,2236.3261544,mp-605663,AlPd5,https://materialsproject.org/materials/mp-605663,58.84987724714344,50.51172139148027,77.54464205257389,10.44088005491519
-5.1316396471428565,-35.92147753,6.020855136911347,0.2625929718371438,2.3100000000000002e-05,0.0,221,7,70.86987640236042,256.9631,mp-1147612,Mg(CuN)3,https://materialsproject.org/materials/mp-1147612,29.05851751817555,60.97282918244089,55.130210504884516,37.05788717219696
-6.828953615,-81.94744338,8.462604114980422,0.0955457425400006,8.565e-05,0.0,12,12,179.3785506029645,914.1668,mp-1247118,MgOsN,https://materialsproject.org/materials/mp-1247118,52.018473553796504,18.431006501657173,36.25468424850123,-44.79053267432495
-6.734856457857143,-94.28799041,4.070163078660035,-2.03954411857143,7.0000003,0.6141000000000001,12,14,145.566197476197,356.798695,mp-763336,Li2Cr3CoO8,https://materialsproject.org/materials/mp-763336,12.158324433191725,75.05921672631172,18.25319939141959,79.02781270792504
-5.4901380378125,-175.68441721,4.271845084429303,-1.6949393724999997,21.7791625,0.0,10,32,284.1489660112917,730.991765,mp-1175463,Li9Co7O16,https://materialsproject.org/materials/mp-1175463,5.088844681113283,98.1526670508158,3.360475308119282,87.26887009068645
-9.906204653333333,-59.43722792,9.123786336777886,-0.08123889666666646,2.46e-05,0.0,216,6,87.38896537144777,480.15628,mp-1215213,ZrTaCr4,https://materialsproject.org/materials/mp-1215213,71.64652867633123,48.26275335002044,71.47660809983786,23.28036633324152
-9.038887368333333,-54.23332421,9.495393984192944,-0.3153751600000009,6.1442076,0.0,216,6,86.23147588744875,493.094,mp-1224188,HfZrFe4,https://materialsproject.org/materials/mp-1224188,71.04965490809008,48.122625246892326,73.17030321692755,23.552580523625068
-6.584509967000001,-329.22549835,2.318186528410102,0.09401662633333333,0.0,0.0,134,50,387.2011018404157,540.55,mp-22046,B,https://materialsproject.org/materials/mp-22046,5.747453565516538,58.114696949265735,1.1116513641446757,54.67048136962565
-6.8842957775,-55.07436622,5.921136816895245,0.13941979381000102,2.6821549,0.0,51,8,85.63283848109668,305.34889,mp-1245806,MnGaN2,https://materialsproject.org/materials/mp-1245806,25.4945024396558,52.48294379712284,59.65804118037542,-4.883462922991116
-7.8277828875,-31.31113155,11.074932654384488,-0.3434399275000004,1.39e-05,0.0,225,4,65.98967995653356,440.11688,mp-865029,LiPaRu2,https://materialsproject.org/materials/mp-865029,88.63181361595366,15.927004659315607,47.64240324577248,62.765359516458176
-8.195623604,-40.97811802,7.5222590295437275,-0.1800112614759982,4.5311125,0.0,221,5,56.0136546438125,253.74243500000003,mp-1206774,Mn3AsN,https://materialsproject.org/materials/mp-1206774,49.03120226313428,62.91097624552253,88.77626904039448,9.468309315122674
-6.263610095,-50.10888076,9.60756541271672,-0.3676338468749991,8.3307302,0.0,166,8,134.12571896704588,776.0260900000002,mp-1221819,Mn2SnSbPd4,https://materialsproject.org/materials/mp-1221819,96.28812339003026,9.07431462162457,62.31296593268054,64.63234745633689
-1.7906387558333332,-21.48766507,4.651338120729862,-0.2746559408333331,0.0,0.0,194,12,244.04115324586292,683.5840000000002,mp-13364,CaZn2,https://materialsproject.org/materials/mp-13364,46.10198662122834,13.068820180975385,51.74979259987569,18.474645139878238
-5.78943801625,-185.26201652,4.234754279454452,-1.8540890528724996,16.0000002,0.31000000000000005,1,32,283.5045623389414,723.001465,mp-1175901,Li9Mn2Co5O16,https://materialsproject.org/materials/mp-1175901,19.12924099225468,89.77064375660797,10.24425529937203,89.8802350725506
-5.795806138125,-185.46579642,4.208129278376683,-1.8604571747474996,22.0000017,0.37280000000000013,2,32,285.29830696475733,723.001465,mp-1175628,Li9Mn2Co5O16,https://materialsproject.org/materials/mp-1175628,5.767122958636142,95.4058436441382,2.743527715300278,89.92872785355911
-10.72385879,-85.79087032,18.201141973749415,0.6486284971875005,0.0014765000000000002,0.0,164,8,104.57376747673186,1146.2314,mp-1220045,Os3W3C2,https://materialsproject.org/materials/mp-1220045,64.52964598526653,59.018005734248675,74.58913474412164,10.860806369363956
-5.498725383571428,-76.98215537,6.015385634348184,-1.0713102514285728,1.9999995,0.0,227,14,132.8110820275913,481.11478,mp-1096547,Co2NiO4,https://materialsproject.org/materials/mp-1096547,-7.032516533376362,57.3503607227725,13.742780306244473,53.492359469590454
-8.910657445,-35.64262978,8.371447039987105,-0.17011651624999935,0.0001732,0.0,221,4,69.69470943839647,351.35914,mp-571322,Nb3Ge,https://materialsproject.org/materials/mp-571322,52.41583207053582,30.7863499198168,55.80879829190568,41.393532322669934
-5.811825620714287,-162.73111738,4.193948187221868,-1.8713124258721427,7.00000005,0.3580000000000001,5,28,247.5114577269225,625.12847,mp-1174773,Li4MnCo2O7,https://materialsproject.org/materials/mp-1174773,18.59031906716487,90.69452068591822,9.359630941353855,89.72744212651354
-6.3784592225,-25.51383689,8.23337321064485,-0.5625501375000006,4.2868032,0.0,123,4,59.44827028478751,294.7595836000001,mp-1221718,MnAlPd2,https://materialsproject.org/materials/mp-1221718,56.592960103359005,40.75798139059953,74.21004812225175,13.609844876438014
-7.12489258,-28.49957032,10.831224817957382,-0.6733073249999997,0.0510084,0.0,123,4,69.3494840843433,452.347,mp-1226507,CePdRh2,https://materialsproject.org/materials/mp-1226507,52.297549218943644,30.737874178354534,55.75017989011703,41.338539220790466
-6.473326391590907,-284.82636123,4.007768052700665,-2.0347427056727265,15.999999300000002,0.4550000000000001,1,44,415.4803265822528,1002.77605,mp-758752,Li5Mn5O12,https://materialsproject.org/materials/mp-758752,-11.975303217605251,70.85625454671458,-26.3480324209754,71.71055647948194
-4.727451991666666,-28.36471195,4.645006651684987,-0.5434111075000002,0.98650075,0.0,166,6,68.31244059098998,191.0896,mp-25378,CuO2,https://materialsproject.org/materials/mp-25378,7.2770468682839695,70.17466318923049,14.897458312566421,83.57093768776093
-5.6760891354545455,-249.74792196,10.192484485063844,-0.4530062372727282,0.0,0.0,62,44,660.7634174432568,4055.804,mp-505071,Si2Pd9,https://materialsproject.org/materials/mp-505071,61.11460617279358,40.426487069904155,73.0878055979538,9.298147530315317
-8.079253845,-80.79253845,6.3693308774975845,-1.46006600475,0.08782715,0.0,140,10,138.70758738474206,532.0408,mp-760414,Ti3PdO,https://materialsproject.org/materials/mp-760414,47.552941633158596,35.31157061695432,73.97301256385401,14.66513184210943
-6.124535218333333,-36.74721131,6.553900481179867,-0.4103286305555554,1.25e-06,0.0,70,6,97.87397134878091,386.29400000000004,mp-567889,TiGe2,https://materialsproject.org/materials/mp-567889,63.88214846574722,37.14781311345588,73.65538848896915,2.9663741608945764
-6.909649352727272,-152.01228576,3.933877932816537,-2.191445418496363,2.99999935,1.2489,64,22,226.93497710663087,537.61729,mp-755886,Li2MnCr2O6,https://materialsproject.org/materials/mp-755886,10.907125939898796,73.06789068585194,12.890546964195744,73.18803828719301
-4.57473666,-22.8736833,2.1032982361936825,-1.33642602325,2.9999994,0.0,221,5,62.56273386683458,79.24419999999998,mp-1185356,LiMgO3,https://materialsproject.org/materials/mp-1185356,-25.542501990106928,62.44048553596876,-41.94861991419821,65.33213938033957
-8.71554277,-17.43108554,8.947330703965525,-0.7683128300000011,6.720000000000001e-05,0.0,123,2,36.028579274800656,194.1295,mp-1215257,ZrRh,https://materialsproject.org/materials/mp-1215257,100.84003730312493,4.503602092102415,69.4057167022374,59.61902561141356
-9.435448715,-37.74179486,10.942364561502693,0.042350417499999786,5.2000000000000004e-05,0.0,187,4,60.111935558025806,396.11638,mp-1220372,NbRu3,https://materialsproject.org/materials/mp-1220372,65.36933991331951,62.711849350011995,89.69394179564102,15.968000181510005
-8.239321377857143,-115.35049929,4.426525118192823,-3.0324615704761917,4.495e-05,0.0,74,14,140.08480586813428,373.4262772,mvc-16757,Ti2AlO4,https://materialsproject.org/materials/mvc-16757,20.14641216718755,56.75799239295066,29.11298629839537,76.51198621659289
-7.057508006428571,-197.61022418,3.5913330963525025,-2.8691054676599985,5e-08,5.5699,14,28,222.0737526143391,480.29031439999994,mp-643829,AlSiHO4,https://materialsproject.org/materials/mp-643829,5.85966425128243,61.35794163675824,7.3217560108287,50.57568271712522
-9.23604423125,-73.88835385,12.828467315067105,-0.3014570474999996,2.5e-08,0.0,198,8,110.95357020904991,857.17,mp-7948,ReSi,https://materialsproject.org/materials/mp-7948,55.80941626204796,39.35483132210432,48.507153599897144,-0.2393484408279243
-6.3296344033333325,-18.98890321,8.940083733528509,0.2509928416666665,3.05e-05,0.0,216,3,66.10395410078421,355.8934,mp-636297,HfNiSn,https://materialsproject.org/materials/mp-636297,88.56700742590849,15.919342908276985,47.69061996233877,62.83404628440972
-11.404160495,-68.42496297,18.100962656082086,-0.0330978329166669,3.5000000000000004e-06,0.0,194,6,70.53240586359597,768.8494,mp-974437,Re2C,https://materialsproject.org/materials/mp-974437,64.57222629826366,59.31079135456864,75.09511852052648,9.998409507984931
-5.0010203025,-20.00408121,4.74568147088532,-1.3859964768749995,2.0001403000000004,0.0,166,4,35.860323325468386,102.4858,mp-25372,LiCuO2,https://materialsproject.org/materials/mp-25372,14.009755221469016,78.32595686845157,23.195578177638268,80.68751206904223
-5.272451771111111,-94.90413188,4.428411840930538,-1.36775726875,11.0000005,0.0,1,18,175.70798904755546,468.58720000000005,mp-752981,Li3Fe2Ni3O10,https://materialsproject.org/materials/mp-752981,2.791449404973392,82.1909736973205,8.22286868237094,83.95191036021527
-5.8143465192857136,-162.80170254,4.174047928516853,-1.873833324443572,8.0000001,0.4225000000000003,1,28,248.6914973732261,625.12847,mp-1174670,Li4MnCo2O7,https://materialsproject.org/materials/mp-1174670,16.957933008054276,89.94722271348127,7.875587972877338,91.56632718312288
-9.658872192631579,-183.51857166,5.893266728606796,-1.2579440450747357,0.2893966,0.0,2,19,177.37059769929505,629.489712,mp-675671,Sc(VN)9,https://materialsproject.org/materials/mp-675671,29.524829393740305,59.78762246383258,83.05222892589524,22.241082694816214
-6.6789767175,-26.71590687,20.927997716657366,0.07960168000000056,1.5e-06,0.0,221,4,61.68854012546986,777.4689999999998,mp-1184759,IrPt3,https://materialsproject.org/materials/mp-1184759,67.66805284843429,63.40119531867808,89.24761931282791,17.317141175534605
-1.909762035,-7.63904814,5.334858083227051,0.3465197081900002,2.295e-05,0.0,186,4,41.34615019435515,132.83388000000002,mp-971820,ZnH,https://materialsproject.org/materials/mp-971820,29.832664306850425,52.60060980190485,63.72012869584343,-16.196558206066932
-5.813649592142857,-325.56437716,2.462195676235855,-2.0784269153014283,2.9125e-06,3.8913,1,56,420.8534863882042,624.0284687999998,mp-626568,Al(HO)3,https://materialsproject.org/materials/mp-626568,-9.85768824602244,77.68146191222274,-27.63107007734386,75.59031246159971
-3.3242385100000003,-9.97271553,1.8269980435853463,-1.2771646476875005,0.0,2.4399,225,3,70.93384888543338,78.04453856,mp-648,Na2S,https://materialsproject.org/materials/mp-648,85.69162535687994,-0.044453363403190664,65.26577486120601,46.65758663013008
-6.829599816428571,-191.22879486,4.370677297656342,-2.2156009337933327,10.0,0.2951000000000001,1,28,273.96628498032743,721.10212,mp-867698,Li4Ti2Mn3Co3O16,https://materialsproject.org/materials/mp-867698,-2.7500688914495246,72.35128919107454,2.5999107065726803,60.84960183655247
-5.319511967777777,-287.25364626,4.244948003423684,-0.2539569581481479,0.0002395,0.0,43,54,839.7023174611489,2146.5876984,mp-568153,Al22Mo5,https://materialsproject.org/materials/mp-568153,46.81356168919655,38.53413168366652,66.20730646917853,-2.810910471968617
-5.51448637875,-88.23178206,5.238275710220378,-0.3869042137500003,1.7725e-05,0.0,194,16,230.79531670835652,728.0584632,mp-1188814,Al3Ru,https://materialsproject.org/materials/mp-1188814,55.54272173860029,56.75411553290454,81.02648148062407,9.138057356079015
-8.827657225,-35.3106289,13.835648076342174,-0.07754725499999893,4.5e-06,0.0,187,4,59.11608138214485,492.5565,mp-1219506,Rh3W,https://materialsproject.org/materials/mp-1219506,62.00781023015693,61.2817935409389,85.20985084178146,13.04404122548831
-5.8045545075,-185.74574424,4.221418777129934,-1.8692055441224988,21.999999399999997,0.6885000000000003,1,32,284.40015596508545,723.001465,mp-1175622,Li9Mn2Co5O16,https://materialsproject.org/materials/mp-1175622,10.444434790567668,87.2285089476139,8.046898170784942,95.67400686637366
-6.236262356979167,-598.68118627,3.622415823457356,-2.2240145238,36.980878600000004,0.0,5,96,841.9692523900273,1836.730525,mp-781106,Li32Mn5Cr11O48,https://materialsproject.org/materials/mp-781106,-10.893973143119421,98.83963759236195,-12.587746664808845,96.96400344156685
-5.38594658875,-43.08757271,3.3516808371364384,-1.841395390625001,3.6281193,0.0,65,8,69.69062143297252,140.6656,mp-760335,Li3FeO4,https://materialsproject.org/materials/mp-760335,1.807831083953054,91.64320993553851,-5.899815239410403,92.8461548436582
-8.703986951538461,-226.30366074,4.605596189447719,-0.4925264318676914,6.0000003,0.0,15,26,288.57672883112906,800.3833999999998,mp-1246195,Cr5(SiN3)2,https://materialsproject.org/materials/mp-1246195,25.017282857302785,53.900186674173405,56.60706130374522,9.227092816990636
-5.290892816875,-84.65428507,3.9098508671293395,-1.5996948293750002,9.995517699999999,0.0,166,16,144.187762199232,339.49978500000003,mp-1174225,Li5Co3O8,https://materialsproject.org/materials/mp-1174225,6.572010550667581,94.99023190159728,2.9689678148123884,89.41796516664706
-4.54475768,-22.7237884,11.695066834328005,-0.4709111180000001,1.2e-05,0.0,164,5,104.30624535314793,734.6220000000002,mp-1069815,In3Pt2,https://materialsproject.org/materials/mp-1069815,62.51182035986022,17.758460761969637,54.244343789615726,27.815449541488217